Membrane in water
40347
    1TMC1    C1    1   1.502   4.396  11.753  0.4413 -0.2748 -0.3509
    1TMC1    C2    2   1.632   4.402  11.722  0.2598 -0.8444  0.0463
    1TMC1    C3    3   1.691   4.523  11.731 -0.9879 -0.9845 -0.5432
    1TMC1    C4    4   1.427   4.513  11.742  0.1356 -0.2822 -0.3904
    1TMC1    C5    5   1.492   4.632  11.735 -0.0582 -0.4852  0.4610
    1TMC1    C6    6   1.625   4.642  11.737  0.0238  0.0736 -0.0433
    1TMC1     C    7   1.434   4.268  11.766 -0.7800 -0.1999 -0.1500
    1TMC1     O    8   1.314   4.270  11.741  0.1811  0.0756  0.1211
    1TMC1     H    9   1.686   4.310  11.705  0.5431 -0.3560 -1.6463
    1TMC1    H1   10   1.325   4.517  11.779  0.4701  0.8173  0.3988
    1TMC1    H2   11   1.681   4.735  11.739  0.0097  0.1185 -1.5388
    1TMC1    C7   12   1.417   0.018  11.754 -1.1658  0.0335 -0.4417
    1TMC1    C8   13   1.837   4.538  11.736  0.3695 -0.1168 -0.2373
    1TMC1    O1   14   1.303   0.023  11.714 -0.1429  0.1551  0.0083
    1TMC1    O2   15   1.900   4.642  11.732  0.9343 -0.1014 -0.1336
    1TMC1    O3   16   1.482   0.128  11.804 -0.7565  0.3335  0.4771
    1TMC1    H3   17   1.563   0.106  11.855  1.7020  1.3275 -3.0012
    1TMC1    O5   18   1.884   4.437  11.819 -0.3225 -0.5966  0.3422
    1TMC1    H5   19   1.807   4.385  11.849 -0.0237 -2.1094 -1.4560
    2MPD2     C   20   1.392   3.787  11.943 -0.1517  0.3344  0.1262
    2MPD2    C1   21   1.295   3.872  11.907 -0.4936  0.4134 -0.0457
    2MPD2    C2   22   1.334   3.997  11.849  0.2561  0.4059 -0.0385
    2MPD2    C3   23   1.468   4.038  11.856 -0.3768  0.7741  0.0902
    2MPD2    C4   24   1.556   3.949  11.915  0.0015 -0.2260  0.7372
    2MPD2    C5   25   1.521   3.823  11.948 -0.0158  0.3152 -0.2621
    2MPD2     H   26   1.253   4.066  11.826  1.7158  3.2110  3.2044
    2MPD2    H1   27   1.662   3.969  11.925  0.3253 -2.2538  1.3301
    2MPD2    H2   28   1.371   3.683  11.966  2.0120 -0.4022 -1.2048
    2MPD2    H3   29   1.600   3.753  11.974 -0.9807 -0.5838  0.2487
    2MPD2     N   30   1.517   4.169  11.816  0.1247  0.0424  0.5075
    2MPD2    H5   31   1.617   4.181  11.833  0.1873 -0.9431  0.8552
    2MPD2    N1   32   1.152   3.850  11.929  0.5092  0.0532  0.4956
    2MPD2    H7   33   1.086   3.919  11.896 -0.6336 -1.0170  0.5507
    3TMC1    C1   34   0.874   1.881  10.671  0.2536  0.0712  0.3443
    3TMC1    C2   35   0.966   1.983  10.678  0.8037  0.2422 -0.1174
    3TMC1    C3   36   1.092   1.970  10.624 -0.0227 -0.3339  0.1725
    3TMC1    C4   37   0.909   1.767  10.606  0.0770  0.0801  0.4826
    3TMC1    C5   38   1.030   1.767  10.535 -0.3141 -0.2932 -0.6791
    3TMC1    C6   39   1.120   1.860  10.549  0.5609  0.2373 -1.1863
    3TMC1     C   40   0.742   1.889  10.725  0.6645  0.4642 -0.5675
    3TMC1     O   41   0.686   1.781  10.712 -0.0091  0.5109 -0.0162
    3TMC1     H   42   0.926   2.074  10.721 -2.6184 -0.6173 -1.5258
    3TMC1    H1   43   0.839   1.687  10.587 -0.3359  0.7173 -0.6224
    3TMC1    H2   44   1.219   1.851  10.506 -0.0634 -2.0894 -2.1400
    3TMC1    C7   45   1.057   1.653  10.457  0.3431  0.1884  0.4867
    3TMC1    C8   46   1.170   2.086  10.591 -0.5011  0.3728  0.5538
    3TMC1    O1   47   0.970   1.588  10.403 -0.1033 -0.2135  0.6169
    3TMC1    O2   48   1.249   2.093  10.500 -0.0659  0.2315  0.1553
    3TMC1    O3   49   1.181   1.610  10.478  0.6576 -0.1969  0.1991
    3TMC1    H3   50   1.232   1.676  10.530 -0.8564  1.1526 -0.0251
    3TMC1    O5   51   1.170   2.167  10.699 -0.0600 -0.0830  0.5877
    3TMC1    H5   52   1.096   2.149  10.761 -1.8290 -1.1610 -1.7970
    4MPD2     C   53   0.298   2.072  10.895  0.2374  0.7154  1.0266
    4MPD2    C1   54   0.352   1.942  10.903 -0.9260  0.0367  0.1279
    4MPD2    C2   55   0.476   1.914  10.864  0.5893  0.3033  0.0730
    4MPD2    C3   56   0.566   2.020  10.833 -0.6840 -0.6635 -0.7136
    4MPD2    C4   57   0.514   2.151  10.837  0.4689 -0.4192 -0.4697
    4MPD2    C5   58   0.380   2.180  10.863  0.0993 -0.3010  0.0663
    4MPD2     H   59   0.508   1.811  10.858 -0.1655  0.0683  0.1219
    4MPD2    H1   60   0.571   2.242  10.819 -0.5547  0.1881 -0.6397
    4MPD2    H2   61   0.195   2.090  10.924 -0.3868 -3.4784  1.3765
    4MPD2    H3   62   0.347   2.283  10.860  2.9466  0.6178  0.8392
    4MPD2     N   63   0.697   2.002  10.782 -0.1932  0.3262 -0.1732
    4MPD2    H5   64   0.756   2.084  10.778  0.2391 -0.0410 -1.2655
    4MPD2    N1   65   0.284   1.824  10.940  0.1140 -0.0420 -0.6741
    4MPD2    H7   66   0.340   1.740  10.938  1.0095  0.5262  0.4610
    5TCq1    O1   67   1.130   2.210  11.825  0.2672 -0.0445 -0.2269
    5TCq1    C1   68   1.185   2.130  11.918 -0.2234 -0.1453  0.0131
    5TCq1    O2   69   1.229   2.167  12.027 -0.8820  0.3213  0.4122
    5TCq1    C2   70   1.118   2.009  11.905  0.3416 -0.0339  0.1685
    5TCq1    C3   71   1.014   2.002  11.990 -0.1910  0.1119  0.1502
    5TCq1    C4   72   0.898   1.942  11.959  0.5229  0.9670 -0.0127
    5TCq1    C5   73   0.888   1.871  11.838 -0.0326 -0.2339 -0.1053
    5TCq1    C6   74   0.992   1.889  11.749  0.5057 -0.7188  0.1629
    5TCq1    C7   75   1.096   1.967  11.779 -0.2983 -0.1702 -0.3551
    5TCq1    C8   76   0.972   1.859  11.614  0.0869 -0.7692 -0.4578
    5TCq1    O4   77   1.063   1.823  11.544 -0.3507  0.3267 -0.5047
    5TCq1    C9   78   0.790   1.937  12.054 -0.1238 -0.5354 -0.0405
    5TCq1    O5   79   0.800   2.010  12.157  0.7873 -0.0626  0.4187
    5TCq1    O6   80   0.697   1.860  12.020 -0.3991 -0.0582  0.2265
    5TCq1    H1   81   1.077   2.168  11.754  0.0380 -2.3997  1.3506
    5TCq1    H2   82   1.026   2.040  12.092 -3.0925  1.7168 -0.1150
    5TCq1    H3   83   0.803   1.806  11.820  1.8573 -2.6026 -0.4710
    5TCq1    H4   84   1.178   1.971  11.709  0.2748  1.8564  0.4482
    6MPD2     C   85   0.677   1.974  11.430  0.4703  0.5323  0.5611
    6MPD2    C1   86   0.796   1.902  11.455 -0.1137  0.6156 -0.1219
    6MPD2    C2   87   0.857   1.835  11.350 -0.6332  0.1002  0.3089
    6MPD2    C3   88   0.796   1.836  11.226 -0.4325  0.6053 -0.0296
    6MPD2    C4   89   0.673   1.897  11.206 -0.5454  0.8311 -0.4889
    6MPD2    C5   90   0.615   1.972  11.301  0.2601 -0.8164  0.9287
    6MPD2     H   91   0.946   1.776  11.368  0.1872  0.6510 -1.9370
    6MPD2    H1   92   0.625   1.904  11.109  1.0421  0.5711 -1.2963
    6MPD2    H2   93   0.640   2.031  11.515  0.4231 -0.6296  1.3106
    6MPD2    H3   94   0.521   2.021  11.281  0.1415 -1.1720  0.6258
    6MPD2     N   95   0.858   1.754  11.127  0.3899  0.2458  0.1443
    6MPD2    H5   96   0.951   1.715  11.136  0.0819 -0.8517 -1.4061
    6MPD2    N1   97   0.850   1.902  11.578  0.4362  0.0082  0.0859
    6MPD2    H7   98   0.803   1.958  11.648 -1.3276 -0.4618 -0.7084
    7TCq1    O1   99   2.364   0.990  12.626 -0.0208  0.6158  0.9146
    7TCq1    C1  100   2.449   0.944  12.717 -0.2517  0.8482  0.4870
    7TCq1    O2  101   2.436   0.961  12.838  0.1087  0.1284  0.0129
    7TCq1    C2  102   2.530   0.837  12.668  0.0217  1.0385  0.2779
    7TCq1    C3  103   2.507   0.782  12.550 -0.0328  0.8368  0.3973
    7TCq1    C4  104   2.563   0.660  12.538  0.4442 -0.5514 -0.2547
    7TCq1    C5  105   2.640   0.596  12.633  0.5667  0.0637  0.0800
    7TCq1    C6  106   2.672   0.665  12.744  0.1529  0.3832 -0.3543
    7TCq1    C7  107   2.608   0.788  12.765  0.5697 -0.0325 -0.2073
    7TCq1    C8  108   2.774   0.616  12.837 -0.2319  0.2127 -0.2821
    7TCq1    O4  109   2.782   0.495  12.838 -0.5478 -0.3487  0.2006
    7TCq1    C9  110   2.518   0.572  12.431  0.0125  0.3482  0.4937
    7TCq1    O5  111   2.432   0.617  12.357  0.2383 -0.8395  0.2348
    7TCq1    O6  112   2.587   0.469  12.417  0.3290 -0.1014  0.0139
    7TCq1    H1  113   2.394   0.991  12.533  0.2313 -2.2345  0.9666
    7TCq1    H2  114   2.432   0.812  12.478 -1.6959 -1.0839  1.3471
    7TCq1    H3  115   2.683   0.500  12.604 -3.0703 -1.7445  0.6599
    7TCq1    H4  116   2.623   0.853  12.850 -0.1134 -0.2562  0.0859
    8MPD2     C  117   3.131   0.711  13.206  0.0479 -0.1170 -0.1288
    8MPD2    C1  118   3.070   0.594  13.168 -0.1872 -0.1147 -0.4910
    8MPD2    C2  119   2.969   0.591  13.067 -0.3247 -0.4928  0.0719
    8MPD2    C3  120   2.930   0.708  13.010  0.1344 -0.0743 -0.0064
    8MPD2    C4  121   2.993   0.824  13.048  1.4053  0.2109 -0.5320
    8MPD2    C5  122   3.092   0.823  13.143  0.2891 -0.0704  0.3223
    8MPD2     H  123   2.924   0.497  13.038  0.7694 -0.7190 -0.9189
    8MPD2    H1  124   2.963   0.916  13.000 -1.7323 -1.1631 -1.2117
    8MPD2    H2  125   3.205   0.717  13.285 -2.8731  0.8746  2.5273
    8MPD2    H3  126   3.143   0.915  13.170 -0.7271 -0.0633  2.1957
    8MPD2     N  127   2.830   0.720  12.910 -0.2412  0.9193 -0.0275
    8MPD2    H5  128   2.793   0.806  12.871 -0.4932  0.2422 -1.3091
    8MPD2    N1  129   3.125   0.475  13.224 -0.7517 -0.1464  0.2160
    8MPD2    H7  130   3.193   0.479  13.299  1.8208  0.3191 -2.1458
    9TMC1    C1  131   0.848   0.894  11.236  0.5261 -0.6910 -0.3278
    9TMC1    C2  132   0.886   0.991  11.145  0.1356  0.1413 -0.0826
    9TMC1    C3  133   1.001   1.059  11.170 -0.7016  0.3741  0.1065
    9TMC1    C4  134   0.907   0.895  11.365  0.4518 -0.4496  0.0142
    9TMC1    C5  135   1.012   0.982  11.381 -0.0208 -0.6437 -0.0643
    9TMC1    C6  136   1.062   1.057  11.289 -0.1608  0.1785 -0.5689
    9TMC1     C  137   0.747   0.794  11.210 -0.5305  0.3195  0.6769
    9TMC1     O  138   0.664   0.825  11.125  0.3195  0.4232  0.0416
    9TMC1     H  139   0.837   0.986  11.048 -0.3151  0.4575  0.1263
    9TMC1    H1  140   0.876   0.831  11.446  0.9288  0.8526  1.2220
    9TMC1    H2  141   1.143   1.127  11.305 -1.6263  1.3668  1.6594
    9TMC1    C7  142   1.089   0.973  11.506  0.0606  0.3168 -0.6245
    9TMC1    C8  143   1.064   1.125  11.059 -0.4396 -0.4887 -0.1748
    9TMC1    O1  144   1.173   1.054  11.544 -0.5210  0.1724 -0.2785
    9TMC1    O2  145   1.186   1.146  11.050 -0.7502 -0.2099 -0.3389
    9TMC1    O3  146   1.097   0.839  11.543  0.3468 -0.0410  0.1014
    9TMC1    H3  147   1.056   0.777  11.480  0.4505  1.2353 -1.2206
    9TMC1    O5  148   0.965   1.184  10.991  0.5259  0.3249 -0.4668
    9TMC1    H5  149   0.871   1.167  11.012  1.0199 -0.4234  1.0948
   10MPD2     C  150   0.581   0.533  11.190  0.5581  0.1826 -0.0589
   10MPD2    C1  151   0.679   0.561  11.285 -0.7798 -0.1741  0.6540
   10MPD2    C2  152   0.683   0.488  11.402  0.0230 -0.2815 -0.2514
   10MPD2    C3  153   0.588   0.388  11.423 -0.1381 -0.8067  0.5075
   10MPD2    C4  154   0.489   0.372  11.329 -0.0789  0.6661 -0.2902
   10MPD2    C5  155   0.485   0.439  11.212  0.9405  0.2863 -0.5600
   10MPD2     H  156   0.745   0.518  11.485  1.5263 -0.0574 -1.4606
   10MPD2    H1  157   0.416   0.293  11.340  0.6146 -0.0273 -0.7258
   10MPD2    H2  158   0.574   0.581  11.093  2.1244 -0.7900 -0.6588
   10MPD2    H3  159   0.411   0.419  11.135  0.9662  1.3848 -0.8721
   10MPD2     N  160   0.592   0.294  11.532 -0.4515 -0.0134 -0.9108
   10MPD2    H5  161   0.524   0.218  11.533  1.6985 -1.9010  1.0130
   10MPD2    N1  162   0.764   0.678  11.283 -0.6712  0.3856  0.2110
   10MPD2    H7  163   0.844   0.666  11.344 -0.6228 -1.9236 -0.2938
   11TCq1    O1  164   0.739   4.223  13.859 -0.0939 -0.3509  0.2314
   11TCq1    C1  165   0.852   4.292  13.882  0.0938 -0.5979 -0.8439
   11TCq1    O2  166   0.859   4.406  13.924  0.0895  0.0604  0.6019
   11TCq1    C2  167   0.955   4.188  13.881  0.1537 -0.5741 -0.4259
   11TCq1    C3  168   1.041   4.172  13.985  0.3251 -0.2833  0.2475
   11TCq1    C4  169   1.148   4.095  13.975 -0.5910  0.7102  0.2653
   11TCq1    C5  170   1.176   4.016  13.870 -0.2169 -0.0520 -0.2721
   11TCq1    C6  171   1.080   4.023  13.769 -0.2005  0.1336  0.2993
   11TCq1    C7  172   0.974   4.103  13.770  0.4284  0.4674 -0.7776
   11TCq1    C8  173   1.072   3.918  13.669  0.7284 -1.2906  0.1142
   11TCq1    O4  174   0.968   3.905  13.610  0.0581  0.0213 -0.2294
   11TCq1    C9  175   1.245   4.103  14.078 -0.2003 -0.1505  0.4958
   11TCq1    O5  176   1.346   4.025  14.062 -0.4276  0.6010  0.1504
   11TCq1    O6  177   1.230   4.192  14.168 -0.1003 -0.3838  0.4068
   11TCq1    H1  178   0.745   4.127  13.838  1.3414 -0.0489 -0.7159
   11TCq1    H2  179   1.038   4.231  14.076  1.0411  0.1799 -0.0295
   11TCq1    H3  180   1.262   3.952  13.854 -0.8419 -1.2817  1.4510
   11TCq1    H4  181   0.904   4.108  13.687  0.3508 -0.9489 -0.7975
   12MPD2     C  182   1.089   3.693  13.471  0.5990  0.6096  0.2946
   12MPD2    C1  183   1.189   3.720  13.566  0.7722 -0.5207 -0.1114
   12MPD2    C2  184   1.294   3.623  13.565 -0.0018 -0.3168 -0.6610
   12MPD2    C3  185   1.284   3.499  13.495  0.4256  0.7228  0.2843
   12MPD2    C4  186   1.181   3.482  13.414  0.1995  0.4174  0.0797
   12MPD2    C5  187   1.077   3.574  13.398 -0.2657 -0.8839  0.3094
   12MPD2     H  188   1.385   3.644  13.620  1.3212  1.8716 -3.6699
   12MPD2    H1  189   1.180   3.396  13.349  0.5884  0.9340 -0.6022
   12MPD2    H2  190   1.000   3.753  13.454  0.2162 -0.1834 -0.5027
   12MPD2    H3  191   0.993   3.550  13.334  0.2357  1.9788 -1.3921
   12MPD2     N  192   1.388   3.401  13.495 -0.3419  0.7897  0.1476
   12MPD2    H5  193   1.363   3.314  13.449  0.6650  0.6786 -0.1811
   12MPD2    N1  194   1.191   3.836  13.644  0.3544  0.0833 -0.0256
   12MPD2    H7  195   1.268   3.851  13.709 -0.6229 -0.7493  1.3188
   13TCq1    O1  196   1.526   0.379  11.490  0.2250  0.1951  0.2319
   13TCq1    C1  197   1.468   0.271  11.438  0.2047 -0.2159 -0.4300
   13TCq1    O2  198   1.522   0.170  11.398 -1.0456  0.1146 -0.5968
   13TCq1    C2  199   1.327   0.296  11.418 -0.1154  0.1694  0.3140
   13TCq1    C3  200   1.283   0.422  11.391  0.2557  0.6537  0.6770
   13TCq1    C4  201   1.146   0.453  11.407 -0.0401  0.2791 -1.0678
   13TCq1    C5  202   1.064   0.357  11.463 -0.0947  0.1128  0.0065
   13TCq1    C6  203   1.114   0.237  11.501 -0.1939  0.4383 -0.2545
   13TCq1    C7  204   1.238   0.205  11.473 -0.2635  0.9866 -0.6137
   13TCq1    C8  205   1.011   0.141  11.508  0.2480 -0.3709  0.5036
   13TCq1    O4  206   0.904   0.156  11.447  0.7470  0.1310  0.4103
   13TCq1    C9  207   1.093   0.579  11.376 -0.0014  0.0296  0.5146
   13TCq1    O5  208   1.179   0.659  11.329  0.4129  0.3185 -0.0012
   13TCq1    O6  209   0.986   0.619  11.428  0.0227 -0.1128  0.5668
   13TCq1    H1  210   1.456   0.436  11.530 -0.3488 -0.0756 -0.3790
   13TCq1    H2  211   1.349   0.487  11.335  1.6920 -1.0659  0.3885
   13TCq1    H3  212   0.957   0.374  11.474 -0.3007 -0.1712 -1.5215
   13TCq1    H4  213   1.288   0.112  11.497 -0.1981  1.2290  0.1841
   14MPD2     C  214   1.055   4.541  11.636  0.3495 -0.9276 -0.7322
   14MPD2    C1  215   0.997   4.639  11.563  0.0496  0.6870  0.7302
   14MPD2    C2  216   0.877   4.615  11.498 -0.0496 -0.5282 -0.1892
   14MPD2    C3  217   0.808   4.490  11.509 -1.3103 -0.2241  0.6262
   14MPD2    C4  218   0.861   4.397  11.593  0.5617  0.5886 -0.0788
   14MPD2    C5  219   0.987   4.418  11.654  0.7741 -0.0933 -0.0547
   14MPD2     H  220   0.832   4.689  11.434  3.2436  0.3244 -1.5550
   14MPD2    H1  221   0.809   4.309  11.629 -1.0948  1.2784 -0.7741
   14MPD2    H2  222   1.156   4.555  11.671  0.5908 -1.8591 -1.0688
   14MPD2    H3  223   1.041   4.350  11.717  2.3271  1.7113  0.5601
   14MPD2     N  224   0.687   4.469  11.443 -0.4043  0.3926 -0.3866
   14MPD2    H5  225   0.642   4.544  11.392  2.0830  2.1322 -0.0619
   14MPD2    N1  226   1.067   0.023  11.554 -0.2964 -0.6736 -0.2776
   14MPD2    H7  227   1.155   0.035  11.605  0.6449  0.8308 -2.2381
   15TCq1    O1  228   2.759   4.157   1.161  0.2858  0.2652  0.5647
   15TCq1    C1  229   2.835   4.066   1.236  0.5166 -0.1259  0.8604
   15TCq1    O2  230   2.802   3.951   1.261 -0.3296  0.4914  0.3095
   15TCq1    C2  231   2.952   4.126   1.288 -0.4399  0.3331 -0.8557
   15TCq1    C3  232   2.963   4.264   1.317 -0.2050 -0.1274  0.2094
   15TCq1    C4  233   3.076   4.298   1.386 -0.3332  0.6039  0.1957
   15TCq1    C5  234   3.175   4.209   1.418  0.2477 -0.1223 -0.4513
   15TCq1    C6  235   3.163   4.078   1.384  0.3187 -0.5486  0.4911
   15TCq1    C7  236   3.048   4.032   1.331 -0.3737  0.0346 -0.1657
   15TCq1    C8  237   3.273   3.993   1.415 -0.2044  0.7561  0.0700
   15TCq1    O4  238   3.255   3.874   1.417  0.3898 -0.0867 -0.5651
   15TCq1    C9  239   3.086   4.438   1.437 -0.7847 -0.1027 -0.8238
   15TCq1    O5  240   2.977   4.503   1.461  0.4758 -0.2284  0.2513
   15TCq1    O6  241   3.202   4.475   1.475  0.0067 -0.1087  0.1441
   15TCq1    H1  242   2.820   4.224   1.122  0.1421 -0.9028 -1.6578
   15TCq1    H2  243   2.893   4.342   1.291 -0.4289 -0.1346  0.7865
   15TCq1    H3  244   3.252   4.239   1.489 -0.6951  1.6534 -0.1859
   15TCq1    H4  245   3.037   3.929   1.302  1.1063  0.0824 -0.8857
   16MPD2     C  246   3.614   4.100   1.507 -0.1414  0.5604  0.4954
   16MPD2    C1  247   3.515   4.009   1.480 -0.0323  0.0757 -0.2119
   16MPD2    C2  248   3.541   3.867   1.495 -0.1809 -0.2061  0.0177
   16MPD2    C3  249   3.667   3.825   1.530 -0.2842 -0.4915 -0.7799
   16MPD2    C4  250   3.762   3.915   1.564  0.1609 -0.3523 -0.3075
   16MPD2    C5  251   3.737   4.047   1.544  0.1791  0.1172  0.1982
   16MPD2     H  252   3.463   3.798   1.463 -2.4201  1.0226  2.8537
   16MPD2    H1  253   3.857   3.883   1.607  0.7613  0.7876 -0.7804
   16MPD2    H2  254   3.611   4.208   1.502  2.6160  0.6715  1.6792
   16MPD2    H3  255   3.812   4.124   1.553 -0.2647  0.6973 -1.0440
   16MPD2     N  256   3.683   3.683   1.534 -0.2123 -0.8443  0.9751
   16MPD2    H5  257   3.602   3.623   1.519 -0.9626  1.1298 -2.8145
   16MPD2    N1  258   3.390   4.062   1.435 -0.4502 -0.0228  0.0010
   16MPD2    H7  259   3.385   4.163   1.439 -0.9426  0.0318 -1.7699
   17TMC1    C1  260   0.128   3.487  10.205 -0.0713  0.0388  0.8258
   17TMC1    C2  261   0.057   3.407  10.298  0.4800 -0.2951 -0.2147
   17TMC1    C3  262   4.721   3.302  10.262  1.3237  0.3257 -0.3344
   17TMC1    C4  263   0.111   3.453  10.068 -0.1036 -0.0288 -0.1434
   17TMC1    C5  264   0.034   3.345  10.039 -0.6884  0.6216  0.2449
   17TMC1    C6  265   4.708   3.272  10.138 -0.0234  0.3963  0.2000
   17TMC1     C  266   0.150   3.622  10.245 -0.9406  0.1130  0.3395
   17TMC1     O  267   0.121   3.705  10.164 -0.3142  0.1148 -0.0925
   17TMC1     H  268   0.054   3.436  10.402  0.4566  0.4878 -0.4320
   17TMC1    H1  269   0.166   3.504   9.990  0.7922  1.9321  1.7966
   17TMC1    H2  270   4.675   3.175  10.102 -1.1387  1.3895 -1.4905
   17TMC1    C7  271   0.041   3.299   9.900 -0.6657  0.4552 -0.5045
   17TMC1    C8  272   4.662   3.221  10.365 -0.6697  0.3616  0.1385
   17TMC1    O1  273   0.024   3.182   9.870  0.6360  0.5333  0.1343
   17TMC1    O2  274   4.713   3.203  10.473  0.0143 -0.1521  0.1021
   17TMC1    O3  275   4.719   3.400   9.834  0.2428  0.3274 -0.5284
   17TMC1    H3  276   4.712   3.480   9.890  2.0922  0.8200 -1.0192
   17TMC1    O5  277   4.575   3.134  10.302 -0.1014 -0.4476  0.0885
   17TMC1    H5  278   4.550   3.168  10.214  1.1024 -1.8707 -0.8057
   18MPD2     C  279   0.208   3.874  10.390  0.1210 -0.4615 -0.0429
   18MPD2    C1  280   0.237   3.752  10.442 -0.2941 -0.3993  0.1299
   18MPD2    C2  281   0.284   3.749  10.571 -0.1273  0.4802 -0.0586
   18MPD2    C3  282   0.319   3.861  10.638  0.1365 -0.6066 -0.0003
   18MPD2    C4  283   0.303   3.981  10.575 -0.1948 -0.1693  0.6519
   18MPD2    C5  284   0.240   3.984  10.460  0.6070 -0.1024 -0.1474
   18MPD2     H  285   0.304   3.651  10.614  1.7249 -0.2845 -2.6296
   18MPD2    H1  286   0.325   4.075  10.626 -0.0405  0.8192 -1.2603
   18MPD2    H2  287   0.163   3.893  10.293  0.3139 -0.1484 -0.0720
   18MPD2    H3  288   0.221   4.082  10.417 -0.7007 -0.6771 -0.8883
   18MPD2     N  289   0.378   3.864  10.767  0.1496 -0.9872 -0.3487
   18MPD2    H5  290   0.402   3.956  10.803  0.9447 -1.5826  0.6383
   18MPD2    N1  291   0.200   3.633  10.376 -0.4702 -0.4884  0.6408
   18MPD2    H7  292   0.222   3.550  10.429 -2.3521 -0.9265  0.7268
   19TMC2    C1  293   2.418   4.327  14.238  0.7648 -0.5862 -0.0773
   19TMC2    C2  294   2.324   4.421  14.210  0.8069 -0.1493 -0.1847
   19TMC2    C3  295   2.194   4.382  14.201 -0.0573  0.5056  0.4142
   19TMC2    C4  296   2.386   4.193  14.260  0.9235  0.6690  0.4227
   19TMC2    C5  297   2.253   4.161  14.246  0.7017 -0.0672  0.1394
   19TMC2    C6  298   2.157   4.253  14.211 -0.3535 -0.4578  0.2107
   19TMC2     C  299   2.561   4.366  14.240  0.4148  0.4992  0.5276
   19TMC2     O  300   2.581   4.480  14.200  0.2402  0.0578 -0.3102
   19TMC2     H  301   2.353   4.523  14.190 -0.1533  0.2385  0.3535
   19TMC2    H1  302   2.452   4.109  14.279 -0.4282 -0.6560 -0.7478
   19TMC2    H2  303   2.053   4.226  14.221 -0.3037 -1.0702 -0.9090
   19TMC2    C7  304   2.221   4.017  14.257  0.1759  0.9891  0.0749
   19TMC2    C8  305   2.097   4.499  14.203  0.5584 -1.0076  0.7579
   19TMC2    O1  306   2.302   3.942  14.311 -0.6908 -0.0565 -0.6309
   19TMC2    O2  307   2.121   4.609  14.253  0.4642 -0.0797  0.1604
   19TMC2    O5  308   1.986   4.460  14.145  0.5692 -0.3293  0.6012
   19TMC2    H5  309   1.980   4.377  14.092  1.0362 -0.3127  0.5242
   20MPD2     C  310   2.845   4.434  14.316  0.4808 -0.4619 -0.0315
   20MPD2    C1  311   2.777   4.317  14.350  0.7120  0.4774  0.1367
   20MPD2    C2  312   2.839   4.223  14.436  0.8649 -0.3142 -0.8752
   20MPD2    C3  313   2.959   4.259  14.502 -0.8328 -0.0492 -0.6469
   20MPD2    C4  314   3.011   4.381  14.484  0.4543 -0.2098 -0.5494
   20MPD2    C5  315   2.960   4.463  14.390  0.1853  0.1977 -1.2150
   20MPD2     H  316   2.774   4.138  14.453 -1.6124  1.5668 -1.0480
   20MPD2    H1  317   3.101   4.407  14.539 -1.1015  0.8425  1.4885
   20MPD2    H2  318   2.805   4.512  14.253  1.4638  0.2417  0.2099
   20MPD2    H3  319   3.006   4.553  14.352 -0.7355  0.8476 -0.7990
   20MPD2     N  320   3.014   4.171  14.591 -0.0776  0.4697  0.6734
   20MPD2    H5  321   3.084   4.212  14.652  0.2791 -2.3634  2.1546
   20MPD2    N1  322   2.646   4.281  14.307  0.7676 -0.4093  0.3551
   20MPD2    H7  323   2.608   4.191  14.336 -0.1088  0.6285  2.4072
   21TMC2    C1  324   0.103   4.269  14.416  0.2591  0.4593  0.1989
   21TMC2    C2  325   0.217   4.188  14.427  0.1566 -0.3945 -0.1780
   21TMC2    C3  326   0.267   4.149  14.548  0.3498  0.3840 -0.3572
   21TMC2    C4  327   0.037   4.308  14.529  0.2775  0.1738 -0.1012
   21TMC2    C5  328   0.091   4.266  14.651 -0.6322  0.1905 -0.1745
   21TMC2    C6  329   0.199   4.184  14.665 -0.0530 -0.0656  0.5412
   21TMC2     C  330   0.083   4.340  14.288 -0.5177  0.2077 -0.0119
   21TMC2     O  331   0.079   4.271  14.187 -1.0945 -0.0282  0.0055
   21TMC2     H  332   0.260   4.143  14.338  0.5075 -0.5594  0.0737
   21TMC2    H1  333   4.680   4.359  14.516  0.5817  0.5927 -0.6791
   21TMC2    H2  334   0.228   4.152  14.764  0.1731 -2.0264 -0.1560
   21TMC2    C7  335   0.065   4.345  14.764 -0.1813 -0.6830 -1.0513
   21TMC2    C8  336   0.385   4.067  14.545 -0.4743  0.6209 -0.5444
   21TMC2    O1  337   0.085   4.297  14.878 -0.1742 -0.3377  0.7458
   21TMC2    O2  338   0.427   4.015  14.443 -0.1663 -0.2940  0.5959
   21TMC2    O5  339   0.408   4.025  14.671 -0.1653 -0.6607 -0.2551
   21TMC2    H5  340   0.374   4.092  14.734 -1.2408  0.7228 -2.3129
   22MPD2     C  341   0.204   0.038  14.524 -0.3428  0.3521 -0.1112
   22MPD2    C1  342   0.258   4.653  14.531  0.6708  0.5616 -0.3201
   22MPD2    C2  343   0.224   4.554  14.443  0.1102  0.5515 -1.0392
   22MPD2    C3  344   0.117   4.573  14.359 -0.4682 -0.0287  0.0926
   22MPD2    C4  345   0.067   4.700  14.349 -0.8973  0.4137  0.0558
   22MPD2    C5  346   0.117   0.062  14.422  0.0085 -1.0041  0.5686
   22MPD2     H  347   0.273   4.458  14.454  0.2402  0.7662  0.2138
   22MPD2    H1  348   4.721   4.721  14.283  1.3177  1.7486 -2.3533
   22MPD2    H2  349   0.219   0.112  14.601  1.0165  0.1219 -0.1515
   22MPD2    H3  350   0.066   0.157  14.432 -0.2250 -1.1101  0.3895
   22MPD2     N  351   0.053   4.474  14.283  0.3917 -0.0043  0.6082
   22MPD2    H5  352   4.730   4.510  14.210  0.9378  0.5284  0.4156
   22MPD2    N1  353   0.330   4.608  14.644 -0.4027  0.4216  0.0846
   22MPD2    H7  354   0.371   4.516  14.630  0.2263  0.6551  0.3842
   23TMC2    C1  355   1.371   1.031  14.652 -0.0539  0.6050 -0.0513
   23TMC2    C2  356   1.419   1.153  14.607  0.6343 -0.3719  0.4775
   23TMC2    C3  357   1.350   1.215  14.497 -0.4370  0.3384 -0.1430
   23TMC2    C4  358   1.256   0.975  14.595 -0.2156  0.3991  0.7207
   23TMC2    C5  359   1.190   1.044  14.502 -0.4951  0.5589 -0.0780
   23TMC2    C6  360   1.242   1.155  14.447  0.0726 -0.0916  0.0751
   23TMC2     C  361   1.458   0.939  14.728 -0.3398  0.2662 -0.7087
   23TMC2     O  362   1.406   0.842  14.784  0.1410 -0.2013 -0.4949
   23TMC2     H  363   1.509   1.203  14.639 -0.1298  0.4891  1.2723
   23TMC2    H1  364   1.221   0.877  14.627  3.3886 -0.8360  0.9136
   23TMC2    H2  365   1.191   1.212  14.370  0.1185 -0.3049 -0.1132
   23TMC2    C7  366   1.084   0.974  14.428 -0.3268  0.4986  0.2778
   23TMC2    C8  367   1.363   1.352  14.478 -0.5135  0.6704 -0.3540
   23TMC2    O1  368   1.086   0.852  14.439 -0.4997 -0.4099 -0.6241
   23TMC2    O2  369   1.272   1.429  14.448  0.5482 -0.6896  0.3065
   23TMC2    O5  370   1.498   1.365  14.456  0.9677  0.5250 -0.8833
   23TMC2    H5  371   1.548   1.281  14.460  0.0431  0.0050 -0.1424
   24MPD2     C  372   1.891   0.696  14.836 -0.7283 -0.4428  0.6447
   24MPD2    C1  373   1.763   0.693  14.899 -0.0876  0.5996  0.3664
   24MPD2    C2  374   1.667   0.779  14.861 -0.4638  0.5731  0.2813
   24MPD2    C3  375   1.694   0.879  14.766  0.3965 -0.3801 -0.1309
   24MPD2    C4  376   1.818   0.886  14.716  0.0752  0.1957  0.0160
   24MPD2    C5  377   1.916   0.795  14.745 -0.0720 -0.7237 -0.5761
   24MPD2     H  378   1.574   0.775  14.917 -1.2197  1.2065 -0.9226
   24MPD2    H1  379   1.840   0.966  14.646 -0.9772  1.6347  1.3507
   24MPD2    H2  380   1.974   0.633  14.867 -0.1522 -0.0674 -0.1646
   24MPD2    H3  381   2.012   0.799  14.696 -0.5033  0.6352 -1.3227
   24MPD2     N  382   1.593   0.963  14.706  0.0090  0.4570 -0.1912
   24MPD2    H5  383   1.626   1.044  14.653 -1.8046  0.7387 -0.8802
   24MPD2    N1  384   1.736   0.604  15.010 -0.4335 -0.7463 -0.0766
   24MPD2    H7  385   1.645   0.603  15.054  0.0664 -1.9371  0.9297
   25TMC2    C1  386   0.446   3.159  12.107  0.0899  0.6358  0.0991
   25TMC2    C2  387   0.483   3.286  12.123  0.5492  0.8120  0.2034
   25TMC2    C3  388   0.408   3.368  12.197 -0.5127 -0.2279 -0.3089
   25TMC2    C4  389   0.338   3.105  12.174 -0.4431  0.1982  0.0027
   25TMC2    C5  390   0.278   3.193  12.258  0.1946 -0.1253  0.2064
   25TMC2    C6  391   0.297   3.329  12.267 -0.0946 -0.3622  0.2424
   25TMC2     C  392   0.472   3.104  11.974 -0.0950 -0.2984 -0.2514
   25TMC2     O  393   0.584   3.131  11.939  0.2629  0.1637  0.5698
   25TMC2     H  394   0.554   3.332  12.054  1.2065 -0.3206  0.1302
   25TMC2    H1  395   0.309   3.001  12.161 -1.9456  0.6035  0.0575
   25TMC2    H2  396   0.229   3.394  12.321  1.5085 -0.4192  2.3417
   25TMC2    C7  397   0.162   3.147  12.329 -0.5850  0.5127  0.2670
   25TMC2    C8  398   0.437   3.507  12.167 -0.2402  0.7202 -0.0723
   25TMC2    O1  399   0.162   3.035  12.375 -0.3728  0.1559 -0.1496
   25TMC2    O2  400   0.481   3.554  12.063  0.3236  0.5466 -0.0009
   25TMC2    O5  401   0.346   3.587  12.234  0.2884  0.0979 -0.2702
   25TMC2    H5  402   0.325   3.559  12.326  2.6384  2.2007  0.8884
   26MPD2     C  403   0.301   3.006  11.501  0.2199 -0.3485  0.3152
   26MPD2    C1  404   0.197   2.985  11.593 -0.2896  0.4594  0.0449
   26MPD2    C2  405   0.221   3.008  11.728 -0.8339 -0.1739  0.5750
   26MPD2    C3  406   0.343   3.050  11.772  0.3357  0.5421 -0.0191
   26MPD2    C4  407   0.443   3.068  11.680  0.1780  0.9119 -0.0563
   26MPD2    C5  408   0.425   3.046  11.545  0.5495  0.4648  0.1566
   26MPD2     H  409   0.142   3.001  11.802  0.2544  0.4753  1.8089
   26MPD2    H1  410   0.542   3.103  11.706  0.2484  0.6654  0.0033
   26MPD2    H2  411   0.278   2.985  11.397 -1.3965  2.0781  0.2013
   26MPD2    H3  412   0.511   3.062  11.481  1.4716 -2.5808  0.6163
   26MPD2     N  413   0.359   3.067  11.911  0.0378 -0.1535 -0.2313
   26MPD2    H5  414   0.275   3.069  11.969  1.5196 -1.9757  1.9682
   26MPD2    N1  415   0.077   2.941  11.539  0.8699  0.3748  0.1059
   26MPD2    H7  416   0.062   2.917  11.441  0.1110  1.1894  0.0218
   27TMC2    C1  417   4.210   0.325  12.345 -0.3215 -0.0247  0.1430
   27TMC2    C2  418   4.110   0.371  12.266  0.2779  0.6243 -0.1217
   27TMC2    C3  419   4.119   0.502  12.224  0.0417  0.2972 -0.6175
   27TMC2    C4  420   4.314   0.400  12.389  0.2711 -0.4887 -0.2426
   27TMC2    C5  421   4.317   0.532  12.351 -0.1264  0.0185 -0.3154
   27TMC2    C6  422   4.221   0.588  12.262 -0.4945 -0.1394 -1.0902
   27TMC2     C  423   4.159   0.236  12.436  0.4334  0.4565  0.0463
   27TMC2     O  424   4.238   0.160  12.491  0.2257 -0.2127 -0.0945
   27TMC2     H  425   4.025   0.309  12.240  0.7585 -0.3017  0.5364
   27TMC2    H1  426   4.391   0.362  12.456  0.3541  1.0595  0.5543
   27TMC2    H2  427   4.249   0.671  12.198  1.6054 -0.1744 -0.2252
   27TMC2    C7  428   4.339   0.617  12.460  0.2323 -0.3221  0.3277
   27TMC2    C8  429   4.036   0.544  12.111 -0.3217  0.7331 -0.0450
   27TMC2    O1  430   4.417   0.569  12.548  0.1894 -0.2357  0.7978
   27TMC2    O2  431   3.980   0.460  12.042  0.1135 -0.3626  0.5440
   27TMC2    O5  432   3.984   0.664  12.139  0.0024  0.3525  0.4238
   27TMC2    H5  433   4.032   0.723  12.199 -0.8716  2.4144 -0.9029
   28MPD2     C  434   3.808   0.062  12.760 -0.0991 -0.2375  0.5001
   28MPD2    C1  435   3.777   0.193  12.726  0.2688  0.5043  0.1612
   28MPD2    C2  436   3.859   0.256  12.635 -0.4156 -0.1152 -0.4975
   28MPD2    C3  437   3.971   0.194  12.583 -1.0039  0.4826  0.3839
   28MPD2    C4  438   4.007   0.069  12.624 -0.3173  1.2075  0.4121
   28MPD2    C5  439   3.921   0.004  12.711  0.2399 -0.5562 -0.1361
   28MPD2     H  440   3.821   0.349  12.595  1.6473  0.5623 -0.8834
   28MPD2    H1  441   4.103   0.032  12.591 -0.7933 -0.3064  0.6862
   28MPD2    H2  442   3.742   0.012  12.830  2.3640 -2.8582  0.9520
   28MPD2    H3  443   3.956   4.653  12.763  0.9806  0.5048  1.1589
   28MPD2     N  444   4.041   0.269  12.484 -0.1769 -0.0130 -0.5609
   28MPD2    H5  445   3.996   0.357  12.461  1.0824  1.0899  1.2131
   28MPD2    N1  446   3.647   0.242  12.764 -0.0394  0.4610  0.0094
   28MPD2    H7  447   3.589   0.169  12.803 -0.4279  0.3307 -0.8175
   29TMC2    C1  448   3.221   2.938  14.787  0.0657 -0.0848 -0.1608
   29TMC2    C2  449   3.194   2.940  14.919  0.4892  0.3306 -0.6202
   29TMC2    C3  450   3.198   3.057  14.981 -0.7705 -0.6796  0.3831
   29TMC2    C4  451   3.230   3.053  14.715 -0.1219  0.5708 -0.5498
   29TMC2    C5  452   3.231   3.172  14.786  0.1238 -0.8217 -0.5671
   29TMC2    C6  453   3.206   3.176  14.917  0.0328  0.2545 -0.3750
   29TMC2     C  454   3.234   2.811  14.721 -0.8923 -0.0464  0.9256
   29TMC2     O  455   3.268   2.710  14.782  0.3032 -0.0707  0.3663
   29TMC2     H  456   3.191   2.846  14.974 -0.0738  0.4313 -0.4797
   29TMC2    H1  457   3.251   3.047  14.609  1.4422  1.6473 -0.2852
   29TMC2    H2  458   3.210   3.274  14.962 -0.7655  1.5095 -3.0316
   29TMC2    C7  459   3.264   3.291  14.722 -0.1580 -0.0033  0.3919
   29TMC2    C8  460   3.181   3.049  15.119 -0.0999  0.0867  0.0952
   29TMC2    O1  461   3.222   3.305  14.609 -0.1381 -0.1950 -0.0181
   29TMC2    O2  462   3.121   2.957  15.172  0.2645  0.0757 -0.5018
   29TMC2    O5  463   3.226   3.163  15.183  1.1995  0.0008  0.4371
   29TMC2    H5  464   3.280   3.227  15.133  1.5728 -0.3674  0.3683
   30MPD2     C  465   3.130   2.500  14.327  0.4665  1.0706 -0.4764
   30MPD2    C1  466   3.193   2.473  14.447 -0.5442  0.1509 -0.1119
   30MPD2    C2  467   3.223   2.580  14.532 -0.0807  0.0246  0.9947
   30MPD2    C3  468   3.169   2.706  14.509  0.0808  0.0807  0.1066
   30MPD2    C4  469   3.088   2.726  14.395  0.0040 -0.3148 -0.5473
   30MPD2    C5  470   3.073   2.623  14.308  0.2371  0.5840 -0.4566
   30MPD2     H  471   3.291   2.565  14.615  1.2958 -0.9705 -0.3148
   30MPD2    H1  472   3.034   2.820  14.385  0.5058  0.4399  3.7762
   30MPD2    H2  473   3.113   2.424  14.251  1.4777  2.0161 -1.6618
   30MPD2    H3  474   3.010   2.639  14.221  1.3422  0.2746 -1.3093
   30MPD2     N  475   3.182   2.817  14.594  0.2604 -0.0537 -0.3669
   30MPD2    H5  476   3.142   2.905  14.562  2.3485 -0.2011 -3.4130
   30MPD2    N1  477   3.243   2.344  14.476  0.1267 -0.0912 -0.6887
   30MPD2    H7  478   3.314   2.326  14.547  0.4578  3.0089 -0.2481
   31TMC2    C1  479   1.043   1.466  15.313 -0.1364  1.0571  0.2031
   31TMC2    C2  480   0.923   1.526  15.305  0.1400 -0.6965  0.7603
   31TMC2    C3  481   0.881   1.588  15.418 -0.5202 -0.3812  0.2151
   31TMC2    C4  482   1.125   1.474  15.421  0.1725  0.9065 -0.1373
   31TMC2    C5  483   1.079   1.557  15.516 -0.0046 -0.3327  0.1616
   31TMC2    C6  484   0.965   1.614  15.518  0.4456 -0.6682 -0.5326
   31TMC2     C  485   1.099   1.426  15.182  0.0444 -1.1652  0.1082
   31TMC2     O  486   1.046   1.474  15.082 -0.5356 -0.3580  0.4438
   31TMC2     H  487   0.854   1.512  15.223 -0.9225  1.3717  1.3015
   31TMC2    H1  488   1.224   1.429  15.423 -0.1642  0.1662 -0.4178
   31TMC2    H2  489   0.931   1.676  15.600 -0.8301 -0.7478 -1.0085
   31TMC2    C7  490   1.175   1.575  15.620  0.1165  0.6184  0.0070
   31TMC2    C8  491   0.767   1.672  15.405  0.9724  0.7007 -0.4486
   31TMC2    O1  492   1.280   1.512  15.618 -0.1802 -0.6659 -0.6049
   31TMC2    O2  493   0.699   1.710  15.500 -0.5260  0.9728 -0.1691
   31TMC2    O5  494   0.791   1.750  15.302  0.3258 -0.3260 -0.1633
   31TMC2    H5  495   0.876   1.721  15.262  1.2932 -0.2149  1.8297
   32MPD2     C  496   1.543   1.296  14.942 -0.1376  0.2485 -0.0864
   32MPD2    C1  497   1.452   1.395  14.902 -0.3316  0.0026  0.3456
   32MPD2    C2  498   1.335   1.405  14.974 -0.5173  0.3842  0.4124
   32MPD2    C3  499   1.324   1.333  15.096  0.0262 -0.1366 -0.4850
   32MPD2    C4  500   1.423   1.245  15.133  0.5518  0.0415 -0.4700
   32MPD2    C5  501   1.536   1.226  15.057 -0.5581  0.3369 -0.7701
   32MPD2     H  502   1.248   1.466  14.955  0.3147  0.9183 -1.6254
   32MPD2    H1  503   1.416   1.181  15.220  1.2095  0.1097 -0.3685
   32MPD2    H2  504   1.629   1.287  14.876  0.0711  4.6383 -0.4196
   32MPD2    H3  505   1.606   1.150  15.089 -1.7016  0.0977  1.2004
   32MPD2     N  506   1.215   1.347  15.190  0.0456  0.3441  0.0863
   32MPD2    H5  507   1.229   1.306  15.281 -1.0006  2.3903  1.1773
   32MPD2    N1  508   1.478   1.476  14.785  0.3658 -0.3519 -0.4018
   32MPD2    H7  509   1.560   1.450  14.731  0.4793  1.9102 -1.3080
   33TMC2    C1  510   0.671   4.648  10.760  0.1618 -0.0683  0.2314
   33TMC2    C2  511   0.557   4.663  10.688 -0.0767  0.1701  0.0445
   33TMC2    C3  512   0.555   0.015  10.577  0.5128  0.1401 -0.3114
   33TMC2    C4  513   0.771   0.002  10.743 -0.0344 -0.5802 -0.3644
   33TMC2    C5  514   0.762   0.089  10.638  0.1968 -0.0144 -0.9395
   33TMC2    C6  515   0.662   0.086  10.542  0.1242 -0.2027 -0.0297
   33TMC2     C  516   0.702   4.522  10.839 -0.6568  0.5146  0.2982
   33TMC2     O  517   0.619   4.435  10.833 -0.2973 -0.1679  0.0488
   33TMC2     H  518   0.481   4.586  10.688  0.5319 -0.4272  0.1183
   33TMC2    H1  519   0.861   4.735  10.804 -0.9040  3.1637  1.2180
   33TMC2    H2  520   0.659   0.157  10.460  0.6932  1.9123  1.7797
   33TMC2    C7  521   0.863   0.196  10.644 -0.2156  0.1334  0.5032
   33TMC2    C8  522   0.436   0.025  10.490  0.6002 -0.6953  0.2441
   33TMC2    O1  523   0.964   0.177  10.712 -0.3858 -0.4634 -0.3297
   33TMC2    O2  524   0.435   0.106  10.401  0.1043 -0.2649 -0.3059
   33TMC2    O5  525   0.334   0.024  10.582 -0.2167 -0.5616 -0.0105
   33TMC2    H5  526   0.349   4.707  10.663  2.7141  0.3183  0.0409
   34MPD2     C  527   0.880   4.275  11.244 -0.0078 -0.4807  0.1915
   34MPD2    C1  528   0.840   4.222  11.120  0.5763  0.4923  0.2941
   34MPD2    C2  529   0.799   4.312  11.020  0.6029 -0.3873 -0.3740
   34MPD2    C3  530   0.829   4.448  11.032  0.5849 -0.7640 -0.4166
   34MPD2    C4  531   0.899   4.493  11.145  0.4820 -0.3677  0.2691
   34MPD2    C5  532   0.920   4.408  11.249  0.1506 -0.4276  0.0063
   34MPD2     H  533   0.740   4.282  10.934  2.4091  0.2702 -1.8375
   34MPD2    H1  534   0.921   4.597  11.166 -1.2047 -0.7829  4.0749
   34MPD2    H2  535   0.909   4.211  11.326 -1.1393 -1.8972 -0.5135
   34MPD2    H3  536   0.976   4.434  11.338 -2.5706  0.9718  1.3439
   34MPD2     N  537   0.790   4.546  10.945 -0.6078  0.8195 -0.2070
   34MPD2    H5  538   0.836   4.634  10.964  0.0643  0.4601 -0.1826
   34MPD2    N1  539   0.819   4.084  11.112 -0.0539  0.1470  0.0819
   34MPD2    H7  540   0.833   4.033  11.199 -2.1380 -1.1215 -0.3217
   35TMC2    C1  541   2.565   0.694  11.334 -0.0506  0.1048 -0.6783
   35TMC2    C2  542   2.517   0.705  11.207  0.1469 -0.3098  0.0820
   35TMC2    C3  543   2.414   0.617  11.172 -0.9318  0.3455  0.1271
   35TMC2    C4  544   2.506   0.615  11.426 -0.6821 -0.2623 -0.0102
   35TMC2    C5  545   2.398   0.538  11.387  0.4064  0.7818 -0.0036
   35TMC2    C6  546   2.353   0.532  11.256 -0.0546  0.4095 -0.1291
   35TMC2     C  547   2.687   0.766  11.358  0.7244 -0.5399  0.2949
   35TMC2     O  548   2.720   0.857  11.280  0.4580 -0.0673 -0.5349
   35TMC2     H  549   2.559   0.769  11.130 -1.3819  2.7218  1.7801
   35TMC2    H1  550   2.521   0.622  11.533 -3.0863  2.7658  0.0950
   35TMC2    H2  551   2.283   0.458  11.220  0.3851 -0.4952  0.8694
   35TMC2    C7  552   2.320   0.466  11.484  0.0797 -0.2635  0.0349
   35TMC2    C8  553   2.401   0.602  11.026 -1.0042  0.3579  0.1580
   35TMC2    O1  554   2.365   0.460  11.598  0.6220  0.1081  0.0739
   35TMC2    O2  555   2.492   0.630  10.950 -0.2721 -0.3318  0.4457
   35TMC2    O5  556   2.288   0.537  10.991 -0.9765 -0.0369 -0.0002
   35TMC2    H5  557   2.229   0.525  11.068 -2.4094  0.5937 -1.0087
   36MPD2     C  558   3.167   0.750  11.556 -0.4423 -0.5651  0.5306
   36MPD2    C1  559   3.087   0.668  11.623 -0.4956  0.4875  0.5504
   36MPD2    C2  560   2.950   0.665  11.599 -0.2507 -0.7214  0.3673
   36MPD2    C3  561   2.890   0.750  11.506  0.4277  0.1307 -0.4351
   36MPD2    C4  562   2.973   0.836  11.440 -0.2848 -0.2896 -0.4882
   36MPD2    C5  563   3.105   0.846  11.474 -0.1186 -0.0788 -0.0452
   36MPD2     H  564   2.895   0.607  11.673 -1.9684 -0.8611 -1.0269
   36MPD2    H1  565   2.949   0.895  11.353 -0.5421 -0.4906 -0.5510
   36MPD2    H2  566   3.272   0.757  11.582 -0.8794  3.0819  1.2258
   36MPD2    H3  567   3.175   0.919  11.433  0.9505 -0.7592  0.5599
   36MPD2     N  568   2.757   0.725  11.467  0.2583 -0.8352  0.3339
   36MPD2    H5  569   2.714   0.650  11.520  1.6213 -1.6217  0.3208
   36MPD2    N1  570   3.155   0.596  11.728 -0.9443  0.2814 -0.0598
   36MPD2    H7  571   3.246   0.635  11.748 -0.6545  0.4405 -1.7236
   37TMC2    C1  572   0.561   0.730  11.942  0.1441  0.5221 -0.2534
   37TMC2    C2  573   0.538   0.778  11.817 -0.4809 -1.0457  0.2927
   37TMC2    C3  574   0.643   0.827  11.750 -0.2353 -0.4248 -0.0179
   37TMC2    C4  575   0.682   0.736  12.004  0.0313  0.1375  0.0754
   37TMC2    C5  576   0.788   0.773  11.922  0.0666  0.5845 -0.1671
   37TMC2    C6  577   0.769   0.829  11.798  0.1840  0.6417  0.5033
   37TMC2     C  578   0.448   0.729  12.025  0.0067 -0.2500 -0.5441
   37TMC2     O  579   0.363   0.808  11.998 -0.0390  0.1472  0.2272
   37TMC2     H  580   0.436   0.779  11.779 -0.4150 -0.6634  0.1252
   37TMC2    H1  581   0.702   0.697  12.103 -0.4804  1.2875  0.6353
   37TMC2    H2  582   0.847   0.874  11.737  0.0759 -1.8272 -1.4233
   37TMC2    C7  583   0.910   0.801  11.986 -0.5900 -0.0297  0.1913
   37TMC2    C8  584   0.615   0.871  11.618 -0.2579 -0.5664  0.7300
   37TMC2    O1  585   0.907   0.824  12.107 -0.2926 -0.5053 -0.5066
   37TMC2    O2  586   0.692   0.951  11.565  0.4011 -0.1062  0.2641
   37TMC2    O5  587   0.549   0.768  11.559  0.3505 -0.3215  0.3752
   37TMC2    H5  588   0.517   0.696  11.617  2.2345  0.5194  2.4546
   38MPD2     C  589   0.249   0.626  12.491  0.1150 -0.5943  0.1322
   38MPD2    C1  590   0.376   0.573  12.488  0.0974  0.4227 -0.6178
   38MPD2    C2  591   0.443   0.573  12.364 -0.6416 -0.7241  0.5655
   38MPD2    C3  592   0.387   0.635  12.252  0.1762 -0.1226 -0.6864
   38MPD2    C4  593   0.259   0.689  12.261  0.0974  0.7889  0.1406
   38MPD2    C5  594   0.190   0.678  12.379  0.2688 -0.1478  0.6266
   38MPD2     H  595   0.538   0.524  12.349 -0.2824  0.2329 -0.2944
   38MPD2    H1  596   0.211   0.739  12.177 -1.4124 -0.7176  0.1150
   38MPD2    H2  597   0.185   0.629  12.579 -0.1721 -1.1585 -0.0592
   38MPD2    H3  598   0.090   0.718  12.380 -0.5054 -2.0985  1.3971
   38MPD2     N  599   0.468   0.644  12.131  0.7443 -0.3819 -0.0431
   38MPD2    H5  600   0.549   0.584  12.120  0.5394 -0.5874 -0.4197
   38MPD2    N1  601   0.442   0.523  12.595 -0.0267 -0.0103  0.0488
   38MPD2    H7  602   0.530   0.473  12.586  0.3706  0.5298  0.8919
   39TMC2    C1  603   3.804   3.129   2.026  0.3644 -0.2174 -0.4091
   39TMC2    C2  604   3.714   3.209   2.085 -0.8634  0.3279 -0.0382
   39TMC2    C3  605   3.755   3.268   2.201 -0.1136  0.1182 -0.3723
   39TMC2    C4  606   3.932   3.110   2.068  0.0978  0.2007  0.2114
   39TMC2    C5  607   3.974   3.179   2.177  0.0559  0.0143 -0.0215
   39TMC2    C6  608   3.883   3.250   2.255 -0.5609 -0.4834 -0.2208
   39TMC2     C  609   3.747   3.075   1.906 -0.9092  0.2764 -0.3670
   39TMC2     O  610   3.665   3.145   1.852 -0.0680  0.9328 -0.0662
   39TMC2     H  611   3.611   3.213   2.052 -0.3913 -0.0436 -1.5797
   39TMC2    H1  612   4.007   3.048   2.021  0.1884  1.4347 -1.2758
   39TMC2    H2  613   3.916   3.303   2.343  0.9299 -1.4274 -0.2221
   39TMC2    C7  614   4.100   3.152   2.239  0.1606  0.3536  0.3640
   39TMC2    C8  615   3.671   3.346   2.288  0.1586  0.0780  0.0446
   39TMC2    O1  616   4.097   3.148   2.361  0.0799 -0.1640 -0.5195
   39TMC2    O2  617   3.694   3.352   2.407 -0.4126  0.0700 -0.2803
   39TMC2    O5  618   3.551   3.349   2.228  0.7600 -0.1623  0.0078
   39TMC2    H5  619   3.546   3.352   2.130  0.0162 -1.4391  0.0026
   40MPD2     C  620   3.855   2.774   1.704  0.5717 -0.4113  0.3405
   40MPD2    C1  621   3.789   2.890   1.734  0.0510  0.5950 -0.3079
   40MPD2    C2  622   3.696   2.934   1.642  0.7858 -0.1236 -0.0907
   40MPD2    C3  623   3.670   2.858   1.525  0.0307  0.7283 -0.3850
   40MPD2    C4  624   3.742   2.749   1.504  0.8249 -0.2156 -0.0328
   40MPD2    C5  625   3.831   2.701   1.595  0.2080  0.8063 -0.3015
   40MPD2     H  626   3.640   3.025   1.660  1.1807 -0.4073  2.5306
   40MPD2    H1  627   3.721   2.684   1.420 -0.3177  0.6215 -0.4071
   40MPD2    H2  628   3.925   2.724   1.770 -1.9744 -2.1887  1.6973
   40MPD2    H3  629   3.883   2.607   1.584  2.0088  1.6459  1.2814
   40MPD2     N  630   3.573   2.891   1.421  0.5371  0.5277 -0.5227
   40MPD2    H5  631   3.565   2.826   1.344  0.0517  0.8814 -0.7643
   40MPD2    N1  632   3.806   2.960   1.859  0.1064 -0.1525  0.1008
   40MPD2    H7  633   3.873   2.908   1.916  0.2199 -0.1009  0.0131
   41TMC2    C1  634   2.520   0.904  14.196  0.0749  0.0271  0.2466
   41TMC2    C2  635   2.390   0.943  14.229  0.0163 -0.0440  0.0313
   41TMC2    C3  636   2.334   1.051  14.166  0.1267  1.0356  0.3697
   41TMC2    C4  637   2.592   0.970  14.101  1.4014 -0.0588 -0.0451
   41TMC2    C5  638   2.540   1.075  14.031 -0.0562  0.6308  0.1704
   41TMC2    C6  639   2.405   1.105  14.058  0.4643 -0.2967 -0.4754
   41TMC2     C  640   2.576   0.776  14.239 -0.5442  0.2466 -1.0641
   41TMC2     O  641   2.674   0.730  14.176 -0.1114  0.3354  0.0662
   41TMC2     H  642   2.323   0.876  14.282 -0.0098  1.3005  1.6878
   41TMC2    H1  643   2.699   0.950  14.101  1.0554 -1.9846  1.4941
   41TMC2    H2  644   2.354   1.170  13.989 -0.2584  0.5448  0.8566
   41TMC2    C7  645   2.598   1.117  13.904  0.9308 -0.1018  0.5277
   41TMC2    C8  646   2.195   1.043  14.152  0.0615  0.4563 -0.0900
   41TMC2    O1  647   2.543   1.216  13.854  0.1214 -0.2540  0.4942
   41TMC2    O2  648   2.138   1.006  14.052 -0.4149  0.5412 -0.3845
   41TMC2    O5  649   2.148   1.129  14.246 -0.4286 -0.0877 -0.2179
   41TMC2    H5  650   2.210   1.142  14.321 -0.3149 -0.4494 -0.2484
   42MPD2     C  651   2.648   0.527  14.406  0.1774  0.6143  0.6793
   42MPD2    C1  652   2.548   0.619  14.432  0.1409  0.0514 -0.1810
   42MPD2    C2  653   2.471   0.602  14.548 -0.6524  0.3271 -0.3073
   42MPD2    C3  654   2.489   0.499  14.636 -0.7360 -0.0463  1.4194
   42MPD2    C4  655   2.600   0.418  14.616 -0.2440  0.4882  0.1631
   42MPD2    C5  656   2.668   0.429  14.494  0.2994  0.2283 -0.6314
   42MPD2     H  657   2.394   0.675  14.569 -2.2486 -0.6716 -2.6024
   42MPD2    H1  658   2.631   0.346  14.691  0.2983 -1.5013 -1.9374
   42MPD2    H2  659   2.718   0.535  14.323  2.0600 -0.6541  2.1632
   42MPD2    H3  660   2.744   0.353  14.486  0.5859  0.4605 -0.1347
   42MPD2     N  661   2.408   0.481  14.747  0.2984  0.0166 -0.1016
   42MPD2    H5  662   2.425   0.395  14.799  0.6385  0.8739  1.2094
   42MPD2    N1  663   2.516   0.734  14.359 -0.7537  0.1429 -0.2255
   42MPD2    H7  664   2.450   0.795  14.406 -0.7418  0.5587 -0.7447
   43TMC2    C1  665   3.874   4.233   0.853  0.3993  0.4041 -0.5259
   43TMC2    C2  666   3.763   4.302   0.811  0.3924 -0.8312 -0.0558
   43TMC2    C3  667   3.740   4.421   0.876  0.1795 -0.2604  0.4832
   43TMC2    C4  668   3.960   4.282   0.952 -0.5195  0.4007  0.1073
   43TMC2    C5  669   3.931   4.404   1.008 -0.7449 -0.4063 -0.4719
   43TMC2    C6  670   3.821   4.478   0.978 -0.0865  0.0361 -0.8140
   43TMC2     C  671   3.923   4.109   0.789 -0.3251  0.1302  0.4599
   43TMC2     O  672   4.040   4.075   0.793  0.1128  0.7960 -0.0381
   43TMC2     H  673   3.703   4.265   0.729  0.2051  1.2888 -0.8671
   43TMC2    H1  674   4.032   4.214   0.995  0.4557  2.0138  1.0407
   43TMC2    H2  675   3.789   4.567   1.030 -0.9371  0.4137 -1.9961
   43TMC2    C7  676   4.040   4.449   1.096 -0.6271 -0.9357 -0.0419
   43TMC2    C8  677   3.611   4.481   0.871  0.3098  0.1131  0.1905
   43TMC2    O1  678   4.144   4.386   1.109  0.2786 -0.2972  0.0829
   43TMC2    O2  679   3.565   4.558   0.951 -0.2190  0.0771  0.3236
   43TMC2    O5  680   3.567   4.471   0.742 -0.4751  0.0443  0.2029
   43TMC2    H5  681   3.633   4.436   0.679 -0.8926 -1.1886  0.4450
   44MPD2     C  682   3.859   3.695   0.483  0.0437  0.0865 -0.1234
   44MPD2    C1  683   3.976   3.743   0.537  0.6775  0.5579 -0.4457
   44MPD2    C2  684   3.968   3.855   0.623  0.2801 -0.2234  0.8916
   44MPD2    C3  685   3.850   3.926   0.641  0.6196  0.1431  0.5129
   44MPD2    C4  686   3.737   3.874   0.584 -0.5809 -0.1036 -0.0690
   44MPD2    C5  687   3.743   3.762   0.505 -0.3781  0.2922 -0.6475
   44MPD2     H  688   4.058   3.873   0.681 -0.0891  0.4876  1.2346
   44MPD2    H1  689   3.636   3.914   0.593 -0.9810 -1.3563  0.8571
   44MPD2    H2  690   3.855   3.615   0.410 -0.0274  1.8491 -2.0507
   44MPD2    H3  691   3.644   3.733   0.471 -0.8848 -1.3941  2.2637
   44MPD2     N  692   3.825   4.039   0.726  0.1192 -0.2452 -0.2988
   44MPD2    H5  693   3.735   4.084   0.724  0.9849  1.6421  2.0770
   44MPD2    N1  694   4.095   3.668   0.528  0.2657  0.0197  0.3599
   44MPD2    H7  695   4.168   3.686   0.596  0.5230 -1.4472  0.4787
   45TMC2    C1  696   3.697   1.714   9.932 -0.1840  0.3301 -0.0915
   45TMC2    C2  697   3.579   1.731   9.992  0.1326 -0.3216  0.1276
   45TMC2    C3  698   3.559   1.854  10.051 -0.3756  0.2143 -0.2531
   45TMC2    C4  699   3.791   1.811   9.939  0.1785 -0.7735  0.2951
   45TMC2    C5  700   3.761   1.941   9.978 -0.0952  0.3951  0.0173
   45TMC2    C6  701   3.642   1.967  10.042  0.3102  0.3665  0.4565
   45TMC2     C  702   3.721   1.608   9.841  0.3614 -0.5130 -0.0108
   45TMC2     O  703   3.823   1.601   9.775 -0.2341 -0.8021  0.5962
   45TMC2     H  704   3.496   1.663  10.002 -1.9024  2.2198  0.4670
   45TMC2    H1  705   3.886   1.788   9.893 -0.9865  0.5920 -2.7733
   45TMC2    H2  706   3.618   2.057  10.098  0.2581 -0.2792  1.4806
   45TMC2    C7  707   3.872   2.034   9.984  0.3108  0.6007  0.0860
   45TMC2    C8  708   3.440   1.873  10.116 -0.0642 -0.7805  0.6717
   45TMC2    O1  709   3.985   1.986   9.984  0.1227 -0.2431 -0.3579
   45TMC2    O2  710   3.427   1.947  10.213  0.0793 -0.0729  0.0552
   45TMC2    O5  711   3.348   1.861  10.022  0.1553 -0.0488  0.4389
   45TMC2    H5  712   3.381   1.821   9.938 -0.3091  1.9057 -0.6604
   46MPD2     C  713   3.674   1.354   9.668  0.4874  0.3459 -0.0230
   46MPD2    C1  714   3.591   1.398   9.766 -0.4070 -0.3790  0.2825
   46MPD2    C2  715   3.466   1.334   9.785  0.2960 -0.3790  0.3854
   46MPD2    C3  716   3.434   1.227   9.703 -0.2262 -0.5478  0.2362
   46MPD2    C4  717   3.517   1.189   9.607  0.1902  0.2859  0.0722
   46MPD2    C5  718   3.636   1.253   9.586  0.8376 -0.1669 -0.2590
   46MPD2     H  719   3.398   1.367   9.862  0.2305  2.1215 -0.7688
   46MPD2    H1  720   3.496   1.110   9.536  0.1845 -0.7305  1.2062
   46MPD2    H2  721   3.765   1.408   9.644  0.5719 -0.9240 -2.5532
   46MPD2    H3  722   3.703   1.227   9.505  2.1198 -0.2260  0.7991
   46MPD2     N  723   3.318   1.160   9.735  0.5401  0.0560  0.2069
   46MPD2    H5  724   3.258   1.213   9.797  1.0196  0.5570  0.2403
   46MPD2    N1  725   3.613   1.519   9.841 -0.1638 -0.4315  0.4362
   46MPD2    H7  726   3.536   1.543   9.903 -0.3074 -2.5428  1.0868
   47TMC2    C1  727   2.307   2.044   9.451 -0.1856 -1.0694 -0.2380
   47TMC2    C2  728   2.213   2.015   9.552  0.7500  0.4642 -0.0450
   47TMC2    C3  729   2.126   2.116   9.576 -0.4648  0.0630  0.4216
   47TMC2    C4  730   2.336   2.166   9.405 -0.2831 -0.3902  0.6246
   47TMC2    C5  731   2.240   2.261   9.448  0.3703 -0.0057  0.8015
   47TMC2    C6  732   2.130   2.242   9.526 -0.2597 -0.2321  0.0044
   47TMC2     C  733   2.407   1.949   9.434 -0.6720 -0.1655  0.5776
   47TMC2     O  734   2.510   1.991   9.386 -1.0562  0.8180 -0.5354
   47TMC2     H  735   2.201   1.918   9.599 -4.5394  1.4706  0.7001
   47TMC2    H1  736   2.405   2.185   9.323  0.3631 -0.5642  1.1318
   47TMC2    H2  737   2.061   2.318   9.563 -0.9605 -0.2415 -1.2888
   47TMC2    C7  738   2.235   2.384   9.380  0.1251 -1.0331 -0.1856
   47TMC2    C8  739   1.994   2.091   9.627  0.3519 -0.2256 -0.4613
   47TMC2    O1  740   2.127   2.442   9.382  0.1697 -0.3338  0.1126
   47TMC2    O2  741   1.920   2.176   9.674  0.4720  0.1021 -0.0973
   47TMC2    O5  742   1.958   1.995   9.545 -0.2484 -0.2474  0.0505
   47TMC2    H5  743   2.034   1.967   9.489 -0.8403  0.3207 -1.0394
   48MPD2     C  744   2.580   1.706   9.483 -0.1189  0.3996  0.9069
   48MPD2    C1  745   2.445   1.699   9.471 -0.0220 -0.4158  0.1368
   48MPD2    C2  746   2.389   1.574   9.494 -0.2081  0.0805 -0.1516
   48MPD2    C3  747   2.464   1.465   9.547 -0.5422  0.0308  0.1099
   48MPD2    C4  748   2.596   1.481   9.552  0.2891 -0.6843 -0.1298
   48MPD2    C5  749   2.655   1.600   9.533 -0.1216  0.0480  0.4267
   48MPD2     H  750   2.281   1.561   9.487 -0.1743 -0.6507  0.6476
   48MPD2    H1  751   2.661   1.408   9.599 -0.7896 -2.0872 -0.8304
   48MPD2    H2  752   2.632   1.799   9.461 -1.0735  1.6502  3.8930
   48MPD2    H3  753   2.760   1.613   9.559 -0.1862 -1.0282  1.2641
   48MPD2     N  754   2.397   1.352   9.600  0.4817 -0.2085  0.7215
   48MPD2    H5  755   2.296   1.345   9.599  0.3503  1.8403 -0.8905
   48MPD2    N1  756   2.366   1.817   9.451  0.4295 -0.2563  1.3007
   48MPD2    H7  757   2.267   1.794   9.452  0.6992 -1.4066 -0.4881
   49TMC2    C1  758   0.197   4.131  10.914 -0.2354  0.1947 -0.1831
   49TMC2    C2  759   0.236   4.247  10.850 -0.9211  1.0591 -0.2665
   49TMC2    C3  760   0.169   4.279  10.734 -0.2255  0.2163 -0.4817
   49TMC2    C4  761   0.103   4.049  10.865  0.5320 -0.2480 -0.2372
   49TMC2    C5  762   0.047   4.079  10.743 -0.6310 -0.6137  0.5805
   49TMC2    C6  763   0.071   4.198  10.679 -0.0721 -0.0582 -0.4115
   49TMC2     C  764   0.287   4.087  11.019 -0.3707  0.6857  0.3130
   49TMC2     O  765   0.398   4.136  11.009 -0.2157 -0.4471  0.5820
   49TMC2     H  766   0.335   4.288  10.868  0.0004 -2.1514  1.9268
   49TMC2    H1  767   0.084   3.956  10.916 -1.5282  0.5793  0.4622
   49TMC2    H2  768   0.031   4.226  10.582  0.4345 -1.8442 -1.1435
   49TMC2    C7  769   4.703   3.984  10.666  0.4415  1.1839  0.2048
   49TMC2    C8  770   0.206   4.400  10.659  0.3694  0.5778 -1.2319
   49TMC2    O1  771   4.643   4.026  10.565  0.0169 -0.4201  0.1805
   49TMC2    O2  772   0.195   4.400  10.537  0.2128  0.0179 -0.1057
   49TMC2    O5  773   0.265   4.495  10.741 -0.1141 -0.5684  0.5212
   49TMC2    H5  774   0.252   4.471  10.835  1.0854 -1.0362  0.5654
   50MPD2     C  775   0.424   4.011  11.265 -0.7515 -0.1891  0.3154
   50MPD2    C1  776   0.293   3.971  11.235 -0.9454 -0.3062 -0.3363
   50MPD2    C2  777   0.214   3.912  11.336 -0.4441  0.4228 -0.2415
   50MPD2    C3  778   0.263   3.893  11.470  0.2079 -0.5601  0.0232
   50MPD2    C4  779   0.385   3.940  11.493 -0.0792 -0.0825 -0.0695
   50MPD2    C5  780   0.463   3.986  11.391  0.2243 -0.1359 -0.3246
   50MPD2     H  781   0.110   3.889  11.312 -1.0081  0.7109  1.9151
   50MPD2    H1  782   0.423   3.921  11.592  0.5301  0.1341 -0.2604
   50MPD2    H2  783   0.496   4.050  11.195 -0.8645 -0.5536 -0.0049
   50MPD2    H3  784   0.564   4.012  11.421 -0.7090  0.2981  2.4591
   50MPD2     N  785   0.188   3.842  11.581 -0.4467  0.4885  0.3014
   50MPD2    H5  786   0.231   3.854  11.672  0.4677 -2.1801  0.2365
   50MPD2    N1  787   0.227   4.007  11.118  0.6590  0.3884 -0.2186
   50MPD2    H7  788   0.128   3.989  11.113  0.2946  3.0871 -2.5357
   51TMC2    C1  789   0.778   3.546   1.208 -0.0156  0.0500 -0.1649
   51TMC2    C2  790   0.704   3.646   1.262 -0.2188 -0.6231 -0.2423
   51TMC2    C3  791   0.775   3.747   1.328  0.3818 -0.5932 -0.2998
   51TMC2    C4  792   0.914   3.543   1.194  0.6023  0.9102 -0.5198
   51TMC2    C5  793   0.982   3.649   1.255  0.2572 -0.3084 -0.0542
   51TMC2    C6  794   0.914   3.749   1.325 -0.5795 -0.0580  0.6431
   51TMC2     C  795   0.701   3.453   1.128 -0.2439  0.2705  0.7319
   51TMC2     O  796   0.740   3.339   1.112 -0.6046  0.4984 -0.3161
   51TMC2     H  797   0.596   3.642   1.274 -0.1142 -0.3040  0.8201
   51TMC2    H1  798   0.950   3.459   1.135 -2.8751 -1.8061  1.2106
   51TMC2    H2  799   0.967   3.825   1.380 -1.0620 -0.4314  1.6309
   51TMC2    C7  800   1.122   3.640   1.277 -0.3879 -0.8037  0.0452
   51TMC2    C8  801   0.688   3.824   1.411 -0.0569 -0.0895  0.3139
   51TMC2    O1  802   1.173   3.735   1.338  0.4015  0.3138  0.2778
   51TMC2    O2  803   0.577   3.859   1.375  0.9745 -0.0465  0.0111
   51TMC2    O5  804   0.753   3.857   1.520  0.3849 -0.7258  0.0507
   51TMC2    H5  805   0.840   3.814   1.506  0.9816  0.1009  1.2120
   52MPD2     C  806   0.298   3.319   0.870  0.1454  0.0836 -0.0038
   52MPD2    C1  807   0.367   3.250   0.958 -0.3677  0.1446  0.5708
   52MPD2    C2  808   0.465   3.323   1.027 -0.5455  0.4178 -0.4671
   52MPD2    C3  809   0.493   3.452   0.999  0.4358  0.7532 -0.3383
   52MPD2    C4  810   0.414   3.519   0.917  0.3390  0.6166  0.0051
   52MPD2    C5  811   0.311   3.451   0.861 -0.0099  0.3005 -1.1208
   52MPD2     H  812   0.525   3.265   1.096 -1.8720  0.9619  1.1424
   52MPD2    H1  813   0.435   3.624   0.898 -1.1557  0.9049 -0.0162
   52MPD2    H2  814   0.215   3.268   0.823  0.2834  0.1539 -0.3253
   52MPD2    H3  815   0.246   3.492   0.784 -1.2083  0.4455 -0.0324
   52MPD2     N  816   0.597   3.517   1.065 -0.0212  0.3602 -0.1080
   52MPD2    H5  817   0.598   3.617   1.053  2.3208  0.1702 -1.4042
   52MPD2    N1  818   0.358   3.112   0.973  1.0462 -0.0457 -0.1415
   52MPD2    H7  819   0.418   3.074   1.046 -1.5822 -1.9343  1.0535
   53TMC2    C1  820   1.442   1.243  12.245 -0.4226  0.6290 -0.5064
   53TMC2    C2  821   1.469   1.376  12.225  0.2973 -0.6299  0.4111
   53TMC2    C3  822   1.401   1.464  12.308 -0.7780 -0.8658 -0.6698
   53TMC2    C4  823   1.379   1.196  12.358 -0.6258  0.3931 -0.0249
   53TMC2    C5  824   1.317   1.285  12.436 -1.0356  0.3103 -0.2297
   53TMC2    C6  825   1.324   1.418  12.408 -0.0213 -0.3884  0.2033
   53TMC2     C  826   1.449   1.148  12.132 -0.0139  0.6782 -0.1968
   53TMC2     O  827   1.550   1.142  12.069  0.5396 -0.2441 -0.1655
   53TMC2     H  828   1.544   1.406  12.152  1.1898 -0.1792  1.4999
   53TMC2    H1  829   1.374   1.090  12.380  3.5156  0.5775  1.6358
   53TMC2    H2  830   1.274   1.489  12.473 -1.4432  0.1143 -1.4469
   53TMC2    C7  831   1.196   1.243  12.499  0.3319 -0.2074 -0.0929
   53TMC2    C8  832   1.431   1.603  12.299  0.3366  0.2278 -0.1730
   53TMC2    O1  833   1.096   1.286  12.448 -0.4056  0.3082  0.7020
   53TMC2    O2  834   1.435   1.679  12.398 -0.6481 -0.3351  0.0230
   53TMC2    O5  835   1.475   1.645  12.179  0.1821 -0.2992 -0.3426
   53TMC2    H5  836   1.456   1.580  12.108 -0.9225 -1.1490  0.7535
   54MPD2     C  837   1.403   0.936  11.931  0.0091  0.1379 -0.1807
   54MPD2    C1  838   1.305   0.981  12.018  0.5919 -0.5399 -1.0569
   54MPD2    C2  839   1.173   0.925  12.013  0.3282  0.4540  0.3387
   54MPD2    C3  840   1.145   0.824  11.918  0.1721  0.0549 -0.2223
   54MPD2    C4  841   1.241   0.777  11.835 -0.4047  0.0884  0.2190
   54MPD2    C5  842   1.366   0.838  11.842 -0.4154  0.4479  0.2364
   54MPD2     H  843   1.103   0.977  12.077 -0.0200  2.2693 -1.5125
   54MPD2    H1  844   1.226   0.703  11.757 -1.1260  1.3708 -0.8610
   54MPD2    H2  845   1.503   0.978  11.931 -0.7145  1.8323 -0.4821
   54MPD2    H3  846   1.443   0.800  11.776  0.7432  1.0416  1.2397
   54MPD2     N  847   1.015   0.773  11.902  0.3421  0.1763  0.6620
   54MPD2    H5  848   1.009   0.731  11.810  0.6173 -0.5821  0.9885
   54MPD2    N1  849   1.333   1.080  12.117 -0.6699 -0.8970  0.0942
   54MPD2    H7  850   1.260   1.111  12.181 -1.6347  1.7131 -2.3147
   55TMC2    C1  851   1.924   4.065   0.200  0.2846  0.3901 -0.2219
   55TMC2    C2  852   1.956   4.156   0.099  0.0354  0.2261  0.4647
   55TMC2    C3  853   1.966   4.098  17.725 -0.6300  0.2607  0.3388
   55TMC2    C4  854   1.908   3.932   0.183  0.0325  0.1657  0.5170
   55TMC2    C5  855   1.923   3.891   0.055  0.9936 -0.0520  0.0007
   55TMC2    C6  856   1.953   3.971  17.697 -0.2553  0.0099  0.0204
   55TMC2     C  857   1.896   4.108   0.335  0.1959 -0.5823 -0.1028
   55TMC2     O  858   1.869   4.025   0.424 -0.0773  0.6165 -0.8875
   55TMC2     H  859   1.959   4.264   0.106  0.9322  0.3086 -1.0600
   55TMC2    H1  860   1.864   3.875   0.264  1.1448  0.8470  1.6101
   55TMC2    H2  861   1.963   3.933  17.596  1.0021 -0.0577  0.1704
   55TMC2    C7  862   1.944   3.750   0.031  0.1864 -0.7360  0.1059
   55TMC2    C8  863   1.983   4.193  17.618  0.1026 -0.0726 -0.7486
   55TMC2    O1  864   1.917   3.700  17.669  0.1869 -0.3573  0.5511
   55TMC2    O2  865   2.056   4.291  17.612 -0.2600  0.7490 -0.0205
   55TMC2    O5  866   1.885   4.156  17.531 -0.5855  0.3761 -0.5099
   55TMC2    H5  867   1.811   4.115  17.581 -0.8894 -0.2843 -1.4928
   56MPD2     C  868   1.867   4.467   0.433 -0.0262  0.1152  0.4182
   56MPD2    C1  869   1.854   4.334   0.444  0.2409  1.3604  0.3653
   56MPD2    C2  870   1.768   4.286   0.546  0.5314 -0.6310 -0.0811
   56MPD2    C3  871   1.701   4.377   0.623  0.2012  0.5454  0.6309
   56MPD2    C4  872   1.715   4.511   0.603 -0.9364  0.7268 -0.5310
   56MPD2    C5  873   1.797   4.558   0.508 -0.7277 -0.4309  0.7372
   56MPD2     H  874   1.745   4.180   0.548 -0.9115 -0.3440 -1.2776
   56MPD2    H1  875   1.663   4.592   0.654 -1.2919 -1.2843  2.2833
   56MPD2    H2  876   1.939   4.503   0.361  0.9443 -3.2376 -0.2888
   56MPD2    H3  877   1.820   4.663   0.493 -2.0519 -0.0203  1.6286
   56MPD2     N  878   1.617   4.318   0.719 -0.4569 -0.1069 -0.3303
   56MPD2    H5  879   1.616   4.217   0.728  1.9582  0.1236  2.6418
   56MPD2    N1  880   1.912   4.249   0.349 -0.2638 -0.1601  0.3171
   56MPD2    H7  881   1.965   4.292   0.274  0.1100  0.5875  1.0163
   57TMC2    C1  882   1.310   4.520  14.050  0.1730 -1.0288 -0.5531
   57TMC2    C2  883   1.434   4.572  14.043  0.0535 -0.9274 -0.0590
   57TMC2    C3  884   1.506   4.511  13.949  0.6534 -0.2750  0.2364
   57TMC2    C4  885   1.245   4.454  13.952 -0.0648  0.1392 -0.5671
   57TMC2    C5  886   1.322   4.397  13.858 -0.4048 -0.9327  0.1687
   57TMC2    C6  887   1.455   4.423  13.858  0.5133 -0.5484  0.1240
   57TMC2     C  888   1.233   4.571  14.159  0.2552  0.4005 -0.4033
   57TMC2     O  889   1.251   4.681  14.204 -0.1426 -0.2934  0.9186
   57TMC2     H  890   1.477   4.618  14.131 -0.1291  0.8482 -0.8858
   57TMC2    H1  891   1.140   4.428  13.941 -0.8399  2.6293  0.8713
   57TMC2    H2  892   1.520   4.384  13.782  0.0456 -0.6479 -0.2233
   57TMC2    C7  893   1.258   4.347  13.734  0.6721  0.5413  0.6774
   57TMC2    C8  894   1.643   4.489  13.972  0.9112 -0.2595 -0.0168
   57TMC2    O1  895   1.145   4.375  13.704 -0.1940  0.1234  0.2751
   57TMC2    O2  896   1.730   4.484  13.885  0.4752 -1.1680 -0.5599
   57TMC2    O5  897   1.643   4.389  14.070  0.3537 -0.3730 -0.1256
   57TMC2    H5  898   1.565   4.390  14.129  0.5655 -0.1800  0.1488
   58MPD2     C  899   0.743   4.498  14.309  0.1079 -0.0565 -0.8335
   58MPD2    C1  900   0.804   4.606  14.261 -0.8201  0.1247  0.0806
   58MPD2    C2  901   0.940   4.599  14.227  0.2740 -0.3301  0.0532
   58MPD2    C3  902   1.013   4.485  14.244  0.5819  0.1600  0.2914
   58MPD2    C4  903   0.949   4.373  14.286 -0.2465 -0.3300 -0.4218
   58MPD2    C5  904   0.816   4.380  14.324  0.0905  0.2112 -0.3696
   58MPD2     H  905   0.994   4.681  14.180 -0.3778 -0.2589 -0.5660
   58MPD2    H1  906   0.998   4.277  14.294 -0.4185 -0.5631 -2.1509
   58MPD2    H2  907   0.642   4.496  14.349  0.7747  0.9040  0.9077
   58MPD2    H3  908   0.762   4.307  14.382 -0.9340  1.5435  0.3692
   58MPD2     N  909   1.143   4.476  14.190  0.5713 -0.2830  0.0706
   58MPD2    H5  910   1.163   4.380  14.165  0.9506 -0.4216  0.8950
   58MPD2    N1  911   0.737   4.727  14.232  0.2043 -0.2806 -0.5862
   58MPD2    H7  912   0.778   0.073  14.192  0.7408 -0.8413 -1.1878
   59TMC2    C1  913   3.451   4.536  12.874  0.3354 -0.3052 -0.2403
   59TMC2    C2  914   3.489   4.413  12.906 -0.1043 -0.4714  0.2454
   59TMC2    C3  915   3.419   4.307  12.856  0.8476 -0.6908  0.0958
   59TMC2    C4  916   3.344   4.553  12.785 -0.2802  0.7301 -0.6549
   59TMC2    C5  917   3.288   4.436  12.722  0.2919 -0.3540 -0.1040
   59TMC2    C6  918   3.323   4.310  12.769 -0.3302  0.6888 -0.3171
   59TMC2     C  919   3.523   4.652  12.932 -0.5934 -0.0176  0.1955
   59TMC2     O  920   3.518   0.015  12.863 -0.4919  0.2454  0.1332
   59TMC2     H  921   3.557   4.398  12.989  1.7036 -2.0590 -1.4992
   59TMC2    H1  922   3.298   4.649  12.764  1.1588  0.8640 -3.1931
   59TMC2    H2  923   3.272   4.221  12.733 -1.4206  2.0001 -1.9947
   59TMC2    C7  924   3.194   4.436  12.604  0.5220 -0.2674 -0.4523
   59TMC2    C8  925   3.466   4.175  12.889 -0.7024  0.4884 -0.4162
   59TMC2    O1  926   3.158   4.327  12.556 -0.2287 -0.0849  0.1877
   59TMC2    O2  927   3.391   4.077  12.899  0.2961  0.1354  0.4880
   59TMC2    O5  928   3.595   4.174  12.843 -0.5551 -0.0256  0.1634
   59TMC2    H5  929   3.617   4.258  12.797  0.9162 -0.2913  0.3811
   60MPD2     C  930   3.634   0.137  13.106 -0.0701 -0.7438  0.6172
   60MPD2    C1  931   3.636   0.005  13.130 -0.2453  1.1991  1.1002
   60MPD2    C2  932   3.695   4.707  13.250  0.3172 -0.5854  0.4927
   60MPD2    C3  933   3.739   0.056  13.346 -0.1375 -0.3931  0.7253
   60MPD2    C4  934   3.714   0.185  13.324 -0.3068 -0.1567  0.6251
   60MPD2    C5  935   3.663   0.229  13.207 -0.8418 -0.6466 -0.8936
   60MPD2     H  936   3.709   4.600  13.260  1.7853 -0.3291  1.1923
   60MPD2    H1  937   3.743   0.257  13.399  1.2866 -0.3396  0.1884
   60MPD2    H2  938   3.596   0.170  13.009  2.1456 -2.7996 -0.9499
   60MPD2    H3  939   3.646   0.334  13.185  1.6279 -0.1780 -0.6127
   60MPD2     N  940   3.814   0.010  13.455  0.1849 -0.3448  0.3527
   60MPD2    H5  941   3.853   0.079  13.518  1.9604 -0.8621 -0.1913
   60MPD2    N1  942   3.581   4.635  13.053  0.0719  0.3265  0.2777
   60MPD2    H7  943   3.588   4.542  13.094  3.1715 -0.3923 -1.8597
   61TMC2    C1  944   2.805   0.798  15.783  0.1950  0.6779  0.3976
   61TMC2    C2  945   2.718   0.695  15.806  0.0746 -0.1898 -0.1365
   61TMC2    C3  946   2.582   0.732  15.833 -0.3704 -0.1395  0.5193
   61TMC2    C4  947   2.766   0.936  15.779  0.2836 -0.4700 -0.0559
   61TMC2    C5  948   2.636   0.965  15.788  0.1116 -0.2421  0.3654
   61TMC2    C6  949   2.547   0.862  15.823 -0.0361 -0.1700 -0.1861
   61TMC2     C  950   2.905   0.763  15.682 -0.2210  0.6090  0.4414
   61TMC2     O  951   2.954   0.652  15.668 -0.8564  0.2343 -0.3509
   61TMC2     H  952   2.752   0.592  15.802  1.5863  0.2518  1.0741
   61TMC2    H1  953   2.832   1.020  15.762  0.7151 -0.5387  1.2767
   61TMC2    H2  954   2.440   0.872  15.834 -0.3800 -2.1534 -1.7955
   61TMC2    C7  955   2.597   1.083  15.707  0.2365  0.2577 -0.0147
   61TMC2    C8  956   2.491   0.636  15.890 -0.6967 -0.0426 -0.6681
   61TMC2    O1  957   2.668   1.124  15.614 -0.6924 -0.3815 -0.4547
   61TMC2    O2  958   2.370   0.638  15.902 -0.4534 -0.9174  0.4963
   61TMC2    O5  959   2.570   0.543  15.944  0.8242  0.4529  0.1975
   61TMC2    H5  960   2.667   0.561  15.941  0.8967 -0.2045 -1.2145
   62MPD2     C  961   3.045   0.771  15.416  0.1123 -0.4449 -0.2976
   62MPD2    C1  962   2.972   0.875  15.469  0.8679  0.2623 -0.0705
   62MPD2    C2  963   2.958   0.996  15.400  0.2799  0.5490 -0.0820
   62MPD2    C3  964   3.012   1.009  15.272  0.3853  0.3638 -0.4265
   62MPD2    C4  965   3.089   0.907  15.228 -0.9655 -0.2855  0.3445
   62MPD2    C5  966   3.108   0.792  15.296 -0.2927 -0.3196  0.2892
   62MPD2     H  967   2.899   1.077  15.442  0.5731 -0.2557  1.9037
   62MPD2    H1  968   3.127   0.909  15.127  2.2497 -0.1438  1.5336
   62MPD2    H2  969   3.072   0.681  15.470  1.1433  0.8672  1.4143
   62MPD2    H3  970   3.168   0.716  15.246 -0.0316 -0.9758  1.6121
   62MPD2     N  971   2.968   1.110  15.192 -0.4009  0.4750 -0.6746
   62MPD2    H5  972   2.887   1.160  15.226 -0.5829  0.5470 -1.2036
   62MPD2    N1  973   2.899   0.868  15.589 -0.3678 -0.2802 -0.2253
   62MPD2    H7  974   2.839   0.948  15.609 -1.7218 -1.3623  0.0189
   63TMC2    C1  975   2.029   1.690  10.169 -0.3188  0.5887 -0.1411
   63TMC2    C2  976   2.127   1.672  10.262  0.5789  1.0783  0.1522
   63TMC2    C3  977   2.242   1.748  10.250 -0.5187  0.3311  0.1267
   63TMC2    C4  978   2.045   1.787  10.077 -0.4309  0.7250 -0.3421
   63TMC2    C5  979   2.154   1.865  10.076 -1.3695 -0.2003  0.2972
   63TMC2    C6  980   2.261   1.844  10.154  0.3956 -0.1710  0.3127
   63TMC2     C  981   1.928   1.584  10.145  0.3307  0.3591 -0.7581
   63TMC2     O  982   1.827   1.607  10.077 -0.5245  0.1761 -0.2642
   63TMC2     H  983   2.115   1.606  10.348 -0.5335  1.5662  0.3753
   63TMC2    H1  984   1.975   1.796   9.994  0.1840  1.0170 -0.8260
   63TMC2    H2  985   2.356   1.897  10.161  1.1944 -1.6743  0.9085
   63TMC2    C7  986   2.168   1.967   9.974 -0.8489 -0.1094  0.2352
   63TMC2    C8  987   2.358   1.717  10.329  0.3094 -0.4511 -0.1890
   63TMC2    O1  988   2.069   2.011   9.918 -0.2179  0.4416  0.1567
   63TMC2    O2  989   2.463   1.699  10.271  0.5389 -0.0235 -0.1650
   63TMC2    O5  990   2.309   1.661  10.441 -0.1716 -0.1685  0.2290
   63TMC2    H5  991   2.224   1.693  10.479 -0.3557  1.2130 -1.3866
   64MPD2     C  992   1.712   1.234  10.443  0.4120 -1.0416  0.1488
   64MPD2    C1  993   1.850   1.205  10.443  0.5620 -0.5268  0.0705
   64MPD2    C2  994   1.929   1.286  10.359 -0.0431  0.1344  0.2053
   64MPD2    C3  995   1.872   1.394  10.287  0.4140 -0.8530  0.1823
   64MPD2    C4  996   1.745   1.430  10.300  0.8405 -0.2773 -0.0178
   64MPD2    C5  997   1.673   1.347  10.382  0.3232  0.1209  0.6510
   64MPD2     H  998   2.034   1.262  10.348 -0.1699 -0.3149 -0.0186
   64MPD2    H1  999   1.706   1.523  10.262  0.9618  0.1598  0.9197
   64MPD2    H2 1000   1.638   1.182  10.503  1.5226 -1.4533  1.1653
   64MPD2    H3 1001   1.567   1.367  10.395  0.2196 -1.1865  1.8753
   64MPD2     N 1002   1.959   1.465  10.201  0.0477 -0.1890 -0.3736
   64MPD2    H5 1003   2.056   1.436  10.203  0.3438  0.5242 -3.4753
   64MPD2    N1 1004   1.911   1.102  10.519  0.3445 -0.4371 -0.4118
   64MPD2    H7 1005   1.999   1.066  10.481 -0.3430 -1.3402 -1.1429
   65TMC2    C1 1006   3.786   1.024  15.422  0.0699  0.0205 -0.4518
   65TMC2    C2 1007   3.742   0.969  15.306 -0.4309 -0.0601 -0.4315
   65TMC2    C3 1008   3.689   1.057  15.219  0.6854 -0.0186 -0.2950
   65TMC2    C4 1009   3.774   1.158  15.452  0.3828  0.0241  0.3428
   65TMC2    C5 1010   3.735   1.242  15.349  0.5434 -0.0964  0.1306
   65TMC2    C6 1011   3.682   1.190  15.234  0.0483  0.0733  0.7005
   65TMC2     C 1012   3.784   0.944  15.538  0.7879  1.2014  0.0655
   65TMC2     O 1013   3.799   0.994  15.645 -0.0642  0.6244 -0.2992
   65TMC2     H 1014   3.774   0.867  15.290 -0.0474  0.2913 -1.9479
   65TMC2    H1 1015   3.807   1.205  15.544 -2.1361 -0.5353  1.5423
   65TMC2    H2 1016   3.642   1.258  15.159 -1.8359 -0.4262  1.2367
   65TMC2    C7 1017   3.681   1.366  15.390 -0.0479  0.1063 -0.3830
   65TMC2    C8 1018   3.664   1.000  15.087  0.0187 -0.0761 -0.1720
   65TMC2    O1 1019   3.711   1.464  15.321  0.4354  0.3642  0.1326
   65TMC2    O2 1020   3.737   0.916  15.041 -0.0407  0.2924 -0.2655
   65TMC2    O5 1021   3.582   1.087  15.022 -0.0876  0.7376  0.0883
   65TMC2    H5 1022   3.520   1.123  15.088 -1.4688 -1.7623  0.1671
   66MPD2     C 1023   3.744   0.731  15.744  0.4810 -0.2830 -0.1917
   66MPD2    C1 1024   3.713   0.713  15.606  0.8448  0.2588 -0.2823
   66MPD2    C2 1025   3.662   0.591  15.555 -0.0621  0.6535 -0.2413
   66MPD2    C3 1026   3.642   0.484  15.638 -0.7516 -0.5098  0.0750
   66MPD2    C4 1027   3.675   0.505  15.770  0.0179  0.9635 -0.2085
   66MPD2    C5 1028   3.716   0.623  15.820 -0.2869 -0.4332 -0.0360
   66MPD2     H 1029   3.650   0.564  15.450 -1.0404  2.5296 -0.6098
   66MPD2    H1 1030   3.671   0.423  15.841 -0.2061  1.7282  0.6593
   66MPD2    H2 1031   3.782   0.821  15.790 -0.6343  0.8587 -1.4665
   66MPD2    H3 1032   3.747   0.632  15.923  0.1532  1.1075 -0.2896
   66MPD2     N 1033   3.605   0.351  15.595  1.1392 -0.1348  0.4459
   66MPD2    H5 1034   3.595   0.290  15.675  0.2025 -0.1194  0.3356
   66MPD2    N1 1035   3.744   0.814  15.510 -0.0388 -0.3623  0.1065
   66MPD2    H7 1036   3.718   0.799  15.413  0.4229 -1.7411  0.1965
   67TMC2    C1 1037   3.737   0.216  14.342 -0.6002 -0.3984  0.0656
   67TMC2    C2 1038   3.699   0.347  14.342 -0.4714  0.1271 -0.1763
   67TMC2    C3 1039   3.767   0.443  14.418  0.2196 -0.5553 -0.1883
   67TMC2    C4 1040   3.852   0.186  14.402  0.6085 -1.0882  0.2923
   67TMC2    C5 1041   3.911   0.279  14.481  0.0830  0.0943 -0.5665
   67TMC2    C6 1042   3.873   0.409  14.496 -0.1043 -0.2427  0.1762
   67TMC2     C 1043   3.691   0.129  14.235  0.3553 -0.0360 -0.1602
   67TMC2     O 1044   3.771   0.048  14.192 -0.5117 -0.1468  0.3553
   67TMC2     H 1045   3.629   0.385  14.269 -1.2738  0.6107  0.8531
   67TMC2    H1 1046   3.883   0.082  14.407 -1.0061 -1.5531  0.4826
   67TMC2    H2 1047   3.929   0.474  14.563 -1.5608  0.4320  0.7477
   67TMC2    C7 1048   4.016   0.231  14.560  1.1858  0.1585  0.0565
   67TMC2    C8 1049   3.734   0.581  14.395 -0.3884 -0.8353 -0.9663
   67TMC2    O1 1050   4.085   0.151  14.507 -0.5245  0.3166 -0.1866
   67TMC2    O2 1051   3.640   0.612  14.323  0.0311  0.0841 -0.0439
   67TMC2    O5 1052   3.782   0.644  14.509 -0.3363 -0.2711  0.1817
   67TMC2    H5 1053   3.761   0.738  14.527  0.3977 -0.4707  2.0761
   68MPD2     C 1054   3.567   0.013  13.987  0.1732 -0.6762 -0.4975
   68MPD2    C1 1055   3.491   0.080  14.084  0.0916 -0.1164 -0.2102
   68MPD2    C2 1056   3.352   0.079  14.080  0.3231  0.0733 -0.1084
   68MPD2    C3 1057   3.288   0.018  13.973  0.1312  0.1735  1.2504
   68MPD2    C4 1058   3.360   4.694  13.872  0.5149  0.6470  0.1842
   68MPD2    C5 1059   3.497   4.696  13.879 -0.5560  1.0174 -0.0981
   68MPD2     H 1060   3.301   0.129  14.161  2.0951 -0.9911  1.6552
   68MPD2    H1 1061   3.313   4.637  13.794 -0.6853  3.3078 -1.0563
   68MPD2    H2 1062   3.675   0.005  13.981  0.2378  0.0075 -0.3344
   68MPD2    H3 1063   3.555   4.647  13.802  0.1673  0.5054  0.7717
   68MPD2     N 1064   3.150   0.009  13.960 -0.4622  0.0745 -0.3200
   68MPD2    H5 1065   3.108   4.698  13.882 -4.1146  1.9414  0.4718
   68MPD2    N1 1066   3.555   0.143  14.198 -0.1311 -0.2693  0.0263
   68MPD2    H7 1067   3.495   0.198  14.258  0.5739  3.4946 -2.7733
   69TMC2    C1 1068   0.840   1.559  12.478 -0.2702 -0.4541  0.6524
   69TMC2    C2 1069   0.701   1.588  12.463 -0.1007  0.1647  0.7157
   69TMC2    C3 1070   0.671   1.634  12.334 -0.6323 -0.2067  0.4570
   69TMC2    C4 1071   0.940   1.572  12.383 -0.4156 -0.0942 -0.0838
   69TMC2    C5 1072   0.894   1.599  12.263  0.9444  1.1433 -0.0895
   69TMC2    C6 1073   0.768   1.641  12.237 -0.6753  0.7164 -0.4905
   69TMC2     C 1074   0.877   1.497  12.603 -0.0239  0.3307 -0.3898
   69TMC2     O 1075   0.804   1.410  12.658 -0.9517  0.2619  0.2042
   69TMC2     H 1076   0.631   1.599  12.545 -0.8277  0.4927  0.0454
   69TMC2    H1 1077   1.046   1.558  12.395 -0.3770  0.9105  0.7158
   69TMC2    H2 1078   0.746   1.671  12.135  0.4660  1.3516 -0.5545
   69TMC2    C7 1079   0.989   1.584  12.158 -0.0488  0.5030 -0.0915
   69TMC2    C8 1080   0.529   1.646  12.305  0.0215  0.3190  0.0003
   69TMC2    O1 1081   1.108   1.578  12.183  0.0680  0.3882 -0.1271
   69TMC2    O2 1082   0.437   1.600  12.375 -0.0771  0.6805  0.2736
   69TMC2    O5 1083   0.522   1.729  12.202  0.5057 -0.0754  0.0256
   69TMC2    H5 1084   0.611   1.754  12.171  1.0003  0.2097  1.7432
   70MPD2     C 1085   1.179   1.569  12.803  0.6211 -0.1325  0.1289
   70MPD2    C1 1086   1.067   1.496  12.762 -0.6680 -0.1968  0.4678
   70MPD2    C2 1087   1.043   1.371  12.819  0.1309  0.4892  0.0931
   70MPD2    C3 1088   1.118   1.327  12.922  0.4620 -0.6323  0.2949
   70MPD2    C4 1089   1.220   1.411  12.960 -0.2415 -0.2182 -0.0765
   70MPD2    C5 1090   1.249   1.536  12.913  0.3617  0.0346  0.2164
   70MPD2     H 1091   0.971   1.301  12.779  0.2786  0.4189 -0.0478
   70MPD2    H1 1092   1.276   1.371  13.044 -1.0722  0.0757  0.6260
   70MPD2    H2 1093   1.205   1.657  12.745 -1.4927 -0.0422 -0.6980
   70MPD2    H3 1094   1.333   1.597  12.946  1.2438 -1.4470  0.7328
   70MPD2     N 1095   1.089   1.206  12.989  0.4614  0.2005  0.0752
   70MPD2    H5 1096   1.159   1.181  13.057 -0.2480  0.0218  0.7408
   70MPD2    N1 1097   0.994   1.551  12.652  0.3671 -0.3204  0.4796
   70MPD2    H7 1098   1.039   1.629  12.605  0.0070  0.1052  0.8393
   71TMC2    C1 1099   3.190   2.505   1.947 -0.3755 -0.1499  0.4608
   71TMC2    C2 1100   3.262   2.436   2.042 -0.1395  0.5132 -0.7417
   71TMC2    C3 1101   3.272   2.497   2.161  0.0524  0.7703 -0.2934
   71TMC2    C4 1102   3.128   2.624   1.978 -0.7843 -0.0863  0.8335
   71TMC2    C5 1103   3.133   2.671   2.098 -0.0582  0.1934  0.6947
   71TMC2    C6 1104   3.207   2.608   2.194  0.2980  0.0381 -0.1823
   71TMC2     C 1105   3.210   2.469   1.807 -0.6984  0.3000 -0.1764
   71TMC2     O 1106   3.326   2.431   1.781  0.7527 -0.5776 -0.2401
   71TMC2     H 1107   3.322   2.353   2.007  2.1423  1.9172 -0.1010
   71TMC2    H1 1108   3.070   2.673   1.901 -2.0184 -0.3799  1.5682
   71TMC2    H2 1109   3.227   2.650   2.292  1.1442  0.2228 -0.4319
   71TMC2    C7 1110   3.031   2.760   2.155 -0.1386  0.4547 -0.2160
   71TMC2    C8 1111   3.377   2.472   2.254 -0.3671 -0.6468  0.2070
   71TMC2    O1 1112   3.051   2.786   2.270  0.0867 -0.6648 -0.2793
   71TMC2    O2 1113   3.474   2.545   2.271  0.1196 -0.6671 -0.4729
   71TMC2    O5 1114   3.385   2.336   2.253 -0.1423 -0.0179 -0.4646
   71TMC2    H5 1115   3.293   2.302   2.241 -0.5845  1.6907 -1.8937
   72MPD2     C 1116   3.035   2.308   1.367  0.5481  0.1437  0.0208
   72MPD2    C1 1117   3.166   2.347   1.405 -0.1035 -0.4619 -0.2635
   72MPD2    C2 1118   3.186   2.394   1.529  0.6484 -0.1851  0.1277
   72MPD2    C3 1119   3.077   2.416   1.611 -0.1503  0.4921 -0.4436
   72MPD2    C4 1120   2.950   2.388   1.570  0.1636 -0.1475  0.6624
   72MPD2    C5 1121   2.931   2.330   1.448 -0.6302  0.6541 -0.4448
   72MPD2     H 1122   3.284   2.427   1.561  0.1474  2.0826 -0.6821
   72MPD2    H1 1123   2.865   2.395   1.637  0.7543 -1.7240  1.5699
   72MPD2    H2 1124   3.009   2.263   1.272 -1.0591  1.6631 -0.2503
   72MPD2    H3 1125   2.831   2.322   1.407 -0.2469 -0.3499 -1.1809
   72MPD2     N 1126   3.095   2.471   1.742  0.1845 -0.0625  0.2488
   72MPD2    H5 1127   3.006   2.496   1.783  0.5471 -1.8672  2.0927
   72MPD2    N1 1128   3.270   2.340   1.311 -0.5876 -0.3470 -1.0044
   72MPD2    H7 1129   3.354   2.388   1.340 -2.8423  1.8848  1.8494
   73TMC2    C1 1130   2.467   3.625  14.059 -0.9820  0.3956  0.4458
   73TMC2    C2 1131   2.468   3.565  13.938 -0.3269  0.0267  0.1232
   73TMC2    C3 1132   2.494   3.432  13.926 -0.5361  0.2174 -0.3380
   73TMC2    C4 1133   2.499   3.548  14.171  0.2639 -0.3438  0.6447
   73TMC2    C5 1134   2.546   3.419  14.151  0.7242  0.3988 -0.1020
   73TMC2    C6 1135   2.542   3.357  14.030  0.5307 -0.4600 -0.0139
   73TMC2     C 1136   2.524   3.754  14.074 -0.4542 -0.8634  0.6751
   73TMC2     O 1137   2.608   3.766  14.158 -0.4380 -0.2179  0.8659
   73TMC2     H 1138   2.457   3.632  13.854  0.4566  1.0478  0.8365
   73TMC2    H1 1139   2.490   3.585  14.273  1.2750  0.4244  0.4575
   73TMC2    H2 1140   2.582   3.257  14.019  1.7657  0.2721 -2.3078
   73TMC2    C7 1141   2.666   3.398  14.224 -0.2678 -0.1380  0.2218
   73TMC2    C8 1142   2.497   3.365  13.799 -0.3129 -0.0287 -0.4570
   73TMC2    O1 1143   2.716   3.287  14.209 -0.0850  0.8437  0.2682
   73TMC2    O2 1144   2.447   3.258  13.785 -0.1764 -0.3848 -0.1330
   73TMC2    O5 1145   2.510   3.447  13.696 -0.3115  0.2090 -0.6284
   73TMC2    H5 1146   2.576   3.517  13.718 -0.8931 -0.3406  2.8728
   74MPD2     C 1147   2.585   4.241  13.940 -0.3171  0.2568  0.3299
   74MPD2    C1 1148   2.674   4.147  13.994  0.1775  0.1280  0.1041
   74MPD2    C2 1149   2.625   4.020  14.028  0.3323  0.4790 -0.6084
   74MPD2    C3 1150   2.498   3.987  13.988 -1.1020  0.6375 -0.6025
   74MPD2    C4 1151   2.411   4.077  13.918  0.3196 -0.7248 -0.6750
   74MPD2    C5 1152   2.456   4.206  13.897 -0.5694  0.4382 -0.4171
   74MPD2     H 1153   2.692   3.941  14.059  1.1974  1.5448  0.2162
   74MPD2    H1 1154   2.315   4.034  13.891 -0.2428  1.4462 -2.2215
   74MPD2    H2 1155   2.622   4.334  13.897  1.2449  0.8618  2.9800
   74MPD2    H3 1156   2.387   4.280  13.856 -2.4161 -1.5743 -0.9631
   74MPD2     N 1157   2.456   3.854  14.002  0.1622 -0.4120  0.8871
   74MPD2    H5 1158   2.367   3.822  13.965  0.5799 -1.6014  0.9315
   74MPD2    N1 1159   2.810   4.183  14.018 -0.1862  0.0106 -0.1689
   74MPD2    H7 1160   2.853   4.268  13.983 -0.5426  0.1334 -0.3095
   75TMC2    C1 1161   2.922   0.059  13.997  0.6273 -0.3994  0.1451
   75TMC2    C2 1162   2.838   0.080  14.106 -0.5828 -0.4710  0.7272
   75TMC2    C3 1163   2.716   0.138  14.092  0.2884 -0.3074  0.2076
   75TMC2    C4 1164   2.892   0.102  13.875  0.0314  0.1554 -0.1746
   75TMC2    C5 1165   2.772   0.173  13.872  0.0803  0.0097 -0.2805
   75TMC2    C6 1166   2.681   0.182  13.974  0.3400 -0.3437  0.3244
   75TMC2     C 1167   3.061   0.075  14.038 -0.2280 -0.3582 -0.3350
   75TMC2     O 1168   3.081   0.145  14.138 -0.2382  0.5987 -0.2904
   75TMC2     H 1169   2.859   0.047  14.207 -0.4901  0.2934  0.9547
   75TMC2    H1 1170   2.955   0.090  13.788 -0.9733 -2.8250 -0.5200
   75TMC2    H2 1171   2.584   0.229  13.963  0.3189 -0.5530 -0.3725
   75TMC2    C7 1172   2.704   0.180  13.738  0.4241 -0.8413  0.0889
   75TMC2    C8 1173   2.651   0.197  14.210  0.3371 -0.4832  0.2693
   75TMC2    O1 1174   2.753   0.104  13.653  0.2317  0.0765  0.1873
   75TMC2    O2 1175   2.716   0.194  14.311 -0.3440  0.1643 -0.2487
   75TMC2    O5 1176   2.522   0.178  14.199  0.5698  0.3369 -0.4447
   75TMC2    H5 1177   2.502   0.134  14.114  1.1467  0.5740 -0.7043
   76TMC2    C1 1178   2.068   1.103  12.362  0.2578  0.2222 -0.3105
   76TMC2    C2 1179   2.045   1.169  12.480 -0.4021  0.7684 -0.3215
   76TMC2    C3 1180   2.040   1.098  12.592  0.4342  0.4077  0.2317
   76TMC2    C4 1181   2.086   0.966  12.366  0.1494 -0.6344 -0.5587
   76TMC2    C5 1182   2.079   0.898  12.485 -0.3748  0.1093 -0.1632
   76TMC2    C6 1183   2.064   0.967  12.602 -0.7064  0.1474 -0.2741
   76TMC2     C 1184   2.085   1.171  12.237 -0.1617 -0.8019  0.4292
   76TMC2     O 1185   2.091   1.295  12.244 -0.0517  1.3079  0.1269
   76TMC2     H 1186   2.043   1.276  12.497 -1.8982  0.6546  0.2391
   76TMC2    H1 1187   2.099   0.908  12.275 -1.3829 -0.1336 -1.1085
   76TMC2    H2 1188   2.041   0.917  12.695  0.7615 -0.4618 -0.2285
   76TMC2    C7 1189   2.127   0.761  12.503 -0.2143 -0.1892  0.2859
   76TMC2    C8 1190   1.997   1.168  12.712  0.3380  0.5998 -0.3716
   76TMC2    O1 1191   2.131   0.681  12.406 -0.4430 -0.4940 -0.1702
   76TMC2    O2 1192   1.955   1.282  12.705 -0.1632  0.1771 -0.0505
   76TMC2    O5 1193   2.101   1.151  12.793 -0.1564  0.3093  0.0636
   76TMC2    H5 1194   2.139   1.061  12.780 -0.7691  0.0284  0.2337
   77MPD2     C 1195   2.026   1.211  11.726  0.3750  0.4925  0.3816
   77MPD2    C1 1196   1.977   1.290  11.825  0.3707  0.0958  0.1472
   77MPD2    C2 1197   2.018   1.257  11.958 -0.3121  0.0662  0.0520
   77MPD2    C3 1198   2.087   1.137  11.988  0.1455 -0.1772  0.3172
   77MPD2    C4 1199   2.117   1.050  11.890 -0.1984 -0.0349 -0.0732
   77MPD2    C5 1200   2.096   1.098  11.755 -0.7782 -0.4857 -0.0002
   77MPD2     H 1201   1.981   1.317  12.041 -0.3671  0.0662  0.0276
   77MPD2    H1 1202   2.168   0.956  11.912  1.9850  1.3432  0.8144
   77MPD2    H2 1203   2.001   1.231  11.623 -0.7991 -1.7839  0.2202
   77MPD2    H3 1204   2.125   1.040  11.668  1.8144  0.9892 -0.1381
   77MPD2     N 1205   2.108   1.092  12.122  0.4220  0.2054  0.8052
   77MPD2    H5 1206   2.151   1.001  12.131  0.4178  0.1253  0.0273
   77MPD2    N1 1207   1.886   1.392  11.799  0.3987 -0.2983  0.5579
   77MPD2    H7 1208   1.827   1.419  11.877 -1.4388 -2.6450  0.0092
   78TMC2    C1 1209   3.542   2.719   1.874 -0.0209 -0.1723  0.6658
   78TMC2    C2 1210   3.590   2.740   2.000  0.5246 -0.2411  0.2078
   78TMC2    C3 1211   3.672   2.656   2.059 -0.4670 -0.1710 -0.4540
   78TMC2    C4 1212   3.565   2.596   1.819 -0.1513  0.4704 -0.0209
   78TMC2    C5 1213   3.649   2.509   1.879 -0.0442  0.5787 -0.0101
   78TMC2    C6 1214   3.715   2.536   1.997 -0.2319 -0.0544 -0.1871
   78TMC2     C 1215   3.427   2.802   1.829 -1.1689  0.5470 -0.5218
   78TMC2     O 1216   3.371   2.877   1.912 -0.0067  0.6281 -0.2727
   78TMC2     H 1217   3.555   2.829   2.052  1.7812  0.6660 -0.4922
   78TMC2    H1 1218   3.501   2.568   1.736  0.7426  0.8343 -0.8333
   78TMC2    H2 1219   3.774   2.457   2.042 -0.6027  0.3138  0.9718
   78TMC2    C7 1220   3.679   2.387   1.811 -0.0833 -0.8981  0.4722
   78TMC2    C8 1221   3.742   2.710   2.178  0.5567 -0.0395  0.3910
   78TMC2    O1 1222   3.783   2.334   1.841 -0.2074 -0.4507  0.4122
   78TMC2    O2 1223   3.768   2.824   2.187 -0.5946  0.0490  0.4507
   78TMC2    O5 1224   3.771   2.611   2.265 -0.7191 -0.3825 -0.8148
   78TMC2    H5 1225   3.729   2.525   2.243  1.3793 -1.4761 -0.5281
   79MPD1     C 1226   3.019   2.857   1.523  0.2442  0.1107  0.5791
   79MPD1    C1 1227   3.052   2.917   1.649  0.1200  0.2728 -0.2358
   79MPD1    C2 1228   3.176   2.896   1.697 -0.2340  0.1551 -0.6784
   79MPD1    C3 1229   3.261   2.805   1.638 -0.1040 -0.6292  0.1141
   79MPD1    C4 1230   3.219   2.728   1.524 -0.6549 -0.1474 -0.9329
   79MPD1    C5 1231   3.097   2.755   1.477  0.1077  0.3749  0.3723
   79MPD1     H 1232   3.216   2.963   1.773 -1.1297 -0.2278  0.1365
   79MPD1    H1 1233   3.278   2.655   1.469 -2.1016  0.2594 -3.0406
   79MPD1    H2 1234   2.921   2.876   1.482  1.0102  0.6368 -1.0060
   79MPD1    H3 1235   3.059   2.699   1.392 -1.4348 -0.8855  1.8877
   79MPD1     N 1236   3.393   2.775   1.701 -0.7574  0.6581  0.5148
   79MPD1    H5 1237   3.449   2.710   1.647 -0.3522  1.2137  0.2626
   79MPD1    N1 1238   2.962   3.017   1.705  0.2977  0.3579 -0.2094
   79MPD1    H6 1239   2.864   2.994   1.699  0.6048 -0.9899 -0.0801
   79MPD1    H7 1240   2.983   3.038   1.802 -0.3260  1.2807 -0.2713
   80TMC2    C1 1241   1.172   4.627  12.412 -0.2231 -0.7218  0.4472
   80TMC2    C2 1242   1.235   4.520  12.461  0.2517 -0.3843  0.3739
   80TMC2    C3 1243   1.168   4.401  12.452 -0.4183  0.0054  0.0020
   80TMC2    C4 1244   1.046   4.626  12.356  0.0405 -0.0811  0.5875
   80TMC2    C5 1245   0.981   4.514  12.363  0.1684 -0.8356  0.7615
   80TMC2    C6 1246   1.038   4.398  12.417  0.1774 -0.5126  0.5266
   80TMC2     C 1247   1.209   0.017  12.482 -0.0448 -0.4765  0.3422
   80TMC2     O 1248   1.314   0.010  12.542 -0.0676  0.6031  0.0122
   80TMC2     H 1249   1.331   4.515  12.512 -0.4926 -2.9869  1.4791
   80TMC2    H1 1250   1.004   4.718  12.317 -0.6760 -0.4169  0.5780
   80TMC2    H2 1251   0.991   4.301  12.420  1.0110 -0.9514 -0.4429
   80TMC2    C7 1252   0.840   4.530  12.350 -0.3734 -0.8423 -0.7930
   80TMC2    C8 1253   1.247   4.278  12.468  0.1001 -0.3050 -0.5188
   80TMC2    O1 1254   0.791   4.607  12.266  0.1794 -0.6558  0.1832
   80TMC2    O2 1255   1.363   4.271  12.445 -0.2370 -0.4748 -0.4891
   80TMC2    O5 1256   1.174   4.192  12.541  0.2289  0.3257  0.1749
   80TMC2    H5 1257   1.087   4.228  12.568  0.3868 -0.5984  1.9326
   81MPD2     C 1258   1.234   0.254  12.650 -0.1542 -0.0580 -0.4444
   81MPD2    C1 1259   1.116   0.210  12.595 -0.4263 -0.6369 -0.4892
   81MPD2    C2 1260   0.997   0.254  12.647 -0.2124  0.0042  0.2983
   81MPD2    C3 1261   0.991   0.350  12.747  0.7294 -0.4496  0.3824
   81MPD2    C4 1262   1.113   0.400  12.793 -0.3468 -0.5901  0.7647
   81MPD2    C5 1263   1.225   0.353  12.747  0.0236  0.3012  0.4541
   81MPD2     H 1264   0.904   0.213  12.611 -0.0954  1.7824 -2.0913
   81MPD2    H1 1265   1.127   0.469  12.875  1.9125 -2.9557  2.3671
   81MPD2    H2 1266   1.333   0.220  12.626 -0.3601  0.5901 -2.2080
   81MPD2    H3 1267   1.319   0.375  12.796  0.7259 -2.9255  0.5611
   81MPD2     N 1268   0.864   0.405  12.793 -0.0113  0.0397  0.3273
   81MPD2    H5 1269   0.786   0.347  12.763 -0.9245  1.3595  0.1459
   81MPD2    N1 1270   1.109   0.110  12.499  0.2132 -0.4530  0.5335
   81MPD2    H7 1271   1.020   0.103  12.452  0.4272  0.4082  0.0069
   82TMC2    C1 1272   3.619   0.119  11.681 -0.1585  0.2931  0.5531
   82TMC2    C2 1273   3.660   0.124  11.814  0.0296 -0.2754  0.2897
   82TMC2    C3 1274   3.745   0.021  11.853  0.4315 -0.1226 -0.4195
   82TMC2    C4 1275   3.648   0.016  11.599 -0.5082  0.6782  0.0003
   82TMC2    C5 1276   3.714   4.641  11.654  0.2719 -0.1582  0.1621
   82TMC2    C6 1277   3.771   4.645  11.779  0.0666 -0.0280  0.2892
   82TMC2     C 1278   3.479   0.161  11.658  0.1477 -0.1455  0.0695
   82TMC2     O 1279   3.439   0.160  11.543  0.1707 -0.5016  0.0752
   82TMC2     H 1280   3.630   0.205  11.880  2.5372  0.9888 -0.0928
   82TMC2    H1 1281   3.604   0.014  11.500 -1.6432  1.4566  0.4866
   82TMC2    H2 1282   3.829   4.562  11.818 -1.2801 -1.7371 -1.3150
   82TMC2    C7 1283   3.691   4.505  11.605 -0.8382 -0.0545 -0.1285
   82TMC2    C8 1284   3.820   0.041  11.977 -0.2784  0.7178 -0.1432
   82TMC2    O1 1285   3.746   4.418  11.667  0.4776  0.5683 -0.0344
   82TMC2    O2 1286   3.826   4.693  12.063 -0.7015 -0.4332  0.2938
   82TMC2    O5 1287   3.825   0.169  12.003 -0.9437  0.1674  0.2560
   82TMC2    H5 1288   3.839   0.231  11.928  1.3235  1.5025  1.7770
   83MPD2     C 1289   3.017   4.724  11.784 -0.3399 -0.2202 -0.1284
   83MPD2    C1 1290   3.064   0.050  11.669 -0.1536  0.3453  0.6712
   83MPD2    C2 1291   3.190   0.105  11.676 -0.3752  0.6101 -0.0967
   83MPD2    C3 1292   3.277   0.094  11.780 -0.5656 -0.6727 -0.0313
   83MPD2    C4 1293   3.227   0.034  11.890  0.6193  0.1232 -0.2843
   83MPD2    C5 1294   3.100   4.720  11.888  0.4543 -0.0440 -0.6708
   83MPD2     H 1295   3.214   0.156  11.584 -2.1071 -0.2557 -1.0171
   83MPD2    H1 1296   3.284   0.025  11.982  1.9550  0.9679 -1.0271
   83MPD2    H2 1297   2.924   4.670  11.802  0.0111 -0.4337  1.0427
   83MPD2    H3 1298   3.067   4.664  11.975  1.2675  1.5670  0.6836
   83MPD2     N 1299   3.408   0.142  11.775 -0.3630  0.3311 -0.4798
   83MPD2    H5 1300   3.457   0.124  11.862 -3.3265  0.2601  1.1904
   83MPD2    N1 1301   2.993   0.060  11.550  0.1614 -0.3001  0.7446
   83MPD2    H7 1302   3.033   0.118  11.476 -1.3948  1.9457  1.6377
   84TMC2    C1 1303   4.561   3.640  11.799  0.3985  0.1216  0.7584
   84TMC2    C2 1304   4.602   3.688  11.919  0.2200 -0.3283 -0.1043
   84TMC2    C3 1305   4.720   3.758  11.922 -0.4121 -0.2390  0.1721
   84TMC2    C4 1306   4.631   3.659  11.680  0.0212  0.0889  0.3082
   84TMC2    C5 1307   0.008   3.736  11.689 -0.2193  0.5272 -0.1932
   84TMC2    C6 1308   0.058   3.782  11.812 -0.1419  0.6109 -0.0044
   84TMC2     C 1309   4.446   3.553  11.808 -0.3107  0.1042  0.1574
   84TMC2     O 1310   4.429   3.483  11.911  0.0689  0.1642  0.3851
   84TMC2     H 1311   4.550   3.677  12.014 -1.7680  1.1815 -1.0200
   84TMC2    H1 1312   4.594   3.627  11.583 -1.0494 -1.4511  1.2205
   84TMC2    H2 1313   0.143   3.848  11.819 -0.5643  0.8852  2.2897
   84TMC2    C7 1314   0.064   3.781  11.563 -0.7834 -0.0190  0.1543
   84TMC2    C8 1315   0.045   3.800  12.046  0.5482 -0.7632 -0.3704
   84TMC2    O1 1316   4.736   3.755  11.465  0.6549 -0.5030 -0.1748
   84TMC2    O2 1317   0.101   3.905  12.061 -0.0675  0.1273 -0.0010
   84TMC2    O5 1318   0.054   3.685  12.133 -0.1520 -0.2698 -0.0078
   84TMC2    H5 1319   0.013   3.605  12.094 -0.5983 -0.1237  0.1632
   85TMC2    C1 1320   0.853   2.019  15.526 -0.0500  0.4818  0.5604
   85TMC2    C2 1321   0.715   2.048  15.513 -0.2740 -0.5149  0.0135
   85TMC2    C3 1322   0.665   2.090  15.390 -0.4659 -0.1014  0.0474
   85TMC2    C4 1323   0.942   2.056  15.425  0.0972  1.1450 -0.1005
   85TMC2    C5 1324   0.890   2.109  15.307  0.1408  0.3479 -0.1209
   85TMC2    C6 1325   0.754   2.133  15.294 -0.4363  0.2514  0.1015
   85TMC2     C 1326   0.903   1.947  15.640  0.7692  0.2935 -0.6697
   85TMC2     O 1327   1.025   1.921  15.656 -0.2274  0.2644  0.1456
   85TMC2     H 1328   0.640   2.038  15.591  1.5596 -0.2753  1.8242
   85TMC2    H1 1329   1.044   2.021  15.438 -0.5834 -1.4308 -1.6920
   85TMC2    H2 1330   0.708   2.180  15.208  0.2158 -2.0565 -1.5145
   85TMC2    C7 1331   0.975   2.156  15.199  0.4175 -0.5049 -0.0280
   85TMC2    C8 1332   0.555   2.173  15.399 -0.1494 -0.3615  0.0466
   85TMC2    O1 1333   1.085   2.103  15.192 -0.6459 -0.0330 -0.4666
   85TMC2    O2 1334   0.573   2.289  15.431 -0.6996  0.0148  0.4074
   85TMC2    O5 1335   0.449   2.094  15.431 -0.2985  0.3173  0.4145
   85TMC2    H5 1336   0.461   2.004  15.395  0.5779  0.6278 -0.0656
   86MPD2     C 1337   0.763   1.691  16.068 -0.8966  0.0403 -0.0558
   86MPD2    C1 1338   0.675   1.662  15.964 -0.0204 -0.2895 -0.5856
   86MPD2    C2 1339   0.687   1.733  15.847 -0.4924 -0.5472 -0.1683
   86MPD2    C3 1340   0.793   1.820  15.821  0.1900  1.1936  0.3410
   86MPD2    C4 1341   0.877   1.853  15.923  0.5463  0.0335 -0.0184
   86MPD2    C5 1342   0.861   1.786  16.045 -0.0628 -0.1052 -0.0807
   86MPD2     H 1343   0.612   1.721  15.769 -0.0937  0.6452 -0.7390
   86MPD2    H1 1344   0.955   1.927  15.910 -0.8089  1.6158  0.8360
   86MPD2    H2 1345   0.752   1.649  16.167  0.0788 -0.0103  0.0339
   86MPD2    H3 1346   0.933   1.812  16.121 -1.0536  0.2239  0.7418
   86MPD2     N 1347   0.799   1.878  15.692 -0.4295 -0.2198 -0.2021
   86MPD2    H5 1348   0.720   1.863  15.630  0.4501  0.2262 -1.4195
   86MPD2    N1 1349   0.571   1.567  15.969  0.2793 -0.4971  0.5355
   86MPD2    H7 1350   0.529   1.551  15.878  2.6878  1.0593 -0.8483
   87TMC2    C1 1351   3.737   0.641   0.876  0.4946 -1.0517 -0.5811
   87TMC2    C2 1352   3.851   0.707   0.907 -0.4235 -0.0991 -0.2726
   87TMC2    C3 1353   3.834   0.833   0.962 -0.7748  0.1048 -0.0697
   87TMC2    C4 1354   3.610   0.693   0.900 -0.7326 -0.3563  0.3600
   87TMC2    C5 1355   3.601   0.812   0.958 -0.8488  0.1405  0.1740
   87TMC2    C6 1356   3.712   0.880   0.997 -0.4714 -0.3718  0.2484
   87TMC2     C 1357   3.754   0.520   0.802 -0.3521  0.0897 -0.8925
   87TMC2     O 1358   3.864   0.518   0.742 -0.3346  0.6570  0.7878
   87TMC2     H 1359   3.950   0.661   0.904 -0.5524 -0.4174  0.3710
   87TMC2    H1 1360   3.519   0.651   0.858 -0.2455 -2.4628  1.4191
   87TMC2    H2 1361   3.706   0.972   1.054 -0.4781 -0.2187 -0.0011
   87TMC2    C7 1362   3.471   0.879   0.971 -0.2047 -0.0264 -0.2211
   87TMC2    C8 1363   3.942   0.906   1.022  0.6205  0.4659  0.9282
   87TMC2    O1 1364   3.484   0.990   1.017  0.0599 -0.4365  0.1988
   87TMC2    O2 1365   3.921   0.955   1.131 -0.1628  0.3258  0.1699
   87TMC2    O5 1366   4.056   0.865   0.969  0.2900  0.0954 -0.1521
   87TMC2    H5 1367   4.051   0.853   0.871  0.7474  0.7595 -0.2547
   88MPD2     C 1368   3.137   0.791   0.853 -0.5080  0.1831 -0.3835
   88MPD2    C1 1369   3.234   0.875   0.901  0.3596  0.6306 -0.7546
   88MPD2    C2 1370   3.201   1.009   0.918  0.4123 -0.4194  0.4021
   88MPD2    C3 1371   3.071   1.052   0.894 -0.7176  0.1052 -0.2014
   88MPD2    C4 1372   2.976   0.959   0.865 -0.0694  0.2586 -0.1184
   88MPD2    C5 1373   3.007   0.824   0.845 -0.1096 -0.6927 -0.2560
   88MPD2     H 1374   3.282   1.076   0.945  0.0708  0.3049 -0.3440
   88MPD2    H1 1375   2.873   0.988   0.850 -0.0429  0.2049 -0.4141
   88MPD2    H2 1376   3.159   0.685   0.840  0.6533  0.4268 -0.3908
   88MPD2    H3 1377   2.928   0.758   0.809  0.7256 -0.1479 -3.1038
   88MPD2     N 1378   3.023   1.186   0.894  0.4679  0.1194  0.1870
   88MPD2    H5 1379   2.924   1.206   0.888  0.7957  1.3122 -1.1847
   88MPD2    N1 1380   3.359   0.817   0.918  0.2450 -0.1378  0.4773
   88MPD2    H7 1381   3.358   0.720   0.888 -1.4566 -0.1394  0.5391
   89TMC2    C1 1382   0.075   3.043   1.854 -0.7918 -0.0215  0.0202
   89TMC2    C2 1383   4.735   3.080   1.740 -0.0664 -0.0071  0.0648
   89TMC2    C3 1384   0.066   3.157   1.645 -0.0443  0.1541  0.0445
   89TMC2    C4 1385   0.200   3.084   1.871 -0.4560 -0.3306  0.3086
   89TMC2    C5 1386   0.253   3.169   1.776  0.1656  0.1398  0.7381
   89TMC2    C6 1387   0.195   3.202   1.662 -1.2784  0.6694 -0.4819
   89TMC2     C 1388   0.016   2.993   1.971  0.3153  0.1586  1.2425
   89TMC2     O 1389   0.089   2.930   2.048 -0.4154 -0.1861  1.1498
   89TMC2     H 1390   4.636   3.038   1.724 -0.9823  1.7460  1.1723
   89TMC2    H1 1391   0.244   3.070   1.969 -1.2169 -0.1601  0.6785
   89TMC2    H2 1392   0.260   3.238   1.583 -0.1739 -1.1665 -0.4105
   89TMC2    C7 1393   0.358   3.252   1.817 -0.0873  0.9715 -0.4994
   89TMC2    C8 1394   0.008   3.182   1.513  0.4662 -0.2232 -0.0322
   89TMC2    O1 1395   0.430   3.201   1.899  0.0899  0.1456  0.2103
   89TMC2    O2 1396   0.071   3.204   1.407 -0.1794 -0.1404  0.5302
   89TMC2    O5 1397   4.611   3.171   1.523  0.2370 -0.5047 -0.4378
   89TMC2    H5 1398   4.581   3.184   1.615  0.9077  0.8577 -0.4152
   90MPD2     C 1399   4.364   3.056   2.317 -0.2415 -0.1039  0.1471
   90MPD2    C1 1400   4.331   3.112   2.193 -0.2192 -0.5929  0.1419
   90MPD2    C2 1401   4.423   3.110   2.093  0.2847  0.2174  0.0669
   90MPD2    C3 1402   4.549   3.057   2.108 -0.8930 -0.3584  0.3042
   90MPD2    C4 1403   4.584   3.014   2.235  0.4100  0.5382 -0.1220
   90MPD2    C5 1404   4.491   3.009   2.339 -0.6277 -0.7317 -0.4227
   90MPD2     H 1405   4.385   3.140   1.996 -0.6535  1.2165  0.7456
   90MPD2    H1 1406   4.682   2.981   2.267  1.3759  1.9188 -1.6623
   90MPD2    H2 1407   4.301   3.067   2.404 -1.2311  0.4992 -0.6507
   90MPD2    H3 1408   4.537   2.985   2.434 -1.1203 -2.2767 -0.5734
   90MPD2     N 1409   4.629   3.049   1.991  0.2343 -0.1007 -0.0740
   90MPD2    H5 1410   4.590   3.089   1.906  1.3333 -0.3216 -0.6722
   90MPD2    N1 1411   4.202   3.140   2.156 -0.2253 -0.0990 -0.4551
   90MPD2    H7 1412   4.185   3.166   2.059 -0.9035 -1.0660 -0.5946
   91TMC2    C1 1413   0.960   2.699  16.736 -0.1304 -0.6320 -1.0203
   91TMC2    C2 1414   1.027   2.742  16.847  0.5105  0.1712 -0.4063
   91TMC2    C3 1415   0.950   2.796  16.950  0.6340  0.0908  0.2830
   91TMC2    C4 1416   0.825   2.699  16.724 -0.2499  0.2252  0.1272
   91TMC2    C5 1417   0.758   2.753  16.834  0.2313 -0.6552 -0.3285
   91TMC2    C6 1418   0.814   2.799  16.951  1.2029 -0.2989 -0.0360
   91TMC2     C 1419   1.018   2.642  16.623 -0.1257  1.0450 -0.4389
   91TMC2     O 1420   0.957   2.566  16.550 -0.4073  0.3992  0.2701
   91TMC2     H 1421   1.134   2.725  16.857  0.8771  1.1974 -2.5420
   91TMC2    H1 1422   0.781   2.660  16.633  0.0937  1.3198 -0.5171
   91TMC2    H2 1423   0.755   2.806  17.042  0.0671 -0.8057 -0.7296
   91TMC2    C7 1424   0.625   2.715  16.855 -0.1305 -0.6416  0.7241
   91TMC2    C8 1425   1.026   2.806  17.078 -0.1751 -0.9457  0.1001
   91TMC2    O1 1426   0.594   2.689  16.970  0.0439  0.2070  0.3291
   91TMC2    O2 1427   1.128   2.750  17.110  0.6932 -0.0940 -0.3554
   91TMC2    O5 1428   0.981   2.922  17.128  0.1634 -0.3238  0.0408
   91TMC2    H5 1429   0.909   2.969  17.081  1.0753 -0.2911 -1.3258
   92MPD2     C 1430   1.233   2.519  16.455  0.5297  0.8556 -0.4796
   92MPD2    C1 1431   1.238   2.650  16.503 -0.2858 -1.0557 -0.0941
   92MPD2    C2 1432   1.349   2.727  16.484  0.1452  0.5364  0.2031
   92MPD2    C3 1433   1.453   2.675  16.409  0.7040  0.9846 -0.6239
   92MPD2    C4 1434   1.443   2.552  16.345 -0.7704 -0.9874  0.2012
   92MPD2    C5 1435   1.328   2.479  16.362 -0.3253 -0.0241 -0.2377
   92MPD2     H 1436   1.355   2.827  16.528  2.3518  0.0936  0.9097
   92MPD2    H1 1437   1.526   2.530  16.279 -1.3608 -0.0953 -0.8470
   92MPD2    H2 1438   1.143   2.459  16.458  1.8977 -1.1331  1.1010
   92MPD2    H3 1439   1.317   2.381  16.317 -0.6985  0.2212 -0.6671
   92MPD2     N 1440   1.559   2.765  16.392 -0.2192 -0.4104 -0.0934
   92MPD2    H5 1441   1.546   2.862  16.420 -0.7103 -0.6025  0.3380
   92MPD2    N1 1442   1.141   2.694  16.595  0.0135 -0.0473 -0.4673
   92MPD2    H7 1443   1.165   2.783  16.638 -0.8354 -0.6273  1.1928
   93TMC2    C1 1444   2.893   2.711  13.905  0.1247  0.3993  0.0923
   93TMC2    C2 1445   2.798   2.809  13.884  0.0154  0.2184  0.7365
   93TMC2    C3 1446   2.842   2.936  13.909  0.4419  0.5449 -0.0676
   93TMC2    C4 1447   3.019   2.735  13.954  0.6505 -0.4787 -1.2421
   93TMC2    C5 1448   3.055   2.864  13.983 -0.3367  0.2195  0.2066
   93TMC2    C6 1449   2.968   2.968  13.950  0.4108  0.6906  0.3182
   93TMC2     C 1450   2.842   2.574  13.899 -0.3488 -0.1104  0.9134
   93TMC2     O 1451   2.917   2.487  13.938 -0.4888 -0.0301  0.1800
   93TMC2     H 1452   2.697   2.807  13.845 -0.7377 -0.9949  2.7252
   93TMC2    H1 1453   3.090   2.653  13.964  3.4395  2.1625  0.7973
   93TMC2    H2 1454   2.982   3.073  13.972  1.7203  0.0916  2.2628
   93TMC2    C7 1455   3.195   2.897  14.015  0.2882 -0.4236 -0.3315
   93TMC2    C8 1456   2.746   3.045  13.892 -0.0035 -0.6558 -0.2001
   93TMC2    O1 1457   3.284   2.826  13.970  0.2127 -0.0579 -0.5699
   93TMC2    O2 1458   2.627   3.019  13.891  0.3673  0.5287  0.3246
   93TMC2    O5 1459   2.803   3.155  13.834  0.5196 -0.3033  0.2801
   93TMC2    H5 1460   2.899   3.160  13.815  0.5335 -2.7364 -0.2603
   94MPD2     C 1461   2.705   2.318  13.851  0.9364  0.4719  0.6362
   94MPD2    C1 1462   2.646   2.441  13.828 -0.1084 -0.0018 -0.1777
   94MPD2    C2 1463   2.513   2.444  13.787  0.3936  0.0776  0.1414
   94MPD2    C3 1464   2.449   2.319  13.789 -0.5283 -0.7984 -0.1967
   94MPD2    C4 1465   2.513   2.197  13.820 -0.3643 -0.0411 -0.2838
   94MPD2    C5 1466   2.644   2.199  13.845 -0.3359  0.1777 -0.9547
   94MPD2     H 1467   2.467   2.541  13.773  0.8585  0.4750  1.3453
   94MPD2    H1 1468   2.451   2.109  13.815  0.1413 -0.3388 -1.3033
   94MPD2    H2 1469   2.807   2.308  13.887  0.6243 -2.8736  0.5945
   94MPD2    H3 1470   2.695   2.106  13.870  1.0173  0.5209 -2.4021
   94MPD2     N 1471   2.305   2.310  13.761  0.2253  0.0741  0.3497
   94MPD2    H5 1472   2.260   2.219  13.764 -0.0378  0.2081  0.5446
   94MPD2    N1 1473   2.711   2.563  13.856  0.8291 -0.0465 -0.1486
   94MPD2    H7 1474   2.665   2.640  13.809  0.2234 -1.6054 -2.1215
   95TMC2    C1 1475   2.848   4.303  16.071  0.2143  0.3218 -0.1199
   95TMC2    C2 1476   2.908   4.228  15.972 -0.0486  1.0579  0.2955
   95TMC2    C3 1477   2.864   4.098  15.953 -0.1030 -0.6366  0.2680
   95TMC2    C4 1478   2.742   4.258  16.145  0.3115  0.1391 -0.3495
   95TMC2    C5 1479   2.697   4.131  16.113  0.6424 -0.2731 -0.4142
   95TMC2    C6 1480   2.756   4.044  16.021  0.1483  0.8118 -0.3908
   95TMC2     C 1481   2.899   4.438  16.099  0.4864 -0.2948  0.2780
   95TMC2     O 1482   2.852   4.491  16.198 -0.7826  0.0881  0.0707
   95TMC2     H 1483   3.004   4.265  15.939 -0.5893  1.2844 -1.0071
   95TMC2    H1 1484   2.682   4.320  16.211 -0.9961 -1.6042  0.1066
   95TMC2    H2 1485   2.738   3.938  16.004  0.3442  0.3957  1.9857
   95TMC2    C7 1486   2.632   4.073  16.225  0.5289 -0.2037  0.2942
   95TMC2    C8 1487   2.936   4.006  15.868  0.0500  0.1594 -0.0312
   95TMC2    O1 1488   2.675   3.961  16.251 -1.0187 -0.0589  0.1269
   95TMC2    O2 1489   2.945   3.886  15.888 -0.1287  0.4786 -0.0253
   95TMC2    O5 1490   2.990   4.068  15.764 -0.0938 -0.0474  0.9701
   95TMC2    H5 1491   2.970   4.164  15.768  2.3237  0.5973 -3.0457
   96MPD2     C 1492   3.093   0.139  15.905  0.7072  0.0245  0.6279
   96MPD2    C1 1493   3.115   0.038  15.810  0.7436  0.0431 -0.0326
   96MPD2    C2 1494   3.073   4.647  15.841 -0.7160 -0.0965  0.1469
   96MPD2    C3 1495   3.005   4.621  15.958 -0.6454  0.2053 -0.1342
   96MPD2    C4 1496   2.989   4.721  16.052  0.1400 -0.0520  0.2269
   96MPD2    C5 1497   3.034   0.114  16.027  0.2424 -0.2067  0.0759
   96MPD2     H 1498   3.086   4.563  15.774 -0.4497 -0.5365  0.7472
   96MPD2    H1 1499   2.935   4.700  16.144 -0.0578 -1.5069 -0.2151
   96MPD2    H2 1500   3.139   0.237  15.895  0.5549 -0.2390 -2.9136
   96MPD2    H3 1501   3.038   0.191  16.103  0.5367  0.0825 -0.2302
   96MPD2     N 1502   2.969   4.485  15.987  0.3807  0.2783 -0.3349
   96MPD2    H5 1503   2.989   4.415  15.916 -1.6178 -0.5387 -0.0741
   96MPD2    N1 1504   3.201   0.070  15.706  0.1684 -0.4666 -0.2023
   96MPD2    H7 1505   3.232   0.166  15.702  0.7525 -0.7516 -2.2135
   97TMC2    C1 1506   0.629   2.262   0.086  0.8546 -1.1627 -0.5328
   97TMC2    C2 1507   0.708   2.235  17.726  0.1947 -0.0537 -0.4576
   97TMC2    C3 1508   0.788   2.332  17.677 -0.7853  0.3301  0.1142
   97TMC2    C4 1509   0.619   2.387   0.136 -0.6743 -0.3130 -0.6726
   97TMC2    C5 1510   0.701   2.486   0.090 -0.1549 -0.0188 -1.0560
   97TMC2    C6 1511   0.785   2.452  17.735  0.1264  0.1834 -0.1268
   97TMC2     C 1512   0.543   2.160   0.147  0.2112 -0.2457  0.2471
   97TMC2     O 1513   0.507   2.189   0.260  0.1095  0.3999 -0.0407
   97TMC2     H 1514   0.717   2.138  17.679 -0.1479 -0.6521  0.7123
   97TMC2    H1 1515   0.557   2.401   0.223 -0.8178 -0.5086 -0.7430
   97TMC2    H2 1516   0.860   2.525  17.706 -0.5693  1.6537  1.7960
   97TMC2    C7 1517   0.742   2.589   0.181 -0.7623 -0.1309 -0.3181
   97TMC2    C8 1518   0.847   2.319  17.548  0.7728  0.0678 -1.2552
   97TMC2    O1 1519   0.833   2.658   0.139  0.0308  0.6334  0.5259
   97TMC2    O2 1520   0.807   2.233  17.471  0.1200 -0.0182 -0.4342
   97TMC2    O5 1521   0.975   2.357  17.564  0.2037  0.0058  0.3179
   97TMC2    H5 1522   0.988   2.401  17.651  1.5034 -1.5154  0.9025
   98MPD2     C 1523   0.228   1.757   0.112 -0.6594  0.0580 -0.1528
   98MPD2    C1 1524   0.246   1.844   0.216 -0.2314  0.2755  0.4684
   98MPD2    C2 1525   0.337   1.942   0.208  0.7948 -0.1050 -0.0191
   98MPD2    C3 1526   0.425   1.948   0.095 -0.2016 -0.3388  0.0986
   98MPD2    C4 1527   0.405   1.862  17.744 -0.0044  0.3022  0.0286
   98MPD2    C5 1528   0.305   1.766  17.745  0.4871  0.5045 -0.1082
   98MPD2     H 1529   0.358   2.011   0.289 -0.8503  1.5038 -0.9505
   98MPD2    H1 1530   0.475   1.876  17.661  0.1792 -0.6265  0.0301
   98MPD2    H2 1531   0.148   1.685   0.125 -0.7999  0.1336 -0.5861
   98MPD2    H3 1532   0.304   1.686  17.672  1.7435 -0.1492  0.6008
   98MPD2     N 1533   0.522   2.050   0.069  0.0203 -0.2673 -0.4414
   98MPD2    H5 1534   0.572   2.051  17.729  0.2465  0.0915 -0.3077
   98MPD2    N1 1535   0.151   1.838   0.317  0.9336 -0.5055 -0.5649
   98MPD2    H7 1536   0.080   1.766   0.306  1.5251 -0.8973 -1.8370
   99TMC2    C1 1537   3.971   0.429   1.535  0.9555  0.3068 -0.6436
   99TMC2    C2 1538   4.012   0.491   1.652 -0.0700  0.0972 -0.4116
   99TMC2    C3 1539   3.926   0.570   1.721 -0.7903 -0.3650  0.8678
   99TMC2    C4 1540   3.839   0.429   1.498  0.1829  0.6053 -0.7618
   99TMC2    C5 1541   3.753   0.498   1.583  0.5800 -0.6752 -0.5047
   99TMC2    C6 1542   3.795   0.577   1.688  0.5044 -0.0154 -1.1545
   99TMC2     C 1543   4.075   0.349   1.463 -0.4350 -0.8344  0.3888
   99TMC2     O 1544   4.194   0.367   1.491 -0.0496 -0.1835  0.2640
   99TMC2     H 1545   4.118   0.507   1.666 -0.5597  2.8823  0.2578
   99TMC2    H1 1546   3.808   0.369   1.414  2.0758 -1.5128  0.0608
   99TMC2    H2 1547   3.723   0.633   1.746  0.1520 -0.0111 -1.5983
   99TMC2    C7 1548   3.605   0.482   1.564  0.1889  0.2749 -0.0319
   99TMC2    C8 1549   3.978   0.672   1.804 -0.0487  0.3597  0.1916
   99TMC2    O1 1550   3.538   0.571   1.619 -0.0578 -1.0682 -0.1813
   99TMC2    O2 1551   3.902   0.765   1.826 -0.0735 -0.9117  0.7583
   99TMC2    O5 1552   4.094   0.644   1.867  0.3720  0.7701  0.6108
   99TMC2    H5 1553   4.153   0.572   1.837  1.2029  2.5015 -1.9148
  100MPD2     C 1554   4.232   0.115   1.367 -1.0514 -0.1559  0.0928
  100MPD2    C1 1555   4.098   0.129   1.351 -0.0936 -0.4092 -0.3132
  100MPD2    C2 1556   4.025   0.039   1.270 -0.8188 -0.5906  0.1408
  100MPD2    C3 1557   4.088   4.671   1.210  0.5713 -0.1254  0.0772
  100MPD2    C4 1558   4.225   4.652   1.228 -0.4127  0.2259  1.0026
  100MPD2    C5 1559   4.296   0.007   1.300 -0.3922  0.2349 -0.9842
  100MPD2     H 1560   3.917   0.047   1.263 -0.8139 -0.5734  0.0814
  100MPD2    H1 1561   4.284   4.575   1.180 -0.1434  1.5325 -0.7439
  100MPD2    H2 1562   4.295   0.191   1.411 -0.3989 -0.9928  0.6151
  100MPD2    H3 1563   4.404   4.732   1.303 -0.3260  0.7523 -1.1542
  100MPD2     N 1564   4.005   4.574   1.143  0.2950  0.5603 -0.7202
  100MPD2    H5 1565   3.907   4.597   1.129 -0.1750 -0.9875 -0.0118
  100MPD2    N1 1566   4.023   0.240   1.391  0.3190  1.0043 -0.2541
  100MPD2    H7 1567   3.923   0.238   1.376  0.0769  2.3435  1.1513
  101TMC2    C1 1568   4.360   0.665  13.133  0.0981 -0.0188  0.1168
  101TMC2    C2 1569   4.251   0.744  13.158  0.2777 -0.7774  0.1059
  101TMC2    C3 1570   4.226   0.843  13.066 -0.0814 -0.3880  0.1700
  101TMC2    C4 1571   4.444   0.685  13.025  0.2217  0.3317  0.0485
  101TMC2    C5 1572   4.410   0.777  12.932  0.0192  0.1563 -0.2515
  101TMC2    C6 1573   4.303   0.861  12.951 -0.4202 -0.4621 -0.3600
  101TMC2     C 1574   4.370   0.537  13.204  0.9968  0.6714  0.2290
  101TMC2     O 1575   4.304   0.525  13.306 -0.3191 -0.4213  0.2205
  101TMC2     H 1576   4.173   0.713  13.227  0.2091  0.0321  0.3879
  101TMC2    H1 1577   4.529   0.622  13.000 -1.0890 -1.5453  0.3917
  101TMC2    H2 1578   4.288   0.949  12.890  1.0639  1.6957  2.3478
  101TMC2    C7 1579   4.507   0.802  12.825 -0.1137  0.4269 -0.4944
  101TMC2    C8 1580   4.122   0.934  13.093  0.5004  0.3570  0.0838
  101TMC2    O1 1581   4.618   0.755  12.828  0.4064  0.5251  0.3823
  101TMC2    O2 1582   4.090   1.025  13.019 -0.3941 -0.1601  0.1023
  101TMC2    O5 1583   4.088   0.929  13.221  0.8043  0.2787 -0.1670
  101TMC2    H5 1584   4.124   0.855  13.275 -0.5935  1.7002  2.7486
  102MPD2     C 1585   4.483   0.217  13.059 -0.7374 -0.3564 -0.1631
  102MPD2    C1 1586   4.434   0.302  13.161  0.0525 -0.1797  0.0290
  102MPD2    C2 1587   4.395   0.242  13.279 -0.0204  0.4854 -0.4582
  102MPD2    C3 1588   4.398   0.107  13.289  0.0732  0.3614 -0.2486
  102MPD2    C4 1589   4.445   0.019  13.186  0.0147 -0.4861 -0.9561
  102MPD2    C5 1590   4.490   0.083  13.075 -0.2980 -0.3152 -0.0073
  102MPD2     H 1591   4.371   0.310  13.360  2.6654  0.1858  0.5903
  102MPD2    H1 1592   4.455   4.650  13.201 -2.1872 -0.5975 -0.2817
  102MPD2    H2 1593   4.517   0.253  12.963  0.3890 -1.6304 -0.2509
  102MPD2    H3 1594   4.530   0.027  12.991 -0.2974 -1.1860  0.5757
  102MPD2     N 1595   4.339   0.049  13.401 -0.3900 -0.6685 -0.0156
  102MPD2    H5 1596   4.325   0.119  13.473 -0.8882  1.5956 -2.2705
  102MPD2    N1 1597   4.424   0.439  13.124 -0.4838 -0.4516  0.1207
  102MPD2    H7 1598   4.460   0.472  13.035 -3.9318  0.0315 -1.0736
  103TMC2    C1 1599   2.574   0.548  13.147 -0.0523  0.3729 -0.1951
  103TMC2    C2 1600   2.628   0.419  13.157  0.8662  0.0946 -0.9533
  103TMC2    C3 1601   2.727   0.393  13.251  0.8971 -0.2327 -0.1606
  103TMC2    C4 1602   2.625   0.654  13.221 -0.1814 -0.4387  0.7393
  103TMC2    C5 1603   2.718   0.616  13.315  0.2629 -1.0232  0.3705
  103TMC2    C6 1604   2.763   0.491  13.338  0.1029  0.1741 -0.1237
  103TMC2     C 1605   2.475   0.590  13.047 -0.2246 -0.1520  0.2278
  103TMC2     O 1606   2.430   0.703  13.063 -0.3334 -0.4264 -0.3550
  103TMC2     H 1607   2.590   0.337  13.096  0.7890 -0.1525 -0.5811
  103TMC2    H1 1608   2.585   0.755  13.222  1.7905  0.3439  1.9435
  103TMC2    H2 1609   2.849   0.479  13.403 -1.4840 -1.1174  1.7491
  103TMC2    C7 1610   2.741   0.703  13.430 -0.5148 -0.2196 -0.0591
  103TMC2    C8 1611   2.766   0.258  13.275 -0.5711 -0.0018  0.5678
  103TMC2    O1 1612   2.798   0.656  13.528 -0.1507  0.4522 -0.5326
  103TMC2    O2 1613   2.732   0.174  13.193  0.5076 -0.8783 -0.6223
  103TMC2    O5 1614   2.866   0.246  13.365  0.3432  0.0602 -0.6554
  103TMC2    H5 1615   2.867   0.311  13.438  2.7075 -0.2021 -0.4528
  104MPD2     C 1616   2.318   0.383  12.795  0.3701  0.3262  0.6774
  104MPD2    C1 1617   2.345   0.500  12.858  0.6423 -0.1141  0.5607
  104MPD2    C2 1618   2.300   0.620  12.805  0.6535  1.0305  0.4054
  104MPD2    C3 1619   2.237   0.624  12.680 -1.0066  0.1776 -0.9260
  104MPD2    C4 1620   2.213   0.497  12.617  0.5434 -0.0010 -0.3938
  104MPD2    C5 1621   2.257   0.379  12.673  0.1797 -0.6071 -0.9804
  104MPD2     H 1622   2.319   0.714  12.856 -1.8407  1.3024  0.8295
  104MPD2    H1 1623   2.142   0.498  12.535 -0.5299 -1.8071  0.5134
  104MPD2    H2 1624   2.357   0.290  12.834 -1.4119  0.0071  1.7175
  104MPD2    H3 1625   2.241   0.285  12.622 -0.2738 -1.1766  0.2023
  104MPD2     N 1626   2.177   0.747  12.631  0.2175  0.4967 -0.0743
  104MPD2    H5 1627   2.188   0.831  12.687 -1.0443  0.6807 -0.0918
  104MPD2    N1 1628   2.434   0.487  12.973  0.9260  0.2849  0.7191
  104MPD2    H7 1629   2.487   0.401  12.986  3.3787  1.2108 -3.1120
  105TMC2    C1 1630   4.246   0.146   0.333 -0.2066  0.6494 -0.1388
  105TMC2    C2 1631   4.317   0.029   0.310  0.8575  0.3808  0.2666
  105TMC2    C3 1632   4.252   4.646   0.318 -0.4905 -0.6200  0.4690
  105TMC2    C4 1633   4.114   0.137   0.380  0.4155 -0.3016 -1.1335
  105TMC2    C5 1634   4.060   0.014   0.400 -1.0467 -0.0840 -0.1098
  105TMC2    C6 1635   4.126   4.640   0.371 -0.6793 -0.4597  0.1058
  105TMC2     C 1636   4.265   0.266   0.250 -0.2788 -0.0104  0.4090
  105TMC2     O 1637   4.225   0.374   0.294 -0.6125  0.2804 -0.2401
  105TMC2     H 1638   4.413   0.035   0.260  0.3053  0.8459 -0.7192
  105TMC2    H1 1639   4.062   0.231   0.377 -0.1091 -0.5808 -0.7781
  105TMC2    H2 1640   4.074   4.545   0.373  0.3925 -1.0393  0.9060
  105TMC2    C7 1641   3.926   0.002   0.447  0.0842 -0.8039 -0.5655
  105TMC2    C8 1642   4.299   4.529   0.249  0.2473 -0.5202  0.4512
  105TMC2    O1 1643   3.861   4.636   0.442 -0.3399 -0.2347 -0.4926
  105TMC2    O2 1644   4.229   4.449   0.187 -0.3163 -0.4290  0.6081
  105TMC2    O5 1645   4.433   4.543   0.224  0.2214 -0.3667  0.1387
  105TMC2    H5 1646   4.497   4.599   0.274  0.2131 -0.9248  0.7776
  106MPD2     C 1647   4.485   0.540  17.632  0.2101  0.2761  0.7021
  106MPD2    C1 1648   4.472   0.411  17.583  1.1492  0.2204  0.3214
  106MPD2    C2 1649   4.413   0.311  17.662 -0.2772  0.0982  0.1986
  106MPD2    C3 1650   4.376   0.337   0.042  0.3417  0.2266  0.4764
  106MPD2    C4 1651   4.396   0.462   0.091 -0.3544 -1.0157  0.0019
  106MPD2    C5 1652   4.462   0.554   0.016  0.0414  0.6228 -0.2927
  106MPD2     H 1653   4.395   0.211  17.623 -0.7649  0.7240 -1.1972
  106MPD2    H1 1654   4.367   0.511   0.184  0.7761 -0.8429  0.2674
  106MPD2    H2 1655   4.544   0.612  17.576 -1.5533  1.0755 -0.1186
  106MPD2    H3 1656   4.486   0.654   0.050  1.6334 -0.0281  0.5219
  106MPD2     N 1657   4.322   0.235   0.127  0.3198 -0.6871 -0.3687
  106MPD2    H5 1658   4.310   0.139   0.096 -1.1897 -0.3262 -0.9502
  106MPD2    N1 1659   4.512   0.395  17.452 -1.0799 -0.2133 -0.0540
  106MPD2    H7 1660   4.522   0.473  17.386  1.7407 -0.6214 -0.1089
  107TMC2    C1 1661   4.392   4.377  11.636  0.4681  0.5450  0.0031
  107TMC2    C2 1662   4.454   4.474  11.559  0.3624  0.0077 -0.0092
  107TMC2    C3 1663   4.511   4.436  11.444 -0.0660  0.4090  0.2212
  107TMC2    C4 1664   4.363   4.250  11.585 -0.1315  0.0455  0.3934
  107TMC2    C5 1665   4.410   4.226  11.461 -0.4515  0.0214 -0.1952
  107TMC2    C6 1666   4.491   4.311  11.392  0.4186 -0.5554 -0.3210
  107TMC2     C 1667   4.338   4.414  11.767 -0.1264  0.7090 -0.3469
  107TMC2     O 1668   4.287   4.326  11.832 -0.3148  0.1016  0.0142
  107TMC2     H 1669   4.477   4.575  11.592  2.2558 -0.8627  1.3689
  107TMC2    H1 1670   4.310   4.180  11.648 -1.4092  1.4320  0.8631
  107TMC2    H2 1671   4.526   4.294  11.291  0.6236  0.0755 -0.3532
  107TMC2    C7 1672   4.392   4.095  11.408  0.0272 -0.2560  0.7445
  107TMC2    C8 1673   4.586   4.542  11.370 -0.4425 -0.3583 -0.5588
  107TMC2    O1 1674   4.422   4.078  11.294 -1.0755  0.1294 -0.3880
  107TMC2    O2 1675   4.555   4.659  11.382 -0.5694 -0.2858 -0.6719
  107TMC2    O5 1676   4.699   4.491  11.314 -0.3288  0.2892 -1.2538
  107TMC2    H5 1677   4.693   4.394  11.320  0.8889  0.3404  0.7780
  108MPD2     C 1678   4.254   0.018  11.898 -0.4689 -0.7139  0.1264
  108MPD2    C1 1679   4.268   4.612  11.910 -0.2417 -0.1391 -0.2925
  108MPD2    C2 1680   4.209   4.544  12.019  0.1844 -0.3595  0.0482
  108MPD2    C3 1681   4.144   4.616  12.119  0.8787  0.0715  0.0048
  108MPD2    C4 1682   4.132   0.014  12.104 -0.2887 -0.5764 -0.0765
  108MPD2    C5 1683   4.186   0.080  11.997 -0.0087  0.1145 -0.1330
  108MPD2     H 1684   4.214   4.437  12.030 -2.4286 -1.0454 -5.1255
  108MPD2    H1 1685   4.085   0.072  12.183 -0.3894 -0.5125 -0.1816
  108MPD2    H2 1686   4.297   0.083  11.823  1.1073  0.9707  2.5126
  108MPD2    H3 1687   4.182   0.188  11.988  0.8125  0.3818  2.7450
  108MPD2     N 1688   4.092   4.557  12.243 -0.3703  0.1812 -0.0359
  108MPD2    H5 1689   4.019   4.616  12.282  1.4702  2.8702 -0.6351
  108MPD2    N1 1690   4.333   4.551  11.793 -0.3777  0.6486  0.2455
  108MPD2    H7 1691   4.368   4.611  11.719 -0.2595  2.1094  1.4864
  109TMC2    C1 1692   3.706   1.349   0.464 -0.0066  0.3656  0.3570
  109TMC2    C2 1693   3.629   1.255   0.405  0.2637 -0.0746  0.2036
  109TMC2    C3 1694   3.687   1.151   0.330  0.2115 -0.3731 -0.6681
  109TMC2    C4 1695   3.834   1.365   0.439 -1.0644  0.3806  0.2548
  109TMC2    C5 1696   3.890   1.254   0.379  0.4541  0.2413 -0.2379
  109TMC2    C6 1697   3.823   1.156   0.314  0.0678  0.0405  0.1319
  109TMC2     C 1698   3.636   1.435   0.568 -0.4345  0.0745 -0.1004
  109TMC2     O 1699   3.514   1.424   0.563  0.4196 -0.6685  0.0092
  109TMC2     H 1700   3.522   1.251   0.420  0.2272  4.0219  0.9369
  109TMC2    H1 1701   3.883   1.451   0.484 -0.4780 -0.6689  1.6027
  109TMC2    H2 1702   3.863   1.080   0.249 -2.8644 -1.8066  0.4820
  109TMC2    C7 1703   4.029   1.228   0.384 -0.4722 -0.3733 -0.1540
  109TMC2    C8 1704   3.609   1.051   0.261  0.0375 -0.8247 -0.2923
  109TMC2    O1 1705   4.073   1.118   0.353  0.0829  0.1581  0.1482
  109TMC2    O2 1706   3.661   0.958   0.207 -0.2095  0.7109  0.3036
  109TMC2    O5 1707   3.522   1.132   0.196  0.8161  0.8856 -0.9077
  109TMC2    H5 1708   3.472   1.192   0.255 -0.4708  0.3082 -1.4013
  110MPD2     C 1709   3.605   1.639   1.033 -0.3873  0.3976 -0.4229
  110MPD2    C1 1710   3.731   1.662   0.984  0.7296  0.8313 -0.2179
  110MPD2    C2 1711   3.759   1.626   0.854 -0.7361 -0.1328  0.3619
  110MPD2    C3 1712   3.669   1.548   0.785 -0.0681 -1.1854 -0.0002
  110MPD2    C4 1713   3.541   1.523   0.838  0.1077 -0.2770 -0.6431
  110MPD2    C5 1714   3.506   1.572   0.960 -0.5820 -0.1981  0.2763
  110MPD2     H 1715   3.860   1.627   0.814  0.1908 -1.8763  2.6080
  110MPD2    H1 1716   3.463   1.468   0.786  0.4955  0.8078 -2.3959
  110MPD2    H2 1717   3.578   1.684   1.128 -1.2372 -1.4792  0.2217
  110MPD2    H3 1718   3.408   1.563   1.004 -0.6102  1.9859  0.6387
  110MPD2     N 1719   3.720   1.490   0.665  0.5752 -0.2914 -0.3384
  110MPD2    H5 1720   3.817   1.465   0.651  0.4067 -2.0746  1.7070
  110MPD2    N1 1721   3.820   1.739   1.070 -0.3566  0.1857 -0.1842
  110MPD2    H7 1722   3.784   1.764   1.161  1.2865  3.5317 -0.4437
  111TMC2    C1 1723   0.167   1.474  11.474  0.1648  0.3828 -0.1620
  111TMC2    C2 1724   0.237   1.484  11.356  0.0208  0.1669  0.1835
  111TMC2    C3 1725   0.361   1.434  11.353 -0.2314  0.1203  0.3298
  111TMC2    C4 1726   0.224   1.441  11.590 -0.1357 -0.1327 -0.3623
  111TMC2    C5 1727   0.361   1.405  11.588 -0.3119 -0.3044  0.0925
  111TMC2    C6 1728   0.428   1.391  11.466 -0.3740  0.2288  0.1020
  111TMC2     C 1729   0.043   1.537  11.475 -0.0572  0.6251  0.0969
  111TMC2     O 1730   0.020   1.633  11.402  0.1791  0.4182 -0.1898
  111TMC2     H 1731   0.195   1.517  11.262  1.8302 -0.4057 -0.8386
  111TMC2    H1 1732   0.178   1.446  11.688  2.4495  2.5185  0.7345
  111TMC2    H2 1733   0.518   1.334  11.448 -0.5165  0.3900 -1.1252
  111TMC2    C7 1734   0.397   1.317  11.695  0.1617  0.1580 -0.7278
  111TMC2    C8 1735   0.394   1.366  11.232 -0.2254  0.1069 -0.2088
  111TMC2    O1 1736   0.314   1.286  11.780 -0.4783  0.4318 -0.0257
  111TMC2    O2 1737   0.307   1.326  11.152  0.4357 -0.0349 -0.2609
  111TMC2    O5 1738   0.529   1.354  11.212 -0.1639 -0.1631  0.3018
  111TMC2    H5 1739   0.581   1.430  11.246  0.3106 -0.9586  1.3733
  112MPD2     C 1740   4.290   1.527  11.664  0.9803  0.8064  1.1557
  112MPD2    C1 1741   4.345   1.572  11.550 -0.9506  0.5846  0.6625
  112MPD2    C2 1742   4.482   1.563  11.518 -0.3027 -1.5608 -0.2615
  112MPD2    C3 1743   4.572   1.505  11.600 -0.3987 -0.4904 -0.7734
  112MPD2    C4 1744   4.520   1.466  11.723  0.0136  0.6823  0.2109
  112MPD2    C5 1745   4.384   1.468  11.749 -0.1215  0.0225 -0.1898
  112MPD2     H 1746   4.515   1.594  11.419 -0.6647 -0.3309  0.0077
  112MPD2    H1 1747   4.578   1.409  11.794 -0.5573  1.0135  0.9482
  112MPD2    H2 1748   4.186   1.543  11.691  0.4923 -1.7173  0.8334
  112MPD2    H3 1749   4.350   1.417  11.839 -0.3286 -1.1523 -0.9367
  112MPD2     N 1750   4.703   1.476  11.573 -0.2390  0.8884 -0.2620
  112MPD2    H5 1751   0.017   1.416  11.635  0.2872  0.2910 -1.2829
  112MPD2    N1 1752   4.268   1.626  11.441  0.0622  0.2089  0.1944
  112MPD2    H7 1753   4.306   1.655  11.352  0.9253  2.6223  1.3439
  113TMC2    C1 1754   2.596   0.021   0.438  0.2481 -0.2067  0.0190
  113TMC2    C2 1755   2.546   0.099   0.336  0.0103  0.2454  0.1679
  113TMC2    C3 1756   2.419   0.076   0.292 -0.1498  0.4329  0.3633
  113TMC2    C4 1757   2.531   4.653   0.497  0.1768  0.2904  0.0690
  113TMC2    C5 1758   2.401   4.645   0.447  0.3594  0.1596  0.0200
  113TMC2    C6 1759   2.344   4.722   0.351  1.0122 -0.4628 -0.6472
  113TMC2     C 1760   2.708   0.082   0.514  0.4207  0.7817 -0.4254
  113TMC2     O 1761   2.712   0.205   0.513 -0.6134  0.4340 -0.4541
  113TMC2     H 1762   2.598   0.180   0.287 -1.5886  0.4318 -1.2168
  113TMC2    H1 1763   2.567   4.594   0.580  0.0900 -0.2134 -0.2554
  113TMC2    H2 1764   2.249   4.704   0.302  0.3719 -0.3861  0.5544
  113TMC2    C7 1765   2.310   4.539   0.500  0.3805 -0.0891  0.6667
  113TMC2    C8 1766   2.353   0.167   0.204 -0.1204  0.1336 -0.0950
  113TMC2    O1 1767   2.190   4.550   0.489  0.3114 -0.6512 -0.1298
  113TMC2    O2 1768   2.236   0.190   0.218 -0.6169  0.2217 -0.3199
  113TMC2    O5 1769   2.423   0.195   0.088 -0.3823  0.3122 -0.5459
  113TMC2    H5 1770   2.501   0.138   0.068  0.5095  2.5453 -3.4983
  114MPD2     C 1771   3.133   0.062   0.800 -0.0485 -0.3048  0.3198
  114MPD2    C1 1772   3.044   0.165   0.785  0.4438  0.1859 -0.5866
  114MPD2    C2 1773   2.932   0.141   0.705 -0.1302  0.6750 -0.5953
  114MPD2    C3 1774   2.910   0.015   0.651 -0.0041 -0.2556  0.5391
  114MPD2    C4 1775   2.990   4.646   0.677  0.2554 -0.0323  0.0669
  114MPD2    C5 1776   3.103   4.672   0.747 -0.0631 -0.4266  0.2614
  114MPD2     H 1777   2.865   0.222   0.678 -0.8761  0.1879 -0.2137
  114MPD2    H1 1778   2.976   4.544   0.642 -3.0746 -0.5956  3.0844
  114MPD2    H2 1779   3.232   0.074   0.842  0.5024 -0.8737 -0.7980
  114MPD2    H3 1780   3.183   4.601   0.762 -0.7568 -1.1683  0.4159
  114MPD2     N 1781   2.798   4.728   0.565  0.2798 -0.2184 -0.2449
  114MPD2    H5 1782   2.790   4.629   0.545 -0.7161 -0.1553 -0.1684
  114MPD2    N1 1783   3.053   0.281   0.855  0.0885  0.1298  0.5800
  114MPD2    H7 1784   2.981   0.348   0.831 -2.1516 -2.0569  1.2415
  115TMC2    C1 1785   3.679   2.104  17.461  0.1856 -0.3023 -0.1390
  115TMC2    C2 1786   3.722   2.150  17.585 -0.0500 -0.1850 -0.3936
  115TMC2    C3 1787   3.641   2.252  17.634  0.0710  0.1123 -0.2227
  115TMC2    C4 1788   3.561   2.127  17.403 -0.2684 -0.1929  0.1636
  115TMC2    C5 1789   3.491   2.222  17.462 -0.1411  0.4824  0.1088
  115TMC2    C6 1790   3.533   2.299  17.569  0.4251 -0.4629 -0.4028
  115TMC2     C 1791   3.733   1.969  17.428 -0.0538  0.1517 -1.1121
  115TMC2     O 1792   3.644   1.897  17.387 -0.0054  0.3013 -0.0200
  115TMC2     H 1793   3.802   2.108  17.645 -1.7068 -2.3291  0.3231
  115TMC2    H1 1794   3.535   2.082  17.308  0.3270 -0.2523  0.0305
  115TMC2    H2 1795   3.472   2.376  17.616  0.5548  1.1490 -2.8662
  115TMC2    C7 1796   3.377   2.259  17.385 -0.2351  0.0386 -0.7833
  115TMC2    C8 1797   3.701   2.332  17.734 -0.1717 -0.3874 -0.5020
  115TMC2    O1 1798   3.319   2.172  17.323  0.0706  0.1900 -0.2118
  115TMC2    O2 1799   3.763   2.287   0.077 -0.2861  0.5471 -0.2581
  115TMC2    O5 1800   3.670   2.463  17.713 -0.4561  0.2182 -0.0035
  115TMC2    H5 1801   3.634   2.470  17.622  1.8605 -0.7674 -0.9951
  116MPD2     C 1802   4.074   1.581  17.426  0.3889 -0.0108 -0.2286
  116MPD2    C1 1803   3.946   1.586  17.388  1.0508  0.0052 -0.3548
  116MPD2    C2 1804   3.878   1.709  17.391 -0.4360 -0.2319  0.5371
  116MPD2    C3 1805   3.931   1.818  17.454  0.3422 -0.5953 -0.1154
  116MPD2    C4 1806   4.062   1.807  17.503  0.4511  0.2549 -0.2212
  116MPD2    C5 1807   4.127   1.690  17.490  0.3016 -0.0195 -0.9332
  116MPD2     H 1808   3.777   1.720  17.355 -1.1351 -0.5973  2.3875
  116MPD2    H1 1809   4.098   1.888  17.565  0.1377  1.7131 -1.9478
  116MPD2    H2 1810   4.123   1.485  17.420  0.2844 -0.3049  3.4705
  116MPD2    H3 1811   4.225   1.679  17.536 -0.3814 -3.2655 -0.2802
  116MPD2     N 1812   3.859   1.941  17.467  0.4265 -0.5338 -0.2462
  116MPD2    H5 1813   3.909   2.016  17.514  0.5537  0.4597 -1.9826
  116MPD2    N1 1814   3.885   1.469  17.334 -0.2950 -0.0361 -0.4706
  116MPD2    H7 1815   3.945   1.393  17.303 -0.9590  0.1383 -2.1984
  117TMC2    C1 1816   2.257   3.122  14.325 -1.0676 -0.3924 -0.3354
  117TMC2    C2 1817   2.340   3.112  14.429  0.4116  0.1071 -0.1912
  117TMC2    C3 1818   2.375   3.210  14.510  0.3567  0.8556 -0.2266
  117TMC2    C4 1819   2.195   3.240  14.305 -0.5540 -0.2128 -0.1010
  117TMC2    C5 1820   2.232   3.343  14.384  0.2929  0.2001 -0.6233
  117TMC2    C6 1821   2.320   3.334  14.491 -0.9698  0.1205  0.3319
  117TMC2     C 1822   2.188   3.006  14.273  0.1405 -1.4390  0.5790
  117TMC2     O 1823   2.204   2.898  14.331 -0.1749  0.2312 -0.3553
  117TMC2     H 1824   2.393   3.020  14.451 -1.7500 -1.3520 -1.0377
  117TMC2    H1 1825   2.115   3.254  14.233  0.2302  2.0877 -0.5053
  117TMC2    H2 1826   2.349   3.427  14.538  1.8705 -0.8095  0.4279
  117TMC2    C7 1827   2.186   3.475  14.353 -0.0161 -0.0104  0.1982
  117TMC2    C8 1828   2.459   3.179  14.628  0.2876  1.0358 -0.1189
  117TMC2    O1 1829   2.192   3.568  14.431  0.2267  0.7709  0.2950
  117TMC2    O2 1830   2.443   3.067  14.673  1.0265  0.1598  0.2647
  117TMC2    O5 1831   2.452   3.300  14.697  0.5565  0.6008  0.3144
  117TMC2    H5 1832   2.478   3.383  14.652 -2.9881  1.5043 -0.0133
  118MPD2     C 1833   2.038   3.593  14.037 -0.0777  0.4002 -0.0729
  118MPD2    C1 1834   2.101   3.611  14.159  0.3522 -0.3969  0.4247
  118MPD2    C2 1835   2.123   3.740  14.211 -0.0764  0.1360  0.1609
  118MPD2    C3 1836   2.080   3.850  14.135  0.2384  0.4076  0.8319
  118MPD2    C4 1837   2.013   3.831  14.014  0.3683  0.2078  0.0117
  118MPD2    C5 1838   1.990   3.703  13.975 -0.2670 -0.2650  0.9770
  118MPD2     H 1839   2.168   3.752  14.309  2.9232 -0.6724 -1.1233
  118MPD2    H1 1840   1.961   3.912  13.965  1.2519  1.0698  0.4907
  118MPD2    H2 1841   2.022   3.493  14.000  0.5151  0.5406 -0.6992
  118MPD2    H3 1842   1.931   3.695  13.884 -0.0335 -1.1856  0.9086
  118MPD2     N 1843   2.120   3.980  14.170 -0.2724  0.2732 -0.3551
  118MPD2    H5 1844   2.083   4.056  14.114 -0.2207  0.2066 -0.4799
  118MPD2    N1 1845   2.149   3.492  14.219 -0.2043 -0.7707 -0.2072
  118MPD2    H7 1846   2.144   3.410  14.159 -0.2149 -0.9219 -0.0001
  119TMC2    C1 1847   0.531   4.580  13.867 -0.3361 -0.0565 -0.0604
  119TMC2    C2 1848   0.563   4.509  13.977  0.5208  0.4227  0.4687
  119TMC2    C3 1849   0.462   4.428  14.025 -0.1192 -0.4364  0.3150
  119TMC2    C4 1850   0.409   4.570  13.808 -0.1442  0.1733 -0.6112
  119TMC2    C5 1851   0.319   4.482  13.859  0.4075  0.3590 -0.2421
  119TMC2    C6 1852   0.343   4.408  13.967 -0.5803  0.7476  0.5566
  119TMC2     C 1853   0.601   4.702  13.838 -0.1123  0.0859  0.0935
  119TMC2     O 1854   0.534   0.059  13.814  0.5643  0.2554  0.0477
  119TMC2     H 1855   0.648   4.524  14.043  0.2456  0.5456  0.7945
  119TMC2    H1 1856   0.380   4.614  13.714 -2.0893 -0.2733 -0.2299
  119TMC2    H2 1857   0.274   4.337  14.011  1.8298 -1.1435  1.3470
  119TMC2    C7 1858   0.191   4.485  13.789 -0.1707  0.3123 -0.5057
  119TMC2    C8 1859   0.494   4.339  14.138 -0.2151 -0.7536  0.1253
  119TMC2    O1 1860   0.171   4.558  13.690  0.6235  1.0615  0.5140
  119TMC2    O2 1861   0.428   4.331  14.239 -0.0018  0.5973 -0.3640
  119TMC2    O5 1862   0.611   4.276  14.108  0.4272 -0.0510  0.0183
  119TMC2    H5 1863   0.645   4.301  14.019 -0.3919  1.7343  0.2050
  120MPD2     C 1864   1.013   0.203  14.021  0.3299  0.3350 -0.8642
  120MPD2    C1 1865   0.882   0.249  13.989  0.3734 -0.1462 -0.9122
  120MPD2    C2 1866   0.800   0.167  13.914 -0.4850  0.7433  0.2077
  120MPD2    C3 1867   0.836   0.041  13.884  0.4316 -1.0843  0.1071
  120MPD2    C4 1868   0.963   4.732  13.920 -0.7688  0.2213 -0.3789
  120MPD2    C5 1869   1.053   0.083  13.971  0.6597  0.0173  0.3550
  120MPD2     H 1870   0.712   0.215  13.871 -0.8552 -0.6278 -0.5672
  120MPD2    H1 1871   0.987   4.626  13.908 -0.7434 -0.1147  2.7040
  120MPD2    H2 1872   1.078   0.270  14.075  0.6242  0.5323 -1.4542
  120MPD2    H3 1873   1.155   0.048  13.986  1.1377  0.4723 -1.8166
  120MPD2     N 1874   0.736   4.680  13.862 -0.2860 -0.7475 -0.9313
  120MPD2    H5 1875   0.768   4.585  13.876  0.1855 -0.4433  0.0644
  120MPD2    N1 1876   0.838   0.375  14.028 -0.7413  0.2523 -0.4636
  120MPD2    H7 1877   0.913   0.442  14.040  1.4992 -2.2589 -0.4796
  121TMC2    C1 1878   1.730   1.179  13.924  0.6436 -0.3685 -0.4579
  121TMC2    C2 1879   1.784   1.116  14.031  0.1254 -0.1000  0.0742
  121TMC2    C3 1880   1.741   0.988  14.060  0.1396  0.1183 -0.7858
  121TMC2    C4 1881   1.625   1.126  13.849 -0.0224 -0.1572 -0.8426
  121TMC2    C5 1882   1.591   1.001  13.879  0.2558 -0.6196  0.0719
  121TMC2    C6 1883   1.644   0.927  13.983 -0.3317  0.0709 -0.2457
  121TMC2     C 1884   1.751   1.320  13.926 -0.1042  0.3171 -0.6328
  121TMC2     O 1885   1.776   1.379  14.031 -0.7878  0.2533 -0.1089
  121TMC2     H 1886   1.858   1.168  14.091 -0.5940  1.1464 -0.1074
  121TMC2    H1 1887   1.573   1.179  13.770 -0.1069  0.8900 -0.0839
  121TMC2    H2 1888   1.604   0.830  14.007 -0.8464  0.7109  1.5096
  121TMC2    C7 1889   1.448   0.962  13.846  0.0139 -0.7021  0.3630
  121TMC2    C8 1890   1.782   0.926  14.188 -0.3825 -0.3725  0.4517
  121TMC2    O1 1891   1.426   0.840  13.834  0.0130 -0.2011  0.2406
  121TMC2    O2 1892   1.808   0.994  14.287  0.4936  0.3208 -0.5176
  121TMC2    O5 1893   1.825   0.799  14.161 -0.3107  0.0208 -0.3193
  121TMC2    H5 1894   1.830   0.779  14.066 -1.7175 -2.3109  0.1022
  122MPD2     C 1895   1.756   1.595  13.854  0.1817  0.0388  0.5262
  122MPD2    C1 1896   1.780   1.498  13.762 -0.1517 -0.4966  0.0488
  122MPD2    C2 1897   1.818   1.534  13.634  0.0448 -0.8374 -0.0916
  122MPD2    C3 1898   1.845   1.665  13.594 -0.5284 -0.7885 -0.9285
  122MPD2    C4 1899   1.818   1.763  13.686  0.5006 -0.3512  0.3197
  122MPD2    C5 1900   1.770   1.728  13.812  0.3316 -0.0416  0.0691
  122MPD2     H 1901   1.825   1.449  13.567 -0.0493 -1.8363  1.1776
  122MPD2    H1 1902   1.831   1.867  13.660 -4.2167  0.4869  1.4441
  122MPD2    H2 1903   1.728   1.580  13.957  0.2126 -0.0388  0.5231
  122MPD2    H3 1904   1.756   1.811  13.881  0.1252 -0.6888  0.7948
  122MPD2     N 1905   1.895   1.703  13.468  0.2164 -0.3527 -0.6718
  122MPD2    H5 1906   1.893   1.803  13.450  1.2204 -0.0048  1.1500
  122MPD2    N1 1907   1.758   1.364  13.795  0.3737 -0.0575  0.4726
  122MPD2    H7 1908   1.747   1.299  13.718 -0.5084 -0.8935  1.3079
  123TMC2    C1 1909   0.204   0.711  11.321  0.5772  0.4638  0.1686
  123TMC2    C2 1910   0.285   0.808  11.370  0.3905 -0.0291 -0.1813
  123TMC2    C3 1911   0.375   0.863  11.283 -0.3432 -0.5469 -0.5488
  123TMC2    C4 1912   0.211   0.662  11.191  0.2161 -0.0858 -0.4023
  123TMC2    C5 1913   0.282   0.736  11.108 -0.6376  0.2672  0.2406
  123TMC2    C6 1914   0.360   0.840  11.146 -0.2408  0.2469 -0.7891
  123TMC2     C 1915   0.135   0.634  11.423  0.3662  0.2459 -0.1886
  123TMC2     O 1916   0.185   0.634  11.538  0.0355  0.4848 -0.1630
  123TMC2     H 1917   0.284   0.830  11.476  0.6184 -0.8767 -0.0033
  123TMC2    H1 1918   0.169   0.567  11.160 -0.5810  0.4717 -1.0170
  123TMC2    H2 1919   0.424   0.886  11.072 -0.8298  1.3547 -0.6146
  123TMC2    C7 1920   0.292   0.688  10.972 -0.2433  0.4989  0.0059
  123TMC2    C8 1921   0.417   0.993  11.329 -0.2066  0.0736 -0.1969
  123TMC2    O1 1922   0.301   0.567  10.959 -0.6997 -0.6661  0.1315
  123TMC2    O2 1923   0.362   1.063  11.416  0.1325  0.4039  0.0061
  123TMC2    O5 1924   0.524   1.027  11.257 -0.0113 -0.1193 -0.3975
  123TMC2    H5 1925   0.546   0.960  11.188  0.8257 -1.3291  1.0551
  124MPD2     C 1926   4.598   0.219  11.477 -0.2508  0.3011 -0.4828
  124MPD2    C1 1927   4.571   0.270  11.356 -0.7571  0.4120 -0.3382
  124MPD2    C2 1928   4.622   0.386  11.315  0.0161 -0.2426  0.6568
  124MPD2    C3 1929   4.715   0.447  11.403 -0.3174  0.2885 -0.2872
  124MPD2    C4 1930   4.735   0.402  11.532 -0.1707 -0.1280  0.1671
  124MPD2    C5 1931   4.673   0.282  11.564  0.3664 -0.6137 -0.3404
  124MPD2     H 1932   4.606   0.431  11.218 -2.8363 -1.5622  0.5409
  124MPD2    H1 1933   0.058   0.450  11.608  0.7996  0.2741 -0.8628
  124MPD2    H2 1934   4.550   0.126  11.507 -1.3310  0.7806 -0.7584
  124MPD2    H3 1935   4.682   0.248  11.666 -1.6849 -0.7359 -0.1921
  124MPD2     N 1936   0.038   0.564  11.360 -0.2415 -0.3080  0.3728
  124MPD2    H5 1937   0.016   0.598  11.267 -1.1076 -1.2630  0.2247
  124MPD2    N1 1938   4.485   0.196  11.269  0.5657 -0.2590  0.9935
  124MPD2    H7 1939   4.448   0.107  11.304  1.0404  0.1106  2.4199
  125TMC2    C1 1940   2.147   3.307   9.127  0.2073  0.4726 -1.1288
  125TMC2    C2 1941   2.031   3.292   9.196  1.1399 -0.2588  0.2348
  125TMC2    C3 1942   1.996   3.158   9.224  0.6609  0.7559 -0.3935
  125TMC2    C4 1943   2.219   3.198   9.087  0.4566  0.7235  0.1598
  125TMC2    C5 1944   2.188   3.073   9.128  0.4015  0.2500 -0.4046
  125TMC2    C6 1945   2.077   3.048   9.196 -0.5027  0.9153  0.0163
  125TMC2     C 1946   2.221   3.431   9.144 -0.8997 -0.2991  0.1885
  125TMC2     O 1947   2.341   3.417   9.114  0.4038  0.1746 -0.5914
  125TMC2     H 1948   1.959   3.374   9.203 -1.1509 -2.3360  0.9623
  125TMC2    H1 1949   2.307   3.201   9.024  0.5336  0.7666  0.2684
  125TMC2    H2 1950   2.028   2.952   9.203  0.2795  0.6986  2.7186
  125TMC2    C7 1951   2.267   2.956   9.093 -0.2048 -0.2374 -0.3262
  125TMC2    C8 1952   1.865   3.151   9.287  0.0330  0.4034 -0.1498
  125TMC2    O1 1953   2.370   2.980   9.031 -0.3302 -0.1392 -0.6616
  125TMC2    O2 1954   1.783   3.247   9.290 -0.3501  0.0401  0.9073
  125TMC2    O5 1955   1.901   3.079   9.396 -0.2915 -0.1641  0.0230
  125TMC2    H5 1956   1.918   2.985   9.371 -1.5665  0.2339 -2.3200
  126MPD1     C 1957   2.304   3.897   9.339  0.3049 -0.0567 -0.3149
  126MPD1    C1 1958   2.167   3.872   9.340 -0.5748 -1.1279  0.1027
  126MPD1    C2 1959   2.121   3.749   9.293 -0.1342  0.3938 -0.2488
  126MPD1    C3 1960   2.211   3.657   9.236 -0.1879 -0.3204 -0.9140
  126MPD1    C4 1961   2.341   3.695   9.215 -0.1065  0.6418 -0.3486
  126MPD1    C5 1962   2.393   3.811   9.275  0.2904  0.0814 -0.9207
  126MPD1     H 1963   2.016   3.729   9.313 -0.5652  0.7704 -2.2144
  126MPD1    H1 1964   2.422   3.633   9.179  2.0511  0.6500  4.4014
  126MPD1    H2 1965   2.344   3.977   9.401  1.4753 -0.0780 -1.0464
  126MPD1    H3 1966   2.498   3.833   9.263  0.4142  0.5040  0.9692
  126MPD1     N 1967   2.154   3.535   9.204 -0.5974 -0.1061 -0.3577
  126MPD1    H5 1968   2.058   3.517   9.231 -0.3248  0.1386  0.7673
  126MPD1    N1 1969   2.093   3.944   9.432 -0.4982 -0.8644 -0.4655
  126MPD1    H6 1970   1.995   3.932   9.406 -0.9114  2.0328 -0.2186
  126MPD1    H7 1971   2.115   4.043   9.424 -3.4021 -0.0555  1.6007
  127TMC2    C1 1972   1.630   0.739  10.463 -0.2353 -0.3612  0.2411
  127TMC2    C2 1973   1.687   0.645  10.543 -0.0056 -0.6037  0.0437
  127TMC2    C3 1974   1.608   0.576  10.633 -0.0858 -0.0100 -0.3623
  127TMC2    C4 1975   1.501   0.774  10.474  0.4230  0.4606  0.1748
  127TMC2    C5 1976   1.428   0.704  10.570  0.2422 -0.3412  0.0114
  127TMC2    C6 1977   1.473   0.603  10.646 -0.3475  0.3373  0.5818
  127TMC2     C 1978   1.723   0.805  10.373  0.4548  0.5153 -0.2546
  127TMC2     O 1979   1.842   0.784  10.377  0.5027  0.0606 -0.2066
  127TMC2     H 1980   1.790   0.613  10.529 -0.1522 -0.7019 -0.7849
  127TMC2    H1 1981   1.454   0.862  10.433 -1.2931 -0.5656 -0.0492
  127TMC2    H2 1982   1.416   0.568  10.731  0.3208  0.0630  0.9159
  127TMC2    C7 1983   1.281   0.721  10.558  0.6239 -0.0085 -0.0710
  127TMC2    C8 1984   1.671   0.457  10.686  0.5702  0.0138 -0.8431
  127TMC2    O1 1985   1.245   0.818  10.492 -0.3051  0.1831  0.3541
  127TMC2    O2 1986   1.792   0.445  10.677  0.0178 -0.0377  0.0150
  127TMC2    O5 1987   1.576   0.361  10.672  0.2115  0.3153 -0.1775
  127TMC2    H5 1988   1.485   0.394  10.688  0.3953  0.8134 -0.1544
  128MPD2     C 1989   1.616   1.041  10.099  0.5113  0.3839  0.0981
  128MPD2    C1 1990   1.699   0.970  10.181 -0.2188  0.2687 -0.8621
  128MPD2    C2 1991   1.834   0.997  10.158 -0.3975 -0.5322  1.3533
  128MPD2    C3 1992   1.876   1.102  10.074 -0.1078  0.1857  0.1084
  128MPD2    C4 1993   1.781   1.170  10.004 -0.7020  0.6109 -0.2113
  128MPD2    C5 1994   1.651   1.142  10.014  0.1962 -0.3783  0.8626
  128MPD2     H 1995   1.906   0.931  10.205  0.0217  0.0618  1.5320
  128MPD2    H1 1996   1.804   1.252   9.937  0.2582 -0.1917 -0.8544
  128MPD2    H2 1997   1.511   1.023  10.120  0.4669  1.6397  0.9741
  128MPD2    H3 1998   1.567   1.183   9.960  1.5376 -0.4805 -1.2727
  128MPD2     N 1999   2.017   1.105  10.035  0.6526 -0.5636 -0.2825
  128MPD2    H5 2000   2.073   1.026  10.064  0.9291 -0.7573 -1.3552
  128MPD2    N1 2001   1.654   0.894  10.290  0.0179 -0.9118  0.0683
  128MPD2    H7 2002   1.553   0.894  10.304 -0.2898 -0.3379 -2.2149
  129TMC2    C1 2003   0.085   2.231   1.897 -0.0405 -0.0402 -0.6432
  129TMC2    C2 2004   4.736   2.203   2.003  0.8946 -1.0634  1.3685
  129TMC2    C3 2005   4.709   2.072   2.021  0.0061 -0.4413 -0.0456
  129TMC2    C4 2006   0.138   2.138   1.816 -0.3512 -0.6292  0.4459
  129TMC2    C5 2007   0.107   2.010   1.851  0.1237 -0.1099 -0.3131
  129TMC2    C6 2008   0.031   1.970   1.954 -0.2812  0.2757 -0.9102
  129TMC2     C 2009   0.130   2.368   1.886 -0.9659 -0.4794 -0.3693
  129TMC2     O 2010   0.164   2.433   1.985  0.3740 -0.5428 -0.1247
  129TMC2     H 2011   4.687   2.283   2.056  1.8248 -2.2033  3.9703
  129TMC2    H1 2012   0.200   2.161   1.730 -1.4170 -2.2522 -0.7561
  129TMC2    H2 2013   0.019   1.867   1.986  0.2589 -0.7241 -3.9245
  129TMC2    C7 2014   0.143   1.908   1.753  0.3812 -0.8935 -0.1124
  129TMC2    C8 2015   4.673   2.053   2.160 -0.3915  0.1794 -0.3280
  129TMC2    O1 2016   0.058   1.819   1.752  0.2716  0.5501  0.4449
  129TMC2    O2 2017   4.682   2.146   2.241  0.1249 -0.1871  0.0226
  129TMC2    O5 2018   4.597   1.945   2.178  0.5582 -0.0552 -0.4520
  129TMC2    H5 2019   4.579   1.902   2.092 -2.0396  0.6371 -0.2512
  130MPD2     C 2020   0.234   2.629   1.779 -0.6651  0.2697 -0.6513
  130MPD2    C1 2021   0.187   2.519   1.702 -0.1496 -0.3346  0.1302
  130MPD2    C2 2022   0.172   2.538   1.565 -0.2236 -0.3706  0.0251
  130MPD2    C3 2023   0.209   2.657   1.497 -0.2578 -0.5301  0.1771
  130MPD2    C4 2024   0.249   2.759   1.584  0.1694  0.5716 -0.5163
  130MPD2    C5 2025   0.246   2.750   1.719  0.5187 -0.2737 -0.0090
  130MPD2     H 2026   0.155   2.450   1.504  2.2763  0.9308 -2.5451
  130MPD2    H1 2027   0.268   2.858   1.544  2.8719  0.0226 -0.5930
  130MPD2    H2 2028   0.229   2.627   1.887 -1.1905 -1.4026 -0.7114
  130MPD2    H3 2029   0.274   2.836   1.779 -0.7090  1.1148 -1.4386
  130MPD2     N 2030   0.202   2.670   1.358  0.0256  0.0441 -0.3039
  130MPD2    H5 2031   0.197   2.585   1.304 -0.6147  0.4860 -0.9472
  130MPD2    N1 2032   0.139   2.397   1.756  0.1569 -0.2983  0.1539
  130MPD2    H7 2033   0.106   2.330   1.686  1.6157 -2.0306  1.1367
  131TMC2    C1 2034   4.642   0.807  10.686  0.2406  0.3278  0.5149
  131TMC2    C2 2035   4.677   0.838  10.815 -0.3757 -0.6442  0.1137
  131TMC2    C3 2036   4.693   0.969  10.848  0.0923 -0.2571 -0.7811
  131TMC2    C4 2037   4.615   0.902  10.591  0.1130  0.2064 -0.8300
  131TMC2    C5 2038   4.626   1.035  10.632 -0.5630 -0.9050  0.4388
  131TMC2    C6 2039   4.652   1.070  10.766 -0.1499  0.2868  0.5524
  131TMC2     C 2040   4.602   0.666  10.672 -0.4784 -0.3538  0.1790
  131TMC2     O 2041   4.624   0.590  10.769  0.2123  0.0822  0.2225
  131TMC2     H 2042   4.694   0.765  10.893  0.7897 -1.5145 -0.9445
  131TMC2    H1 2043   4.593   0.875  10.488  1.0923 -0.0031 -0.9830
  131TMC2    H2 2044   4.661   1.173  10.798 -1.2539  0.5967 -0.1455
  131TMC2    C7 2045   4.579   1.141  10.537  0.5962 -0.1490 -0.2266
  131TMC2    C8 2046   4.681   1.002  10.988  0.0492 -0.1184 -0.2671
  131TMC2    O1 2047   4.519   1.105  10.436  0.1371  0.0486  0.4668
  131TMC2    O2 2048   0.038   0.982  11.067 -0.5609 -0.3576  0.4187
  131TMC2    O5 2049   4.549   0.974  11.015 -0.0306 -0.0897 -0.1370
  131TMC2    H5 2050   4.501   0.963  10.930  0.3903 -2.5571 -0.0655
  132MPD2     C 2051   4.437   0.486  10.393 -0.0624 -0.5050 -0.6959
  132MPD2    C1 2052   4.495   0.509  10.517  0.3592  0.4194 -0.0365
  132MPD2    C2 2053   4.481   0.401  10.605 -0.0091  0.2668  0.1076
  132MPD2    C3 2054   4.422   0.283  10.582 -0.0501 -0.2201 -0.8752
  132MPD2    C4 2055   4.387   0.260  10.455 -0.2740  0.6717  0.2279
  132MPD2    C5 2056   4.380   0.364  10.364  0.6600 -0.3315  0.3787
  132MPD2     H 2057   4.532   0.410  10.700 -0.8032  3.1719  0.2553
  132MPD2    H1 2058   4.330   0.170  10.434  2.7648 -1.8086  2.5223
  132MPD2    H2 2059   4.427   0.562  10.316  2.0836  0.5057  0.0437
  132MPD2    H3 2060   4.340   0.357  10.263  0.5421  0.0904  0.3943
  132MPD2     N 2061   4.420   0.190  10.692 -0.2395  0.0353  0.1098
  132MPD2    H5 2062   4.462   0.213  10.782 -0.0089 -0.5354  0.1462
  132MPD2    N1 2063   4.548   0.635  10.545  0.0807 -1.4466  0.6119
  132MPD2    H7 2064   4.555   0.706  10.473 -1.7745 -0.8979  0.9686
  133TMC2    C1 2065   2.225   0.961   9.244 -0.4179 -0.2469  0.4331
  133TMC2    C2 2066   2.253   1.046   9.136  0.4455 -0.0585 -0.0676
  133TMC2    C3 2067   2.146   1.083   9.065  0.4035  0.1060  1.1984
  133TMC2    C4 2068   2.105   0.907   9.274  0.0130  0.6214  0.3720
  133TMC2    C5 2069   1.999   0.958   9.205 -0.6037 -0.2150  0.3008
  133TMC2    C6 2070   2.018   1.047   9.101  0.6432  0.2756  0.5806
  133TMC2     C 2071   2.341   0.917   9.325 -0.3144  0.7927  0.3100
  133TMC2     O 2072   2.444   0.977   9.315 -0.5281  0.0732 -0.7415
  133TMC2     H 2073   2.357   1.075   9.126  1.1640 -2.7557 -0.4506
  133TMC2    H1 2074   2.096   0.855   9.369  0.6545 -1.0029 -0.4562
  133TMC2    H2 2075   1.932   1.103   9.067 -1.7933 -2.5197  2.0788
  133TMC2    C7 2076   1.860   0.922   9.237 -0.1451  0.1484  0.0114
  133TMC2    C8 2077   2.167   1.196   8.977  0.1894  0.0606  0.2530
  133TMC2    O1 2078   1.772   0.977   9.177  0.4851 -0.2017 -0.0407
  133TMC2    O2 2079   2.077   1.275   8.953 -0.5604  0.4901 -0.1092
  133TMC2    O5 2080   2.253   1.163   8.875  0.2321  0.1293 -0.9271
  133TMC2    H5 2081   2.292   1.074   8.887 -0.4119 -0.2556 -1.7204
  134MPD2     C 2082   2.383   0.614   9.540  0.2199 -0.1438 -0.5685
  134MPD2    C1 2083   2.406   0.737   9.487 -0.1625  0.1729 -0.1853
  134MPD2    C2 2084   2.520   0.801   9.538  0.0217  0.0286  0.3561
  134MPD2    C3 2085   2.607   0.741   9.624 -0.7362  1.0651 -0.4463
  134MPD2    C4 2086   2.584   0.617   9.669  0.4795 -0.0282  0.2127
  134MPD2    C5 2087   2.472   0.559   9.621  0.3490  0.0951  0.0948
  134MPD2     H 2088   2.548   0.903   9.517 -1.9480  0.5781  0.3757
  134MPD2    H1 2089   2.651   0.564   9.738  0.4998  0.3560  0.4889
  134MPD2    H2 2090   2.294   0.562   9.506 -0.4834  1.5819 -1.3901
  134MPD2    H3 2091   2.456   0.462   9.666 -1.9389 -0.4118 -1.7915
  134MPD2     N 2092   2.723   0.801   9.678  0.5283 -0.1485  0.2260
  134MPD2    H5 2093   2.759   0.757   9.762  0.5310 -1.3596 -0.4160
  134MPD2    N1 2094   2.318   0.801   9.398 -0.5354 -0.1144 -0.5326
  134MPD2    H7 2095   2.228   0.764   9.372 -0.3447 -0.1686 -1.1144
  135TMC2    C1 2096   1.645   3.317   9.703 -0.1863  0.0391  0.3128
  135TMC2    C2 2097   1.658   3.202   9.636  0.7309  0.3243 -0.0716
  135TMC2    C3 2098   1.616   3.085   9.693  0.4875  0.0321 -0.6588
  135TMC2    C4 2099   1.588   3.305   9.830  0.5602  0.7402  0.0204
  135TMC2    C5 2100   1.550   3.187   9.882  0.7466 -0.4478 -1.0020
  135TMC2    C6 2101   1.570   3.067   9.819 -0.7424 -0.5544 -0.4376
  135TMC2     C 2102   1.748   3.419   9.666  0.3749  0.2851  0.5965
  135TMC2     O 2103   1.717   3.533   9.704 -0.5339  0.1999 -0.1190
  135TMC2     H 2104   1.681   3.206   9.530 -1.4968 -3.0067 -0.6806
  135TMC2    H1 2105   1.594   3.389   9.898  1.1758 -0.3236  1.2923
  135TMC2    H2 2106   1.532   2.969   9.846 -2.7821  0.2347 -0.4196
  135TMC2    C7 2107   1.457   3.191  10.001  0.4051  1.0719 -0.0141
  135TMC2    C8 2108   1.658   2.961   9.621 -0.6514  1.0822  0.5275
  135TMC2    O1 2109   1.419   3.301  10.035 -0.5257  0.3428  0.5756
  135TMC2    O2 2110   1.682   2.855   9.678  0.3754  0.1153  0.2061
  135TMC2    O5 2111   1.613   2.973   9.493  0.0145  0.1930  0.1100
  135TMC2    H5 2112   1.587   3.061   9.459  1.0717  0.9583  1.3031
  136MPD2     C 2113   1.999   3.562   9.625  0.1834 -0.1295 -0.0430
  136MPD2    C1 2114   1.980   3.432   9.588 -0.0397  0.3773 -0.2389
  136MPD2    C2 2115   2.082   3.356   9.531 -0.2262 -0.5594  0.1238
  136MPD2    C3 2116   2.208   3.415   9.517  0.5337 -0.2509  0.3615
  136MPD2    C4 2117   2.229   3.547   9.551  0.6089 -0.5226 -0.0709
  136MPD2    C5 2118   2.127   3.615   9.615 -0.6754  0.0893 -0.1083
  136MPD2     H 2119   2.062   3.252   9.507  0.9567 -0.5511 -0.9085
  136MPD2    H1 2120   2.329   3.587   9.539  0.2787  0.3370  0.0523
  136MPD2    H2 2121   1.926   3.619   9.682  0.9966  1.1588 -0.2830
  136MPD2    H3 2122   2.141   3.722   9.629  1.6005 -0.4190  1.4223
  136MPD2     N 2123   2.319   3.345   9.457 -0.0168  0.1226 -0.3988
  136MPD2    H5 2124   2.403   3.392   9.424 -0.4573  0.5896 -0.8565
  136MPD2    N1 2125   1.853   3.369   9.594  0.5585  0.1234 -0.0331
  136MPD2    H7 2126   1.855   3.271   9.569  0.4414  0.6048 -1.9390
  137TMC2    C1 2127   0.698   2.467   9.798 -0.4477  0.3478  0.1176
  137TMC2    C2 2128   0.732   2.580   9.725 -0.6729  0.3992  0.0919
  137TMC2    C3 2129   0.629   2.665   9.700  0.6970  1.0645  0.2760
  137TMC2    C4 2130   0.569   2.437   9.844  0.3951 -0.7150 -0.4143
  137TMC2    C5 2131   0.476   2.535   9.819 -0.0267 -0.3499 -0.0115
  137TMC2    C6 2132   0.506   2.642   9.743  0.2625 -0.4669  1.0256
  137TMC2     C 2133   0.797   2.366   9.787 -0.0192 -0.1701  0.1562
  137TMC2     O 2134   0.911   2.404   9.766  0.2058 -0.0218 -0.1028
  137TMC2     H 2135   0.823   2.584   9.666  0.1590 -0.1376  1.3497
  137TMC2    H1 2136   0.548   2.341   9.891  0.1911  0.3899  1.7227
  137TMC2    H2 2137   0.430   2.714   9.715 -0.0236 -1.1261  0.0882
  137TMC2    C7 2138   0.339   2.518   9.855 -0.3248 -0.3080 -0.1848
  137TMC2    C8 2139   0.650   2.741   9.574 -0.6602  0.0004  0.2668
  137TMC2    O1 2140   0.261   2.575   9.784  0.0941  0.0359  0.4450
  137TMC2    O2 2141   0.569   2.739   9.481  0.2918  0.4544 -0.3761
  137TMC2    O5 2142   0.760   2.822   9.592 -0.0129  0.2148 -0.0780
  137TMC2    H5 2143   0.801   2.794   9.677  0.0774 -2.0076 -0.8567
  138MPD2     C 2144   0.741   1.994   9.777  0.6768  0.0719 -0.0543
  138MPD2    C1 2145   0.810   2.115   9.759 -0.2529  0.1896  0.0272
  138MPD2    C2 2146   0.944   2.115   9.723 -0.2968 -0.3873 -0.8070
  138MPD2    C3 2147   1.013   1.990   9.721  0.2797  0.0798 -0.3587
  138MPD2    C4 2148   0.944   1.873   9.744 -0.0393 -0.7620 -0.4020
  138MPD2    C5 2149   0.806   1.876   9.769  0.4217  0.1597 -0.1748
  138MPD2     H 2150   1.002   2.206   9.714  0.9389 -0.7938  2.9952
  138MPD2    H1 2151   0.988   1.774   9.738 -0.4169 -1.0927  2.1263
  138MPD2    H2 2152   0.634   1.998   9.796  0.8508 -1.1604  1.1699
  138MPD2    H3 2153   0.753   1.782   9.778 -1.4912  1.3624  1.3505
  138MPD2     N 2154   1.150   2.002   9.675  0.9724  0.2674 -0.1240
  138MPD2    H5 2155   1.179   2.094   9.642  0.3872 -0.2839 -2.1951
  138MPD2    N1 2156   0.742   2.239   9.792  0.0941 -0.1542 -0.4344
  138MPD2    H7 2157   0.645   2.231   9.819  0.2627 -3.0207 -0.7126
  139TMC2    C1 2158   2.032   4.316  13.582  1.1147  0.3358  0.3745
  139TMC2    C2 2159   2.138   4.376  13.657  0.3540  0.4582  0.2651
  139TMC2    C3 2160   2.121   4.507  13.710  0.5028  0.5588  0.1033
  139TMC2    C4 2161   1.908   4.375  13.581 -0.6202  0.3074  0.6196
  139TMC2    C5 2162   1.894   4.498  13.630 -0.2988  0.1622  0.7311
  139TMC2    C6 2163   1.996   4.565  13.698 -0.3124 -0.4270 -0.0577
  139TMC2     C 2164   2.053   4.174  13.557 -0.3558  0.2206  0.0511
  139TMC2     O 2165   2.169   4.127  13.551 -0.0875  0.5358  0.1421
  139TMC2     H 2166   2.232   4.326  13.679 -0.4671 -1.0561  0.3224
  139TMC2    H1 2167   1.821   4.327  13.538  0.1324  0.0066 -0.5511
  139TMC2    H2 2168   1.978   4.668  13.724  0.1551 -0.8565  1.9963
  139TMC2    C7 2169   1.776   4.577  13.593  0.0028  0.2691 -0.3392
  139TMC2    C8 2170   2.226   4.575  13.773  0.4200 -0.1479 -0.2652
  139TMC2    O1 2171   1.774   4.695  13.627 -0.0355 -0.5278  0.1410
  139TMC2    O2 2172   2.337   4.536  13.751  0.3489  0.3675  0.3984
  139TMC2    O5 2173   2.189   4.625  13.894 -0.1347  0.0569  0.1502
  139TMC2    H5 2174   2.095   4.650  13.906 -0.0542 -0.1626  1.2707
  140MPD2     C 2175   1.799   3.921  13.645  0.0746  0.5228  0.9431
  140MPD2    C1 2176   1.923   3.967  13.605 -0.4545 -0.6745  0.3827
  140MPD2    C2 2177   2.013   3.872  13.566  0.3847 -0.2783  0.3627
  140MPD2    C3 2178   1.987   3.737  13.582 -0.7674 -0.4010 -0.4080
  140MPD2    C4 2179   1.870   3.695  13.644  0.1252  0.1878 -0.1561
  140MPD2    C5 2180   1.769   3.783  13.658  0.2555  0.2478 -0.5408
  140MPD2     H 2181   2.109   3.894  13.521  0.8016 -1.7606  0.5355
  140MPD2    H1 2182   1.840   3.590  13.647  1.6826 -0.1862  2.4603
  140MPD2    H2 2183   1.722   3.992  13.672 -1.5044 -0.4483 -0.9297
  140MPD2    H3 2184   1.673   3.748  13.696 -0.1918  0.2480 -1.6860
  140MPD2     N 2185   2.084   3.649  13.530  0.6316  0.7378  0.5863
  140MPD2    H5 2186   2.162   3.691  13.479  0.0341  0.1052 -0.8527
  140MPD2    N1 2187   1.938   4.107  13.589  0.2767 -0.3384 -0.0437
  140MPD2    H7 2188   1.857   4.164  13.611  0.8291  0.1404  0.7815
  141TMC2    C1 2189   2.240   0.525  14.909 -0.6750  0.2227 -0.8169
  141TMC2    C2 2190   2.256   0.400  14.963 -0.2017  0.2244 -0.4642
  141TMC2    C3 2191   2.235   0.394  15.096  0.1686 -0.0827 -1.0534
  141TMC2    C4 2192   2.195   0.636  14.967  0.3350 -0.1400 -0.1019
  141TMC2    C5 2193   2.185   0.623  15.107  0.3700  0.1322 -0.4058
  141TMC2    C6 2194   2.203   0.502  15.174 -0.2069 -0.2857  0.7876
  141TMC2     C 2195   2.307   0.560  14.782 -0.2744 -0.5471 -0.0294
  141TMC2     O 2196   2.262   0.665  14.731  0.3193 -0.6710  0.0927
  141TMC2     H 2197   2.289   0.312  14.908  0.5150 -1.9565  3.4212
  141TMC2    H1 2198   2.167   0.731  14.922  1.5858  0.8564  1.2002
  141TMC2    H2 2199   2.181   0.487  15.279 -0.5839  0.3468  0.8004
  141TMC2    C7 2200   2.205   0.750  15.185  0.3025  0.1583 -0.3680
  141TMC2    C8 2201   2.190   0.271  15.143 -0.2736  0.7578 -0.5359
  141TMC2    O1 2202   2.161   0.757  15.300 -0.1163  0.1315  0.6592
  141TMC2    O2 2203   2.192   0.241  15.262  0.0229 -0.4100 -0.1980
  141TMC2    O5 2204   2.089   0.226  15.057  0.3788 -0.1663  0.0686
  141TMC2    H5 2205   2.073   0.274  14.972  0.1394 -0.6067 -0.1380
  142TMC2    C1 2206   4.700   0.057  10.462 -0.0058  0.4850 -0.5450
  142TMC2    C2 2207   4.699   0.080  10.326  0.7196 -0.9425  0.0244
  142TMC2    C3 2208   0.023   0.191  10.277  0.5298 -0.0653 -0.3067
  142TMC2    C4 2209   0.021   0.151  10.546 -0.0833  0.0384 -0.2633
  142TMC2    C5 2210   0.065   0.268  10.488  0.3005 -0.1616 -0.5594
  142TMC2    C6 2211   0.086   0.287  10.353 -0.0578  0.4194  0.7243
  142TMC2     C 2212   4.627   4.674  10.515  0.9340  0.3353  0.1388
  142TMC2     O 2213   4.597   4.585  10.441 -0.1402 -0.7474 -0.1558
  142TMC2     H 2214   4.656   0.008  10.258 -1.2712  0.1703  0.0838
  142TMC2    H1 2215   0.022   0.149  10.654  1.0058 -2.4921 -0.3401
  142TMC2    H2 2216   0.124   0.374  10.302 -0.5663  1.2137  1.6918
  142TMC2    C7 2217   0.096   0.384  10.577 -0.7064  0.1128  0.1998
  142TMC2    C8 2218   4.736   0.218  10.138 -1.0505 -0.3799 -0.2153
  142TMC2    O1 2219   0.113   0.365  10.696 -0.6317 -0.0842 -0.0837
  142TMC2    O2 2220   4.625   0.183  10.095 -0.2704  0.3917 -0.7804
  142TMC2    O5 2221   0.113   0.202  10.070  0.4876 -0.0617 -0.2818
  142TMC2    H5 2222   0.187   0.235  10.124 -0.2436 -0.6224  1.0635
  143MPD2     C 2223   4.549   4.334  10.889 -0.7628 -0.2723  0.8228
  143MPD2    C1 2224   4.500   4.329  10.761  0.3648  0.1903  0.1004
  143MPD2    C2 2225   4.523   4.434  10.677  0.1342  0.1652  0.4355
  143MPD2    C3 2226   4.586   4.547  10.725  0.7229  0.1582  0.6860
  143MPD2    C4 2227   4.614   4.557  10.855  0.2363 -0.8590 -0.1488
  143MPD2    C5 2228   4.604   4.445  10.939 -0.7864  0.0146  0.0942
  143MPD2     H 2229   4.491   4.434  10.573  1.1526  2.5069  0.1140
  143MPD2    H1 2230   4.667   4.646  10.889 -0.4922  0.4919 -2.5667
  143MPD2    H2 2231   4.538   4.257  10.964  0.1453 -0.5940  0.6200
  143MPD2    H3 2232   4.632   4.460  11.042  3.6217  0.0805 -1.1285
  143MPD2     N 2233   4.614   4.666  10.651  0.0005 -0.1041  0.3338
  143MPD2    H5 2234   4.648   0.007  10.706 -0.0282 -2.1340  3.2213
  143MPD2    N1 2235   4.420   4.218  10.728  0.2824 -0.1232  0.3554
  143MPD2    H7 2236   4.422   4.144  10.797 -1.9882 -0.0253  0.5026
  144TMC2    C1 2237   3.604   3.522   0.815  0.5717 -0.3761  0.5471
  144TMC2    C2 2238   3.702   3.435   0.779 -0.4995 -0.0072 -0.2272
  144TMC2    C3 2239   3.829   3.484   0.792 -0.3025 -0.0369 -0.2515
  144TMC2    C4 2240   3.631   3.645   0.860 -0.2252  0.1511  0.4305
  144TMC2    C5 2241   3.763   3.678   0.890 -0.0043 -0.3829 -0.8456
  144TMC2    C6 2242   3.863   3.601   0.850 -0.0587  0.2942 -0.3604
  144TMC2     C 2243   3.467   3.490   0.786 -0.1990  0.4001 -0.1248
  144TMC2     O 2244   3.449   3.370   0.763  0.7198  0.7013 -0.3062
  144TMC2     H 2245   3.684   3.346   0.719  1.9434  0.3817 -1.4989
  144TMC2    H1 2246   3.552   3.701   0.909  0.9463 -0.4424  3.0150
  144TMC2    H2 2247   3.966   3.631   0.865 -0.2465  0.4666  0.5995
  144TMC2    C7 2248   3.798   3.799   0.973 -0.2141  0.0182 -0.1192
  144TMC2    C8 2249   3.945   3.409   0.745  0.1095 -0.1572  0.5790
  144TMC2    O1 2250   3.917   3.815   1.002 -0.2734 -0.5201 -0.4689
  144TMC2    O2 2251   4.058   3.419   0.792 -0.3099  0.0815 -0.1023
  144TMC2    O5 2252   3.908   3.330   0.640  0.3826  0.2475 -0.3596
  144TMC2    H5 2253   3.822   3.363   0.606 -0.2083 -0.9120 -0.0023
  145MPD2     C 2254   2.978   3.594   0.668 -0.5452  0.9227 -0.2696
  145MPD2    C1 2255   3.039   3.476   0.694 -0.7345  0.6304  1.0992
  145MPD2    C2 2256   3.174   3.471   0.729 -0.1309 -0.1217  0.1448
  145MPD2    C3 2257   3.246   3.584   0.746 -0.1855  0.4554 -0.3009
  145MPD2    C4 2258   3.176   3.700   0.712  0.3468 -0.7300  0.4078
  145MPD2    C5 2259   3.049   3.712   0.680 -0.8036 -0.1225 -0.0239
  145MPD2     H 2260   3.222   3.377   0.756  1.1520  1.8119  4.6337
  145MPD2    H1 2261   3.232   3.793   0.719 -2.4619  0.9587  0.5798
  145MPD2    H2 2262   2.874   3.600   0.640 -0.7743  0.3450  0.4506
  145MPD2    H3 2263   3.006   3.811   0.667  0.4281  0.3436 -0.5811
  145MPD2     N 2264   3.383   3.592   0.773  0.0234  0.4715 -0.6346
  145MPD2    H5 2265   3.421   3.686   0.772  1.8795 -0.2508  0.6011
  145MPD2    N1 2266   2.978   3.352   0.679 -0.8030  0.0106  0.2914
  145MPD2    H7 2267   3.039   3.275   0.700 -1.2206 -0.1886  0.7946
  146TMC2    C1 2268   4.399   1.937  11.909  0.3995 -0.1602  0.3046
  146TMC2    C2 2269   4.374   1.982  11.785  0.2260 -0.7602 -0.1946
  146TMC2    C3 2270   4.439   1.918  11.684  0.0580  0.1622 -0.0111
  146TMC2    C4 2271   4.491   1.841  11.945 -0.2907  0.7737 -0.1527
  146TMC2    C5 2272   4.558   1.791  11.836 -0.6419  0.7174  0.4369
  146TMC2    C6 2273   4.528   1.813  11.707  0.0862 -0.2458  0.2768
  146TMC2     C 2274   4.337   2.014  12.015 -0.5702 -0.3214 -0.2740
  146TMC2     O 2275   4.316   2.137  12.005  0.8235  0.2608 -1.1032
  146TMC2     H 2276   4.298   2.057  11.765 -1.5380 -2.7032 -0.7570
  146TMC2    H1 2277   4.526   1.839  12.047  0.1472  0.1060 -0.3171
  146TMC2    H2 2278   4.594   1.788  11.625  1.5316  0.3804  1.2658
  146TMC2    C7 2279   4.686   1.735  11.869  0.3657  0.1250  0.8514
  146TMC2    C8 2280   4.418   1.952  11.545  0.2525 -0.1912  0.2606
  146TMC2    O1 2281   0.035   1.747  11.781 -0.0138 -0.5810  0.0188
  146TMC2    O2 2282   4.499   1.943  11.454 -0.3270 -0.4591 -0.2218
  146TMC2    O5 2283   4.292   1.984  11.533  0.2946 -0.0053  0.4092
  146TMC2    H5 2284   4.237   1.955  11.608 -1.5605 -1.9258 -1.7209
  147MPD2     C 2285   0.238   1.449  12.174 -0.0275 -0.1321  0.5810
  147MPD2    C1 2286   0.119   1.476  12.234 -0.1400 -0.5717 -1.1747
  147MPD2    C2 2287   0.013   1.543  12.175  0.0896  0.3494 -0.1507
  147MPD2    C3 2288   0.037   1.577  12.040 -0.3961  0.6613  0.3075
  147MPD2    C4 2289   0.154   1.546  11.978 -0.3356 -0.0719  0.3302
  147MPD2    C5 2290   0.249   1.476  12.040 -0.3005  0.1394 -0.0905
  147MPD2     H 2291   4.654   1.564  12.219 -0.4162 -2.0157 -0.1627
  147MPD2    H1 2292   0.164   1.574  11.874  0.5594  1.4609  0.8247
  147MPD2    H2 2293   0.323   1.399  12.219  1.3959 -0.5377 -2.4739
  147MPD2    H3 2294   0.340   1.452  11.986 -0.7083 -0.2724 -0.5900
  147MPD2     N 2295   4.677   1.661  11.982  0.3557 -0.4358 -0.0861
  147MPD2    H5 2296   4.591   1.680  12.032 -0.4303 -0.6203 -1.3719
  147MPD2    N1 2297   0.108   1.425  12.368  0.0456  0.0652  0.4916
  147MPD2    H7 2298   0.195   1.391  12.407  0.3593  0.3313  0.0293
  148TMC2    C1 2299   4.047   1.301  10.836 -0.1452 -0.3920 -0.2835
  148TMC2    C2 2300   4.167   1.373  10.838 -0.2901  0.0052 -0.1414
  148TMC2    C3 2301   4.263   1.324  10.920  0.3054  0.3828 -0.2676
  148TMC2    C4 2302   4.018   1.199  10.925 -0.0138  0.1976  0.0874
  148TMC2    C5 2303   4.124   1.151  10.994 -0.1885 -0.5390  0.6703
  148TMC2    C6 2304   4.249   1.211  10.991  0.2816 -0.2856 -0.3095
  148TMC2     C 2305   3.938   1.358  10.759  0.6093 -0.3899 -0.0034
  148TMC2     O 2306   3.932   1.479  10.762  0.3824  0.3091  0.0118
  148TMC2     H 2307   4.178   1.461  10.776 -0.2302  0.0466 -0.0723
  148TMC2    H1 2308   3.920   1.153  10.929  1.1853 -2.2623  1.1317
  148TMC2    H2 2309   4.335   1.170  11.044  0.4378  0.9546  0.3859
  148TMC2    C7 2310   4.106   1.028  11.081  0.3297 -0.5988 -0.3511
  148TMC2    C8 2311   4.401   1.351  10.883  0.1137  0.4532 -0.5656
  148TMC2    O1 2312   4.004   0.966  11.057  0.2972  0.2457  0.1744
  148TMC2    O2 2313   4.500   1.277  10.891 -0.3090  0.4292 -0.9506
  148TMC2    O5 2314   4.402   1.468  10.825  0.1983  0.2415  0.6997
  148TMC2    H5 2315   4.335   1.525  10.867 -0.7912  1.5962 -2.7712
  149MPD2     C 2316   3.648   1.377  10.657 -0.5776  0.4937  0.0575
  149MPD2    C1 2317   3.723   1.267  10.650 -0.3663  0.7235 -0.7573
  149MPD2    C2 2318   3.676   1.156  10.579 -0.0674  0.4396 -0.4181
  149MPD2    C3 2319   3.556   1.153  10.514 -1.4130 -0.3760  0.2511
  149MPD2    C4 2320   3.475   1.260  10.536 -0.6577  0.4073 -0.0793
  149MPD2    C5 2321   3.520   1.374  10.600  0.3694  0.6282  0.8674
  149MPD2     H 2322   3.732   1.063  10.580  1.5083  1.3640 -2.2735
  149MPD2    H1 2323   3.373   1.256  10.501 -0.1768 -0.5240 -1.3794
  149MPD2    H2 2324   3.682   1.460  10.719  0.0929 -1.6875  2.6212
  149MPD2    H3 2325   3.451   1.456  10.617 -1.7693 -1.1269  0.5924
  149MPD2     N 2326   3.511   1.036  10.456  0.0345  0.4422  0.3113
  149MPD2    H5 2327   3.411   1.018  10.461 -0.0623  1.1810  1.1249
  149MPD2    N1 2328   3.855   1.259  10.703 -0.5618  0.5432  0.0552
  149MPD2    H7 2329   3.890   1.164  10.711 -0.7943  0.5488  1.3006
  150TMC2    C1 2330   1.592   0.099  12.311 -0.4535 -0.3446 -0.2413
  150TMC2    C2 2331   1.518   0.208  12.340 -0.1813  0.3986 -0.1690
  150TMC2    C3 2332   1.566   0.299  12.424 -0.1425  0.3231 -0.3872
  150TMC2    C4 2333   1.716   0.080  12.373  0.1797 -0.9404 -0.4995
  150TMC2    C5 2334   1.755   0.180  12.458 -0.0980  0.2808  0.0421
  150TMC2    C6 2335   1.689   0.293  12.475 -0.9797  0.0093 -0.7214
  150TMC2     C 2336   1.529   4.708  12.270 -0.0818 -0.1872  0.1704
  150TMC2     O 2337   1.582   4.602  12.296  0.1329  0.1422 -0.3490
  150TMC2     H 2338   1.419   0.223  12.298 -0.1960 -1.8723 -0.9748
  150TMC2    H1 2339   1.784   0.000  12.345  1.7836 -0.1271  1.1084
  150TMC2    H2 2340   1.743   0.362  12.539  0.2237 -0.6945 -0.9953
  150TMC2    C7 2341   1.900   0.179  12.471 -0.5884 -0.4438 -0.3271
  150TMC2    C8 2342   1.478   0.406  12.436  0.6837 -0.4372  0.1459
  150TMC2    O1 2343   1.964   0.282  12.455 -0.0816  0.2650  0.0670
  150TMC2    O2 2344   1.379   0.427  12.368  0.1063  0.1530 -0.5242
  150TMC2    O5 2345   1.475   0.446  12.564  0.1319  0.5701 -0.1934
  150TMC2    H5 2346   1.545   0.412  12.624 -0.0922  1.5933  0.6477
  151MPD2     C 2347   1.149   4.474  12.014 -0.3631 -0.0476  0.1394
  151MPD2    C1 2348   1.114   4.608  12.014 -0.0070 -0.0965 -0.4141
  151MPD2    C2 2349   1.214   4.689  12.065 -0.0267  0.0762 -0.4135
  151MPD2    C3 2350   1.323   4.630  12.134  0.5891  0.5893 -0.3522
  151MPD2    C4 2351   1.352   4.498  12.131 -0.2902  0.1976  0.3013
  151MPD2    C5 2352   1.261   4.421  12.073  0.2982  0.4039 -0.1966
  151MPD2     H 2353   1.202   0.057  12.086  2.8657  0.7994 -2.4514
  151MPD2    H1 2354   1.442   4.458  12.177  0.0822 -0.1692 -0.7413
  151MPD2    H2 2355   1.084   4.403  11.964 -0.1820 -1.7100  2.2409
  151MPD2    H3 2356   1.285   4.315  12.064 -2.2136 -0.0451 -1.7849
  151MPD2     N 2357   1.412   4.726  12.196 -0.3768  0.1457  0.0804
  151MPD2    H5 2358   1.394   0.087  12.179  2.4607  0.6449  0.0109
  151MPD2    N1 2359   0.984   4.645  11.967  0.0464  0.3324  0.0627
  151MPD2    H7 2360   0.914   4.572  11.954  1.4130 -1.4224  2.6430
  152TMC2    C1 2361   1.285   4.102  12.894  0.0204  0.1500 -0.0667
  152TMC2    C2 2362   1.366   4.001  12.861  0.0807 -0.1603 -0.6231
  152TMC2    C3 2363   1.497   4.020  12.818 -0.1364  0.1029  0.1381
  152TMC2    C4 2364   1.319   4.221  12.842 -0.2439  0.5691  0.6813
  152TMC2    C5 2365   1.445   4.244  12.793 -0.1053  0.1681  0.8551
  152TMC2    C6 2366   1.538   4.147  12.787 -0.5020 -0.4460 -0.5331
  152TMC2     C 2367   1.145   4.088  12.925 -0.3789  0.1746 -0.6299
  152TMC2     O 2368   1.073   4.185  12.904 -0.2688  0.3457 -0.3440
  152TMC2     H 2369   1.338   3.898  12.881  1.4741 -0.8406 -2.2150
  152TMC2    H1 2370   1.254   4.308  12.846 -1.5578 -0.2684 -2.5895
  152TMC2    H2 2371   1.635   4.167  12.743 -0.0155  1.1328  1.2418
  152TMC2    C7 2372   1.477   4.377  12.768  0.3262  1.1007  0.1910
  152TMC2    C8 2373   1.586   3.942  12.903  0.4865  1.0018  0.6090
  152TMC2    O1 2374   1.384   4.455  12.756 -0.6963 -0.2639 -0.0258
  152TMC2    O2 2375   1.537   3.906  13.012  0.5391 -0.0040  0.1861
  152TMC2    O5 2376   1.714   3.956  12.874  0.7887  0.4113 -0.1606
  152TMC2    H5 2377   1.726   3.980  12.779  0.3817 -0.7047 -0.4898
  153MPD2     C 2378   0.997   3.839  13.145 -0.8413 -0.7290  0.1537
  153MPD2    C1 2379   0.997   3.952  13.070  0.3263  0.0607  0.4291
  153MPD2    C2 2380   0.874   4.020  13.063 -0.5214 -0.1056  0.3907
  153MPD2    C3 2381   0.760   3.967  13.125  0.1083  0.3666  0.0851
  153MPD2    C4 2382   0.767   3.842  13.189  0.2818 -0.8622 -0.2592
  153MPD2    C5 2383   0.889   3.787  13.202 -0.2943 -0.3021  0.1486
  153MPD2     H 2384   0.864   4.113  13.008 -0.7447 -0.3658 -0.0134
  153MPD2    H1 2385   0.683   3.800  13.241 -0.1473 -0.7680 -0.8752
  153MPD2    H2 2386   1.086   3.778  13.150 -0.4311 -0.1505 -0.0700
  153MPD2    H3 2387   0.900   3.693  13.255 -3.1772 -1.5921 -1.5570
  153MPD2     N 2388   0.637   4.035  13.109 -0.0570  0.2706  0.1614
  153MPD2    H5 2389   0.621   4.094  13.027 -0.6320  0.7429  0.6136
  153MPD2    N1 2390   1.113   3.987  13.008 -0.3542  0.4000 -0.2018
  153MPD2    H7 2391   1.194   3.936  13.040  0.2410  1.6752  0.3228
  154TMC2    C1 2392   3.177   0.314   0.456  0.2673  0.7710 -0.1823
  154TMC2    C2 2393   3.231   0.407   0.546 -0.6460  0.4075 -0.6472
  154TMC2    C3 2394   3.368   0.401   0.559 -0.3847 -0.3792  0.0979
  154TMC2    C4 2395   3.254   0.231   0.379  0.6197  0.7175  0.3553
  154TMC2    C5 2396   3.392   0.241   0.388  0.1153 -0.6511  0.4469
  154TMC2    C6 2397   3.450   0.333   0.475 -0.1960  0.9269 -0.9074
  154TMC2     C 2398   3.040   0.336   0.414  0.0357  0.1439  0.0880
  154TMC2     O 2399   2.987   0.422   0.484  0.3261 -0.6146 -0.3644
  154TMC2     H 2400   3.175   0.489   0.589  1.4968  0.5201  1.9160
  154TMC2    H1 2401   3.204   0.154   0.322 -1.2156  1.2567  1.2564
  154TMC2    H2 2402   3.555   0.334   0.499 -0.4245  0.5276  0.1065
  154TMC2    C7 2403   3.483   0.152   0.315  0.3837  0.5884  0.0078
  154TMC2    C8 2404   3.417   0.511   0.629  0.3582  0.3006  0.0674
  154TMC2    O1 2405   3.428   0.051   0.273 -0.1462 -0.2952  0.1201
  154TMC2    O2 2406   3.369   0.541   0.735  0.2556 -0.6061  0.4790
  154TMC2    O5 2407   3.523   0.569   0.577  0.3352 -0.1589  0.3458
  154TMC2    H5 2408   3.532   0.537   0.485 -3.4145  1.4220 -0.5517
  155MPD2     C 2409   2.884   0.342   0.079 -0.5640  0.0446 -0.5865
  155MPD2    C1 2410   2.891   0.352   0.218 -0.0307 -0.0613 -0.1464
  155MPD2    C2 2411   2.781   0.403   0.287  0.2837  0.3091 -0.2106
  155MPD2    C3 2412   2.668   0.452   0.216 -0.0062  0.1202 -0.2553
  155MPD2    C4 2413   2.673   0.448   0.076  0.6703  0.2112 -0.4749
  155MPD2    C5 2414   2.774   0.391   0.008  0.0165  0.4193 -0.2010
  155MPD2     H 2415   2.778   0.410   0.396 -0.3479 -1.0687 -0.1400
  155MPD2    H1 2416   2.588   0.479   0.017  2.0726  1.0274 -2.0746
  155MPD2    H2 2417   2.967   0.302   0.022 -1.1727 -0.5354 -1.0752
  155MPD2    H3 2418   2.766   0.382  17.648  1.7910  0.8291 -0.3720
  155MPD2     N 2419   2.560   0.510   0.286 -0.1957  0.2111  0.2479
  155MPD2    H5 2420   2.576   0.507   0.386  4.0901 -4.7567 -0.5768
  155MPD2    N1 2421   3.016   0.319   0.279 -0.1385 -0.1101  0.5908
  155MPD2    H7 2422   3.086   0.266   0.227 -1.5990 -1.4668  0.0265
  156TMC2    C1 2423   0.962   2.180  11.335 -1.2051 -0.1066 -0.6865
  156TMC2    C2 2424   0.978   2.145  11.205  0.4154  0.7215  0.3387
  156TMC2    C3 2425   0.914   2.224  11.109 -0.2314  0.8232 -0.3391
  156TMC2    C4 2426   0.873   2.282  11.367  0.5481  0.2312 -0.6397
  156TMC2    C5 2427   0.818   2.354  11.271  0.5643  0.1964  0.2020
  156TMC2    C6 2428   0.823   2.321  11.139 -0.0532  0.3444 -0.1269
  156TMC2     C 2429   1.067   2.150  11.431 -0.3217 -0.0119 -0.4117
  156TMC2     O 2430   1.042   2.158  11.552 -0.3070 -0.3357  0.3025
  156TMC2     H 2431   1.039   2.058  11.182 -1.1913 -0.7505  1.6511
  156TMC2    H1 2432   0.856   2.322  11.466  0.5627 -0.1854 -0.4665
  156TMC2    H2 2433   0.788   2.382  11.056 -1.0808  0.7755  0.6174
  156TMC2    C7 2434   0.808   2.496  11.309  0.4753 -0.3669  0.7968
  156TMC2    C8 2435   0.928   2.196  10.972 -0.4922 -0.7815 -0.1503
  156TMC2    O1 2436   0.892   2.570  11.255 -0.3760  0.8275 -0.5977
  156TMC2    O2 2437   0.837   2.222  10.894  0.0117 -0.1534 -0.1364
  156TMC2    O5 2438   1.049   2.143  10.940  0.1140  0.0434  0.0993
  156TMC2    H5 2439   1.099   2.149  11.024 -2.5201 -1.4528  1.7843
  157MPD2     C 2440   1.413   2.025  11.364 -0.6651 -0.4643  0.4751
  157MPD2    C1 2441   1.312   2.093  11.432 -0.4451  0.0611  0.1031
  157MPD2    C2 2442   1.344   2.152  11.552 -0.3084 -0.2727 -0.0129
  157MPD2    C3 2443   1.470   2.151  11.608 -0.2124  0.1024  0.0069
  157MPD2    C4 2444   1.560   2.071  11.539 -0.2704  0.5480  0.8313
  157MPD2    C5 2445   1.535   2.006  11.421  0.9706 -0.4447 -0.1668
  157MPD2     H 2446   1.269   2.212  11.603  1.0466 -0.4589  2.2053
  157MPD2    H1 2447   1.659   2.052  11.578 -0.3535 -1.7986 -0.0777
  157MPD2    H2 2448   1.395   1.976  11.269 -1.1345 -0.4971  0.5801
  157MPD2    H3 2449   1.608   1.934  11.388 -0.0525 -2.8019  2.7128
  157MPD2     N 2450   1.492   2.217  11.731  0.1718  0.1024 -0.1564
  157MPD2    H5 2451   1.412   2.266  11.769  1.5447  3.0092 -0.9560
  157MPD2    N1 2452   1.182   2.110  11.369  0.2636 -0.3222  0.6401
  157MPD2    H7 2453   1.183   2.097  11.269 -0.8198 -3.2967  1.0203
  158TMC2    C1 2454   2.259   0.917  13.748  0.7717 -0.3320  0.5526
  158TMC2    C2 2455   2.343   0.997  13.674  0.0321 -0.5876  0.2519
  158TMC2    C3 2456   2.288   1.107  13.613  0.5853 -0.0280 -0.1543
  158TMC2    C4 2457   2.125   0.944  13.744  0.4206 -0.6978 -0.3216
  158TMC2    C5 2458   2.072   1.043  13.670  0.4648 -0.8405 -0.2892
  158TMC2    C6 2459   2.150   1.133  13.613 -0.0496 -0.1602 -0.1921
  158TMC2     C 2460   2.324   0.817  13.824  0.1271 -0.8049  1.1831
  158TMC2     O 2461   2.435   0.786  13.787  0.4099  0.4466 -0.1360
  158TMC2     H 2462   2.444   0.962  13.660  0.0573 -0.8056  0.9836
  158TMC2    H1 2463   2.065   0.879  13.806  0.6472  0.0595  0.6871
  158TMC2    H2 2464   2.109   1.215  13.555 -2.7422 -0.9966  0.5402
  158TMC2    C7 2465   1.938   1.042  13.612 -0.2304  0.0853 -0.0197
  158TMC2    C8 2466   2.372   1.188  13.531  0.2069  0.5950 -0.3059
  158TMC2    O1 2467   1.886   1.150  13.583  0.0520 -0.3738 -0.1329
  158TMC2    O2 2468   2.348   1.308  13.514  0.1670  0.1332  0.2789
  158TMC2    O5 2469   2.402   1.108  13.422 -0.2589  0.0568  0.3731
  158TMC2    H5 2470   2.400   1.013  13.443  0.2914 -0.1942 -0.7328
  159MPD2     C 2471   2.342   0.459  14.192 -0.4302 -0.8255 -0.0356
  159MPD2    C1 2472   2.250   0.549  14.242  0.0450 -0.3408 -0.4835
  159MPD2    C2 2473   2.225   0.660  14.154  0.3581  0.5581 -0.2723
  159MPD2    C3 2474   2.285   0.678  14.023 -0.0707 -0.3047 -0.4955
  159MPD2    C4 2475   2.365   0.570  13.977  1.0021  0.5771 -0.5738
  159MPD2    C5 2476   2.383   0.469  14.066  0.1177 -0.1809  0.0870
  159MPD2     H 2477   2.152   0.736  14.179 -1.6728 -0.8364 -1.8831
  159MPD2    H1 2478   2.400   0.568  13.874 -2.1233  3.4279 -1.6734
  159MPD2    H2 2479   2.373   0.376  14.255  0.8197 -0.6013 -0.3474
  159MPD2    H3 2480   2.457   0.398  14.032 -0.7787 -0.2275 -1.7424
  159MPD2     N 2481   2.254   0.784  13.938 -0.0496 -0.0230  0.2030
  159MPD2    H5 2482   2.187   0.852  13.973 -1.2653 -1.2507  0.2320
  159MPD2    N1 2483   2.178   0.527  14.358 -0.0830  0.0847 -0.3479
  159MPD2    H7 2484   2.189   0.439  14.408 -0.0550  1.4179  1.9324
  160TMC2    C1 2485   1.852   4.432   2.052 -0.1050  0.1513  0.4087
  160TMC2    C2 2486   1.821   4.390   2.177 -0.1134  0.7727  0.3066
  160TMC2    C3 2487   1.857   4.259   2.203  0.8381  0.3294  0.9563
  160TMC2    C4 2488   1.903   4.354   1.955  0.4958  0.5713 -0.9521
  160TMC2    C5 2489   1.939   4.225   1.983  0.2329 -0.7382  0.0666
  160TMC2    C6 2490   1.924   4.190   2.112 -0.0295  0.4306 -0.2795
  160TMC2     C 2491   1.833   4.575   2.026  0.5093 -0.0419 -0.0013
  160TMC2     O 2492   1.859   4.648   2.120 -0.6317  0.2182 -0.0819
  160TMC2     H 2493   1.775   4.456   2.250  0.4744  0.1677  1.2210
  160TMC2    H1 2494   1.928   4.402   1.861  1.0769 -0.3120 -1.2492
  160TMC2    H2 2495   1.958   4.092   2.143 -1.0780 -0.0248 -0.5556
  160TMC2    C7 2496   2.059   4.175   1.921 -0.7350  0.3151  0.1504
  160TMC2    C8 2497   1.881   4.217   2.343  0.2628 -0.1125 -0.4922
  160TMC2    O1 2498   2.128   4.106   1.996  0.1180 -0.0256  0.1621
  160TMC2    O2 2499   1.967   4.132   2.376 -0.4985 -0.6676 -0.3117
  160TMC2    O5 2500   1.788   4.279   2.424  0.1899  0.2789  0.6706
  160TMC2    H5 2501   1.712   4.311   2.371  1.1059  1.8742  0.3065
  161MPD2     C 2502   1.729   0.101   1.954  0.3374  0.2960 -0.2621
  161MPD2    C1 2503   1.704   4.718   1.884  0.3452 -0.5841  0.2479
  161MPD2    C2 2504   1.613   4.722   1.779  0.1416 -0.5301  0.0631
  161MPD2    C3 2505   1.538   0.099   1.748 -0.0225  0.6968  0.4416
  161MPD2    C4 2506   1.567   0.208   1.817 -0.1992  0.3188  1.6867
  161MPD2    C5 2507   1.651   0.207   1.924  0.6775 -0.0404 -0.0857
  161MPD2     H 2508   1.595   4.634   1.719  0.0406  0.8855 -2.0060
  161MPD2    H1 2509   1.526   0.304   1.785 -1.4577 -1.7493 -2.9181
  161MPD2    H2 2510   1.794   0.109   2.040  1.3664 -1.0695 -0.9276
  161MPD2    H3 2511   1.647   0.298   1.984 -1.4801 -0.7692  0.8853
  161MPD2     N 2512   1.451   0.108   1.640 -0.2826  0.9020 -0.4611
  161MPD2    H5 2513   1.398   0.194   1.633 -1.4302  0.2478  0.0735
  161MPD2    N1 2514   1.760   4.597   1.912  0.3212  0.2849  0.3428
  161MPD2    H7 2515   1.738   4.516   1.854 -0.2650  0.1964  0.6895
  162TMC2    C1 2516   3.750   1.258   0.989  0.7747 -0.1668  0.2077
  162TMC2    C2 2517   3.623   1.231   1.027 -0.1496  0.1517 -0.1357
  162TMC2    C3 2518   3.590   1.279   1.146 -0.1982  0.1810 -0.0621
  162TMC2    C4 2519   3.843   1.312   1.073  0.6895 -1.0393 -0.1075
  162TMC2    C5 2520   3.805   1.353   1.198  0.1415  0.3285 -0.3762
  162TMC2    C6 2521   3.678   1.335   1.241  0.2983 -0.0836  0.0471
  162TMC2     C 2522   3.807   1.191   0.873  0.5979  0.1092  0.0057
  162TMC2     O 2523   3.931   1.182   0.871  0.0631 -0.6129  0.6321
  162TMC2     H 2524   3.546   1.202   0.957 -1.2628 -0.1553  1.2187
  162TMC2    H1 2525   3.935   1.347   1.027  0.7359  0.0701  0.8262
  162TMC2    H2 2526   3.644   1.375   1.336 -1.9661  1.8303 -1.5658
  162TMC2    C7 2527   3.891   1.439   1.278  0.4421 -0.4147 -0.0362
  162TMC2    C8 2528   3.450   1.313   1.164  0.1860  0.5364  0.0309
  162TMC2    O1 2529   3.841   1.517   1.357  0.2794 -0.7334 -0.5126
  162TMC2    O2 2530   3.422   1.405   1.242 -0.3640 -0.2453  0.2459
  162TMC2    O5 2531   3.392   1.194   1.169 -0.3386 -0.2079  0.3044
  162TMC2    H5 2532   3.439   1.118   1.127 -1.7585 -1.0844  0.3070
  163MPD2     C 2533   3.758   0.837   0.509  0.0762 -0.3436  0.1945
  163MPD2    C1 2534   3.866   0.894   0.563 -0.0755  0.2332  0.4444
  163MPD2    C2 2535   3.856   0.997   0.655  0.4132  0.4883 -0.2398
  163MPD2    C3 2536   3.730   1.037   0.696 -0.5558  0.0438 -0.2352
  163MPD2    C4 2537   3.622   0.981   0.642  0.0606 -0.1863 -0.2671
  163MPD2    C5 2538   3.637   0.883   0.545  0.5639  0.5192  0.6133
  163MPD2     H 2539   3.945   1.044   0.695  0.7658 -1.2543  1.0204
  163MPD2    H1 2540   3.524   1.012   0.676  1.1284  1.9752  0.8065
  163MPD2    H2 2541   3.760   0.744   0.453  1.0571  0.5966 -1.3386
  163MPD2    H3 2542   3.556   0.831   0.496  0.8339  0.5849  0.1042
  163MPD2     N 2543   3.710   1.127   0.795 -0.3883  0.3879 -0.8175
  163MPD2    H5 2544   3.616   1.153   0.822 -0.2046  0.9864 -0.7312
  163MPD2    N1 2545   3.993   0.847   0.521 -0.4758 -0.6442 -0.9077
  163MPD2    H7 2546   3.997   0.776   0.449  0.2884 -0.6321 -0.8710
  164TMC2    C1 2547   0.098   1.685  10.990 -0.9787 -0.3016  0.4152
  164TMC2    C2 2548   0.155   1.592  10.909 -0.3868 -0.0779  0.5727
  164TMC2    C3 2549   0.084   1.473  10.918  0.2029 -0.1206 -0.0186
  164TMC2    C4 2550   4.734   1.660  11.081 -0.5561  0.4469 -0.4312
  164TMC2    C5 2551   4.687   1.534  11.089  0.4776 -1.0045  0.2391
  164TMC2    C6 2552   4.720   1.437  10.999 -0.0270  0.2865 -0.1140
  164TMC2     C 2553   0.150   1.819  10.971  0.4322  0.4716 -0.0775
  164TMC2     O 2554   0.074   1.914  10.996  0.1185 -0.4837 -0.2421
  164TMC2     H 2555   0.235   1.622  10.842  0.4074 -1.7094  0.7856
  164TMC2    H1 2556   4.691   1.734  11.148 -2.2032 -0.1854 -0.7866
  164TMC2    H2 2557   4.675   1.338  11.004 -1.2583  0.8066 -0.8054
  164TMC2    C7 2558   4.558   1.517  11.149  1.0502 -0.3581 -0.7298
  164TMC2    C8 2559   0.119   1.358  10.830 -0.0540  0.2881  0.1359
  164TMC2    O1 2560   4.489   1.617  11.173  0.3215  0.2258 -0.4602
  164TMC2    O2 2561   0.129   1.244  10.874  0.3926  0.2934  0.0443
  164TMC2    O5 2562   0.205   1.412  10.741 -0.1815  0.1357 -0.2449
  164TMC2    H5 2563   0.192   1.509  10.731 -2.3867 -0.2379 -1.1002
  165TMC2    C1 2564   1.743   3.695   1.554  0.6105  0.3867 -0.1296
  165TMC2    C2 2565   1.726   3.792   1.645 -0.0405 -0.0023 -0.6392
  165TMC2    C3 2566   1.834   3.850   1.702 -0.1959  0.2352 -0.5917
  165TMC2    C4 2567   1.869   3.661   1.520  0.1936  0.0780 -0.1807
  165TMC2    C5 2568   1.985   3.711   1.580 -0.1403 -0.4002  0.1808
  165TMC2    C6 2569   1.965   3.807   1.675 -0.0211  0.0328 -0.7301
  165TMC2     C 2570   1.618   3.640   1.495  0.2856 -0.1657  0.0429
  165TMC2     O 2571   1.503   3.684   1.519 -0.0857 -0.3119 -0.1351
  165TMC2     H 2572   1.624   3.822   1.668  0.1314 -1.9043  2.5759
  165TMC2    H1 2573   1.892   3.585   1.445  1.2130  1.8354 -1.6350
  165TMC2    H2 2574   2.042   3.871   1.718 -1.2226  1.1182 -0.1847
  165TMC2    C7 2575   2.119   3.663   1.540 -0.2446 -0.7139  0.5896
  165TMC2    C8 2576   1.811   3.902   1.831  0.4078 -0.0180  0.7196
  165TMC2    O1 2577   2.140   3.584   1.448 -0.2545  0.1233  0.6272
  165TMC2    O2 2578   1.903   3.909   1.912 -0.2318  0.3610  0.3555
  165TMC2    O5 2579   1.706   3.993   1.824  0.7230  0.5806  0.4093
  165TMC2    H5 2580   1.683   4.009   1.730  1.4163  0.1802  0.1697
  166MPD2     C 2581   1.344   3.367   1.163 -0.0846 -0.2120  0.4709
  166MPD2    C1 2582   1.311   3.485   1.236  0.1978 -0.4611  0.0380
  166MPD2    C2 2583   1.407   3.547   1.310  0.1589 -0.7031 -0.1449
  166MPD2    C3 2584   1.539   3.492   1.317  0.2240  0.2428  1.1557
  166MPD2    C4 2585   1.571   3.397   1.224 -0.4915 -0.4332 -0.1153
  166MPD2    C5 2586   1.476   3.329   1.148 -0.4122  1.1685 -0.5892
  166MPD2     H 2587   1.381   3.637   1.363 -2.4106 -1.4750 -0.1283
  166MPD2    H1 2588   1.677   3.378   1.213 -0.7740  0.5173 -4.4347
  166MPD2    H2 2589   1.265   3.316   1.110 -0.9989  1.0283  0.6472
  166MPD2    H3 2590   1.494   3.252   1.074 -0.1510  0.6150  0.0391
  166MPD2     N 2591   1.638   3.544   1.397  0.2085  0.3533 -0.1744
  166MPD2    H5 2592   1.735   3.515   1.394  0.2594  0.7092 -2.0246
  166MPD2    N1 2593   1.178   3.528   1.220  0.2508 -0.3217  0.7644
  166MPD2    H7 2594   1.117   3.462   1.174  1.7004 -0.8291 -0.4469
  167TMC2    C1 2595   4.017   0.416  13.081 -0.1943 -0.0427 -0.2633
  167TMC2    C2 2596   4.042   0.418  13.216 -0.1660 -0.1108  0.0385
  167TMC2    C3 2597   4.045   0.297  13.282 -0.3657  0.3887  0.8058
  167TMC2    C4 2598   4.016   0.293  13.012 -0.6915  0.0858  0.7540
  167TMC2    C5 2599   4.034   0.180  13.086  0.8805  0.0356  0.5127
  167TMC2    C6 2600   4.051   0.181  13.219  0.4415 -0.6381 -0.3984
  167TMC2     C 2601   4.001   0.534  13.006 -0.4056  0.5573 -0.6804
  167TMC2     O 2602   3.958   0.633  13.065 -0.1557  0.6860  0.4593
  167TMC2     H 2603   4.037   0.512  13.271  1.4091 -0.3644  0.6094
  167TMC2    H1 2604   4.005   0.283  12.905  0.7319  1.6682  0.4580
  167TMC2    H2 2605   4.068   0.088  13.273 -1.6976 -0.4633  0.5742
  167TMC2    C7 2606   4.074   0.056  13.026  0.5232 -0.3658 -0.2333
  167TMC2    C8 2607   4.074   0.293  13.424 -0.1055  0.1966  0.1001
  167TMC2    O1 2608   4.040   4.690  13.079 -0.2072  0.3330 -0.3391
  167TMC2    O2 2609   4.022   0.209  13.494  0.1494  0.5533  0.4710
  167TMC2    O5 2610   4.127   0.408  13.461  0.1690 -0.0075  0.0671
  167TMC2    H5 2611   4.189   0.434  13.389 -1.3953  1.4924 -0.7530
  168MPD2     C 2612   3.996   0.746  12.802 -0.0073 -0.3615  0.0964
  168MPD2    C1 2613   4.076   0.634  12.793  0.4404 -0.6723  0.3101
  168MPD2    C2 2614   4.153   0.620  12.680 -0.2466  0.2954 -0.4417
  168MPD2    C3 2615   4.153   0.715  12.581  1.0610 -0.3028 -0.1141
  168MPD2    C4 2616   4.065   0.822  12.587  0.2482 -0.1851  0.0190
  168MPD2    C5 2617   3.989   0.836  12.697  0.1176 -0.7497 -0.2987
  168MPD2     H 2618   4.217   0.532  12.682 -2.0478 -0.9815  0.8703
  168MPD2    H1 2619   4.063   0.901  12.513  0.0614 -0.0932  0.1232
  168MPD2    H2 2620   3.926   0.758  12.884 -1.4566 -1.1050 -1.0266
  168MPD2    H3 2621   3.913   0.913  12.702 -1.3789 -2.2793  0.8018
  168MPD2     N 2622   4.234   0.706  12.464  0.2112  0.0234  0.3087
  168MPD2    H5 2623   4.199   0.756  12.382 -2.8020 -2.9540 -0.2005
  168MPD2    N1 2624   4.070   0.533  12.889 -0.2654  0.2515 -0.5403
  168MPD2    H7 2625   4.118   0.447  12.862  1.6543  0.7778  1.1853
  169MPD1     C 2626   1.946   1.324   9.395 -0.0314 -0.7061 -0.0849
  169MPD1    C1 2627   2.058   1.246   9.438 -0.1626  0.0109 -1.1421
  169MPD1    C2 2628   2.046   1.142   9.514 -0.9675  0.0412 -0.5761
  169MPD1    C3 2629   1.919   1.095   9.554 -0.9642  0.1486  0.0769
  169MPD1    C4 2630   1.810   1.158   9.498  0.6283  0.2749  0.2073
  169MPD1    C5 2631   1.828   1.268   9.421  0.5676 -0.0975  0.1270
  169MPD1     H 2632   2.138   1.091   9.540 -0.2016  1.4099 -0.6596
  169MPD1    H1 2633   1.709   1.121   9.512 -0.4288  1.6709 -3.7940
  169MPD1    H2 2634   1.956   1.409   9.329 -0.1802 -1.0520 -0.5521
  169MPD1    H3 2635   1.739   1.312   9.377 -0.2230 -0.0070  1.8347
  169MPD1     N 2636   1.906   0.991   9.655  0.0800 -0.0526 -0.0779
  169MPD1    H5 2637   1.991   0.944   9.685 -0.7107 -1.2926  0.2023
  169MPD1    N1 2638   2.189   1.298   9.414  0.3905  0.8997 -0.0896
  169MPD1    H6 2639   2.270   1.239   9.399  1.0748  2.0055 -0.7171
  169MPD1    H7 2640   2.199   1.365   9.338  4.3940  1.1130  0.6385
  170MPD1     C 2641   0.757   2.522  13.209 -0.5992  0.2299  0.4436
  170MPD1    C1 2642   0.632   2.580  13.199  0.3655  0.3784  0.0801
  170MPD1    C2 2643   0.584   2.652  13.307  0.2158  1.0042  0.0889
  170MPD1    C3 2644   0.650   2.661  13.429  0.0873  0.8765 -0.2078
  170MPD1    C4 2645   0.773   2.595  13.438 -0.8804 -0.0209 -0.5838
  170MPD1    C5 2646   0.828   2.529  13.329  0.0330 -0.1604 -0.2143
  170MPD1     H 2647   0.483   2.691  13.303 -0.6426 -0.9876  1.9208
  170MPD1    H1 2648   0.825   2.584  13.532 -1.9045 -1.1290 -0.1647
  170MPD1    H2 2649   0.799   2.460  13.130  1.7297 -1.0798  2.7068
  170MPD1    H3 2650   0.925   2.481  13.327 -0.2263 -0.5687 -2.5081
  170MPD1     N 2651   0.589   2.732  13.538 -0.0650 -0.6503 -0.4792
  170MPD1    H5 2652   0.489   2.751  13.534  0.0068  0.0218  0.9853
  170MPD1    N1 2653   0.571   2.580  13.074  0.3786 -0.0137  0.1756
  170MPD1    H6 2654   0.474   2.607  13.093  1.2057  2.3260  1.1649
  170MPD1    H7 2655   0.561   2.486  13.037 -0.0266  0.8670 -1.9524
  171MPD1     C 2656   3.521   3.861  15.288  0.3237 -0.9220 -0.6449
  171MPD1    C1 2657   3.479   3.912  15.411 -0.1041 -0.4564  0.4334
  171MPD1    C2 2658   3.535   3.857  15.527 -0.0168  0.4181 -0.4383
  171MPD1    C3 2659   3.640   3.769  15.522 -0.4635 -0.5687 -0.1537
  171MPD1    C4 2660   3.673   3.714  15.399  0.0606 -0.2961 -0.1672
  171MPD1    C5 2661   3.613   3.759  15.281 -0.1997  1.0880  0.3386
  171MPD1     H 2662   3.493   3.885  15.622  0.9834  0.3476  0.0292
  171MPD1    H1 2663   3.754   3.642  15.396  0.8116  0.3679  3.9474
  171MPD1    H2 2664   3.482   3.899  15.195  0.2473 -0.0264 -0.2508
  171MPD1    H3 2665   3.631   3.724  15.180 -1.0946 -1.1664  0.9536
  171MPD1     N 2666   3.699   3.706  15.631 -0.2576  0.5281  0.2936
  171MPD1    H5 2667   3.763   3.633  15.601  0.9346  1.1357  1.3658
  171MPD1    N1 2668   3.363   3.986  15.416 -0.0794  0.0854  0.2343
  171MPD1    H6 2669   3.339   4.032  15.328  0.4644 -0.0753 -0.0006
  171MPD1    H7 2670   3.366   4.054  15.492  0.2940 -2.8709  2.8190
  172MPD1     C 2671   3.289   3.268  17.361  0.0279  0.0913 -1.1540
  172MPD1    C1 2672   3.344   3.173  17.437  0.2504  0.2815  0.6008
  172MPD1    C2 2673   3.321   3.178  17.578 -0.0579  0.1263 -0.3415
  172MPD1    C3 2674   3.262   3.294  17.632  0.4860  0.0698 -0.3424
  172MPD1    C4 2675   3.233   3.397  17.545  0.0447 -0.0623  0.1565
  172MPD1    C5 2676   3.246   3.384  17.413 -0.4732  0.4113  0.6968
  172MPD1     H 2677   3.350   3.085  17.627  1.7402  0.6712 -0.3857
  172MPD1    H1 2678   3.188   3.488  17.583 -1.0482 -0.6881  0.3723
  172MPD1    H2 2679   3.297   3.271  17.253  0.1919 -0.7024 -1.1633
  172MPD1    H3 2680   3.226   3.477  17.360  0.0515 -1.1667 -2.3066
  172MPD1     N 2681   3.249   3.322   0.024 -0.1653 -0.7469 -0.2364
  172MPD1    H5 2682   3.219   3.414   0.055  0.6243 -1.7436  3.5700
  172MPD1    N1 2683   3.387   3.052  17.379 -0.1744  0.3212 -0.1297
  172MPD1    H6 2684   3.456   3.072  17.306 -0.2657  3.3407  0.6129
  172MPD1    H7 2685   3.450   2.997  17.437 -0.5044  0.3948  0.2919
  173MPD1     C 2686   4.312   3.682  14.397 -0.0259 -0.3075  0.7865
  173MPD1    C1 2687   4.271   3.589  14.291  0.1799  0.4753  0.0619
  173MPD1    C2 2688   4.168   3.500  14.312 -0.0499  0.0156  1.0134
  173MPD1    C3 2689   4.107   3.483  14.436 -0.5132 -0.0010  0.5663
  173MPD1    C4 2690   4.159   3.555  14.540 -0.4889  0.7285  0.4152
  173MPD1    C5 2691   4.247   3.658  14.514  0.6758 -0.7018 -0.3570
  173MPD1     H 2692   4.129   3.453  14.222 -1.8044  1.2463  1.1412
  173MPD1    H1 2693   4.135   3.547  14.646 -2.1624 -1.8790 -0.1464
  173MPD1    H2 2694   4.381   3.766  14.389 -0.7788  0.2643  0.1977
  173MPD1    H3 2695   4.274   3.720  14.599  0.2577 -0.1211 -0.6433
  173MPD1     N 2696   4.002   3.387  14.445  0.4954 -0.2918  0.5132
  173MPD1    H5 2697   3.975   3.338  14.360  0.2731  0.5217  0.1054
  173MPD1    N1 2698   4.317   3.603  14.167 -0.2880  0.0555 -0.6382
  173MPD1    H6 2699   4.418   3.593  14.167 -0.1292  1.6433 -0.1351
  173MPD1    H7 2700   4.283   3.534  14.102 -0.2377  0.3436 -0.9707
  174MPD1     C 2701   4.219   2.618  14.188  0.5082  0.7472 -0.6992
  174MPD1    C1 2702   4.090   2.595  14.214 -0.2054 -0.0010  0.2124
  174MPD1    C2 2703   4.015   2.680  14.290  0.4149  0.0953  0.3499
  174MPD1    C3 2704   4.068   2.804  14.336 -0.1208  0.3869  0.4028
  174MPD1    C4 2705   4.202   2.825  14.317  0.1124 -0.1030 -0.0849
  174MPD1    C5 2706   4.272   2.732  14.241  0.2532  0.0222 -0.2988
  174MPD1     H 2707   3.914   2.653  14.319 -0.0479  0.3694 -0.9928
  174MPD1    H1 2708   4.247   2.910  14.368  1.4424 -0.0331 -1.3873
  174MPD1    H2 2709   4.284   2.551  14.135 -0.9693 -1.7992  0.7059
  174MPD1    H3 2710   4.376   2.756  14.225  0.4899 -1.1838 -0.6258
  174MPD1     N 2711   3.999   2.901  14.404  0.2573 -0.0241 -0.1889
  174MPD1    H5 2712   4.055   2.975  14.444 -0.4084 -0.9349  2.4039
  174MPD1    N1 2713   4.030   2.484  14.151  0.3792  0.3448  0.3013
  174MPD1    H6 2714   4.095   2.417  14.112  1.1932  0.5288  1.3595
  174MPD1    H7 2715   3.975   2.442  14.226 -0.5924 -0.1516 -0.6933
  175MPD1     C 2716   2.865   3.212  17.133 -0.9097  0.4226 -0.3064
  175MPD1    C1 2717   2.784   3.285  17.051  0.7423 -0.0556 -0.4404
  175MPD1    C2 2718   2.768   3.425  17.073 -0.5720 -0.5869 -0.0616
  175MPD1    C3 2719   2.861   3.494  17.151  0.3409 -0.5210 -0.2935
  175MPD1    C4 2720   2.948   3.420  17.223 -0.2729  0.2566 -0.7787
  175MPD1    C5 2721   2.952   3.285  17.219 -0.1813 -0.0895 -0.0057
  175MPD1     H 2722   2.691   3.473  17.014  0.2885 -0.5874 -1.1860
  175MPD1    H1 2723   3.026   3.460  17.287 -0.0711  0.4079 -1.1174
  175MPD1    H2 2724   2.874   3.105  17.125  0.6192  0.5267  0.0587
  175MPD1    H3 2725   3.014   3.233  17.291 -0.8388 -1.0201 -0.1087
  175MPD1     N 2726   2.890   3.632  17.151  0.2906 -0.4546 -0.4636
  175MPD1    H5 2727   2.965   3.649  17.218 -1.0560  0.5674  0.7767
  175MPD1    N1 2728   2.696   3.213  16.970  0.1246  0.1679  0.8372
  175MPD1    H6 2729   2.734   3.123  16.944  0.0752  0.4256 -0.1247
  175MPD1    H7 2730   2.685   3.263  16.882 -0.8106  0.1463  0.9413
  176MPD1     C 2731   4.157   1.474  16.174 -0.6492 -0.4612 -0.2334
  176MPD1    C1 2732   4.069   1.542  16.250  0.5453  0.2994 -0.3826
  176MPD1    C2 2733   4.078   1.535  16.387 -0.0185 -0.1988 -0.2830
  176MPD1    C3 2734   4.176   1.455  16.449 -0.2093  0.0173  0.3990
  176MPD1    C4 2735   4.268   1.380  16.376 -0.8722 -0.3416  0.6755
  176MPD1    C5 2736   4.251   1.393  16.235 -0.0503 -0.6462  0.0079
  176MPD1     H 2737   3.997   1.574  16.448 -0.2492  1.3349 -1.5780
  176MPD1    H1 2738   4.336   1.310  16.422  2.7393  2.3600 -0.4596
  176MPD1    H2 2739   4.164   1.472  16.066  1.0706 -4.4249 -0.0553
  176MPD1    H3 2740   4.302   1.318  16.176  0.9729  1.8922 -2.3127
  176MPD1     N 2741   4.177   1.457  16.590  0.0923 -1.1161 -0.1682
  176MPD1    H5 2742   4.115   1.525  16.631 -0.3927 -1.5358 -0.1976
  176MPD1    N1 2743   3.988   1.640  16.192 -0.3539 -0.2476 -0.0223
  176MPD1    H6 2744   3.978   1.614  16.094  2.8560  0.2994 -0.4950
  176MPD1    H7 2745   4.037   1.729  16.190  1.3570 -1.2035 -0.5445
  177MPD1     C 2746   2.632   0.604  10.354 -0.2570  0.0215 -0.2344
  177MPD1    C1 2747   2.505   0.569  10.317  1.1211  0.1959 -1.2620
  177MPD1    C2 2748   2.447   0.648  10.215 -0.9783 -1.0391 -0.0267
  177MPD1    C3 2749   2.503   0.768  10.180 -0.2701 -0.2761 -0.2230
  177MPD1    C4 2750   2.625   0.807  10.230  0.5230 -1.0134 -0.0579
  177MPD1    C5 2751   2.680   0.726  10.325  0.2003  0.8849  0.6325
  177MPD1     H 2752   2.347   0.625  10.180 -0.9489 -0.6259 -0.3701
  177MPD1    H1 2753   2.663   0.907  10.214  0.5488 -0.9972  0.1047
  177MPD1    H2 2754   2.692   0.547  10.423 -0.3784 -0.9675 -0.9510
  177MPD1    H3 2755   2.777   0.750  10.368  1.2643 -1.6351 -0.3817
  177MPD1     N 2756   2.434   0.849  10.081  0.1191  0.7064  0.5047
  177MPD1    H5 2757   2.340   0.816  10.062 -0.4946  2.9203 -0.1718
  177MPD1    N1 2758   2.454   0.442  10.344  0.3462 -0.7086  0.0218
  177MPD1    H6 2759   2.460   0.429  10.445 -0.6569 -0.1826  0.1450
  177MPD1    H7 2760   2.354   0.439  10.325  0.3609  2.2704 -0.5002
  178MPD1     C 2761   0.389   2.519  17.693 -0.6392 -0.7678  0.7011
  178MPD1    C1 2762   0.335   2.390  17.713 -0.0997  0.4688 -0.1686
  178MPD1    C2 2763   0.361   2.298  17.617  0.2743 -0.2837 -0.1949
  178MPD1    C3 2764   0.440   2.320  17.499  0.0358  0.7018  0.6874
  178MPD1    C4 2765   0.479   2.452  17.484 -0.5587 -0.2795  0.3836
  178MPD1    C5 2766   0.448   2.550  17.574  0.1842  0.6645 -0.2705
  178MPD1     H 2767   0.327   2.196  17.629  1.3157 -0.4671  1.3127
  178MPD1    H1 2768   0.544   2.484  17.404 -2.2621  1.9010 -0.1243
  178MPD1    H2 2769   0.393   2.593   0.024  0.8599 -0.6438  0.5150
  178MPD1    H3 2770   0.496   2.646  17.558  1.1635  0.5205  1.9778
  178MPD1     N 2771   0.486   2.209  17.412 -0.0560 -0.1439  0.1759
  178MPD1    H5 2772   0.544   2.238  17.334  0.4070  0.9293  0.9111
  178MPD1    N1 2773   0.253   2.350   0.077  0.1168 -0.5922  0.4634
  178MPD1    H6 2774   0.256   2.419   0.152 -2.4881 -1.5739  1.5082
  178MPD1    H7 2775   0.252   2.255   0.115 -0.7743 -0.2352  1.3431
  179MPD1     C 2776   4.651   0.444  15.459  0.1218  0.9565 -0.2444
  179MPD1    C1 2777   0.001   0.416  15.561  0.5864 -0.2852 -0.0391
  179MPD1    C2 2778   4.727   0.296  15.633 -0.5298 -0.1558 -0.0176
  179MPD1    C3 2779   4.620   0.210  15.605 -0.5747 -0.7424 -0.1104
  179MPD1    C4 2780   4.519   0.249  15.519  0.5110 -0.4896 -0.8690
  179MPD1    C5 2781   4.542   0.358  15.438  0.0973 -0.0289 -0.3637
  179MPD1     H 2782   0.069   0.266  15.701  0.6793  0.9747 -0.9315
  179MPD1    H1 2783   4.435   0.181  15.507  1.9016 -2.3643  0.0108
  179MPD1    H2 2784   4.659   0.530  15.394  1.1269  0.9116 -0.1870
  179MPD1    H3 2785   4.479   0.386  15.354 -3.2938 -1.5883  1.6699
  179MPD1     N 2786   4.598   0.081  15.665  1.1275  0.5241 -0.0365
  179MPD1    H5 2787   4.505   0.043  15.650  1.5599 -0.2812 -0.7030
  179MPD1    N1 2788   0.116   0.483  15.560  0.2408  0.8315 -0.6432
  179MPD1    H6 2789   0.113   0.581  15.533 -0.0935  1.6999  2.6064
  179MPD1    H7 2790   0.153   0.477  15.655 -1.0972 -0.9335 -0.2509
  180MPD1     C 2791   4.312   1.586  15.214  0.0213  0.4234  0.1601
  180MPD1    C1 2792   4.273   1.702  15.165 -0.1754  0.0054 -0.8520
  180MPD1    C2 2793   4.242   1.706  15.034  0.5388  0.1871 -0.1040
  180MPD1    C3 2794   4.235   1.597  14.955  0.6398 -0.1514 -0.0493
  180MPD1    C4 2795   4.269   1.474  15.009  0.0251  0.2332  0.6460
  180MPD1    C5 2796   4.301   1.469  15.141 -0.6611 -0.2006  0.2483
  180MPD1     H 2797   4.219   1.803  14.992  2.2622  0.0780 -1.2851
  180MPD1    H1 2798   4.252   1.382  14.954  1.3685 -1.4263  3.0457
  180MPD1    H2 2799   4.350   1.591  15.315 -0.0791 -0.9450  0.2670
  180MPD1    H3 2800   4.310   1.371  15.186  1.4557  0.2633  0.8404
  180MPD1     N 2801   4.188   1.612  14.828 -0.3388 -0.1217  0.0883
  180MPD1    H5 2802   4.150   1.702  14.800  0.2994  0.3791  0.8590
  180MPD1    N1 2803   4.277   1.818  15.248  0.5065  0.2035 -0.5356
  180MPD1    H6 2804   4.295   1.794  15.345  1.9192  2.2301 -0.3039
  180MPD1    H7 2805   4.219   1.898  15.227 -0.8325 -0.2005  1.6593
  181MPD1     C 2806   1.822   4.453   9.740  0.6252 -0.7891 -0.0020
  181MPD1    C1 2807   1.692   4.476   9.781 -0.5930 -0.0091 -0.1439
  181MPD1    C2 2808   1.640   4.410   9.890 -0.2228  1.2186  0.0628
  181MPD1    C3 2809   1.712   4.307   9.944 -0.2014  0.6860  0.3619
  181MPD1    C4 2810   1.840   4.273   9.897  0.1374  0.3890  0.3649
  181MPD1    C5 2811   1.896   4.351   9.797  0.5864  0.7279  0.5100
  181MPD1     H 2812   1.545   4.440   9.934 -0.7202  0.6610 -0.6298
  181MPD1    H1 2813   1.891   4.186   9.937 -0.6576 -0.4601 -0.4659
  181MPD1    H2 2814   1.868   4.515   9.664 -0.2449  2.3794  2.0554
  181MPD1    H3 2815   1.995   4.333   9.757 -0.2630 -2.8838  0.0272
  181MPD1     N 2816   1.660   4.225  10.047 -0.2467  0.6924  0.2745
  181MPD1    H5 2817   1.728   4.157  10.079 -1.9143 -2.9985 -4.0136
  181MPD1    N1 2818   1.613   4.576   9.714 -0.6405 -0.0429 -0.3412
  181MPD1    H6 2819   1.651   4.577   9.619 -0.2868 -0.8515 -0.2036
  181MPD1    H7 2820   1.518   4.540   9.714 -0.9667  0.8150  0.4606
  182MPD1     C 2821   2.650   3.301   1.511 -0.1919 -0.0595  0.1567
  182MPD1    C1 2822   2.675   3.196   1.420  0.5697 -0.2246  0.2734
  182MPD1    C2 2823   2.595   3.174   1.308  0.4402  0.1641 -0.6195
  182MPD1    C3 2824   2.482   3.249   1.293  0.4779  0.6322  0.3472
  182MPD1    C4 2825   2.454   3.352   1.378 -0.3713 -0.4282 -1.0617
  182MPD1    C5 2826   2.541   3.381   1.485 -0.1925  0.1288 -0.9158
  182MPD1     H 2827   2.627   3.085   1.256 -1.4639 -0.4533 -0.7160
  182MPD1    H1 2828   2.364   3.411   1.366  1.5585  3.0508  1.5583
  182MPD1    H2 2829   2.722   3.333   1.585  2.0316 -1.4341 -1.4252
  182MPD1    H3 2830   2.524   3.466   1.550  1.6310 -0.5086  0.4021
  182MPD1     N 2831   2.385   3.220   1.196  0.1016 -0.2027 -0.5082
  182MPD1    H5 2832   2.298   3.271   1.204 -1.3447 -3.2011  2.7303
  182MPD1    N1 2833   2.796   3.123   1.431 -0.6183 -0.2012 -0.0255
  182MPD1    H6 2834   2.790   3.039   1.375 -1.2692 -0.4634  0.4460
  182MPD1    H7 2835   2.827   3.107   1.527 -0.1814 -2.3659 -0.5381
  183MPD1     C 2836   3.215   3.846   9.843 -0.2513 -1.0820 -0.1280
  183MPD1    C1 2837   3.179   3.764   9.941 -0.3669  0.3305 -0.0994
  183MPD1    C2 2838   3.053   3.778   9.997 -0.4892  0.0175 -1.4809
  183MPD1    C3 2839   2.956   3.859   9.936  0.0854 -0.6562  0.3397
  183MPD1    C4 2840   2.995   3.940   9.832 -0.0374  0.1295  0.7128
  183MPD1    C5 2841   3.126   3.927   9.790  0.9892 -0.8034 -0.1275
  183MPD1     H 2842   3.034   3.718  10.085  1.1627  1.4852 -0.1058
  183MPD1    H1 2843   2.928   4.014   9.788  0.2018 -0.5438 -0.7688
  183MPD1    H2 2844   3.313   3.842   9.797 -0.5526 -0.6854 -0.7976
  183MPD1    H3 2845   3.162   3.988   9.707  2.9073 -1.6224  0.1104
  183MPD1     N 2846   2.827   3.853   9.998  0.8751 -0.0605 -0.6337
  183MPD1    H5 2847   2.821   3.783  10.071  0.3577  2.4807  1.7508
  183MPD1    N1 2848   3.283   3.695  10.013 -0.3174  0.6346  0.2476
  183MPD1    H6 2849   3.361   3.661   9.957 -0.7480  1.5995 -0.9342
  183MPD1    H7 2850   3.245   3.616  10.065 -3.4717  1.0590 -1.4456
  184MPD1     C 2851   1.292   1.444  10.186  0.0815  0.3612 -0.2561
  184MPD1    C1 2852   1.313   1.341  10.089  0.4937  0.0089  0.1921
  184MPD1    C2 2853   1.394   1.365   9.986  0.5550  0.3971 -0.2281
  184MPD1    C3 2854   1.497   1.459   9.998  1.0132 -0.1149  0.5943
  184MPD1    C4 2855   1.486   1.560  10.093  0.0693  0.2979 -0.3668
  184MPD1    C5 2856   1.390   1.541  10.188 -0.9041  0.0732 -0.2083
  184MPD1     H 2857   1.382   1.312   9.892  1.4719 -1.0795  0.4854
  184MPD1    H1 2858   1.559   1.640  10.099 -0.6278  1.0269 -1.6574
  184MPD1    H2 2859   1.207   1.455  10.253  1.5314 -0.6969  1.7479
  184MPD1    H3 2860   1.380   1.612  10.270  3.1151 -0.9825  1.2029
  184MPD1     N 2861   1.599   1.477   9.905  0.1868 -0.4519 -0.2093
  184MPD1    H5 2862   1.658   1.558   9.921  0.5214 -0.7127 -0.1121
  184MPD1    N1 2863   1.216   1.241  10.065  0.0874  0.1014  0.5766
  184MPD1    H6 2864   1.168   1.208  10.148 -3.6975  1.3715 -1.1062
  184MPD1    H7 2865   1.251   1.164  10.008  0.1776 -0.0555  0.8451
  185MPD1     C 2866   1.613   2.116   9.119  0.1978 -0.5878 -0.2981
  185MPD1    C1 2867   1.546   1.997   9.119 -0.1173  0.4123 -0.4312
  185MPD1    C2 2868   1.582   1.895   9.207 -0.1369 -0.8012 -0.0389
  185MPD1    C3 2869   1.692   1.903   9.284 -0.0421 -0.1761 -0.5797
  185MPD1    C4 2870   1.773   2.015   9.274  0.6057 -0.1646 -0.1549
  185MPD1    C5 2871   1.725   2.126   9.206  0.3461  0.4792 -0.2817
  185MPD1     H 2872   1.515   1.812   9.223 -0.5265 -0.4676  0.0678
  185MPD1    H1 2873   1.860   2.026   9.337 -0.4755  0.9605  1.1376
  185MPD1    H2 2874   1.569   2.199   9.064 -1.0040 -0.2988  1.0824
  185MPD1    H3 2875   1.761   2.228   9.216  0.2858  0.4252  0.4850
  185MPD1     N 2876   1.732   1.793   9.366 -0.4679 -0.3707 -0.2558
  185MPD1    H5 2877   1.812   1.817   9.425 -1.8408  3.3059  0.1424
  185MPD1    N1 2878   1.419   1.986   9.050 -0.2988 -0.0537 -0.0020
  185MPD1    H6 2879   1.339   1.958   9.106  0.7144 -2.2519  0.3601
  185MPD1    H7 2880   1.389   2.064   8.993 -0.1006  0.2678  0.3357
  186MPD1     C 2881   4.695   1.223  15.924 -0.5667 -0.2561 -0.8094
  186MPD1    C1 2882   4.661   1.172  16.045 -0.2830 -0.0796 -0.1618
  186MPD1    C2 2883   4.726   1.055  16.091  0.8893  0.2113  0.1036
  186MPD1    C3 2884   0.067   0.978  16.011 -0.0757 -0.0883  0.2485
  186MPD1    C4 2885   0.087   1.019  15.887 -0.2002 -0.6931 -0.7045
  186MPD1    C5 2886   0.030   1.136  15.844 -0.0794 -0.1388  0.6781
  186MPD1     H 2887   4.718   1.035  16.197 -0.8082 -1.0123 -0.2744
  186MPD1    H1 2888   0.156   0.971  15.818 -0.4424  0.7255 -1.9512
  186MPD1    H2 2889   4.652   1.321  15.905 -0.6860 -0.1689 -0.1052
  186MPD1    H3 2890   0.052   1.174  15.745 -2.6126 -0.8399 -0.1462
  186MPD1     N 2891   0.140   0.862  16.050 -0.2331 -0.4496  0.5291
  186MPD1    H5 2892   0.204   0.815  15.987 -1.7463 -1.0212 -0.6000
  186MPD1    N1 2893   4.591   1.257  16.131 -0.8570  0.6238 -0.4487
  186MPD1    H6 2894   4.526   1.319  16.083 -2.1412 -0.8278 -0.5923
  186MPD1    H7 2895   4.544   1.208  16.208  1.1560  0.2864  0.5507
  187MPD1     C 2896   3.553   3.723  17.228  0.3372  0.1498 -0.1001
  187MPD1    C1 2897   3.495   3.615  17.165 -0.1356  0.5976  0.9022
  187MPD1    C2 2898   3.551   3.485  17.188 -0.1542 -0.2189  0.0934
  187MPD1    C3 2899   3.660   3.468  17.268  0.5056 -0.9120 -0.1380
  187MPD1    C4 2900   3.711   3.573  17.342  0.2923  0.5620 -0.2394
  187MPD1    C5 2901   3.657   3.699  17.321 -0.8938 -0.2634  0.0144
  187MPD1     H 2902   3.532   3.401  17.122 -2.9025 -0.1685  0.8157
  187MPD1    H1 2903   3.795   3.561  17.409 -0.9375 -0.3852  1.1493
  187MPD1    H2 2904   3.499   3.815  17.247 -0.0662 -0.0144 -0.4766
  187MPD1    H3 2905   3.681   3.775  17.394 -0.4600  0.7887 -1.2210
  187MPD1     N 2906   3.741   3.350  17.261 -0.0609 -0.0789  0.1292
  187MPD1    H5 2907   3.831   3.368  17.304  0.0294  2.2052 -1.0221
  187MPD1    N1 2908   3.404   3.637  17.055 -0.6997 -0.4889 -0.8700
  187MPD1    H6 2909   3.355   3.726  17.058  2.1813  1.0423  0.4059
  187MPD1    H7 2910   3.330   3.570  17.035 -1.0800 -0.8726  1.7439
  188MPD1     C 2911   3.915   2.325  10.772  0.4991 -0.1415  0.3625
  188MPD1    C1 2912   3.802   2.313  10.692  0.6771  0.0036 -0.6590
  188MPD1    C2 2913   3.779   2.190  10.628  0.2027 -0.9165  0.0366
  188MPD1    C3 2914   3.862   2.084  10.648 -0.5053  0.1887 -0.3548
  188MPD1    C4 2915   3.958   2.091  10.751  0.2407 -0.3014  0.8066
  188MPD1    C5 2916   3.990   2.217  10.805  1.4151 -0.1590  0.1267
  188MPD1     H 2917   3.701   2.177  10.554 -0.5926  0.5718  0.6253
  188MPD1    H1 2918   4.028   2.010  10.768  0.1385 -0.7072 -0.7133
  188MPD1    H2 2919   3.937   2.417  10.826  1.9514 -0.1052 -0.2884
  188MPD1    H3 2920   4.060   2.222  10.887  1.8562  1.8160 -0.3799
  188MPD1     N 2921   3.852   1.960  10.585  0.1752 -0.0953 -0.4181
  188MPD1    H5 2922   3.910   1.883  10.617  1.0378  1.4308  1.6407
  188MPD1    N1 2923   3.733   2.434  10.656  0.3740 -0.5330  0.0125
  188MPD1    H6 2924   3.636   2.414  10.634  0.0668 -2.0619  2.7093
  188MPD1    H7 2925   3.722   2.500  10.732 -0.2811 -1.5442  0.7950
  189MPD1     C 2926   1.741   3.077   0.327  0.2645  0.9715  0.0675
  189MPD1    C1 2927   1.641   2.977   0.335  0.0646  0.6919  0.2049
  189MPD1    C2 2928   1.510   3.018   0.350  0.0299  0.1389 -0.0628
  189MPD1    C3 2929   1.473   3.154   0.378  0.4228  0.4544 -0.5900
  189MPD1    C4 2930   1.576   3.246   0.366  0.0994 -0.0053 -0.3974
  189MPD1    C5 2931   1.706   3.207   0.334  0.0546  0.4626  0.2539
  189MPD1     H 2932   1.430   2.946   0.335  1.4761 -1.3649 -0.5615
  189MPD1    H1 2933   1.552   3.346   0.401 -2.0534 -1.6387  2.8785
  189MPD1    H2 2934   1.848   3.057   0.319  0.0618  0.6132 -1.6974
  189MPD1    H3 2935   1.782   3.284   0.336  0.6275 -0.1204  0.4430
  189MPD1     N 2936   1.333   3.180   0.395 -0.1060  0.4161  0.3141
  189MPD1    H5 2937   1.271   3.100   0.397  0.5272 -0.0627  0.9026
  189MPD1    N1 2938   1.667   2.840   0.328  0.1758 -0.9621 -0.4348
  189MPD1    H6 2939   1.635   2.808   0.237  0.6522 -0.2150 -0.8618
  189MPD1    H7 2940   1.763   2.810   0.313  0.7496  1.0607 -0.7906
  190MPD1     C 2941   4.651   1.615  14.811  0.2243 -0.2956 -0.4578
  190MPD1    C1 2942   0.048   1.616  14.804 -0.0399  0.2244 -0.2652
  190MPD1    C2 2943   0.122   1.612  14.919 -0.2743 -0.0213 -0.1600
  190MPD1    C3 2944   0.069   1.630  15.041 -0.0735  0.9100 -0.3934
  190MPD1    C4 2945   4.673   1.656  15.049 -0.5038 -0.0454 -0.2914
  190MPD1    C5 2946   4.595   1.648  14.932  0.1174  0.2466 -0.1946
  190MPD1     H 2947   0.227   1.589  14.911 -0.3901 -0.3833 -0.6354
  190MPD1    H1 2948   4.627   1.682  15.144  2.6180  0.5285  1.0762
  190MPD1    H2 2949   4.583   1.620  14.726  0.5167  0.1462 -0.6709
  190MPD1    H3 2950   4.490   1.671  14.943  0.4108  1.9544 -0.9128
  190MPD1     N 2951   0.147   1.619  15.161 -0.7166  0.8866  0.3906
  190MPD1    H5 2952   0.244   1.594  15.146 -0.7153  0.4578  1.1198
  190MPD1    N1 2953   0.103   1.581  14.678  0.2601 -0.6355  0.1924
  190MPD1    H6 2954   0.052   1.628  14.604  0.2558  0.9014  1.1533
  190MPD1    H7 2955   0.202   1.603  14.670  0.7663 -3.6410 -1.8551
  191MPD1     C 2956   3.707   2.751  13.475  0.5743 -0.2683 -0.1355
  191MPD1    C1 2957   3.805   2.848  13.502 -0.3707  0.3619 -0.4968
  191MPD1    C2 2958   3.768   2.979  13.502  0.0511 -0.0496 -0.1651
  191MPD1    C3 2959   3.635   3.023  13.490  0.3287  0.2920 -0.6134
  191MPD1    C4 2960   3.537   2.921  13.464 -0.5223 -0.1881 -0.3000
  191MPD1    C5 2961   3.572   2.790  13.456 -0.5558  0.8267 -0.2505
  191MPD1     H 2962   3.847   3.052  13.515  0.8963 -1.1856  1.0818
  191MPD1    H1 2963   3.432   2.946  13.450 -0.0984  1.2109 -1.0045
  191MPD1    H2 2964   3.734   2.646  13.472  1.9971  0.1779 -2.5340
  191MPD1    H3 2965   3.498   2.714  13.432  0.0333  0.1367  0.1128
  191MPD1     N 2966   3.608   3.161  13.484  0.0162 -0.0752  0.3183
  191MPD1    H5 2967   3.693   3.216  13.473  0.6769 -1.5078 -1.9057
  191MPD1    N1 2968   3.937   2.810  13.516 -0.1990  0.0482 -0.3150
  191MPD1    H6 2969   3.937   2.720  13.563  1.1298 -0.2819 -0.9416
  191MPD1    H7 2970   4.000   2.870  13.569 -0.4189  1.9448 -2.2114
  192MPD1     C 2971   2.900   3.700  13.937 -0.3677  0.4199  1.0240
  192MPD1    C1 2972   2.936   3.775  13.820 -0.0396  1.0733 -0.0697
  192MPD1    C2 2973   3.038   3.723  13.744 -0.3912  0.3460  0.0962
  192MPD1    C3 2974   3.105   3.604  13.768  0.5952 -0.0617  0.0406
  192MPD1    C4 2975   3.057   3.536  13.882  0.8443  0.3680 -0.4290
  192MPD1    C5 2976   2.955   3.581  13.960  0.1984  0.0419 -0.4652
  192MPD1     H 2977   3.063   3.774  13.652 -0.2564 -1.1436 -0.6809
  192MPD1    H1 2978   3.095   3.438  13.911 -0.2530 -0.2587 -1.0874
  192MPD1    H2 2979   2.810   3.722  13.994 -0.0907 -1.6222  2.2509
  192MPD1    H3 2980   2.906   3.522  14.037 -0.1446 -1.3090 -1.7452
  192MPD1     N 2981   3.215   3.548  13.689  0.3656  0.0483 -0.2041
  192MPD1    H5 2982   3.261   3.463  13.720  0.4595  0.2802  0.2842
  192MPD1    N1 2983   2.859   3.878  13.768 -0.7330  0.3423 -0.4557
  192MPD1    H6 2984   2.916   3.953  13.729 -1.2663  1.6829  1.3470
  192MPD1    H7 2985   2.799   3.925  13.836 -0.4128  1.5365 -0.9986
  193MPD1     C 2986   3.880   3.785   0.067  0.2029  0.6540  0.1916
  193MPD1    C1 2987   3.885   3.680  17.729 -0.1089 -0.5140  0.1669
  193MPD1    C2 2988   3.927   3.710  17.595  0.2105 -0.3538 -0.0078
  193MPD1    C3 2989   3.938   3.838  17.549 -0.0631  0.3783 -0.3067
  193MPD1    C4 2990   3.915   3.939  17.640 -0.2958  0.3184  0.1377
  193MPD1    C5 2991   3.897   3.910   0.028  0.0710 -0.2109  0.1203
  193MPD1     H 2992   3.935   3.628  17.524 -0.0075 -0.5143  0.1532
  193MPD1    H1 2993   3.927   4.043  17.612  1.2699  0.0402 -0.1906
  193MPD1    H2 2994   3.881   3.760   0.172 -1.4919 -0.5511 -0.0651
  193MPD1    H3 2995   3.892   3.994   0.096  0.3934 -0.0085 -0.1062
  193MPD1     N 2996   3.972   3.867  17.416 -0.1143  0.1886 -0.4117
  193MPD1    H5 2997   3.987   3.964  17.390 -0.1479  0.6653  1.2966
  193MPD1    N1 2998   3.889   3.550   0.032  0.2941 -0.3098 -0.2368
  193MPD1    H6 2999   3.827   3.541   0.113  2.8780  0.4026  1.8072
  193MPD1    H7 3000   3.842   3.480  17.723  0.4493 -1.8230  1.4783
  194MPD1     C 3001   1.099   4.403   0.079 -0.9454 -1.0196 -0.3362
  194MPD1    C1 3002   1.186   4.416  17.717 -0.2707 -0.1391 -0.0462
  194MPD1    C2 3003   1.256   4.541  17.713 -0.1525 -0.3441 -0.5483
  194MPD1    C3 3004   1.225   4.650   0.049  0.1516 -0.1044 -0.1809
  194MPD1    C4 3005   1.142   4.628   0.155  0.2718 -0.6691 -0.0022
  194MPD1    C5 3006   1.079   4.506   0.166  0.0133 -0.1076 -0.3039
  194MPD1     H 3007   1.322   4.555  17.628  0.1779  0.0330 -0.2314
  194MPD1    H1 3008   1.114   4.705   0.226 -1.0714  1.0813 -2.4303
  194MPD1    H2 3009   1.047   4.307   0.086 -0.5948 -1.2988 -1.5019
  194MPD1    H3 3010   1.016   4.506   0.254  0.6786 -0.6158  0.1707
  194MPD1     N 3011   1.281   0.039   0.027 -0.9686 -0.7556  0.1494
  194MPD1    H5 3012   1.245   0.109   0.091 -2.4625 -0.5126 -0.9596
  194MPD1    N1 3013   1.192   4.323  17.614  0.3374  0.1040 -0.4806
  194MPD1    H6 3014   1.285   4.325  17.574  1.2756 -0.3701  1.7090
  194MPD1    H7 3015   1.179   4.228  17.649  3.4438 -0.2922 -0.4278
  195MPD1     C 3016   0.114   2.943  17.537 -0.4100  0.5057 -0.0453
  195MPD1    C1 3017   0.039   2.933  17.422 -0.5601 -0.2391  0.5146
  195MPD1    C2 3018   4.713   2.812  17.409  0.4230 -0.0774  0.0896
  195MPD1    C3 3019   4.725   2.711  17.503 -0.4342  0.2235 -0.3357
  195MPD1    C4 3020   0.066   2.719  17.611  0.2020  0.6715 -0.2437
  195MPD1    C5 3021   0.118   2.844  17.635 -0.1050 -1.0817  0.4635
  195MPD1     H 3022   4.664   2.787  17.315  1.5830 -2.3517  0.1037
  195MPD1    H1 3023   0.073   2.638  17.682  0.1325 -0.9142 -2.0498
  195MPD1    H2 3024   0.184   3.021  17.563 -0.7614  1.4093 -1.8444
  195MPD1    H3 3025   0.175   2.869  17.724  1.3883 -0.6598 -0.6070
  195MPD1     N 3026   4.640   2.596  17.493  0.3623 -0.1695  0.9115
  195MPD1    H5 3027   4.661   2.516  17.551 -0.7292 -1.1607 -0.0567
  195MPD1    N1 3028   0.002   3.046  17.344 -0.6681  0.6817  0.3473
  195MPD1    H6 3029   0.077   3.115  17.346 -0.6948  0.7961 -2.2662
  195MPD1    H7 3030   4.735   3.025  17.245 -0.6385 -1.6823  0.8283
  196MPD1     C 3031   3.802   2.159   0.366 -0.0301 -0.1882 -0.3842
  196MPD1    C1 3032   3.670   2.138   0.399 -0.0711  0.2657  0.3759
  196MPD1    C2 3033   3.618   2.188   0.516 -0.2150  0.4874  0.7564
  196MPD1    C3 3034   3.693   2.269   0.595 -0.3556 -0.3182  0.6164
  196MPD1    C4 3035   3.828   2.297   0.558 -0.4593  0.2581  0.0261
  196MPD1    C5 3036   3.884   2.232   0.452 -0.7820 -0.0788  0.4042
  196MPD1     H 3037   3.516   2.159   0.535  0.0506 -0.3838  0.8684
  196MPD1    H1 3038   3.897   2.353   0.620 -0.2245  0.2165 -0.1941
  196MPD1    H2 3039   3.841   2.128   0.270  1.9540  1.9469 -0.2821
  196MPD1    H3 3040   3.984   2.261   0.423 -0.6996 -0.3635  0.4011
  196MPD1     N 3041   3.639   2.325   0.715  0.2383  0.1748 -0.3827
  196MPD1    H5 3042   3.696   2.378   0.780  0.0939  0.0745 -0.1764
  196MPD1    N1 3043   3.580   2.062   0.323  0.0982 -0.2304 -0.5029
  196MPD1    H6 3044   3.608   2.050   0.226 -0.5486  0.3380 -0.7538
  196MPD1    H7 3045   3.488   2.105   0.322  0.1784 -0.1174 -2.0685
  197MPD1     C 3046   2.818   4.443   0.048  0.5370 -0.1502 -0.2580
  197MPD1    C1 3047   2.882   4.558   0.077 -0.8773 -0.2973  0.0319
  197MPD1    C2 3048   2.968   4.612  17.732 -0.1240 -0.4847  0.7557
  197MPD1    C3 3049   2.989   4.553  17.601  0.0860 -0.7182  0.2469
  197MPD1    C4 3050   2.922   4.435  17.581  0.8913 -0.6112  0.5094
  197MPD1    C5 3051   2.838   4.380  17.676 -0.1251 -0.2243 -0.0234
  197MPD1     H 3052   3.005   4.712   0.005 -0.1612  0.0561 -1.7393
  197MPD1    H1 3053   2.932   4.383  17.486  1.2801 -0.9436  0.7278
  197MPD1    H2 3054   2.750   4.396   0.118 -0.4712 -0.9908 -1.7890
  197MPD1    H3 3055   2.782   4.293  17.645 -2.3620  0.3648  2.3677
  197MPD1     N 3056   3.070   4.602  17.494  0.3158  0.5563 -0.6647
  197MPD1    H5 3057   3.069   4.548  17.408 -1.9251 -2.4243  1.2440
  197MPD1    N1 3058   2.850   4.620   0.199  0.0816  0.0664  0.4588
  197MPD1    H6 3059   2.810   4.575   0.281  0.3650  3.2594  2.3729
  197MPD1    H7 3060   2.928   4.672   0.239  1.9575 -1.7044 -0.9156
  198MPD1     C 3061   4.155   2.715  15.656  0.1455 -0.3437  0.4837
  198MPD1    C1 3062   4.273   2.669  15.609 -0.3668 -0.3419  0.2063
  198MPD1    C2 3063   4.380   2.680  15.698 -0.4270 -0.6170 -0.0144
  198MPD1    C3 3064   4.360   2.692  15.831 -1.1410 -0.0526  0.6010
  198MPD1    C4 3065   4.232   2.719  15.881  0.3495  0.4617 -0.0591
  198MPD1    C5 3066   4.137   2.740  15.792  0.7362  0.4849  0.7566
  198MPD1     H 3067   4.482   2.661  15.666 -0.2029 -2.2031  1.6599
  198MPD1    H1 3068   4.212   2.725  15.987 -1.7896  0.8213 -0.4699
  198MPD1    H2 3069   4.067   2.711  15.593  1.6780 -1.0579 -1.5765
  198MPD1    H3 3070   4.039   2.769  15.830  0.0210 -1.3855  0.2973
  198MPD1     N 3071   4.472   2.683  15.916 -0.2240 -0.2894 -0.3971
  198MPD1    H5 3072   4.560   2.656  15.872  0.4367  0.4980  0.4257
  198MPD1    N1 3073   4.290   2.644  15.470  0.2258  0.5034 -0.4026
  198MPD1    H6 3074   4.373   2.589  15.450  0.4378  1.2641 -1.6597
  198MPD1    H7 3075   4.210   2.601  15.424 -0.3702  2.3875 -1.1049
  199MPD1     C 3076   1.955   4.244  10.923  1.1740 -0.2271 -0.2619
  199MPD1    C1 3077   1.861   4.327  10.971  0.6158  0.8917  0.5363
  199MPD1    C2 3078   1.774   4.383  10.877 -0.1875  0.4045 -0.2049
  199MPD1    C3 3079   1.796   4.384  10.743  0.6201  0.1992 -0.3620
  199MPD1    C4 3080   1.903   4.318  10.698  0.1618  0.7823  0.0840
  199MPD1    C5 3081   1.980   4.244  10.789  0.3525  0.0319 -0.3587
  199MPD1     H 3082   1.691   4.439  10.918  1.1009  1.7751  0.5390
  199MPD1    H1 3083   1.940   4.331  10.597 -2.1362  3.0992 -0.4811
  199MPD1    H2 3084   2.018   4.189  10.992 -1.6838 -1.6504  1.2205
  199MPD1    H3 3085   2.066   4.188  10.753  0.6617  0.4555 -0.2779
  199MPD1     N 3086   1.711   4.447  10.656 -0.3568 -0.4142  0.8740
  199MPD1    H5 3087   1.739   4.445  10.558  2.2831  0.3977  1.6149
  199MPD1    N1 3088   1.839   4.325  11.106 -0.0550  0.7512  0.0196
  199MPD1    H6 3089   1.793   4.406  11.145 -1.9438  0.3305 -1.3585
  199MPD1    H7 3090   1.931   4.329  11.150 -1.3469  3.3553  2.4663
  200MPD1     C 3091   1.217   3.706  15.749  0.4986 -0.0111 -0.6164
  200MPD1    C1 3092   1.125   3.697  15.649 -0.4117 -0.1433  0.3253
  200MPD1    C2 3093   1.137   3.772  15.537  0.1186 -0.2924 -0.4107
  200MPD1    C3 3094   1.232   3.869  15.528  0.1635 -0.1674  0.1279
  200MPD1    C4 3095   1.322   3.878  15.637  0.6936  0.0474 -0.0596
  200MPD1    C5 3096   1.320   3.792  15.746  0.1891  0.1375  0.5404
  200MPD1     H 3097   1.066   3.752  15.457 -1.5909 -0.5923  1.1926
  200MPD1    H1 3098   1.396   3.957  15.632  1.0722 -0.3698 -0.8657
  200MPD1    H2 3099   1.211   3.633  15.828 -0.5291  0.7987  0.0513
  200MPD1    H3 3100   1.393   3.790  15.826 -0.5049  0.0830  1.1672
  200MPD1     N 3101   1.240   3.950  15.410 -0.5793  0.0477  0.2835
  200MPD1    H5 3102   1.187   3.910  15.333 -0.9940  1.0046  0.0702
  200MPD1    N1 3103   1.030   3.593  15.649  0.1636 -0.1869  0.2847
  200MPD1    H6 3104   1.007   3.556  15.741 -0.3355 -1.5519 -0.3760
  200MPD1    H7 3105   0.944   3.605  15.596 -0.9052 -0.4712  1.9600
  201MPD1     C 3106   2.861   2.976  13.461 -0.1670 -0.2640 -0.0883
  201MPD1    C1 3107   2.876   2.929  13.332  0.9377 -0.2146  0.0933
  201MPD1    C2 3108   2.968   2.827  13.318  0.0784  0.1154  0.2497
  201MPD1    C3 3109   3.052   2.785  13.420 -0.3730  0.0373 -0.6044
  201MPD1    C4 3110   3.043   2.850  13.538  0.1342  0.4542  0.1416
  201MPD1    C5 3111   2.951   2.950  13.558  0.1272 -0.0926 -0.7569
  201MPD1     H 3112   2.985   2.784  13.220  2.4127 -0.1859  0.7734
  201MPD1    H1 3113   3.107   2.838  13.625  0.0571 -1.3876 -0.0600
  201MPD1    H2 3114   2.784   3.047  13.493  1.0796  0.8855  0.3609
  201MPD1    H3 3115   2.941   2.993  13.657 -1.9676  1.7384 -1.7822
  201MPD1     N 3116   3.140   2.687  13.404 -0.4544  0.0737 -0.2528
  201MPD1    H5 3117   3.131   2.649  13.310  0.0271 -1.0663  0.1675
  201MPD1    N1 3118   2.780   2.965  13.234  0.5305 -0.4225  0.6287
  201MPD1    H6 3119   2.811   2.950  13.137  0.3275 -0.8467  0.6299
  201MPD1    H7 3120   2.763   3.065  13.239  2.1457 -0.0771 -0.6315
  202MPD1     C 3121   3.074   3.337   9.378 -0.6174  0.7711 -0.0902
  202MPD1    C1 3122   3.124   3.209   9.376 -0.1577 -0.2719 -0.5940
  202MPD1    C2 3123   3.101   3.140   9.494  0.6443  0.0923 -0.7659
  202MPD1    C3 3124   2.996   3.173   9.580 -0.3839 -0.4493  0.4775
  202MPD1    C4 3125   2.937   3.296   9.570  0.0781  0.1790 -0.5896
  202MPD1    C5 3126   2.983   3.379   9.473  0.2328  0.3560  0.6862
  202MPD1     H 3127   3.152   3.044   9.492 -1.1312 -0.8611 -0.2450
  202MPD1    H1 3128   2.852   3.325   9.631 -0.0072 -0.3713 -0.4409
  202MPD1    H2 3129   3.097   3.411   9.301  2.5679  2.5276  2.5674
  202MPD1    H3 3130   2.913   3.461   9.469 -0.3997 -0.1772  0.7967
  202MPD1     N 3131   2.939   3.081   9.686 -0.4609  0.0551  0.1991
  202MPD1    H5 3132   2.853   3.116   9.729  0.7471  0.1240  2.5132
  202MPD1    N1 3133   3.249   3.198   9.320 -0.4846  0.2087  0.2620
  202MPD1    H6 3134   3.267   3.099   9.302 -0.1787  0.4277 -0.5959
  202MPD1    H7 3135   3.254   3.247   9.231 -0.8794  0.8004  0.5693
  203MPD1     C 3136   1.451   3.319  12.581 -0.0091  0.1643  0.1054
  203MPD1    C1 3137   1.417   3.208  12.505 -0.3810  0.1172  0.4031
  203MPD1    C2 3138   1.493   3.095  12.526 -0.3531  0.0466 -0.5295
  203MPD1    C3 3139   1.603   3.094  12.603 -0.0327  0.1596  0.2802
  203MPD1    C4 3140   1.646   3.211  12.669 -0.4171  0.3591 -0.2483
  203MPD1    C5 3141   1.563   3.318  12.654 -0.2717 -0.2514 -0.2627
  203MPD1     H 3142   1.469   3.011  12.463  1.3002 -0.0336 -1.0520
  203MPD1    H1 3143   1.742   3.216  12.718  0.2327  0.7519 -1.5541
  203MPD1    H2 3144   1.391   3.410  12.575  0.8321  0.7580  0.6549
  203MPD1    H3 3145   1.591   3.413  12.699 -0.4764 -0.0290 -0.6075
  203MPD1     N 3146   1.673   2.970  12.592 -0.0007  0.2061  0.2495
  203MPD1    H5 3147   1.633   2.903  12.526  0.7632  0.5095 -0.5248
  203MPD1    N1 3148   1.288   3.201  12.447 -0.1249 -0.4963 -0.1835
  203MPD1    H6 3149   1.266   3.295  12.415  1.3923  0.3879  1.3561
  203MPD1    H7 3150   1.279   3.136  12.368 -0.0378 -2.1867  1.1891
  204MPD1     C 3151   1.158   0.147   0.623 -0.3370 -0.1082 -0.6667
  204MPD1    C1 3152   1.252   0.167   0.526 -0.1847 -0.1090 -0.7805
  204MPD1    C2 3153   1.290   0.052   0.455 -0.1568  0.3455  0.0877
  204MPD1    C3 3154   1.260   4.656   0.490  0.2461 -0.2809 -0.0502
  204MPD1    C4 3155   1.178   4.640   0.596 -0.2068 -0.5750  0.3922
  204MPD1    C5 3156   1.132   0.017   0.661 -1.1573 -0.7418 -0.5751
  204MPD1     H 3157   1.354   0.060   0.367 -0.9278 -3.4704 -0.8405
  204MPD1    H1 3158   1.154   4.541   0.634 -0.9296 -0.8392 -0.7543
  204MPD1    H2 3159   1.104   0.224   0.677 -2.1644 -1.7235 -0.2144
  204MPD1    H3 3160   1.056   0.004   0.738  1.1163 -1.7594  1.4959
  204MPD1     N 3161   1.321   4.558   0.413  0.1799  0.2744 -0.2394
  204MPD1    H5 3162   1.398   4.590   0.354 -0.1819 -2.4582 -2.2060
  204MPD1    N1 3163   1.281   0.295   0.473  0.2066 -0.2188 -0.2812
  204MPD1    H6 3164   1.279   0.367   0.546 -1.6999 -0.6672  0.1182
  204MPD1    H7 3165   1.369   0.298   0.422  0.7098 -0.1029  0.5885
  205MPD1     C 3166   2.138   3.135  17.188 -0.4260  0.3831 -0.1925
  205MPD1    C1 3167   2.067   3.253  17.193 -0.4994 -0.4097  0.3120
  205MPD1    C2 3168   1.978   3.276  17.291  0.0756  0.1515  0.6629
  205MPD1    C3 3169   1.987   3.187  17.399  0.7170 -0.3857 -1.0047
  205MPD1    C4 3170   2.065   3.080  17.397  0.7429  1.2727 -0.3915
  205MPD1    C5 3171   2.140   3.042  17.286 -0.2811  0.1120  0.6053
  205MPD1     H 3172   1.906   3.357  17.286 -1.7659 -1.5286 -0.1778
  205MPD1    H1 3173   2.069   3.009  17.479 -2.3927  0.3720 -1.0108
  205MPD1    H2 3174   2.210   3.121  17.108 -0.1327 -0.9140  0.2986
  205MPD1    H3 3175   2.218   2.967  17.290 -0.4578 -0.1540 -0.9430
  205MPD1     N 3176   1.916   3.206  17.516  0.1868 -0.3239 -0.1573
  205MPD1    H5 3177   1.943   3.148  17.596 -0.3232 -0.4248 -0.0570
  205MPD1    N1 3178   2.062   3.328  17.075  0.3944 -0.0073  0.7782
  205MPD1    H6 3179   2.050   3.427  17.095  1.2074  0.6897 -2.0990
  205MPD1    H7 3180   2.148   3.313  17.022  0.5736  0.7144  0.8684
  206MPD1     C 3181   1.379   1.254  16.960 -0.6283 -0.2173 -0.0356
  206MPD1    C1 3182   1.472   1.155  16.932  0.0854 -0.1373  0.2920
  206MPD1    C2 3183   1.514   1.155  16.801  0.4268  0.2493 -0.3224
  206MPD1    C3 3184   1.461   1.244  16.705 -0.1012 -0.9377  0.6213
  206MPD1    C4 3185   1.389   1.352  16.742 -0.2103  0.9294  0.0755
  206MPD1    C5 3186   1.350   1.358  16.870  0.3404  0.0638 -0.0612
  206MPD1     H 3187   1.566   1.063  16.778  0.2157  0.0919 -0.1710
  206MPD1    H1 3188   1.359   1.427  16.670 -1.0648  2.6920  2.2856
  206MPD1    H2 3189   1.332   1.264  17.057  0.3484 -0.3021  0.4455
  206MPD1    H3 3190   1.283   1.439  16.892 -0.3149 -0.6215  0.4707
  206MPD1     N 3191   1.493   1.239  16.569 -0.3703  0.0665  0.3340
  206MPD1    H5 3192   1.456   1.314  16.512  0.5547 -0.2179 -0.6285
  206MPD1    N1 3193   1.489   1.043  17.018 -0.2986 -0.0782 -0.0048
  206MPD1    H6 3194   1.584   1.008  17.011 -0.1546  0.3552 -0.2572
  206MPD1    H7 3195   1.478   1.064  17.116 -1.6442 -0.7873 -0.0108
  207MPD1     C 3196   3.605   3.846  10.085  0.8426 -0.6486  0.2955
  207MPD1    C1 3197   3.646   3.965  10.141 -0.3226 -0.2514  0.6111
  207MPD1    C2 3198   3.752   3.963  10.230 -0.3903  0.0535  0.0583
  207MPD1    C3 3199   3.823   3.850  10.265 -0.1685 -0.0818  0.3481
  207MPD1    C4 3200   3.786   3.728  10.208 -0.5680 -0.1112 -0.3059
  207MPD1    C5 3201   3.674   3.732  10.120  0.4400  0.0464 -0.2000
  207MPD1     H 3202   3.762   4.060  10.277  1.5204  0.8905 -2.0598
  207MPD1    H1 3203   3.840   3.636  10.228 -0.8509  0.0198  1.0537
  207MPD1    H2 3204   3.518   3.839  10.020 -0.6252  2.9829  1.8832
  207MPD1    H3 3205   3.651   3.634  10.080 -2.2912  0.4539  0.4300
  207MPD1     N 3206   3.943   3.858  10.340 -0.2828 -0.0444  0.1239
  207MPD1    H5 3207   3.995   3.770  10.337  0.0764  0.1664  0.1802
  207MPD1    N1 3208   3.577   4.079  10.103  0.5116 -0.1437  0.0158
  207MPD1    H6 3209   3.562   4.148  10.177  2.0114 -0.1935  0.3623
  207MPD1    H7 3210   3.484   4.052  10.071  0.2407 -0.7262  1.3079
  208MPD1     C 3211   2.139   2.457  17.101  0.1863  0.6352 -0.4462
  208MPD1    C1 3212   2.147   2.326  17.146 -0.3187  0.0465 -0.5248
  208MPD1    C2 3213   2.162   2.300  17.278 -0.5807 -0.0386 -0.9679
  208MPD1    C3 3214   2.167   2.401  17.372  0.0776  0.8515  0.5730
  208MPD1    C4 3215   2.146   2.533  17.333 -0.0617  0.0549  0.0976
  208MPD1    C5 3216   2.150   2.561  17.196  0.5892 -0.6959  0.1222
  208MPD1     H 3217   2.184   2.201  17.318  0.7760  0.0627 -1.4379
  208MPD1    H1 3218   2.149   2.614  17.405 -0.6735 -1.2839  1.6304
  208MPD1    H2 3219   2.132   2.491  16.998 -1.5565  2.1694  0.1697
  208MPD1    H3 3220   2.145   2.667  17.175  0.3941 -1.1280 -2.0028
  208MPD1     N 3221   2.170   2.353  17.503  0.6281 -0.6901  0.7609
  208MPD1    H5 3222   2.153   2.254  17.519  0.6378 -0.5068  1.9509
  208MPD1    N1 3223   2.118   2.228  17.050  0.4955 -0.0691 -0.3928
  208MPD1    H6 3224   2.161   2.137  17.066 -0.7864 -0.3006  1.8171
  208MPD1    H7 3225   2.124   2.259  16.953  1.4002  1.5231  0.1789
  209MPD1     C 3226   3.921   2.669  11.438  0.0251 -0.1642 -0.2695
  209MPD1    C1 3227   3.924   2.713  11.311  0.1978  0.2118  0.2404
  209MPD1    C2 3228   4.002   2.824  11.285  0.5699 -0.1756 -0.1875
  209MPD1    C3 3229   4.066   2.901  11.377  0.4488 -0.2368 -0.4860
  209MPD1    C4 3230   4.043   2.856  11.504 -0.3565 -0.0281 -0.1770
  209MPD1    C5 3231   3.978   2.744  11.533  0.1472 -0.2368  0.4153
  209MPD1     H 3232   4.015   2.859  11.183  0.0136 -0.4109 -0.3366
  209MPD1    H1 3233   4.084   2.917  11.584  2.7670 -1.6773 -0.5018
  209MPD1    H2 3234   3.880   2.573  11.465  2.8949 -1.2709  0.1609
  209MPD1    H3 3235   3.962   2.728  11.639  0.5898 -1.9642  0.2137
  209MPD1     N 3236   4.152   3.007  11.343  0.2270 -0.0382  0.1080
  209MPD1    H5 3237   4.167   3.035  11.246  0.4563  1.1275  0.4713
  209MPD1    N1 3238   3.864   2.636  11.211 -0.4190 -0.8003  0.4399
  209MPD1    H6 3239   3.778   2.593  11.245 -0.2186  0.3369  2.4021
  209MPD1    H7 3240   3.839   2.697  11.134 -1.2097 -2.4780 -0.6129
  210MPD1     C 3241   0.364   3.493  11.489 -0.0991 -0.2099  0.1042
  210MPD1    C1 3242   0.293   3.410  11.575  0.0606  0.1405  0.1916
  210MPD1    C2 3243   0.160   3.390  11.547 -0.5036 -0.4819 -0.2310
  210MPD1    C3 3244   0.100   3.442  11.432 -0.2656 -0.1265  0.3800
  210MPD1    C4 3245   0.176   3.528  11.353 -0.6318  0.9249 -0.0055
  210MPD1    C5 3246   0.306   3.555  11.384 -0.0518  0.2816 -0.2726
  210MPD1     H 3247   0.102   3.336  11.620 -0.4889 -1.3584 -0.8702
  210MPD1    H1 3248   0.131   3.575  11.267  1.0966  0.7441 -1.0138
  210MPD1    H2 3249   0.469   3.514  11.508 -0.3857  1.9657 -0.7677
  210MPD1    H3 3250   0.366   3.618  11.320  0.6296  0.7771  0.8453
  210MPD1     N 3251   4.699   3.412  11.401  0.7878 -0.1765 -0.2061
  210MPD1    H5 3252   4.654   3.455  11.321 -0.1261 -0.3266  0.2236
  210MPD1    N1 3253   0.355   3.360  11.693 -0.6775  0.0690  0.8022
  210MPD1    H6 3254   0.327   3.263  11.699 -0.3246 -0.0453  0.6023
  210MPD1    H7 3255   0.455   3.352  11.673 -1.3150 -2.8322 -1.1214
  211MPD1     C 3256   2.632   2.927  16.561 -0.3758  0.2303 -0.6544
  211MPD1    C1 3257   2.602   3.013  16.462 -1.1401  0.0136 -0.4364
  211MPD1    C2 3258   2.482   3.005  16.397 -0.3010  0.5940  0.1249
  211MPD1    C3 3259   2.386   2.924  16.452 -0.1405 -0.3040 -0.0784
  211MPD1    C4 3260   2.418   2.835  16.553  0.1835  0.7060 -0.7590
  211MPD1    C5 3261   2.541   2.839  16.610  0.0569  0.3360 -0.5344
  211MPD1     H 3262   2.463   3.073  16.314 -0.7532 -0.8685 -0.9699
  211MPD1    H1 3263   2.345   2.765  16.593 -0.4035  1.0838 -1.1720
  211MPD1    H2 3264   2.730   2.932  16.607  0.0099 -2.3199 -1.2385
  211MPD1    H3 3265   2.581   2.765  16.678 -0.4736  0.1305 -0.4452
  211MPD1     N 3266   2.260   2.937  16.397  0.0816 -0.3529 -0.4414
  211MPD1    H5 3267   2.248   2.995  16.314 -0.9544 -0.5252 -0.4163
  211MPD1    N1 3268   2.699   3.094  16.409 -0.2230 -0.4711  0.1348
  211MPD1    H6 3269   2.652   3.177  16.374 -0.1364 -0.3044  0.4128
  211MPD1    H7 3270   2.761   3.123  16.484 -0.6636 -1.0068  0.7076
  212MPD1     C 3271   1.200   1.251  16.124 -0.2350 -0.1261  0.1978
  212MPD1    C1 3272   1.180   1.329  16.237  0.0177 -0.2778 -0.4880
  212MPD1    C2 3273   1.142   1.261  16.358  0.0239  0.1166 -0.0913
  212MPD1    C3 3274   1.139   1.122  16.363 -0.4541 -0.3850  0.0641
  212MPD1    C4 3275   1.170   1.055  16.250 -0.0946  0.7917 -0.4343
  212MPD1    C5 3276   1.206   1.118  16.141 -0.9738 -0.0958  0.5866
  212MPD1     H 3277   1.122   1.325  16.444 -0.4470  0.9180 -0.7893
  212MPD1    H1 3278   1.156   0.948  16.242  1.8094  0.4935  0.2883
  212MPD1    H2 3279   1.219   1.290  16.025 -0.7732 -1.5257 -0.4643
  212MPD1    H3 3280   1.212   1.060  16.050 -2.1824 -0.1138  0.5171
  212MPD1     N 3281   1.096   1.047  16.479  0.3269  0.8576 -0.4606
  212MPD1    H5 3282   1.089   0.946  16.467 -0.8626  1.0985 -1.8906
  212MPD1    N1 3283   1.166   1.468  16.221 -0.5046 -1.2105  0.0330
  212MPD1    H6 3284   1.236   1.508  16.159  0.7798  1.7502  3.4288
  212MPD1    H7 3285   1.171   1.529  16.302 -0.6726 -0.7027 -0.3302
  213MPD1     C 3286   4.306   1.559  15.783  0.0327  0.9559 -1.0204
  213MPD1    C1 3287   4.307   1.693  15.784  0.4443 -0.1714 -1.2403
  213MPD1    C2 3288   4.217   1.764  15.705  0.6132  0.3188 -0.6462
  213MPD1    C3 3289   4.162   1.706  15.600  0.0567  0.8158 -0.2056
  213MPD1    C4 3290   4.179   1.569  15.588 -0.0495 -0.2696 -0.1314
  213MPD1    C5 3291   4.255   1.501  15.674  0.5248 -0.0691 -0.1005
  213MPD1     H 3292   4.190   1.864  15.736  0.8992  0.0675  0.4127
  213MPD1    H1 3293   4.127   1.521  15.505 -2.4531 -1.2402  1.9426
  213MPD1    H2 3294   4.378   1.503  15.841  2.1757  2.6125 -2.0790
  213MPD1    H3 3295   4.265   1.393  15.671  5.6969  0.3668  1.8567
  213MPD1     N 3296   4.072   1.770  15.507 -0.1028 -0.1872 -0.4530
  213MPD1    H5 3297   4.039   1.718  15.427 -0.4473  0.9995 -1.0814
  213MPD1    N1 3298   4.351   1.761  15.902 -0.0382 -0.4875 -0.5216
  213MPD1    H6 3299   4.426   1.712  15.951 -1.5307 -0.7659  1.4852
  213MPD1    H7 3300   4.380   1.857  15.882 -0.1093 -0.5428 -0.8789
  214MPD1     C 3301   3.215   1.564  15.230  0.2891 -0.0617  0.2458
  214MPD1    C1 3302   3.248   1.658  15.326 -0.0256 -0.4704 -0.1164
  214MPD1    C2 3303   3.370   1.727  15.311 -0.2662  0.2616 -0.4909
  214MPD1    C3 3304   3.463   1.683  15.212 -0.4722 -0.0626  0.0522
  214MPD1    C4 3305   3.420   1.599  15.116 -0.5444  0.3215  0.1089
  214MPD1    C5 3306   3.297   1.545  15.120  0.4310 -0.4207  0.1446
  214MPD1     H 3307   3.391   1.800  15.388 -1.2423  1.4558 -1.3596
  214MPD1    H1 3308   3.478   1.573  15.028  1.4928  1.8787  0.9802
  214MPD1    H2 3309   3.127   1.502  15.238 -0.3625  0.5992 -1.6721
  214MPD1    H3 3310   3.262   1.471  15.049  2.8698 -0.4191 -1.0624
  214MPD1     N 3311   3.586   1.753  15.200 -0.8197 -0.4394 -0.0674
  214MPD1    H5 3312   3.654   1.713  15.135  3.4071  1.2476  3.2932
  214MPD1    N1 3313   3.152   1.706  15.427 -0.6972  0.5297 -0.8169
  214MPD1    H6 3314   3.064   1.654  15.434 -0.6327  0.6255  0.7152
  214MPD1    H7 3315   3.199   1.683  15.514 -1.6868 -2.1617 -0.9702
  215MPD1     C 3316   3.315   2.544  11.170 -0.2101  0.0248  0.2319
  215MPD1    C1 3317   3.351   2.556  11.302  0.2465 -0.5817  0.2349
  215MPD1    C2 3318   3.435   2.663  11.332  0.2828 -0.4425  0.0069
  215MPD1    C3 3319   3.473   2.757  11.241 -0.0291  0.2970  0.4994
  215MPD1    C4 3320   3.440   2.745  11.110  0.3601 -0.0828 -0.2040
  215MPD1    C5 3321   3.355   2.641  11.079 -0.4069  0.0144 -0.4027
  215MPD1     H 3322   3.463   2.675  11.436  0.3306 -3.6980  0.3832
  215MPD1    H1 3323   3.465   2.822  11.038 -2.9707  0.9904 -0.2202
  215MPD1    H2 3324   3.243   2.472  11.135  1.7606 -0.7675 -2.2084
  215MPD1    H3 3325   3.318   2.639  10.977 -1.0159  0.2189 -0.1841
  215MPD1     N 3326   3.567   2.847  11.291  0.2784  0.0002  0.8966
  215MPD1    H5 3327   3.593   2.828  11.388 -0.8844  3.1633  1.8162
  215MPD1    N1 3328   3.311   2.457  11.401 -0.1105  0.4396  0.0047
  215MPD1    H6 3329   3.224   2.408  11.384  0.4476 -1.1865  1.9068
  215MPD1    H7 3330   3.291   2.510  11.486 -0.8789 -1.8142  1.2432
  216MPD1     C 3331   1.516   0.728  17.464  0.1334  1.1639 -0.5541
  216MPD1    C1 3332   1.380   0.696  17.441 -0.1352  0.5329  0.0152
  216MPD1    C2 3333   1.307   0.668  17.555  0.0659  0.1022  0.7968
  216MPD1    C3 3334   1.345   0.711  17.678  0.1946  0.6587  0.1649
  216MPD1    C4 3335   1.474   0.755  17.705 -0.6161  0.3381  0.0916
  216MPD1    C5 3336   1.552   0.764  17.589 -0.4053 -0.3255  0.0372
  216MPD1     H 3337   1.205   0.631  17.545 -0.1220  0.8889 -0.0781
  216MPD1    H1 3338   1.512   0.793   0.051 -1.0260  0.5547  0.1720
  216MPD1    H2 3339   1.578   0.748  17.378 -0.5450 -1.5839 -1.7012
  216MPD1    H3 3340   1.655   0.796  17.602 -1.0540  0.3032  3.8253
  216MPD1     N 3341   1.259   0.688   0.044 -0.1018  0.9477  0.4847
  216MPD1    H5 3342   1.170   0.647   0.019  0.7626  0.2900 -1.5855
  216MPD1    N1 3343   1.345   0.661  17.309  0.7207  0.5525  0.3047
  216MPD1    H6 3344   1.388   0.704  17.228 -1.2184  0.6473 -0.6860
  216MPD1    H7 3345   1.244   0.670  17.298  0.7092  0.2756  0.1819
  217MPD1     C 3346   2.911   3.733   9.060  1.0638  0.0781 -0.1262
  217MPD1    C1 3347   2.941   3.613   9.012 -0.0880 -0.5044 -0.3067
  217MPD1    C2 3348   2.884   3.498   9.065 -0.5348 -0.0060  0.8112
  217MPD1    C3 3349   2.798   3.512   9.175  0.2773 -0.3887  0.3493
  217MPD1    C4 3350   2.766   3.638   9.225 -0.3760 -0.3503 -0.9091
  217MPD1    C5 3351   2.824   3.746   9.164  0.4182  0.0224  0.9105
  217MPD1     H 3352   2.901   3.398   9.027 -1.8478 -0.1614  0.6433
  217MPD1    H1 3353   2.702   3.657   9.310 -1.8374 -1.0995 -1.8475
  217MPD1    H2 3354   2.940   3.826   9.013 -0.4512 -0.2564 -1.6807
  217MPD1    H3 3355   2.810   3.842   9.213 -1.4710  1.5080 -2.5710
  217MPD1     N 3356   2.737   3.407   9.240  0.2815  0.3329 -0.0579
  217MPD1    H5 3357   2.673   3.414   9.319 -2.4687 -0.5479 -2.2131
  217MPD1    N1 3358   3.021   3.613   8.900 -0.3282 -0.2598  0.6233
  217MPD1    H6 3359   3.083   3.693   8.898  0.0331 -0.6099 -2.1120
  217MPD1    H7 3360   3.086   3.534   8.900 -0.7763 -0.6289  0.0688
  218MPD1     C 3361   3.157   3.262  13.251 -0.5875 -0.2385  0.9352
  218MPD1    C1 3362   3.238   3.300  13.144 -0.2583 -0.1404 -0.3635
  218MPD1    C2 3363   3.324   3.209  13.091 -0.4798  0.0651 -0.0879
  218MPD1    C3 3364   3.335   3.081  13.141  0.3326 -0.0041 -0.1103
  218MPD1    C4 3365   3.259   3.041  13.249 -0.3881  1.3070  0.5388
  218MPD1    C5 3366   3.176   3.133  13.302 -0.2208 -0.3520  0.3184
  218MPD1     H 3367   3.390   3.229  13.008  1.2929 -1.7785  0.8738
  218MPD1    H1 3368   3.280   2.948  13.300  1.7716  0.5846 -1.6598
  218MPD1    H2 3369   3.074   3.321  13.290  0.0892  1.1778  0.2515
  218MPD1    H3 3370   3.119   3.100  13.388 -0.2810  0.0365  0.4280
  218MPD1     N 3371   3.418   2.992  13.069 -0.2901 -0.6724  0.2894
  218MPD1    H5 3372   3.483   3.026  12.999 -1.3102 -0.4828 -0.5665
  218MPD1    N1 3373   3.218   3.422  13.080 -1.2874  0.2702 -0.3762
  218MPD1    H6 3374   3.303   3.443  13.027 -1.1766  1.4672  0.2793
  218MPD1    H7 3375   3.195   3.500  13.140 -0.3940  0.1166  0.1698
  219MPD1     C 3376   3.358   2.858  12.139 -0.6605 -0.4765 -0.4845
  219MPD1    C1 3377   3.451   2.938  12.206 -0.4911  0.0864  0.5209
  219MPD1    C2 3378   3.474   2.911  12.345  0.1139 -0.6011 -0.7345
  219MPD1    C3 3379   3.412   2.803  12.404  0.3503 -0.0367 -0.0061
  219MPD1    C4 3380   3.332   2.727  12.333  1.2107 -0.7441  0.0760
  219MPD1    C5 3381   3.300   2.754  12.206  0.3389  0.5094 -0.0129
  219MPD1     H 3382   3.551   2.969  12.394  1.3607  0.4851 -3.9577
  219MPD1    H1 3383   3.260   2.664  12.384  0.3488  0.8558  0.8191
  219MPD1    H2 3384   3.327   2.866  12.036  3.2977  1.8813 -1.5045
  219MPD1    H3 3385   3.215   2.709  12.157 -0.3598  0.5147  1.2074
  219MPD1     N 3386   3.418   2.768  12.537 -0.0787  0.1919  0.1379
  219MPD1    H5 3387   3.345   2.702  12.564 -0.0676 -0.1957 -0.7991
  219MPD1    N1 3388   3.488   3.062  12.153  0.0281  0.1115 -0.0362
  219MPD1    H6 3389   3.477   3.053  12.052 -0.2079  1.4314 -0.1292
  219MPD1    H7 3390   3.584   3.090  12.174  0.5799 -3.3854  2.1159
  220MPD1     C 3391   3.280   4.489  10.326 -0.6220 -1.3569  0.0618
  220MPD1    C1 3392   3.224   4.384  10.259 -0.2037  0.3264  0.6392
  220MPD1    C2 3393   3.276   4.261  10.283 -0.2536  0.6527 -0.4129
  220MPD1    C3 3394   3.359   4.232  10.391  0.0525 -0.1417  0.6945
  220MPD1    C4 3395   3.388   4.334  10.474  0.2069 -0.4695  0.2978
  220MPD1    C5 3396   3.361   4.465  10.434 -0.4568 -0.0765 -0.3026
  220MPD1     H 3397   3.244   4.182  10.215 -1.1297  1.2496 -0.6939
  220MPD1    H1 3398   3.452   4.331  10.562  1.3228 -0.7912 -0.5163
  220MPD1    H2 3399   3.250   4.591  10.305  1.5543 -0.1450  2.7928
  220MPD1    H3 3400   3.378   4.550  10.498 -0.0409 -1.6068  1.6222
  220MPD1     N 3401   3.418   4.102  10.413 -0.3514 -0.4055 -0.1063
  220MPD1    H5 3402   3.382   4.027  10.357  2.3869 -1.6973 -0.1573
  220MPD1    N1 3403   3.157   4.403  10.140 -0.5312  0.2932 -0.4013
  220MPD1    H6 3404   3.104   4.324  10.105  0.5600  0.4479 -2.3889
  220MPD1    H7 3405   3.112   4.493  10.156 -1.0264  0.4345 -2.6054
  221MPD1     C 3406   0.788   2.463  15.646  0.6161  0.1307  0.0628
  221MPD1    C1 3407   0.774   2.363  15.738 -0.2068  0.7107  0.5553
  221MPD1    C2 3408   0.885   2.292  15.759 -0.0788 -0.1328  0.3598
  221MPD1    C3 3409   0.998   2.299  15.682 -0.5871 -0.0128  0.6535
  221MPD1    C4 3410   1.007   2.395  15.582 -0.5410  0.9892  0.1223
  221MPD1    C5 3411   0.900   2.472  15.561  0.0076 -0.4512  0.6197
  221MPD1     H 3412   0.880   2.232  15.849 -0.0995 -0.6425  0.0193
  221MPD1    H1 3413   1.096   2.391  15.520 -1.0556 -0.2985 -0.5541
  221MPD1    H2 3414   0.703   2.531  15.638  0.6568  0.0653 -0.8459
  221MPD1    H3 3415   0.898   2.545  15.482 -0.8948 -1.1916 -0.0488
  221MPD1     N 3416   1.109   2.216  15.710 -0.1568 -0.3075  0.0688
  221MPD1    H5 3417   1.179   2.198  15.639  1.6189 -0.4850  1.8755
  221MPD1    N1 3418   0.658   2.361  15.813 -0.0864  0.4129  0.2339
  221MPD1    H6 3419   0.577   2.378  15.753  0.6549  1.1142 -0.5591
  221MPD1    H7 3420   0.638   2.268  15.849  0.7080 -0.7127 -2.2491
  222MPD1     C 3421   0.628   0.762  17.540 -0.4416 -0.4136  0.3284
  222MPD1    C1 3422   0.669   0.804  17.407  0.3290 -0.4081  0.2550
  222MPD1    C2 3423   0.644   0.934  17.358 -0.1947  0.2268 -0.4028
  222MPD1    C3 3424   0.573   1.016  17.443 -0.0582 -0.1283  0.2756
  222MPD1    C4 3425   0.512   0.971  17.556  0.3152  0.1116 -0.5521
  222MPD1    C5 3426   0.547   0.843  17.605  0.4122 -0.3401  0.8904
  222MPD1     H 3427   0.674   0.972  17.261  1.6034  3.3022  1.3914
  222MPD1    H1 3428   0.455   1.034  17.624 -0.3293  0.2152 -1.1874
  222MPD1    H2 3429   0.650   0.667  17.587  0.3238 -0.2727  0.2540
  222MPD1    H3 3430   0.518   0.813  17.705  0.8029  3.1055  2.0394
  222MPD1     N 3431   0.549   1.153  17.409  0.1932  0.3905  0.3098
  222MPD1    H5 3432   0.484   1.204  17.467  1.8394  1.2829  1.3644
  222MPD1    N1 3433   0.760   0.723  17.334  0.0463 -0.0322 -0.3307
  222MPD1    H6 3434   0.750   0.738  17.234  1.7870 -2.2674 -0.8403
  222MPD1    H7 3435   0.758   0.623  17.355 -0.2333 -0.3812 -1.9988
  223MPD1     C 3436   4.606   1.581  17.661  0.0190 -0.8062 -0.5807
  223MPD1    C1 3437   4.684   1.479  17.715 -0.3169  0.1503 -0.4028
  223MPD1    C2 3438   0.071   1.463  17.664 -0.4811 -0.2089  0.6962
  223MPD1    C3 3439   0.120   1.536  17.560 -0.5398  0.4022  0.1034
  223MPD1    C4 3440   0.043   1.642  17.510  0.5983  0.6043  0.0562
  223MPD1    C5 3441   4.653   1.661  17.559 -0.1026 -0.2123 -0.0345
  223MPD1     H 3442   0.142   1.386  17.692  0.7848 -0.0070 -1.9746
  223MPD1    H1 3443   0.070   1.707  17.427  2.1750  0.3972  0.3998
  223MPD1    H2 3444   4.507   1.612  17.692 -0.0709 -1.1433 -0.5325
  223MPD1    H3 3445   4.586   1.736  17.518  3.2822  1.4776 -2.4436
  223MPD1     N 3446   0.252   1.506  17.506 -0.6566 -0.5654  0.0185
  223MPD1    H5 3447   0.297   1.419  17.531 -1.3884 -1.1217 -0.6176
  223MPD1    N1 3448   4.646   1.402   0.083 -0.6979 -0.4412 -0.4027
  223MPD1    H6 3449   4.693   1.314   0.066 -0.9058 -0.6545  0.1521
  223MPD1    H7 3450   4.545   1.386   0.084 -0.5201 -1.2705  2.5908
  224MPD1     C 3451   2.595   3.836   9.620 -0.5887 -0.2812 -0.4293
  224MPD1    C1 3452   2.650   3.722   9.678 -0.3331  0.0885  0.0365
  224MPD1    C2 3453   2.575   3.650   9.764  0.6745  0.5543  0.0692
  224MPD1    C3 3454   2.441   3.686   9.794  0.5009  0.1108  0.5084
  224MPD1    C4 3455   2.394   3.799   9.743 -0.0635 -0.3627  0.1373
  224MPD1    C5 3456   2.468   3.872   9.652 -0.4890 -0.2556 -0.1787
  224MPD1     H 3457   2.620   3.564   9.812 -0.3630 -0.0398 -0.0200
  224MPD1    H1 3458   2.290   3.825   9.761  0.0315  0.6507 -0.7089
  224MPD1    H2 3459   2.647   3.896   9.546  1.3766 -0.6489  0.6608
  224MPD1    H3 3460   2.426   3.956   9.598 -0.0134  0.8986  1.2459
  224MPD1     N 3461   2.356   3.607   9.879  0.0237 -0.1345 -0.3177
  224MPD1    H5 3462   2.262   3.639   9.900  0.6019  1.1802  0.2611
  224MPD1    N1 3463   2.773   3.667   9.634 -0.1835 -0.0216  0.0983
  224MPD1    H6 3464   2.845   3.737   9.619 -1.5561  0.9208 -2.0770
  224MPD1    H7 3465   2.811   3.596   9.697  1.0953  1.0370  0.5140
  225MPD1     C 3466   4.053   4.042  12.474  0.6027  0.3090  0.3754
  225MPD1    C1 3467   3.997   3.996  12.356  0.1801 -0.8084 -0.5634
  225MPD1    C2 3468   3.862   3.954  12.365 -0.7814  0.2703  0.5343
  225MPD1    C3 3469   3.800   3.928  12.485 -0.0059 -0.3479 -0.4305
  225MPD1    C4 3470   3.867   3.966  12.603  0.7716 -0.1068  0.1155
  225MPD1    C5 3471   3.991   4.010  12.596 -0.0550  0.1783  0.1242
  225MPD1     H 3472   3.807   3.936  12.273  1.2696 -0.0234 -0.6176
  225MPD1    H1 3473   3.816   3.946  12.696  1.5548  1.1255  0.8115
  225MPD1    H2 3474   4.155   4.078  12.480  0.1947  1.3961  0.9166
  225MPD1    H3 3475   4.041   4.013  12.692 -0.1957  0.3087  0.1911
  225MPD1     N 3476   3.667   3.879  12.500 -0.0347 -1.0431  0.3969
  225MPD1    H5 3477   3.630   3.894  12.594  0.9190 -3.0222  1.0792
  225MPD1    N1 3478   4.047   4.029  12.231  0.3363 -0.1164  0.5043
  225MPD1    H6 3479   4.009   3.968  12.159  2.0220  0.0332 -0.5147
  225MPD1    H7 3480   4.148   4.037  12.222 -0.1063 -0.0737 -4.0633
  226MPD1     C 3481   2.063   0.320   9.553  0.1306 -0.4022  0.2814
  226MPD1    C1 3482   1.946   0.259   9.515  0.0490  0.7659 -0.3556
  226MPD1    C2 3483   1.884   0.182   9.611 -0.2535 -0.7359  0.0064
  226MPD1    C3 3484   1.940   0.153   9.728 -0.0846  0.2471  0.4042
  226MPD1    C4 3485   2.066   0.209   9.760  0.6615 -0.1117 -0.2083
  226MPD1    C5 3486   2.127   0.295   9.671  0.1891 -0.8720  0.3725
  226MPD1     H 3487   1.786   0.142   9.588 -0.4259 -1.2726  1.6738
  226MPD1    H1 3488   2.116   0.197   9.855 -0.4156  1.3480  0.5512
  226MPD1    H2 3489   2.117   0.375   9.477 -0.2806 -0.3196  0.0501
  226MPD1    H3 3490   2.222   0.342   9.694  0.5500 -0.3746 -2.0735
  226MPD1     N 3491   1.875   0.064   9.813 -0.1211 -0.4660 -0.0655
  226MPD1    H5 3492   1.782   0.039   9.780 -0.0417 -0.1188 -0.5519
  226MPD1    N1 3493   1.883   0.286   9.394 -0.4180 -0.4134 -0.3303
  226MPD1    H6 3494   1.846   0.201   9.351 -0.8576 -0.1576 -0.4529
  226MPD1    H7 3495   1.946   0.326   9.324 -0.7166 -0.4803 -0.6393
  227MPD1     C 3496   0.956   4.594  10.106 -0.7255 -0.5166  0.4644
  227MPD1    C1 3497   1.020   4.478  10.121 -0.5745 -0.3522 -0.3363
  227MPD1    C2 3498   1.162   4.481  10.104  0.0433 -0.4050 -0.5991
  227MPD1    C3 3499   1.226   4.599  10.084  0.7571 -0.2889 -0.1222
  227MPD1    C4 3500   1.157   4.718  10.075  0.3527 -0.6373  0.8015
  227MPD1    C5 3501   1.024   4.711  10.076 -0.4334 -0.5108 -0.0951
  227MPD1     H 3502   1.217   4.389  10.112  0.6645  0.0736  0.5469
  227MPD1    H1 3503   1.199   0.080  10.078  0.4916 -0.7146  1.4365
  227MPD1    H2 3504   0.848   4.597  10.115 -0.9181  1.5797 -2.6121
  227MPD1    H3 3505   0.971   0.067  10.077 -2.1801 -1.4903 -1.6311
  227MPD1     N 3506   1.366   4.596  10.075 -0.1184 -0.7099  0.3029
  227MPD1    H5 3507   1.418   4.510  10.092 -0.3149 -1.0844 -0.9664
  227MPD1    N1 3508   0.951   4.359  10.147  0.3909  0.2386  0.3409
  227MPD1    H6 3509   1.003   4.277  10.176  0.4481 -0.4724 -1.7649
  227MPD1    H7 3510   0.863   4.371  10.197  2.2682  1.8439  3.2903
  228MPD1     C 3511   0.700   1.706  12.916  0.3189  0.7615 -0.5067
  228MPD1    C1 3512   0.594   1.788  12.870 -0.0066  0.3332 -0.2687
  228MPD1    C2 3513   0.475   1.725  12.832 -0.3910 -0.0493  0.1453
  228MPD1    C3 3514   0.461   1.594  12.828 -0.2192 -0.1590 -0.0074
  228MPD1    C4 3515   0.570   1.508  12.858  0.0188 -0.1700 -0.1355
  228MPD1    C5 3516   0.685   1.568  12.913 -0.6789  0.1266  0.9121
  228MPD1     H 3517   0.393   1.789  12.801 -2.7460 -2.3419  1.6548
  228MPD1    H1 3518   0.577   1.401  12.839 -0.1555 -0.5581  1.9207
  228MPD1    H2 3519   0.794   1.750  12.949  1.1213 -1.2752 -0.0898
  228MPD1    H3 3520   0.766   1.498  12.933 -2.2134 -1.9307 -0.0713
  228MPD1     N 3521   0.339   1.538  12.788  0.3525  0.6172 -0.1649
  228MPD1    H5 3522   0.266   1.605  12.768 -2.2307 -1.6473  1.7848
  228MPD1    N1 3523   0.597   1.929  12.886 -0.1612 -0.1243 -0.6062
  228MPD1    H6 3524   0.685   1.980  12.881 -0.1446 -0.1911 -1.0290
  228MPD1    H7 3525   0.531   1.976  12.824 -0.7757 -0.4671 -0.2228
  229MPD1     C 3526   0.019   0.705  15.032 -0.0188  0.0323  0.1517
  229MPD1    C1 3527   0.040   0.584  14.971 -0.0675  0.6633 -0.2648
  229MPD1    C2 3528   0.103   0.487  15.047  0.3781 -0.3828 -0.1506
  229MPD1    C3 3529   0.138   0.503  15.178 -0.7414 -0.1579  0.1291
  229MPD1    C4 3530   0.126   0.631  15.226  0.0645  1.0446 -0.5283
  229MPD1    C5 3531   0.059   0.727  15.161 -0.3409  0.4118 -0.2510
  229MPD1     H 3532   0.090   0.389  15.002 -4.2161  0.6516 -1.0853
  229MPD1    H1 3533   0.162   0.658  15.324 -0.2867 -0.5383  0.0375
  229MPD1    H2 3534   4.711   0.791  14.983  0.1136  0.7778  1.3423
  229MPD1    H3 3535   0.042   0.827  15.199 -2.3854  0.5369 -1.4677
  229MPD1     N 3536   0.185   0.402  15.266  0.1794 -0.4353 -0.4263
  229MPD1    H5 3537   0.204   0.432  15.362  1.1642  1.0452 -1.0754
  229MPD1    N1 3538   4.715   0.544  14.854 -0.3561  0.0246 -0.3420
  229MPD1    H6 3539   4.693   0.628  14.801 -0.3688  0.7256  0.7909
  229MPD1    H7 3540   0.020   0.475  14.792  0.5912  1.2521 -1.0590
  230MPD1     C 3541   0.394   0.239  16.186  0.6381  0.0781  0.0702
  230MPD1    C1 3542   0.287   0.162  16.160  0.1365  0.0671 -0.0065
  230MPD1    C2 3543   0.279   0.124  16.025  0.1663 -0.1096  0.7163
  230MPD1    C3 3544   0.352   0.175  15.919 -0.0589 -0.4143  1.0496
  230MPD1    C4 3545   0.462   0.257  15.954 -0.4760 -0.1411 -0.0600
  230MPD1    C5 3546   0.483   0.281  16.088 -0.1164 -0.3157  0.5443
  230MPD1     H 3547   0.190   0.071  15.993 -0.0636 -0.1918  1.5049
  230MPD1    H1 3548   0.539   0.297  15.889 -0.6505 -0.4113 -0.4306
  230MPD1    H2 3549   0.407   0.262  16.291  2.0751  0.8359 -0.2680
  230MPD1    H3 3550   0.565   0.344  16.120  0.8503 -1.7882  0.9475
  230MPD1     N 3551   0.314   0.139  15.787  0.0341 -0.7613 -0.7439
  230MPD1    H5 3552   0.228   0.085  15.780  0.7403 -1.8410 -1.1602
  230MPD1    N1 3553   0.189   0.128  16.254  0.1361  0.0889  0.3291
  230MPD1    H6 3554   0.194   0.150  16.353  1.2560  0.3576  0.2116
  230MPD1    H7 3555   0.135   0.043  16.241  2.0550 -1.1461  0.5191
  231MPD1     C 3556   3.117   1.886  15.875 -0.0410 -0.2763 -0.1826
  231MPD1    C1 3557   3.057   1.867  15.747 -0.6632 -0.2245  0.3815
  231MPD1    C2 3558   3.115   1.934  15.647 -0.1398 -0.0032 -0.3344
  231MPD1    C3 3559   3.219   2.020  15.664  0.1365 -0.5920  0.6863
  231MPD1    C4 3560   3.267   2.046  15.791 -0.1238  0.2538  0.4951
  231MPD1    C5 3561   3.216   1.973  15.898  0.1229 -0.1802 -0.1819
  231MPD1     H 3562   3.078   1.912  15.547 -0.7248 -3.8102  0.7189
  231MPD1    H1 3563   3.346   2.120  15.795  2.0119 -1.9350 -0.5243
  231MPD1    H2 3564   3.072   1.840  15.963 -1.7321  1.6629 -0.0359
  231MPD1    H3 3565   3.254   1.983  15.999 -2.4097 -1.3112  0.8902
  231MPD1     N 3566   3.258   2.080  15.542  0.3325 -0.0750  0.8402
  231MPD1    H5 3567   3.213   2.045  15.457  2.0167  2.3841 -1.0407
  231MPD1    N1 3568   2.951   1.776  15.734  0.4843 -0.3361  0.4899
  231MPD1    H6 3569   2.913   1.745  15.823  2.8057  0.1555  1.6653
  231MPD1    H7 3570   2.882   1.810  15.668 -0.0589  1.6360  2.0848
  232MPD1     C 3571   0.331   4.257   0.060 -0.0393  0.7327 -0.6508
  232MPD1    C1 3572   0.245   4.162   0.013  0.4301 -0.3652  0.4873
  232MPD1    C2 3573   0.213   4.057   0.102 -0.6097  0.1167 -0.0557
  232MPD1    C3 3574   0.266   4.042   0.226  0.3274  0.4828  0.1350
  232MPD1    C4 3575   0.346   4.139   0.272  0.8986 -0.1255  0.0915
  232MPD1    C5 3576   0.371   4.247   0.189  0.7509  0.5921  0.3794
  232MPD1     H 3577   0.134   3.989   0.071  0.6389 -0.9379 -0.9612
  232MPD1    H1 3578   0.397   4.139   0.368  1.9363  2.8749 -0.4439
  232MPD1    H2 3579   0.354   4.346   0.003  0.2308  1.4221  0.5461
  232MPD1    H3 3580   0.435   4.328   0.224  1.2787 -0.5241  2.0157
  232MPD1     N 3581   0.240   3.919   0.302 -0.0326  0.0325 -0.5374
  232MPD1    H5 3582   0.181   3.851   0.255  0.7867 -1.1610  0.1671
  232MPD1    N1 3583   0.178   4.185  17.644  0.0224 -0.2364 -0.4814
  232MPD1    H6 3584   0.234   4.242  17.581 -0.9608  1.1362 -0.1004
  232MPD1    H7 3585   0.149   4.101  17.595 -0.3098 -0.5699  0.2767
  233MPD1     C 3586   0.667   3.296   1.479 -1.1082 -0.1491 -0.8264
  233MPD1    C1 3587   0.713   3.417   1.522  0.2316 -0.2072  0.0147
  233MPD1    C2 3588   0.856   3.438   1.532  0.1288 -0.3775  0.1830
  233MPD1    C3 3589   0.938   3.336   1.493 -0.1660 -0.4511 -0.5247
  233MPD1    C4 3590   0.881   3.221   1.444 -0.0306  0.3030  0.8717
  233MPD1    C5 3591   0.753   3.204   1.428 -0.4645  0.3298 -0.2987
  233MPD1     H 3592   0.889   3.538   1.555  1.3229  0.0007 -3.1900
  233MPD1    H1 3593   0.949   3.146   1.405 -1.5445  0.2439 -1.6546
  233MPD1    H2 3594   0.562   3.275   1.466 -0.5529 -1.4358 -3.2046
  233MPD1    H3 3595   0.707   3.109   1.405 -2.8929  1.8517 -1.7713
  233MPD1     N 3596   1.075   3.326   1.518 -0.1890 -0.4799  0.2017
  233MPD1    H5 3597   1.120   3.236   1.505  2.2001  0.8093 -0.4905
  233MPD1    N1 3598   0.630   3.517   1.568  0.0667 -0.9680 -0.2856
  233MPD1    H6 3599   0.538   3.494   1.532 -0.3118  3.4240 -2.1741
  233MPD1    H7 3600   0.630   3.518   1.670 -0.7421  0.8399 -0.2989
  234MPD1     C 3601   2.941   1.650   9.838  0.2213 -0.1393  0.0052
  234MPD1    C1 3602   3.007   1.759   9.791  0.3397 -0.2465  0.4347
  234MPD1    C2 3603   2.971   1.881   9.844  0.6885 -0.0419 -0.2838
  234MPD1    C3 3604   2.867   1.900   9.937  0.3721 -0.0845 -0.1675
  234MPD1    C4 3605   2.811   1.784   9.988  0.1505  0.2569 -0.1711
  234MPD1    C5 3606   2.842   1.661   9.935 -0.4987  0.1805  0.0335
  234MPD1     H 3607   3.018   1.974   9.813  0.8775 -0.5459 -1.5162
  234MPD1    H1 3608   2.733   1.786  10.063  0.6651  1.0896  0.3446
  234MPD1    H2 3609   2.979   1.551   9.821  0.1365 -0.2333  0.3672
  234MPD1    H3 3610   2.803   1.569   9.978  0.2731  0.9621  2.4176
  234MPD1     N 3611   2.830   2.033   9.968  0.5080  0.1066  0.0193
  234MPD1    H5 3612   2.887   2.103   9.922  1.1046 -1.3491 -1.4264
  234MPD1    N1 3613   3.126   1.747   9.726  0.3881  0.0810  0.4559
  234MPD1    H6 3614   3.203   1.725   9.789  1.7709 -0.2777 -1.3965
  234MPD1    H7 3615   3.126   1.661   9.672  0.7153  0.6521 -0.4406
  235MPD1     C 3616   4.060   4.084  10.991 -0.3435 -0.0236  0.2201
  235MPD1    C1 3617   4.034   4.163  10.877  0.7898 -0.0848 -0.3815
  235MPD1    C2 3618   4.080   4.294  10.896 -0.4769 -0.2712 -0.4923
  235MPD1    C3 3619   4.178   4.329  10.986  0.2955 -0.0085 -0.9363
  235MPD1    C4 3620   4.226   4.233  11.077 -0.2919  0.1599 -0.5719
  235MPD1    C5 3621   4.164   4.111  11.079 -0.4688 -0.5723  0.1966
  235MPD1     H 3622   4.049   4.371  10.826 -3.4157 -1.2277 -0.1992
  235MPD1    H1 3623   4.305   4.256  11.148 -0.5340  1.7792 -0.8110
  235MPD1    H2 3624   4.020   3.986  11.015 -1.7697 -0.0605 -2.3115
  235MPD1    H3 3625   4.190   4.031  11.149 -1.0081  1.0475  2.2552
  235MPD1     N 3626   4.222   4.465  10.986 -0.6097  0.0208 -0.0646
  235MPD1    H5 3627   4.182   4.521  10.911 -0.5238  0.2721  0.0767
  235MPD1    N1 3628   3.943   4.127  10.778 -0.3620 -0.1976 -0.1668
  235MPD1    H6 3629   3.949   4.175  10.689  0.0674  1.2570  0.6540
  235MPD1    H7 3630   3.930   4.026  10.769 -2.7890 -0.0243  1.1920
  236MPD1     C 3631   2.823   0.458  10.006  0.2565 -0.0740  0.1460
  236MPD1    C1 3632   2.833   0.594  10.037  0.2276  0.8911  0.8753
  236MPD1    C2 3633   2.950   0.628  10.113 -0.3014  0.5837  0.5604
  236MPD1    C3 3634   3.035   0.531  10.172 -0.3111 -0.0550 -0.0048
  236MPD1    C4 3635   3.008   0.397  10.147  0.3281 -1.2439 -0.2703
  236MPD1    C5 3636   2.902   0.360  10.068 -0.1135  0.6891  0.1373
  236MPD1     H 3637   2.965   0.731  10.143  1.6561  0.5546 -0.3509
  236MPD1    H1 3638   3.069   0.321  10.195  0.0804  0.1227  2.1856
  236MPD1    H2 3639   2.746   0.415   9.942 -2.0741  1.0841  2.1920
  236MPD1    H3 3640   2.890   0.259  10.033  0.6273  0.9545 -0.8616
  236MPD1     N 3641   3.150   0.567  10.246  0.2904  0.3188 -0.1928
  236MPD1    H5 3642   3.205   0.485  10.272  1.2607  0.3568 -2.0921
  236MPD1    N1 3643   2.757   0.693   9.969 -0.3618  0.3821  0.4822
  236MPD1    H6 3644   2.731   0.771  10.030  0.5013  0.3397  0.8954
  236MPD1    H7 3645   2.662   0.656   9.959  0.2364 -1.4555  1.7326
  237MPD1     C 3646   3.503   3.064  15.698  0.3108 -0.5824  0.5243
  237MPD1    C1 3647   3.415   3.154  15.745  0.1524 -0.1254 -0.5209
  237MPD1    C2 3648   3.297   3.172  15.673 -0.0753  0.4368  0.3492
  237MPD1    C3 3649   3.262   3.092  15.573  0.6325 -0.6497  0.1627
  237MPD1    C4 3650   3.352   2.995  15.534 -0.2549 -0.0583  0.1656
  237MPD1    C5 3651   3.467   2.976  15.601  0.2058 -0.0195 -0.6800
  237MPD1     H 3652   3.221   3.237  15.713  0.4093  2.8594 -2.7086
  237MPD1    H1 3653   3.332   2.932  15.448  0.1930 -0.2285  0.1857
  237MPD1    H2 3654   3.600   3.050  15.745 -0.3060  1.0506  2.2711
  237MPD1    H3 3655   3.530   2.898  15.558 -0.1087 -0.5209 -0.2364
  237MPD1     N 3656   3.138   3.108  15.499  0.5220 -0.0394 -0.1642
  237MPD1    H5 3657   3.131   3.050  15.416 -3.0240 -0.2735  0.3116
  237MPD1    N1 3658   3.458   3.250  15.843  0.1801 -0.5766  0.5325
  237MPD1    H6 3659   3.512   3.210  15.919  0.0047 -0.7243  0.5777
  237MPD1    H7 3660   3.375   3.293  15.883  0.3546  0.5855 -0.3321
  238MPD1     C 3661   0.061   2.690  15.489 -0.6687  0.5218 -0.3267
  238MPD1    C1 3662   4.726   2.583  15.529 -0.2413  0.2141  0.5621
  238MPD1    C2 3663   4.652   2.510  15.440  0.2184 -0.5178 -0.0248
  238MPD1    C3 3664   4.641   2.553  15.308 -0.8655  0.3447 -0.4878
  238MPD1    C4 3665   4.716   2.661  15.268  0.1176 -0.7164  0.1179
  238MPD1    C5 3666   0.060   2.722  15.359  0.0209 -0.3366 -0.3146
  238MPD1     H 3667   4.597   2.428  15.485 -0.1017 -1.0568 -1.3972
  238MPD1    H1 3668   4.727   2.700  15.167  0.0296  1.6424  1.0223
  238MPD1    H2 3669   0.121   2.752  15.554 -0.3983  0.3704 -0.4316
  238MPD1    H3 3670   0.117   2.811  15.336 -1.1714  1.0637  2.0603
  238MPD1     N 3671   4.575   2.479  15.207 -0.1130 -0.3789 -0.6299
  238MPD1    H5 3672   4.583   2.516  15.112  1.3358 -1.4266 -0.9212
  238MPD1    N1 3673   4.703   2.558  15.670  0.6313 -0.4546 -0.2489
  238MPD1    H6 3674   4.687   2.462  15.700  1.4716 -1.2943 -2.4343
  238MPD1    H7 3675   0.040   2.598  15.727  0.1020  1.8431 -1.1863
  239MPD1     C 3676   0.216   2.746  15.048 -0.5145  0.5762  0.1867
  239MPD1    C1 3677   0.252   2.704  14.913  0.1888 -0.6465 -0.2429
  239MPD1    C2 3678   0.255   2.792  14.809 -0.2306  0.0693  0.2643
  239MPD1    C3 3679   0.242   2.932  14.834  0.0642  0.3558  0.6346
  239MPD1    C4 3680   0.220   2.972  14.965  0.4317  0.1793 -0.2351
  239MPD1    C5 3681   0.222   2.880  15.070  0.6633 -0.0606 -0.3165
  239MPD1     H 3682   0.264   2.748  14.711 -0.8558  0.6426 -0.0526
  239MPD1    H1 3683   0.210   3.079  14.983 -0.8954  0.1888 -1.0461
  239MPD1    H2 3684   0.213   2.672  15.127  0.4337 -0.9003 -1.1631
  239MPD1    H3 3685   0.204   2.921  15.169 -0.4475  0.9889 -0.9548
  239MPD1     N 3686   0.227   3.028  14.725 -0.8236  0.2528  0.5462
  239MPD1    H5 3687   0.208   3.122  14.757  1.4089  1.0717 -0.5118
  239MPD1    N1 3688   0.264   2.566  14.891  0.4125 -0.7397  0.0367
  239MPD1    H6 3689   0.292   2.507  14.969 -0.9393 -3.4505 -1.5384
  239MPD1    H7 3690   0.337   2.546  14.823  0.3796  2.5170 -0.9307
  240MPD1     C 3691   4.512   2.372  13.634  0.2892  0.2208  0.4935
  240MPD1    C1 3692   4.401   2.309  13.675 -0.3254 -0.6952  0.2629
  240MPD1    C2 3693   4.393   2.301  13.815 -0.2062 -0.1274 -0.0808
  240MPD1    C3 3694   4.485   2.346  13.903  0.0373 -0.2022 -0.0471
  240MPD1    C4 3695   4.611   2.384  13.853  0.1992 -0.3892  0.0266
  240MPD1    C5 3696   4.617   2.391  13.718 -0.1373  0.3605  0.3658
  240MPD1     H 3697   4.302   2.260  13.859 -0.0113 -0.1200  0.3298
  240MPD1    H1 3698   4.693   2.427  13.910 -0.2125  1.1546 -0.5414
  240MPD1    H2 3699   4.537   2.392  13.530 -0.8885 -2.1939 -0.2480
  240MPD1    H3 3700   4.705   2.437  13.676 -1.1978  1.2263 -0.8783
  240MPD1     N 3701   4.457   2.324  14.041 -0.2875 -0.5388 -0.2018
  240MPD1    H5 3702   4.363   2.295  14.065  0.1717 -2.4409 -0.7354
  240MPD1    N1 3703   4.290   2.278  13.597 -0.2451 -0.4194  0.0514
  240MPD1    H6 3704   4.311   2.240  13.505  2.7446  1.5819 -0.0986
  240MPD1    H7 3705   4.232   2.213  13.649  0.0726 -1.0468 -0.3734
  241MPD1     C 3706   4.373   2.708  15.045 -0.9167 -0.3292  0.9176
  241MPD1    C1 3707   4.466   2.751  14.954  0.8052  0.2141  0.5710
  241MPD1    C2 3708   4.464   2.703  14.823  0.6806 -0.6188 -0.1496
  241MPD1    C3 3709   4.349   2.642  14.778 -0.0554  0.7933  0.3489
  241MPD1    C4 3710   4.253   2.602  14.867 -0.3028  0.5179  0.1027
  241MPD1    C5 3711   4.260   2.642  15.002  0.2460  0.9633 -0.1893
  241MPD1     H 3712   4.541   2.728  14.751 -1.0208  0.9930 -1.3981
  241MPD1    H1 3713   4.155   2.563  14.843  0.3038 -0.6903 -0.4069
  241MPD1    H2 3714   4.382   2.730  15.151 -0.5655  2.9891  0.2019
  241MPD1    H3 3715   4.178   2.610  15.066  0.4982 -0.6817 -0.6795
  241MPD1     N 3716   4.338   2.581  14.655  0.2755  0.0343 -0.6105
  241MPD1    H5 3717   4.251   2.531  14.642  0.4588 -0.9127  1.7008
  241MPD1    N1 3718   4.585   2.812  15.001 -0.1768  0.0078  0.2891
  241MPD1    H6 3719   4.570   2.863  15.088  0.6084  0.7982 -0.0386
  241MPD1    H7 3720   4.613   2.887  14.938  0.7772 -1.5715 -1.1664
  242MPD1     C 3721   4.311   0.181  15.960  0.1139  0.1023  0.5832
  242MPD1    C1 3722   4.437   0.234  15.965  0.5640 -0.8193 -0.4206
  242MPD1    C2 3723   4.458   0.368  15.940  0.2201 -0.1518 -0.1766
  242MPD1    C3 3724   4.359   0.438  15.871 -0.0072  0.1692  0.1140
  242MPD1    C4 3725   4.231   0.380  15.864  0.1429 -0.0591  0.6129
  242MPD1    C5 3726   4.216   0.250  15.900 -0.5665 -0.0615  0.0252
  242MPD1     H 3727   4.553   0.416  15.963  0.7300 -1.4185  0.3372
  242MPD1    H1 3728   4.149   0.422  15.808 -1.0902 -4.1774 -0.6515
  242MPD1    H2 3729   4.296   0.081  15.999  1.7749 -0.1618  0.5104
  242MPD1    H3 3730   4.114   0.213  15.899 -0.4668 -0.3770  1.3396
  242MPD1     N 3731   4.379   0.558  15.797  0.1848  0.3484  0.8504
  242MPD1    H5 3732   4.299   0.592  15.745 -0.2683 -0.4736  1.0185
  242MPD1    N1 3733   4.525   0.152  16.035 -0.1041 -0.1275  0.0119
  242MPD1    H6 3734   4.623   0.155  16.009  0.5952 -0.9694  2.5796
  242MPD1    H7 3735   4.527   0.176  16.134  1.6070  0.4844 -0.1688
  243MPD1     C 3736   1.130   4.066  17.457  0.1737  0.1206 -0.0911
  243MPD1    C1 3737   1.176   3.995  17.569 -0.0030  0.3274  0.0825
  243MPD1    C2 3738   1.296   3.916  17.548 -0.1990 -0.0429  0.2799
  243MPD1    C3 3739   1.353   3.909  17.420  0.9519  0.0408  0.3798
  243MPD1    C4 3740   1.289   3.960  17.313  0.6525  0.4903 -0.5177
  243MPD1    C5 3741   1.188   4.049  17.336  0.2721  0.2974 -0.1183
  243MPD1     H 3742   1.356   3.876  17.628 -1.9692 -0.0882  1.5804
  243MPD1    H1 3743   1.314   3.942  17.209 -2.4016  1.1115 -1.3649
  243MPD1    H2 3744   1.050   4.138  17.469  1.4836  1.9560 -2.4695
  243MPD1    H3 3745   1.142   4.096  17.250 -1.8318 -2.0269 -0.2680
  243MPD1     N 3746   1.468   3.834  17.402 -0.1382 -0.0873 -0.6226
  243MPD1    H5 3747   1.502   3.789  17.487  1.6268  3.7669  0.7630
  243MPD1    N1 3748   1.152   4.032  17.701  0.7497  0.0854 -0.2290
  243MPD1    H6 3749   1.178   3.959   0.019  1.9359 -0.6407 -1.5008
  243MPD1    H7 3750   1.059   4.067  17.726  0.2015  0.1386 -2.3597
  244MPD1     C 3751   1.631   2.836  17.349 -0.2918 -0.1342 -0.3040
  244MPD1    C1 3752   1.716   2.884  17.256 -0.6580 -0.3262  0.4982
  244MPD1    C2 3753   1.705   3.017  17.226 -0.0701 -0.1445  0.3391
  244MPD1    C3 3754   1.622   3.105  17.292 -0.6726  0.3384  0.0429
  244MPD1    C4 3755   1.538   3.046  17.388  0.1842  0.1753 -0.0023
  244MPD1    C5 3756   1.548   2.916  17.421  0.7577  0.0838  0.4662
  244MPD1     H 3757   1.782   3.042  17.153 -1.8989 -0.9972 -1.8992
  244MPD1    H1 3758   1.470   3.106  17.447 -2.5206 -1.4695 -1.4089
  244MPD1    H2 3759   1.641   2.733  17.383  0.0991  0.5888  1.8196
  244MPD1    H3 3760   1.476   2.872  17.490  1.5632 -2.4534 -0.3369
  244MPD1     N 3761   1.618   3.239  17.251 -0.8126  0.0655  0.4995
  244MPD1    H5 3762   1.691   3.256  17.181 -0.8558  0.9378  0.6687
  244MPD1    N1 3763   1.822   2.810  17.220 -0.1933 -0.0989  0.0345
  244MPD1    H6 3764   1.865   2.841  17.133  0.7584 -0.2743  0.4512
  244MPD1    H7 3765   1.797   2.711  17.214  2.3759 -0.6039 -1.9627
  245MPD1     C 3766   3.018   4.239  13.007 -0.1642  0.4378  0.2557
  245MPD1    C1 3767   2.935   4.346  12.978  0.2730  0.6960 -0.5019
  245MPD1    C2 3768   2.984   4.469  13.029  0.3605 -0.2472  0.2032
  245MPD1    C3 3769   3.113   4.476  13.090  0.1090  0.5325 -0.3214
  245MPD1    C4 3770   3.193   4.368  13.108  0.0662 -0.2790  0.0253
  245MPD1    C5 3771   3.142   4.249  13.065  0.4413  0.0603  0.1189
  245MPD1     H 3772   2.921   4.556  13.012 -0.2113 -1.1651 -2.4371
  245MPD1    H1 3773   3.291   4.367  13.153 -0.3681 -3.1724  0.8714
  245MPD1    H2 3774   2.985   4.144  12.966 -1.0761  0.7857  0.1808
  245MPD1    H3 3775   3.194   4.156  13.085  0.8646  0.3977  0.5686
  245MPD1     N 3776   3.157   4.600  13.139  0.1292  0.1314 -0.2083
  245MPD1    H5 3777   3.091   4.677  13.136 -2.4554 -2.1957 -3.1649
  245MPD1    N1 3778   2.804   4.327  12.942  0.8251 -0.1610 -0.2685
  245MPD1    H6 3779   2.772   4.402  12.881  2.8666  2.2467  1.6819
  245MPD1    H7 3780   2.798   4.240  12.888 -2.0864  0.5366 -1.0792
  246MPD1     C 3781   1.546   0.628   9.517 -0.1616 -0.1130  0.4324
  246MPD1    C1 3782   1.656   0.558   9.477 -0.3326  0.3962 -0.7639
  246MPD1    C2 3783   1.760   0.628   9.416  0.5876 -0.5313  0.3648
  246MPD1    C3 3784   1.743   0.758   9.375  1.1570  0.6012 -0.6269
  246MPD1    C4 3785   1.617   0.816   9.390  0.0521  0.6135 -0.3327
  246MPD1    C5 3786   1.522   0.752   9.464  0.3792 -0.4928  0.2470
  246MPD1     H 3787   1.850   0.576   9.387  0.3963  0.7921 -2.5731
  246MPD1    H1 3788   1.616   0.922   9.367 -1.7040  0.6853  0.0680
  246MPD1    H2 3789   1.473   0.587   9.586 -0.1154 -1.6301 -0.4145
  246MPD1    H3 3790   1.444   0.819   9.496 -1.3856 -2.4949  0.1593
  246MPD1     N 3791   1.854   0.818   9.325  0.1154 -0.2189  0.4770
  246MPD1    H5 3792   1.940   0.775   9.356  0.5539 -0.3560 -0.9065
  246MPD1    N1 3793   1.687   0.442   9.550  0.1600 -0.4053  0.3449
  246MPD1    H6 3794   1.602   0.389   9.568 -0.2222 -0.7370 -2.3399
  246MPD1    H7 3795   1.746   0.378   9.497 -0.5257 -1.2852  0.6504
  247MPD1     C 3796   2.243   4.049  16.550 -0.3924 -0.0611 -0.0116
  247MPD1    C1 3797   2.355   3.967  16.536 -0.1071  0.3962 -0.7465
  247MPD1    C2 3798   2.457   3.999  16.455  0.1422  0.3150 -0.0756
  247MPD1    C3 3799   2.432   4.102  16.362 -0.1472  0.1731 -0.2599
  247MPD1    C4 3800   2.315   4.177  16.362 -0.5520  0.7107  0.0731
  247MPD1    C5 3801   2.221   4.143  16.456 -0.9205 -0.3510  0.2077
  247MPD1     H 3802   2.548   3.941  16.453 -0.6190 -0.8770  0.2105
  247MPD1    H1 3803   2.308   4.257  16.289  1.3073 -1.1099 -2.1024
  247MPD1    H2 3804   2.165   4.026  16.621 -1.8484  2.2362 -0.8608
  247MPD1    H3 3805   2.133   4.206  16.450  0.2467  1.1101 -1.4669
  247MPD1     N 3806   2.520   4.145  16.259  0.4003 -0.0231  0.2548
  247MPD1    H5 3807   2.496   4.225  16.202 -0.7255  0.8282  1.9394
  247MPD1    N1 3808   2.374   3.863  16.632  0.2463  0.6082 -0.0252
  247MPD1    H6 3809   2.448   3.796  16.611 -0.7257  0.2715 -2.3394
  247MPD1    H7 3810   2.293   3.807  16.659  1.0084 -0.5035  0.0049
  248MPD1     C 3811   3.910   0.081   0.038  0.8238 -0.0071  0.4325
  248MPD1    C1 3812   3.913   0.201   0.093 -0.4129 -0.0925  0.5401
  248MPD1    C2 3813   3.814   0.243   0.179  0.7264 -0.1321 -0.0489
  248MPD1    C3 3814   3.716   0.157   0.217 -0.3867 -0.4093  0.8632
  248MPD1    C4 3815   3.724   0.025   0.177  0.0645  0.6189 -1.1671
  248MPD1    C5 3816   3.823   4.719   0.094  0.2124 -0.1737  0.2908
  248MPD1     H 3817   3.802   0.346   0.210 -2.2679 -0.3118 -0.5963
  248MPD1    H1 3818   3.651   4.692   0.215  0.3009  1.1142  0.2351
  248MPD1    H2 3819   3.985   0.055  17.713  2.8513  0.6690  2.2761
  248MPD1    H3 3820   3.826   4.616   0.060  0.3818 -0.1370  0.1921
  248MPD1     N 3821   3.604   0.214   0.290 -0.0370  0.1398  0.1333
  248MPD1    H5 3822   3.615   0.307   0.328 -2.1091  0.1924  0.5743
  248MPD1    N1 3823   3.995   0.298   0.039 -0.0238  0.2795  0.4030
  248MPD1    H6 3824   4.028   0.367   0.106 -1.2555 -0.9070  2.2043
  248MPD1    H7 3825   4.074   0.267  17.731 -1.6434 -2.8326 -0.1318
  249MPD1     C 3826   4.560   3.501  10.545  0.2882  0.1448 -0.1578
  249MPD1    C1 3827   4.585   3.511  10.682 -0.5108  0.1823 -0.9674
  249MPD1    C2 3828   4.639   3.630  10.734 -0.3459  0.6356 -0.0783
  249MPD1    C3 3829   4.666   3.736  10.649  0.1832  0.1321 -0.2580
  249MPD1    C4 3830   4.648   3.724  10.515  0.3854 -0.3467 -0.3809
  249MPD1    C5 3831   4.590   3.612  10.464  0.3541 -0.2185 -1.1183
  249MPD1     H 3832   4.661   3.634  10.840  1.6456 -0.8263 -0.4380
  249MPD1    H1 3833   4.677   3.799  10.442 -2.3141  3.0836  2.0414
  249MPD1    H2 3834   4.518   3.411  10.505  2.7376 -1.4552  0.8253
  249MPD1    H3 3835   4.584   3.596  10.357  0.4940 -1.2757 -0.9734
  249MPD1     N 3836   4.720   3.849  10.706  0.2695  0.3672 -0.1610
  249MPD1    H5 3837   0.009   3.834  10.802 -3.0739 -1.3986  0.4979
  249MPD1    N1 3838   4.568   3.399  10.766  0.0412  0.0942  0.5510
  249MPD1    H6 3839   4.553   3.428  10.862  0.2900 -1.0632  0.9400
  249MPD1    H7 3840   4.492   3.341  10.732  1.8155 -2.2146  0.5652
  250MPD2     C 3841   1.719   3.114  13.151  0.4639 -0.0367 -0.7537
  250MPD2    C1 3842   1.629   3.215  13.120  0.0475 -0.1916  0.3516
  250MPD2    C2 3843   1.512   3.186  13.041 -0.4802  0.5059 -0.2098
  250MPD2    C3 3844   1.502   3.062  12.989  0.2068  0.3536  0.1115
  250MPD2    C4 3845   1.597   2.966  13.016  0.6602 -0.0038 -0.4561
  250MPD2    C5 3846   1.706   2.992  13.094 -0.4791 -0.0103 -0.2648
  250MPD2     H 3847   1.439   3.261  13.014  0.5949  0.6108 -2.8727
  250MPD2    H1 3848   1.580   2.867  12.977 -1.1079 -0.0320  0.3966
  250MPD2    H2 3849   1.796   3.141  13.222  0.0124  0.1964 -0.3530
  250MPD2    H3 3850   1.763   2.904  13.122  0.2791  0.3587 -0.6515
  250MPD2     N 3851   1.392   3.023  12.909 -0.0103  0.0592  0.1852
  250MPD2    H5 3852   1.406   2.951  12.839 -1.6994  0.5144 -0.6102
  250MPD2    N1 3853   1.661   3.347  13.167  0.0429 -0.7821 -0.4355
  250MPD2    H7 3854   1.754   3.362  13.207  0.8830 -2.4125 -1.7975
  251TMC3    C1 3855   1.651   3.583  13.197 -0.1222  0.5030 -0.8349
  251TMC3    C2 3856   1.587   3.687  13.254  0.1677 -0.3290  0.5668
  251TMC3    C3 3857   1.654   3.801  13.285 -0.6778  0.0986  0.3346
  251TMC3    C4 3858   1.777   3.594  13.151  0.1497  0.5208 -0.1723
  251TMC3    C5 3859   1.846   3.707  13.185  0.2271 -0.4830  0.0415
  251TMC3    C6 3860   1.793   3.806  13.264  1.1734 -0.2444  0.1534
  251TMC3     C 3861   1.577   3.459  13.159  1.0383  0.0754 -0.7863
  251TMC3     O 3862   1.460   3.471  13.121  0.4452 -0.6520  0.1761
  251TMC3     H 3863   1.481   3.685  13.277 -0.6506 -0.1684 -3.2363
  251TMC3    H1 3864   1.828   3.509  13.106  1.7933  1.0617  0.6598
  251TMC3    H2 3865   1.845   3.889  13.309 -0.2483  0.6737  0.0879
  251TMC3    C7 3866   1.989   3.687  13.181 -0.5023  0.7357  0.1520
  251TMC3    C8 3867   1.603   3.905  13.364  0.5861  0.4734  0.2650
  251TMC3    O1 3868   2.024   3.577  13.219  0.5547  0.1354 -0.0092
  251TMC3    O2 3869   1.669   4.006  13.392  0.1554  0.0119 -0.0388
  252TMC3    C1 3870   1.814   0.857   9.824  0.6756 -0.7933  1.0638
  252TMC3    C2 3871   1.935   0.826   9.869 -0.1385  0.1560 -0.7747
  252TMC3    C3 3872   1.942   0.733   9.965 -0.3366  0.4266 -0.2714
  252TMC3    C4 3873   1.702   0.796   9.878 -0.2730  0.3453 -0.4740
  252TMC3    C5 3874   1.719   0.699   9.966  0.3323 -0.1035 -0.6467
  252TMC3    C6 3875   1.839   0.665  10.021  0.5486 -0.2817 -0.4401
  252TMC3     C 3876   1.789   0.953   9.714 -0.2399 -0.1220 -0.0940
  252TMC3     O 3877   1.674   0.991   9.700  0.0548 -0.2645  0.1846
  252TMC3     H 3878   2.025   0.882   9.844  0.6874 -0.0449  1.7546
  252TMC3    H1 3879   1.608   0.802   9.825 -0.8280 -0.5969  0.4112
  252TMC3    H2 3880   1.847   0.603  10.110  0.6243 -0.3811 -0.5149
  252TMC3    C7 3881   1.596   0.659  10.020 -0.7385  0.5694  0.4074
  252TMC3    C8 3882   2.086   0.685   9.982  0.5990  0.6405  0.7731
  252TMC3    O1 3883   1.495   0.722   9.995  0.3565 -0.1312 -0.7703
  252TMC3    O2 3884   2.177   0.771   9.973  0.0114 -0.0839  0.0301
  253MPD2     C 3885   2.463   4.113  15.814  0.3515 -0.0869  0.2332
  253MPD2    C1 3886   2.467   3.987  15.853  0.0633 -0.1316  1.4943
  253MPD2    C2 3887   2.390   3.936  15.954  0.3033 -0.4384  1.0908
  253MPD2    C3 3888   2.307   4.016  16.031 -0.1890 -0.4191 -0.5953
  253MPD2    C4 3889   2.296   4.144  15.990  0.4614 -0.5374  0.8082
  253MPD2    C5 3890   2.380   4.193  15.893 -1.1362 -0.4659  0.2074
  253MPD2     H 3891   2.404   3.833  15.986  0.6527 -1.0880 -1.1911
  253MPD2    H1 3892   2.227   4.215  16.035 -0.7097  0.0989 -1.9704
  253MPD2    H2 3893   2.528   4.147  15.735 -0.9003 -0.5328 -0.9836
  253MPD2    H3 3894   2.369   4.296  15.861  2.8069 -0.4721 -1.2476
  253MPD2     N 3895   2.227   3.963  16.133 -0.2710 -0.4281  0.5998
  253MPD2    H5 3896   2.169   4.030  16.182  1.8466  1.1765  0.9329
  253MPD2    N1 3897   2.557   3.893  15.800  0.3093 -0.1820 -0.4457
  253MPD2    H7 3898   2.555   3.800  15.838 -1.9777 -1.1983 -3.0278
  254TMC3    C1 3899   2.121   3.803  16.268 -0.1635  0.2132  0.0437
  254TMC3    C2 3900   2.020   3.895  16.283  0.5603  0.7655 -0.3078
  254TMC3    C3 3901   1.945   3.880  16.402  0.1263  0.5615 -0.2750
  254TMC3    C4 3902   2.145   3.702  16.359  0.4023  0.9433 -0.2526
  254TMC3    C5 3903   2.073   3.704  16.481  0.3319  0.5465  0.6143
  254TMC3    C6 3904   1.975   3.792  16.504 -0.2421  0.0029  0.2634
  254TMC3     C 3905   2.229   3.837  16.178  0.3599  0.6988 -0.0402
  254TMC3     O 3906   2.321   3.757  16.182  0.8985  0.1882 -0.5074
  254TMC3     H 3907   1.993   3.967  16.207 -0.5757  0.7298  0.0594
  254TMC3    H1 3908   2.226   3.631  16.342 -0.9677 -0.1434 -2.2200
  254TMC3    H2 3909   1.927   3.780  16.600  1.4516 -0.1259  1.0798
  254TMC3    C7 3910   2.127   3.631  16.591  0.4255  0.0152 -0.6439
  254TMC3    C8 3911   1.882   4.004  16.436  0.6424 -0.2564 -0.1005
  254TMC3    O1 3912   2.133   3.697  16.697  0.3446  0.3216  0.2990
  254TMC3    O2 3913   1.822   4.070  16.350  0.2365  0.1568  0.0557
  255MPD2     C 3914   1.508   1.969  10.275  0.3844  0.5516 -0.7274
  255MPD2    C1 3915   1.467   2.084  10.205  0.1151 -0.6713  0.1885
  255MPD2    C2 3916   1.503   2.101  10.072  0.0563 -0.2793  0.0342
  255MPD2    C3 3917   1.593   2.008  10.017  0.2101 -0.0117 -0.4205
  255MPD2    C4 3918   1.656   1.910  10.092 -1.1459  0.0195  0.2710
  255MPD2    C5 3919   1.611   1.891  10.221 -0.1001  0.3550  0.5732
  255MPD2     H 3920   1.461   2.179  10.010  0.8642  0.0132 -0.1462
  255MPD2    H1 3921   1.733   1.849  10.046 -0.2725  0.5409  1.0516
  255MPD2    H2 3922   1.462   1.937  10.368  0.3077 -1.0441 -1.3063
  255MPD2    H3 3923   1.651   1.809  10.281 -1.3055 -0.9461 -0.4058
  255MPD2     N 3924   1.613   2.024   9.879  1.0731  0.6269  0.8963
  255MPD2    H5 3925   1.554   2.096   9.839 -1.0491 -1.5886 -0.0117
  255MPD2    N1 3926   1.374   2.172  10.262  0.7273  0.8111 -0.1790
  255MPD2    H7 3927   1.327   2.146  10.348  0.5754  0.2455 -0.4305
  256TMC3    C1 3928   1.241   2.354  10.289 -0.4064  0.8375 -0.1547
  256TMC3    C2 3929   1.236   2.485  10.316 -0.1387  0.5578 -0.0548
  256TMC3    C3 3930   1.130   2.535  10.388  0.1351 -0.6690  0.2807
  256TMC3    C4 3931   1.127   2.273  10.298 -0.0954 -0.3767 -0.2042
  256TMC3    C5 3932   1.020   2.323  10.372 -0.0932 -1.1677  0.7402
  256TMC3    C6 3933   1.029   2.451  10.421 -0.7839 -0.5458  0.5205
  256TMC3     C 3934   1.353   2.299  10.216 -0.3379 -0.3433 -0.4957
  256TMC3     O 3935   1.408   2.373  10.135  0.2791 -1.0974 -0.2873
  256TMC3     H 3936   1.328   2.542  10.304  2.1062 -2.7365  1.5058
  256TMC3    H1 3937   1.130   2.166  10.278  1.3339 -0.7299  1.8703
  256TMC3    H2 3938   0.937   2.488  10.464  0.9723  2.9232  1.2510
  256TMC3    C7 3939   0.896   2.253  10.390 -0.3068  0.6036  0.1536
  256TMC3    C8 3940   1.094   2.679  10.389 -0.4386 -0.4453  0.4313
  256TMC3    O1 3941   0.805   2.315  10.437  0.2469  0.5287 -0.5522
  256TMC3    O2 3942   1.012   2.728  10.467  0.4866 -0.1287  0.1883
  257MPD2     C 3943   4.525   2.952  13.438 -0.2242  0.1455 -0.1708
  257MPD2    C1 3944   4.618   3.050  13.416 -0.2534 -0.7295 -0.7575
  257MPD2    C2 3945   0.001   3.048  13.484  0.5303 -0.1190  0.4249
  257MPD2    C3 3946   0.025   2.953  13.582  0.0569 -1.0390 -0.4316
  257MPD2    C4 3947   4.677   2.846  13.590  0.3654 -0.8277  0.1861
  257MPD2    C5 3948   4.559   2.842  13.519  0.2737  0.5419  0.0310
  257MPD2     H 3949   0.080   3.118  13.458 -0.9280  1.7262  0.9519
  257MPD2    H1 3950   4.692   2.765  13.660  0.7454 -1.8474 -1.0731
  257MPD2    H2 3951   4.427   2.942  13.394 -0.6651 -0.5085  0.9366
  257MPD2    H3 3952   4.486   2.763  13.535  0.5936  0.0638 -0.8980
  257MPD2     N 3953   0.147   2.954  13.659  0.0306  0.1239 -0.7303
  257MPD2    H5 3954   0.221   3.007  13.615  0.9661 -1.1353 -0.6836
  257MPD2    N1 3955   4.575   3.158  13.333  0.3673  0.1078 -0.0401
  257MPD2    H7 3956   4.482   3.137  13.298 -0.2431  1.0316  1.0174
  258TMC3    C1 3957   0.316   2.863  13.798 -0.1738 -0.7157 -0.8473
  258TMC3    C2 3958   0.410   2.834  13.699  0.4073 -0.2234 -0.5274
  258TMC3    C3 3959   0.534   2.810  13.753  0.8520 -0.1295 -0.7263
  258TMC3    C4 3960   0.342   2.879  13.933 -0.6053 -0.7311  0.3364
  258TMC3    C5 3961   0.474   2.871  13.978 -0.1617  0.3525  1.0204
  258TMC3    C6 3962   0.561   2.819  13.887  0.3623  0.0750  0.3323
  258TMC3     C 3963   0.178   2.864  13.757  0.4769  0.3726  0.5529
  258TMC3     O 3964   0.110   2.784  13.823 -0.2134  0.3045  0.1820
  258TMC3     H 3965   0.380   2.820  13.596  2.4735  0.8888 -1.3040
  258TMC3    H1 3966   0.261   2.907  13.999 -0.5751  0.3902 -0.1011
  258TMC3    H2 3967   0.660   2.781  13.910  2.0947  2.5500 -2.8862
  258TMC3    C7 3968   0.499   2.842  14.115  0.3288 -0.7433  0.9846
  258TMC3    C8 3969   0.638   2.749  13.664 -0.2563  0.0669  0.1065
  258TMC3    O1 3970   0.401   2.798  14.169  0.4458 -0.2801 -0.8158
  258TMC3    O2 3971   0.753   2.744  13.702 -0.5597  0.2101  0.3827
  259MPD2     C 3972   4.067   4.680   0.788 -0.4072 -0.4068 -0.0890
  259MPD2    C1 3973   4.192   4.707   0.848 -0.1635 -0.1817  0.2109
  259MPD2    C2 3974   4.306   4.638   0.808  0.3646  0.1428 -0.1215
  259MPD2    C3 3975   4.294   4.526   0.726  0.2570  0.9148 -0.6579
  259MPD2    C4 3976   4.168   4.492   0.680  0.4694  0.2669  0.7687
  259MPD2    C5 3977   4.057   4.562   0.719  0.1510  0.2914  0.9896
  259MPD2     H 3978   4.403   4.664   0.849 -0.4772  2.4664  0.3549
  259MPD2    H1 3979   4.157   4.398   0.626 -1.3466  0.8087  0.2147
  259MPD2    H2 3980   3.974   4.734   0.786  0.8681  1.8418  0.7744
  259MPD2    H3 3981   3.964   4.534   0.671  0.4920 -0.5416  0.8093
  259MPD2     N 3982   4.417   4.459   0.688  0.0713  0.3521 -0.4922
  259MPD2    H5 3983   4.501   4.480   0.743  0.2274  1.6293 -1.2013
  259MPD2    N1 3984   4.196   0.096   0.920 -0.6032  0.3127  0.0465
  259MPD2    H7 3985   4.105   0.136   0.938 -1.3215 -1.9763  1.4138
  260TMC3    C1 3986   4.561   4.352   0.524  0.4244 -0.2212  0.5452
  260TMC3    C2 3987   4.575   4.308   0.396 -0.5626  0.2435 -0.4048
  260TMC3    C3 3988   4.665   4.215   0.380  0.0778 -0.3529 -0.1550
  260TMC3    C4 3989   4.649   4.320   0.623  0.8090 -0.2032  0.3904
  260TMC3    C5 3990   0.006   4.231   0.600  0.3577  0.0864  0.1697
  260TMC3    C6 3991   0.013   4.168   0.475 -0.1345 -1.0993 -0.1019
  260TMC3     C 3992   4.427   4.379   0.571  0.0650 -0.0700  0.2124
  260TMC3     O 3993   4.331   4.337   0.501  0.2410 -0.2452  0.3036
  260TMC3     H 3994   4.511   4.349   0.318  1.2643  2.6541 -0.6481
  260TMC3    H1 3995   4.644   4.366   0.721 -1.4401  0.6300 -0.1061
  260TMC3    H2 3996   0.084   4.087   0.467  1.3786  0.3106 -0.8013
  260TMC3    C7 3997   0.075   4.163   0.713  0.0700  0.5016  0.6023
  260TMC3    C8 3998   4.639   4.125   0.262 -0.3919  0.1584 -0.1282
  260TMC3    O1 3999   0.188   4.138   0.684  0.8080 -0.4392 -0.1527
  260TMC3    O2 4000   4.607   4.179   0.156 -0.2100 -0.0867 -0.0660
  261MPD2     C 4001   0.738   3.446  12.718 -0.0115  0.1315  0.0071
  261MPD2    C1 4002   0.816   3.399  12.621 -0.7785  0.0644 -0.3307
  261MPD2    C2 4003   0.829   3.460  12.495 -0.4484 -0.9847  0.3671
  261MPD2    C3 4004   0.747   3.563  12.461 -0.2166 -0.5659 -0.2731
  261MPD2    C4 4005   0.660   3.606  12.553 -0.1902  0.1850 -0.1666
  261MPD2    C5 4006   0.657   3.548  12.678  0.6398  0.1081  0.3383
  261MPD2     H 4007   0.887   3.423  12.411  1.5729  1.9472  0.4814
  261MPD2    H1 4008   0.615   3.704  12.542 -0.4493  0.0364 -0.4335
  261MPD2    H2 4009   0.727   3.411  12.820 -0.8838 -3.3974 -1.2831
  261MPD2    H3 4010   0.589   3.575  12.757 -0.0372  1.7429 -0.7997
  261MPD2     N 4011   0.768   3.613  12.336 -0.1407 -0.3386 -0.4093
  261MPD2    H5 4012   0.842   3.572  12.279 -0.2841 -0.2467 -0.6655
  261MPD2    N1 4013   0.884   3.279  12.644 -1.2073  0.0147 -0.9458
  261MPD2    H7 4014   0.868   3.237  12.735 -1.9940  0.2915 -0.9487
  262TMC3    C1 4015   0.764   3.761  12.160  0.3487  0.2422 -0.5815
  262TMC3    C2 4016   0.702   3.853  12.083  0.2544  0.1279  0.5920
  262TMC3    C3 4017   0.763   3.887  11.965 -0.7940  0.4343 -0.3848
  262TMC3    C4 4018   0.878   3.701  12.118 -0.1737 -0.5838 -0.0768
  262TMC3    C5 4019   0.944   3.746  12.003 -0.0372  0.2993  0.1215
  262TMC3    C6 4020   0.887   3.848  11.928  0.3837 -0.2554 -0.5037
  262TMC3     C 4021   0.702   3.722  12.283  0.1543  0.7538  0.8691
  262TMC3     O 4022   0.610   3.789  12.336 -0.2568 -0.3386  0.4313
  262TMC3     H 4023   0.619   3.913  12.119 -0.0299  1.1317 -1.7325
  262TMC3    H1 4024   0.932   3.623  12.170  0.8550  0.6370  0.6974
  262TMC3    H2 4025   0.928   3.875  11.831 -0.7764 -0.3564 -1.0288
  262TMC3    C7 4026   1.092   3.743  12.000  0.0969  0.0691  0.5545
  262TMC3    C8 4027   0.720   4.010  11.911 -0.1514 -0.6654  0.0791
  262TMC3    O1 4028   1.148   3.642  12.044  0.2311  0.3974 -0.1479
  262TMC3    O2 4029   0.809   4.092  11.880 -0.1155  0.4762 -0.4633
  263MPD2     C 4030   1.752   2.757  11.474  0.2539  0.2866 -0.1599
  263MPD2    C1 4031   1.872   2.799  11.429  1.1969  0.5034  0.2728
  263MPD2    C2 4032   1.881   2.887  11.325  0.2287  0.1382  0.3380
  263MPD2    C3 4033   1.769   2.941  11.264 -0.2886 -0.9969  0.3013
  263MPD2    C4 4034   1.643   2.915  11.317 -0.3264  0.5810 -0.1481
  263MPD2    C5 4035   1.641   2.810  11.413  0.0420 -0.3621 -0.0524
  263MPD2     H 4036   1.977   2.911  11.280  0.5319  0.5004  1.1762
  263MPD2    H1 4037   1.548   2.956  11.286 -0.6454  1.5261  2.0736
  263MPD2    H2 4038   1.731   2.688  11.555 -1.4851  0.6705 -0.2769
  263MPD2    H3 4039   1.540   2.782  11.440  0.7226 -0.6645  2.2198
  263MPD2     N 4040   1.788   3.022  11.147  0.0202 -0.1383  0.0097
  263MPD2    H5 4041   1.885   3.047  11.134 -0.4751  1.5583 -0.4281
  263MPD2    N1 4042   1.982   2.733  11.487  0.0387 -0.1305 -0.2326
  263MPD2    H7 4043   1.964   2.654  11.547  0.5607 -0.8639 -1.0292
  264TMC3    C1 4044   1.733   3.163  10.963  0.1093  0.0282 -0.7112
  264TMC3    C2 4045   1.669   3.286  10.963  0.0693  0.1043  0.5500
  264TMC3    C3 4046   1.743   3.402  10.953 -0.5189 -0.0920 -0.0602
  264TMC3    C4 4047   1.862   3.161  10.921 -0.4819  0.2266 -0.9965
  264TMC3    C5 4048   1.933   3.281  10.902 -0.4184  0.3873  0.5433
  264TMC3    C6 4049   1.873   3.403  10.917 -0.3984  0.2905  0.2642
  264TMC3     C 4050   1.686   3.081  11.075  0.4366 -0.9605  0.4522
  264TMC3     O 4051   1.562   3.077  11.092 -0.1255 -0.1184  0.2798
  264TMC3     H 4052   1.571   3.292  11.007 -0.0879  0.7684  0.0990
  264TMC3    H1 4053   1.929   3.076  10.926 -2.0825 -0.8497  2.5047
  264TMC3    H2 4054   1.929   3.495  10.901  0.6488 -0.1561  1.3652
  264TMC3    C7 4055   2.070   3.270  10.864  0.3652  0.5439  0.1962
  264TMC3    C8 4056   1.729   3.505  11.048 -0.1115  0.6931  0.2170
  264TMC3    O1 4057   2.117   3.174  10.804  1.4802 -0.8504  0.6462
  264TMC3    O2 4058   1.790   3.608  11.028  0.4208  0.1105 -0.3823
  265MPD2     C 4059   3.824   3.023  15.671  0.7687 -0.2264 -0.1673
  265MPD2    C1 4060   3.831   3.150  15.609 -0.6505 -0.5897 -0.7963
  265MPD2    C2 4061   3.844   3.172  15.472  0.1315 -0.2482  0.0859
  265MPD2    C3 4062   3.860   3.055  15.401 -0.3600 -0.8029 -0.3825
  265MPD2    C4 4063   3.858   2.930  15.460  0.0516 -0.3865  0.2696
  265MPD2    C5 4064   3.824   2.917  15.593  0.3479 -0.4364 -0.2196
  265MPD2     H 4065   3.845   3.271  15.429 -2.7551  0.2229  1.0536
  265MPD2    H1 4066   3.866   2.837  15.405 -2.8841 -1.4409  1.5914
  265MPD2    H2 4067   3.834   3.008  15.778  0.4942  0.7251 -0.0146
  265MPD2    H3 4068   3.813   2.819  15.638  0.3342 -0.3494 -0.0347
  265MPD2     N 4069   3.888   3.053  15.264  0.2194  0.0614 -0.2925
  265MPD2    H5 4070   3.912   2.959  15.232 -1.6731 -0.5682  0.1555
  265MPD2    N1 4071   3.820   3.267  15.692 -0.2604  0.2888  0.2963
  265MPD2    H7 4072   3.828   3.359  15.650  1.6547 -1.1370 -2.4579
  266TMC3    C1 4073   3.784   3.401  15.870 -0.0943  0.5415  0.3796
  266TMC3    C2 4074   3.810   3.428  16.000 -0.5497  0.4686  0.5847
  266TMC3    C3 4075   3.801   3.558  16.038  0.4670 -0.4566  0.2767
  266TMC3    C4 4076   3.709   3.486  15.795  0.0457 -0.2948  0.1197
  266TMC3    C5 4077   3.700   3.616  15.841  0.2659 -0.3803  0.2147
  266TMC3    C6 4078   3.745   3.655  15.960  0.5207  0.0733 -0.4977
  266TMC3     C 4079   3.798   3.264  15.828  0.6904  0.4952 -0.0344
  266TMC3     O 4080   3.788   3.174  15.912  0.0454  0.0560  0.4458
  266TMC3     H 4081   3.872   3.357  16.052  1.2593  0.3774 -1.6845
  266TMC3    H1 4082   3.680   3.452  15.696 -0.6402 -0.7950  0.4947
  266TMC3    H2 4083   3.731   3.760  15.986 -0.2230  0.2358 -1.5433
  266TMC3    C7 4084   3.644   3.715  15.755 -0.5377 -0.1165  0.4184
  266TMC3    C8 4085   3.866   3.593  16.161  0.6067  0.2361 -0.7952
  266TMC3    O1 4086   3.609   3.815  15.810 -0.0782  0.2907 -0.1635
  266TMC3    O2 4087   3.919   3.505  16.227  0.4655  0.0187  0.2072
  267MPD2     C 4088   1.481   0.936   0.949 -0.5769 -0.4404 -0.0254
  267MPD2    C1 4089   1.457   0.800   0.945 -0.0529 -1.2316 -1.1022
  267MPD2    C2 4090   1.348   0.751   0.869  0.0832 -0.0401 -0.6323
  267MPD2    C3 4091   1.284   0.834   0.774 -0.4131  0.4132 -0.5532
  267MPD2    C4 4092   1.307   0.972   0.783 -0.2642  0.8490 -0.1308
  267MPD2    C5 4093   1.400   1.025   0.875 -0.2699 -0.1442 -0.0763
  267MPD2     H 4094   1.328   0.644   0.870 -0.3040  0.0367  0.2882
  267MPD2    H1 4095   1.253   1.039   0.717 -0.5651  1.6303  0.9160
  267MPD2    H2 4096   1.564   0.974   1.007  0.9555 -2.7963 -0.6608
  267MPD2    H3 4097   1.417   1.131   0.890  2.7747 -1.1706  3.7069
  267MPD2     N 4098   1.207   0.793   0.663 -0.0794  0.1640 -0.1952
  267MPD2    H5 4099   1.169   0.865   0.601  0.3800  0.2363 -0.3967
  267MPD2    N1 4100   1.552   0.717   1.008 -0.0353  0.8722 -0.1219
  267MPD2    H7 4101   1.643   0.753   1.035 -0.3537  0.6011  1.3425
  268TMC3    C1 4102   1.686   0.536   1.029  0.4063 -0.0063 -0.5018
  268TMC3    C2 4103   1.770   0.596   0.938  0.0344  0.1351  0.3293
  268TMC3    C3 4104   1.856   0.512   0.864  0.4099  0.1505  0.5791
  268TMC3    C4 4105   1.689   0.398   1.046 -0.1082 -0.3796 -0.1266
  268TMC3    C5 4106   1.778   0.323   0.981  0.2635 -0.4902  0.7017
  268TMC3    C6 4107   1.863   0.379   0.894  0.0785 -0.1384  0.3235
  268TMC3     C 4108   1.552   0.585   1.016 -0.1939 -0.1336 -0.1449
  268TMC3     O 4109   1.464   0.504   0.993  0.2406  0.6515  0.3924
  268TMC3     H 4110   1.778   0.704   0.928  0.4605  0.2467  1.8921
  268TMC3    H1 4111   1.609   0.358   1.108  0.0287 -2.0578 -1.0262
  268TMC3    H2 4112   1.921   0.313   0.830  0.4956 -1.6978  2.2937
  268TMC3    C7 4113   1.800   0.183   1.016 -0.0181 -0.1126  0.1306
  268TMC3    C8 4114   1.910   0.564   0.745  0.2766  0.1390  0.5741
  268TMC3    O1 4115   1.914   0.141   1.008 -0.0594  0.1325 -0.1885
  268TMC3    O2 4116   1.954   0.679   0.750 -0.2372 -0.3108  0.1583
  269MPD2     C 4117   1.918   3.490  15.931 -0.7815  0.1391  0.2204
  269MPD2    C1 4118   1.780   3.512  15.916 -0.0655 -0.0150  0.6094
  269MPD2    C2 4119   1.750   3.639  15.880  1.0758  0.3930  0.0099
  269MPD2    C3 4120   1.834   3.740  15.871 -0.1269 -0.0129 -0.6843
  269MPD2    C4 4121   1.968   3.721  15.895 -0.1376 -0.2935  0.3119
  269MPD2    C5 4122   2.006   3.591  15.915  0.3645 -0.5603 -0.9623
  269MPD2     H 4123   1.646   3.664  15.861  1.2488  0.3657 -1.0036
  269MPD2    H1 4124   2.040   3.801  15.890  2.1494 -2.2760  1.4146
  269MPD2    H2 4125   1.956   3.391  15.953 -0.7004 -0.1328 -1.1369
  269MPD2    H3 4126   2.111   3.572  15.930  0.5221  0.4513 -0.8065
  269MPD2     N 4127   1.776   3.865  15.837  0.1203 -0.3571 -0.3293
  269MPD2    H5 4128   1.679   3.871  15.806 -1.0944 -1.6553  3.1946
  269MPD2    N1 4129   1.681   3.411  15.929 -0.2637  0.3095  0.0038
  269MPD2    H7 4130   1.716   3.320  15.957  0.5804  0.9119  0.8879
  270TMC3    C1 4131   1.457   3.322  15.939  0.2991  0.8642 -0.4616
  270TMC3    C2 4132   1.364   3.320  15.835 -0.1913  0.3065 -0.1158
  270TMC3    C3 4133   1.280   3.210  15.837  0.5174 -0.5858  0.4137
  270TMC3    C4 4134   1.486   3.214  16.022 -0.3611  0.7321  0.0257
  270TMC3    C5 4135   1.402   3.106  16.013 -0.3176 -0.2937 -0.4123
  270TMC3    C6 4136   1.296   3.107  15.925  0.7155  0.2996  0.0075
  270TMC3     C 4137   1.538   3.437  15.930  0.7774  1.0980  0.1745
  270TMC3     O 4138   1.476   3.542  15.925 -0.2402  0.5413  0.2313
  270TMC3     H 4139   1.355   3.406  15.769 -0.8949  0.8590  0.7070
  270TMC3    H1 4140   1.564   3.220  16.097  0.9979  1.4621 -1.4469
  270TMC3    H2 4141   1.232   3.020  15.913  0.3126  0.9487 -2.7190
  270TMC3    C7 4142   1.470   2.984  16.032  0.2618 -0.0697  0.1573
  270TMC3    C8 4143   1.211   3.177  15.715 -0.4359 -0.3506  0.8878
  270TMC3    O1 4144   1.589   2.993  16.053  0.3059 -0.3710  0.3394
  270TMC3    O2 4145   1.100   3.122  15.727  0.6648 -0.1100  0.1061
  271MPD2     C 4146   1.018   3.515  13.951  0.6361  0.2224  0.0455
  271MPD2    C1 4147   0.978   3.477  14.079 -0.1798 -0.5203  0.4279
  271MPD2    C2 4148   0.851   3.508  14.123 -0.9127 -0.2687 -0.5122
  271MPD2    C3 4149   0.761   3.563  14.031 -0.6358  0.4692  0.3801
  271MPD2    C4 4150   0.799   3.588  13.901  0.1807  0.5808  0.3170
  271MPD2    C5 4151   0.926   3.559  13.863  0.7383  0.5754  0.1841
  271MPD2     H 4152   0.825   3.483  14.225  1.1531  0.2549  0.1472
  271MPD2    H1 4153   0.728   3.624  13.827  0.5045 -0.8769 -0.7100
  271MPD2    H2 4154   1.115   3.493  13.909  0.3894  1.2650 -1.0658
  271MPD2    H3 4155   0.959   3.576  13.762  1.7533  0.7245  0.5445
  271MPD2     N 4156   0.622   3.588  14.063 -0.2616 -0.1961 -0.4476
  271MPD2    H5 4157   0.570   3.645  13.997 -0.5274  0.8304  0.6415
  271MPD2    N1 4158   1.065   3.423  14.177  0.0677 -0.7822 -0.1006
  271MPD2    H7 4159   1.026   3.426  14.271  0.6076  1.2459  0.0454
  272TMC3    C1 4160   1.257   3.333  14.270  0.1687  0.2904 -0.3034
  272TMC3    C2 4161   1.362   3.246  14.258  0.1796 -0.8498  0.6514
  272TMC3    C3 4162   1.432   3.215  14.372  0.2557  0.3734 -0.2157
  272TMC3    C4 4163   1.249   3.409  14.386  0.2353 -0.1654 -0.2378
  272TMC3    C5 4164   1.314   3.372  14.500  0.7826 -0.3473 -0.1235
  272TMC3    C6 4165   1.412   3.273  14.498  0.0861  0.0632 -0.1152
  272TMC3     C 4166   1.193   3.378  14.148  0.6859 -0.0165 -0.1649
  272TMC3     O 4167   1.244   3.346  14.039 -0.1960  0.1672 -0.7354
  272TMC3     H 4168   1.373   3.191  14.165  1.8236  0.9827 -0.2326
  272TMC3    H1 4169   1.177   3.490  14.392  0.0935 -0.4439  2.0447
  272TMC3    H2 4170   1.475   3.244  14.582 -1.1378  1.6977  1.3472
  272TMC3    C7 4171   1.262   3.436  14.621 -0.2876 -0.2550 -0.3672
  272TMC3    C8 4172   1.534   3.114  14.353  0.3153 -0.1728  0.2604
  272TMC3    O1 4173   1.165   3.504  14.612 -0.1458 -0.2997  0.1693
  272TMC3    O2 4174   1.591   3.100  14.245  0.7550  0.6729 -0.1650
  273MPD2     C 4175   2.221   1.318  11.456 -0.1678  0.0013  0.1079
  273MPD2    C1 4176   2.268   1.438  11.509  0.4377  0.6577 -0.0711
  273MPD2    C2 4177   2.311   1.535  11.414  0.1821  0.1422  0.1397
  273MPD2    C3 4178   2.309   1.517  11.272  0.0479 -0.0809  0.4746
  273MPD2    C4 4179   2.264   1.393  11.227 -0.2207  0.0610 -0.4825
  273MPD2    C5 4180   2.220   1.302  11.317  0.4149  0.1553  0.3723
  273MPD2     H 4181   2.350   1.630  11.447  2.6897 -1.7478  2.5672
  273MPD2    H1 4182   2.272   1.366  11.122 -0.0505 -1.7401 -0.0180
  273MPD2    H2 4183   2.184   1.240  11.522 -0.5279  0.2940  0.2509
  273MPD2    H3 4184   2.169   1.214  11.278  1.1773 -0.1827  0.1368
  273MPD2     N 4185   2.362   1.605  11.172 -0.4615 -0.4263 -0.1657
  273MPD2    H5 4186   2.358   1.567  11.078  0.2137  1.3515 -0.9139
  273MPD2    N1 4187   2.271   1.451  11.648 -0.7644  0.2736  0.3151
  273MPD2    H7 4188   2.221   1.383  11.705 -1.8944  0.5375 -0.3624
  274TMC3    C1 4189   2.479   1.788  11.074  0.4033  0.7688  0.2639
  274TMC3    C2 4190   2.439   1.754  10.950  0.2430  0.4268  0.2853
  274TMC3    C3 4191   2.500   1.805  10.840  0.0100 -0.2272 -0.6080
  274TMC3    C4 4192   2.578   1.881  11.099  0.8075 -0.4709  0.2254
  274TMC3    C5 4193   2.634   1.938  10.990 -0.1937  0.0384  0.6896
  274TMC3    C6 4194   2.601   1.894  10.861 -0.2704  0.2839 -0.6522
  274TMC3     C 4195   2.416   1.726  11.196 -0.2477 -0.3633  0.1608
  274TMC3     O 4196   2.453   1.771  11.302  0.0088 -0.5988 -0.1936
  274TMC3     H 4197   2.339   1.713  10.949  0.3530  0.2036 -1.2470
  274TMC3    H1 4198   2.612   1.894  11.201  1.3020  0.7756 -0.1052
  274TMC3    H2 4199   2.657   1.932  10.776 -0.1606  2.6894  0.4869
  274TMC3    C7 4200   2.708   2.064  11.012  0.0939  0.1471  0.2937
  274TMC3    C8 4201   2.417   1.810  10.723 -0.5588  0.2578 -0.3016
  274TMC3    O1 4202   2.779   2.111  10.925  0.0977  0.4394  0.2163
  274TMC3    O2 4203   2.309   1.751  10.730  0.2164 -0.2376  0.6671
  275MPD2     C 4204   2.233   4.548  14.569  0.2937 -0.2472 -0.0130
  275MPD2    C1 4205   2.250   4.409  14.582  0.1273  0.5571 -0.0172
  275MPD2    C2 4206   2.130   4.325  14.569  0.1998 -0.1033 -0.1416
  275MPD2    C3 4207   2.006   4.374  14.545 -0.1552  0.5390 -0.2487
  275MPD2    C4 4208   1.999   4.514  14.547 -0.0430 -0.1677  0.1612
  275MPD2    C5 4209   2.108   4.595  14.557 -0.6412 -0.2999  0.0293
  275MPD2     H 4210   2.145   4.218  14.568  0.3481 -0.0820 -0.5449
  275MPD2    H1 4211   1.903   4.563  14.539 -0.9915 -2.1525 -0.5902
  275MPD2    H2 4212   2.320   4.611  14.563 -0.2456  0.3177 -1.8894
  275MPD2    H3 4213   2.102   4.702  14.540 -1.1990 -0.3898 -0.3234
  275MPD2     N 4214   1.888   4.300  14.528 -0.3260 -0.4565  1.2442
  275MPD2    H5 4215   1.797   4.344  14.521 -0.5081 -0.9255  0.6724
  275MPD2    N1 4216   2.378   4.343  14.598 -0.2545  0.4221  0.4738
  275MPD2    H7 4217   2.373   4.242  14.613  1.1893 -0.0438 -1.9887
  276TMC3    C1 4218   2.608   4.321  14.690 -0.6024  0.1044 -0.0319
  276TMC3    C2 4219   2.591   4.183  14.698 -0.1565  0.5720  0.0475
  276TMC3    C3 4220   2.671   4.115  14.786  0.2266 -0.3868  0.7844
  276TMC3    C4 4221   2.717   4.390  14.734 -0.1016 -0.1224 -0.0424
  276TMC3    C5 4222   2.806   4.309  14.806 -0.8694  0.0083  0.4218
  276TMC3    C6 4223   2.774   4.179  14.846  0.8775  0.1057  0.3138
  276TMC3     C 4224   2.496   4.408  14.637  0.1538 -0.3299  0.1692
  276TMC3     O 4225   2.523   4.528  14.625  0.4350  0.4301 -0.2065
  276TMC3     H 4226   2.525   4.124  14.635  0.6887  0.0280 -0.3254
  276TMC3    H1 4227   2.716   4.498  14.719 -1.4555 -0.1663 -0.2994
  276TMC3    H2 4228   2.850   4.127  14.904 -0.0143 -1.8909 -0.3021
  276TMC3    C7 4229   2.918   4.365  14.874  0.3760 -0.2842  0.2802
  276TMC3    C8 4230   2.685   3.967  14.769  0.3189 -0.1418 -0.8683
  276TMC3    O1 4231   2.957   4.315  14.978  0.1614  0.3077  0.2916
  276TMC3    O2 4232   2.614   3.914  14.684 -0.6307 -0.2845 -0.0231
  277MPD2     C 4233   4.472   3.462  13.558  0.4912  0.6012 -0.1382
  277MPD2    C1 4234   4.341   3.483  13.593  0.2119  0.8236  0.0387
  277MPD2    C2 4235   4.293   3.404  13.698 -0.0477 -0.2663  0.2293
  277MPD2    C3 4236   4.365   3.302  13.760 -0.0825  0.5667 -0.4582
  277MPD2    C4 4237   4.493   3.280  13.719 -0.2470 -0.2905 -0.4089
  277MPD2    C5 4238   4.546   3.360  13.621  0.3245  0.0014 -0.2895
  277MPD2     H 4239   4.193   3.426  13.732  0.8392  1.3711  1.7519
  277MPD2    H1 4240   4.552   3.200  13.760 -0.8719  0.2424  1.5331
  277MPD2    H2 4241   4.525   3.522  13.484  0.5528  0.4891 -0.1840
  277MPD2    H3 4242   4.649   3.343  13.592 -0.9317 -2.9648 -3.0554
  277MPD2     N 4243   4.317   3.219  13.864 -0.0463 -0.3595 -0.7619
  277MPD2    H5 4244   4.368   3.133  13.881  0.7192  0.1842 -0.3147
  277MPD2    N1 4245   4.264   3.572  13.530 -0.4502  0.8686  0.1599
  277MPD2    H7 4246   4.304   3.627  13.454  0.9131  2.4234  2.0110
  278TMC3    C1 4247   4.132   3.151  13.995 -0.0201 -0.3775 -0.1412
  278TMC3    C2 4248   4.156   3.025  13.949  0.4605  0.2037  0.5274
  278TMC3    C3 4249   4.057   2.928  13.961  0.4185 -0.2078 -0.1815
  278TMC3    C4 4250   4.022   3.180  14.064  0.4315 -0.2386 -0.3687
  278TMC3    C5 4251   3.921   3.085  14.082 -0.9109 -0.3670 -0.2172
  278TMC3    C6 4252   3.938   2.959  14.032 -0.4236  0.1600  0.4364
  278TMC3     C 4253   4.208   3.260  13.937 -0.4396  0.3880  0.0189
  278TMC3     O 4254   4.176   3.376  13.963  0.1772 -0.0368 -0.4275
  278TMC3     H 4255   4.249   2.989  13.906  0.8737  1.5582  0.3126
  278TMC3    H1 4256   4.007   3.279  14.106  3.0413  0.6543 -1.5471
  278TMC3    H2 4257   3.857   2.888  14.044 -0.6234  0.2463 -0.3802
  278TMC3    C7 4258   3.800   3.133  14.147  0.0755  0.6387 -0.1940
  278TMC3    C8 4259   4.070   2.797  13.893 -0.4804 -0.2673 -0.2763
  278TMC3    O1 4260   3.803   3.243  14.197  0.3736  0.7201 -0.1781
  278TMC3    O2 4261   4.187   2.759  13.888  0.3100 -0.3607 -0.1147
  279MPD2     C 4262   3.688   3.183   0.039 -0.4274 -0.3603 -0.6646
  279MPD2    C1 4263   3.664   3.280   0.136  0.3947 -0.0019  0.1733
  279MPD2    C2 4264   3.622   3.406   0.093  0.0231 -0.3107 -0.4398
  279MPD2    C3 4265   3.596   3.431  17.710  0.7565  0.6807  0.6855
  279MPD2    C4 4266   3.624   3.335  17.611  0.3619 -0.3369 -0.2528
  279MPD2    C5 4267   3.677   3.217  17.653 -0.1674 -0.4782  0.0343
  279MPD2     H 4268   3.603   3.480   0.170  0.2479  1.9734 -2.5842
  279MPD2    H1 4269   3.603   3.351  17.506 -1.3929  0.0345  0.1656
  279MPD2    H2 4270   3.698   3.083   0.080  1.5704  0.0514 -0.1243
  279MPD2    H3 4271   3.691   3.139  17.578 -1.2414 -2.3809  1.8108
  279MPD2     N 4272   3.520   3.545  17.666  0.5784  0.6591  0.4607
  279MPD2    H5 4273   3.491   3.546  17.569  0.3520 -2.6997  0.5265
  279MPD2    N1 4274   3.690   3.243   0.267 -0.0813 -0.1468  0.6126
  279MPD2    H7 4275   3.764   3.176   0.285 -0.1439 -1.0827 -2.6328
  280TMC3    C1 4276   3.509   3.332   0.393  0.3815 -0.2350 -0.1611
  280TMC3    C2 4277   3.433   3.252   0.319 -0.6534 -0.1589  0.1002
  280TMC3    C3 4278   3.321   3.299   0.250 -0.4714  0.0892  0.0692
  280TMC3    C4 4279   3.470   3.459   0.406  0.2568 -0.2055  0.0455
  280TMC3    C5 4280   3.349   3.505   0.346  0.0136 -0.0455  0.0740
  280TMC3    C6 4281   3.267   3.425   0.277  0.3891 -0.1460 -0.6185
  280TMC3     C 4282   3.655   3.319   0.374  0.3508  0.9274  0.2967
  280TMC3     O 4283   3.721   3.369   0.467 -0.0445  0.2522  0.4998
  280TMC3     H 4284   3.480   3.162   0.280  1.7027  2.3380 -2.8786
  280TMC3    H1 4285   3.537   3.520   0.466 -1.1392  2.1774 -0.8563
  280TMC3    H2 4286   3.175   3.458   0.230  0.6033  1.2587 -0.0570
  280TMC3    C7 4287   3.314   3.643   0.391 -0.7881  0.6321  0.4255
  280TMC3    C8 4288   3.289   3.230   0.125 -0.4910 -0.2855 -0.0538
  280TMC3    O1 4289   3.406   3.701   0.446  0.3478  0.1970  0.1848
  280TMC3    O2 4290   3.333   3.115   0.122  0.2707  0.1614 -0.3109
  281TMC3    C1 4291   2.207   3.459  13.490  0.0153  0.2166 -0.2581
  281TMC3    C2 4292   2.305   3.542  13.440 -0.3097 -0.2294 -0.1943
  281TMC3    C3 4293   2.390   3.492  13.343 -0.7343  0.1050 -0.1075
  281TMC3    C4 4294   2.201   3.327  13.461 -0.0882  0.2346 -0.4072
  281TMC3    C5 4295   2.289   3.283  13.360  0.0949 -0.0185 -0.0020
  281TMC3    C6 4296   2.387   3.364  13.305  0.2002 -0.4023  0.5591
  281TMC3     C 4297   2.083   3.515  13.542 -0.2339 -0.1902 -0.1685
  281TMC3     O 4298   1.994   3.441  13.586  0.0939 -0.3825 -0.0002
  281TMC3     H 4299   2.316   3.646  13.468 -0.0292 -0.4011  0.3525
  281TMC3    H1 4300   2.114   3.272  13.497  0.1042  0.7097  0.7840
  281TMC3    H2 4301   2.445   3.320  13.225  1.3294 -1.2207  1.8381
  281TMC3    C7 4302   2.251   3.162  13.285  0.6646  0.0248 -1.0699
  281TMC3    C8 4303   2.515   3.568  13.310 -0.1202 -0.0680  0.9302
  281TMC3    O1 4304   2.322   3.136  13.194  0.1609 -0.1180  0.5759
  281TMC3    O2 4305   2.611   3.490  13.329 -0.6378  0.6830 -0.1527
  282MPD2     C 4306   4.252   0.140  15.007 -0.3182 -0.0676  0.2171
  282MPD2    C1 4307   4.167   0.244  15.031  0.3386  0.3210 -0.2649
  282MPD2    C2 4308   4.083   0.278  14.927 -0.1437  0.4781  0.0129
  282MPD2    C3 4309   4.094   0.222  14.799  0.8724 -0.9425  0.0902
  282MPD2    C4 4310   4.187   0.116  14.774  0.5853  0.4894  0.5202
  282MPD2    C5 4311   4.267   0.084  14.880 -0.2779  0.2407  0.2892
  282MPD2     H 4312   4.025   0.370  14.930 -1.0695 -0.1150  0.3843
  282MPD2    H1 4313   4.199   0.060  14.682 -1.1855  0.6786  0.1737
  282MPD2    H2 4314   4.313   0.088  15.081  0.9522  0.1239 -0.6829
  282MPD2    H3 4315   4.350   0.017  14.858  0.1454  0.8065  0.1712
  282MPD2     N 4316   4.018   0.278  14.692  0.5478 -0.5843  0.1401
  282MPD2    H5 4317   3.951   0.347  14.725 -1.4863 -2.2647 -0.5170
  282MPD2    N1 4318   4.160   0.296  15.165 -0.5296 -0.0210 -0.2016
  282MPD2    H7 4319   4.113   0.386  15.169 -1.2299 -0.4069  0.2940
  283TMC3    C1 4320   4.145   0.284  15.402  0.5194 -0.4135 -0.3475
  283TMC3    C2 4321   4.130   0.418  15.399  0.4216 -0.6852  0.3064
  283TMC3    C3 4322   4.063   0.475  15.505  0.7183 -0.1877  0.3796
  283TMC3    C4 4323   4.079   0.201  15.495  0.5214 -0.0921  0.7099
  283TMC3    C5 4324   4.011   0.264  15.599  0.0583 -0.6302  0.1176
  283TMC3    C6 4325   4.005   0.400  15.599  0.5474 -0.1957  0.3374
  283TMC3     C 4326   4.184   0.222  15.278 -0.5421 -0.0238 -0.5364
  283TMC3     O 4327   4.225   0.107  15.286  1.1183 -0.5702 -0.2801
  283TMC3     H 4328   4.186   0.472  15.324 -2.5526  2.8684  0.6344
  283TMC3    H1 4329   4.085   0.094  15.482  0.4385  0.0156 -0.1712
  283TMC3    H2 4330   3.963   0.452  15.684 -2.4671 -1.2389 -0.5025
  283TMC3    C7 4331   3.907   0.205  15.682 -0.4481  1.6428  0.7843
  283TMC3    C8 4332   4.097   0.605  15.540  0.4656 -0.5464 -0.1075
  283TMC3    O1 4333   3.869   0.279  15.772 -0.4038  0.0089  0.4334
  283TMC3    O2 4334   4.113   0.644  15.658 -1.2208  0.3792 -0.0142
  284MPD2     C 4335   1.862   4.377  12.336 -0.1828 -0.3365  0.2189
  284MPD2    C1 4336   1.945   4.305  12.258  0.4972  0.6122  0.0398
  284MPD2    C2 4337   1.947   4.167  12.271 -0.6528 -0.2209  0.0147
  284MPD2    C3 4338   1.855   4.105  12.362  0.3581 -0.1454 -0.0080
  284MPD2    C4 4339   1.757   4.183  12.426 -0.0939  0.3629  0.5060
  284MPD2    C5 4340   1.763   4.317  12.408  0.1349  0.2218  0.3494
  284MPD2     H 4341   2.009   4.109  12.204 -0.2826 -0.8726  0.9081
  284MPD2    H1 4342   1.677   4.128  12.473  0.2064  0.0108  0.6080
  284MPD2    H2 4343   1.868   4.485  12.345 -0.8310 -0.3359  0.6888
  284MPD2    H3 4344   1.689   4.379  12.458  0.8214  1.5777 -0.3317
  284MPD2     N 4345   1.872   3.966  12.386  0.2218  0.0827  0.0726
  284MPD2    H5 4346   1.938   3.918  12.326  1.1650  1.2287  0.2023
  284MPD2    N1 4347   2.044   4.361  12.171  0.0265 -0.7474 -0.4815
  284MPD2    H7 4348   2.088   4.297  12.106  0.8052 -1.0843  0.3959
  285TMC3    C1 4349   2.149   4.511  12.032 -0.4091  0.3370 -0.1551
  285TMC3    C2 4350   2.247   4.417  12.000 -0.7228  0.0098  0.2418
  285TMC3    C3 4351   2.323   4.442  11.893 -0.0691  0.3166  0.3267
  285TMC3    C4 4352   2.131   4.633  11.970 -0.2430 -0.5551  0.6611
  285TMC3    C5 4353   2.223   4.655  11.863  0.5812  0.1962 -0.0262
  285TMC3    C6 4354   2.311   4.562  11.824  0.2742 -0.4176 -0.0160
  285TMC3     C 4355   2.061   4.491  12.145  1.2384  0.1287 -0.3008
  285TMC3     O 4356   2.014   4.588  12.198 -0.0579 -0.3353  0.0245
  285TMC3     H 4357   2.253   4.316  12.040 -0.5757 -0.1755 -0.2591
  285TMC3    H1 4358   2.048   4.701  11.987  0.5841  0.5013  0.4663
  285TMC3    H2 4359   2.361   4.584  11.730 -3.6732  1.9165 -1.6148
  285TMC3    C7 4360   2.227   0.038  11.781  0.3113 -0.0457 -0.1708
  285TMC3    C8 4361   2.370   4.337  11.810  0.2938  0.3346  0.1471
  285TMC3    O1 4362   2.330   0.082  11.740  0.7691  0.2170  0.5205
  285TMC3    O2 4363   2.315   4.234  11.814  0.1515  0.5908 -0.6816
  286MPD2     C 4364   3.225   3.771   1.111 -1.0294  0.8671 -0.0040
  286MPD2    C1 4365   3.136   3.673   1.065  0.1729 -0.2866  0.6597
  286MPD2    C2 4366   3.189   3.542   1.055 -0.3285 -0.0665 -0.0527
  286MPD2    C3 4367   3.317   3.508   1.105 -0.6819  0.5303  0.6445
  286MPD2    C4 4368   3.397   3.604   1.161 -0.0193  0.2366 -0.0239
  286MPD2    C5 4369   3.350   3.734   1.157 -0.0407 -0.1354  0.2252
  286MPD2     H 4370   3.126   3.466   1.010 -1.5831  2.2202 -2.1414
  286MPD2    H1 4371   3.492   3.579   1.205 -0.1801 -0.5720 -0.1417
  286MPD2    H2 4372   3.187   3.872   1.117 -1.4575  0.8099 -1.8180
  286MPD2    H3 4373   3.417   3.812   1.194 -0.6926  1.1514 -1.3128
  286MPD2     N 4374   3.355   3.374   1.126  0.3242  0.2822  0.3735
  286MPD2    H5 4375   3.444   3.354   1.171  1.2325 -0.1580 -1.6425
  286MPD2    N1 4376   3.001   3.702   1.030 -0.3578  0.3179  0.1781
  286MPD2    H7 4377   2.950   3.617   1.010  0.5906 -0.4039  0.8482
  287TMC3    C1 4378   3.350   3.136   1.130 -0.0601  0.4199 -0.3597
  287TMC3    C2 4379   3.322   3.024   1.059 -0.1116 -0.1148  0.0813
  287TMC3    C3 4380   3.321   2.901   1.129  0.0502 -0.4255  0.3409
  287TMC3    C4 4381   3.389   3.134   1.256  0.2294 -0.1139  0.4498
  287TMC3    C5 4382   3.405   3.014   1.318 -0.1809  0.1447 -0.6407
  287TMC3    C6 4383   3.386   2.893   1.249 -0.5296 -0.1110  0.0614
  287TMC3     C 4384   3.284   3.259   1.089 -0.5551  0.0639 -0.4443
  287TMC3     O 4385   3.182   3.247   1.030  0.3809 -0.3732  0.0858
  287TMC3     H 4386   3.302   3.034   0.953 -1.1260  2.0523  0.4720
  287TMC3    H1 4387   3.401   3.225   1.313  0.9416 -0.5503  1.0054
  287TMC3    H2 4388   3.376   2.798   1.302  0.3702  0.7875  1.8290
  287TMC3    C7 4389   3.494   3.006   1.426  0.5660 -0.5204  0.2721
  287TMC3    C8 4390   3.277   2.773   1.066 -0.7219 -0.0919 -0.5319
  287TMC3    O1 4391   3.487   3.096   1.508  0.3212  0.5704  0.1224
  287TMC3    O2 4392   3.214   2.692   1.131  0.1712 -0.4863 -0.2584
  288TMC3    C1 4393   3.834   3.025  14.507  0.2911 -0.6113  0.7417
  288TMC3    C2 4394   3.730   3.010  14.594  0.1942 -0.2954  0.2155
  288TMC3    C3 4395   3.691   3.119  14.660  0.1542 -0.3824 -0.6008
  288TMC3    C4 4396   3.893   3.138  14.483 -0.4335 -0.0642 -0.6265
  288TMC3    C5 4397   3.848   3.250  14.547  0.7321  0.3527 -0.6705
  288TMC3    C6 4398   3.744   3.244  14.634 -0.2566  0.1022 -0.2322
  288TMC3     C 4399   3.868   2.906  14.426 -0.0101 -0.2962 -0.4685
  288TMC3     O 4400   3.778   2.826  14.405 -0.5258 -0.1903 -0.8266
  288TMC3     H 4401   3.697   2.909  14.614 -2.3466  1.3381  4.2056
  288TMC3    H1 4402   3.976   3.149  14.413 -1.2772  1.8602 -1.3224
  288TMC3    H2 4403   3.728   3.325  14.704 -1.2810  1.4011 -1.9497
  288TMC3    C7 4404   3.924   3.380  14.551 -0.1053  0.2903  0.2711
  288TMC3    C8 4405   3.632   3.100  14.794 -0.4933  0.0080  0.1139
  288TMC3    O1 4406   3.908   3.458  14.645  0.3104 -0.7215  0.7100
  288TMC3    O2 4407   3.653   3.200  14.861  0.0583 -0.2593 -0.9930
  289MPD2     C 4408   4.093   1.868  14.254  0.5008 -0.6775 -0.0023
  289MPD2    C1 4409   4.067   1.984  14.322  0.1662  0.0040 -0.3945
  289MPD2    C2 4410   3.932   1.998  14.372  0.0092  0.0051 -0.0647
  289MPD2    C3 4411   3.828   1.906  14.337  0.4195  0.3470  0.1654
  289MPD2    C4 4412   3.864   1.796  14.266  0.1720 -0.7905 -0.4396
  289MPD2    C5 4413   3.994   1.779  14.223 -0.4100  0.3867  0.0193
  289MPD2     H 4414   3.917   2.090  14.428  0.3806  0.7937 -1.2624
  289MPD2    H1 4415   3.794   1.718  14.239 -1.3167 -0.0315  1.1880
  289MPD2    H2 4416   4.195   1.837  14.234  1.0090  0.1255  1.3343
  289MPD2    H3 4417   4.007   1.693  14.158 -1.6548 -0.2024  0.5536
  289MPD2     N 4418   3.689   1.913  14.361  0.2922  0.0643 -0.3713
  289MPD2    H5 4419   3.628   1.835  14.339 -1.1147  1.3382 -0.9744
  289MPD2    N1 4420   4.176   2.069  14.342  0.1766 -0.0339 -0.5194
  289MPD2    H7 4421   4.261   2.049  14.289  0.3145 -0.3073 -0.1947
  290TMC3    C1 4422   3.482   2.008  14.453  1.2381 -0.4968 -0.0440
  290TMC3    C2 4423   3.405   2.119  14.472  0.0731 -0.3439 -0.3693
  290TMC3    C3 4424   3.271   2.115  14.452 -0.4147 -0.4910  0.0933
  290TMC3    C4 4425   3.428   1.888  14.433  0.2384  0.2603  0.0346
  290TMC3    C5 4426   3.291   1.888  14.426  0.3964  0.0892  0.6611
  290TMC3    C6 4427   3.211   1.995  14.429 -0.1738 -0.3443 -0.1364
  290TMC3     C 4428   3.629   2.025  14.424  0.5313  0.7678 -0.5992
  290TMC3     O 4429   3.689   2.134  14.439  0.0433  0.6332  0.7316
  290TMC3     H 4430   3.458   2.213  14.488  2.2408 -1.9303  1.8398
  290TMC3    H1 4431   3.481   1.796  14.456 -0.0938 -0.1665 -0.8828
  290TMC3    H2 4432   3.103   1.986  14.437 -0.4167  2.3033 -0.4640
  290TMC3    C7 4433   3.225   1.760  14.428  0.3965  0.3312 -0.5236
  290TMC3    C8 4434   3.191   2.233  14.419  0.6651  0.0876 -0.2970
  290TMC3    O1 4435   3.112   1.738  14.475  0.3218  0.0924 -0.7972
  290TMC3    O2 4436   3.081   2.211  14.367 -0.5517  0.0614 -0.3011
  291MPD2     C 4437   4.391   2.245   0.464 -0.2721  0.0294 -0.4412
  291MPD2    C1 4438   4.322   2.149   0.383 -0.1182 -0.3518  0.6392
  291MPD2    C2 4439   4.337   2.161   0.251  0.2382  0.2042  0.7936
  291MPD2    C3 4440   4.423   2.255   0.194 -0.5592 -0.6184  0.0964
  291MPD2    C4 4441   4.502   2.338   0.273 -0.4930 -1.0977  0.1505
  291MPD2    C5 4442   4.485   2.327   0.410  0.0968 -0.2624 -0.3816
  291MPD2     H 4443   4.279   2.096   0.186  1.0218 -0.4175  0.7126
  291MPD2    H1 4444   4.552   2.429   0.245  0.7867 -1.4866  1.2201
  291MPD2    H2 4445   4.376   2.247   0.571 -1.6343 -1.4504 -0.6101
  291MPD2    H3 4446   4.545   2.391   0.474  0.4080 -3.2408  2.2455
  291MPD2     N 4447   4.435   2.280   0.055  0.5585 -0.0772  0.5068
  291MPD2    H5 4448   4.505   2.346   0.025  0.6810  0.2470  1.5027
  291MPD2    N1 4449   4.227   2.052   0.428  0.1701 -0.2768 -0.4129
  291MPD2    H7 4450   4.180   2.005   0.351 -0.9468  0.9144 -0.4648
  292TMC3    C1 4451   4.066   1.971   0.589 -0.1447  0.0276  0.5121
  292TMC3    C2 4452   3.985   2.017   0.689  0.3224 -1.3846 -0.3321
  292TMC3    C3 4453   3.859   1.955   0.688 -0.3181 -0.0497  0.1402
  292TMC3    C4 4454   4.027   1.875   0.496  0.4144 -0.0609  0.5924
  292TMC3    C5 4455   3.909   1.815   0.508  0.0314  0.0795 -0.4417
  292TMC3    C6 4456   3.822   1.847   0.607  0.0233  0.2189  0.5314
  292TMC3     C 4457   4.184   2.044   0.563  0.1617 -0.1108  0.2116
  292TMC3     O 4458   4.224   2.105   0.659 -0.0959  0.5503 -0.3979
  292TMC3     H 4459   4.016   2.088   0.765  4.2960 -0.5378 -2.7720
  292TMC3    H1 4460   4.104   1.844   0.426  1.3912  1.5938  0.9469
  292TMC3    H2 4461   3.733   1.787   0.622  0.4717 -0.2023  1.4902
  292TMC3    C7 4462   3.873   1.718   0.403  0.3790 -0.0136  0.3274
  292TMC3    C8 4463   3.773   1.989   0.799  0.2831 -0.0782  0.3271
  292TMC3    O1 4464   3.966   1.657   0.356  0.3532 -0.7463  0.5310
  292TMC3    O2 4465   3.817   2.065   0.880  0.2321 -0.3975 -0.2220
  293MPD2     C 4466   0.100   3.220  12.857  0.7749  0.9279 -0.6503
  293MPD2    C1 4467   0.075   3.143  12.966  0.6845 -0.0186 -0.1373
  293MPD2    C2 4468   0.169   3.122  13.062  0.2561 -0.0243  0.1833
  293MPD2    C3 4469   0.290   3.178  13.051 -0.1129 -0.0902 -0.5432
  293MPD2    C4 4470   0.327   3.251  12.942 -0.3706  0.0094  0.4679
  293MPD2    C5 4471   0.230   3.275  12.845  0.1862 -0.4446 -0.5074
  293MPD2     H 4472   0.152   3.064  13.152  0.2858 -0.5890 -0.1795
  293MPD2    H1 4473   0.425   3.296  12.939 -0.8082  0.9850  0.7850
  293MPD2    H2 4474   0.021   3.250  12.790  0.7623  1.2962 -0.4693
  293MPD2    H3 4475   0.246   3.347  12.766 -0.2436  0.5226  0.2906
  293MPD2     N 4476   0.374   3.161  13.167  0.4219 -0.1703  1.5357
  293MPD2    H5 4477   0.332   3.111  13.245 -2.3583  0.8079  0.6904
  293MPD2    N1 4478   4.683   3.091  12.965 -0.5894 -0.6059  0.0193
  293MPD2    H7 4479   4.622   3.105  12.885 -0.3484  1.4684  0.1861
  294TMC3    C1 4480   4.531   2.920  13.002 -0.0910  0.0088  0.3988
  294TMC3    C2 4481   4.533   2.786  12.995  0.6777 -0.1294 -1.4979
  294TMC3    C3 4482   4.465   2.725  12.895 -0.3814 -0.0801 -0.6545
  294TMC3    C4 4483   4.454   2.988  12.913 -0.2886 -0.5209  0.6122
  294TMC3    C5 4484   4.383   2.917  12.815  0.7340 -0.7179 -0.4883
  294TMC3    C6 4485   4.385   2.784  12.807  0.0718 -0.3254  0.7639
  294TMC3     C 4486   4.643   2.991  13.053  0.6898  0.5905 -0.7013
  294TMC3     O 4487   4.708   2.932  13.136  0.7881  0.1406 -0.3499
  294TMC3     H 4488   4.597   2.732  13.064 -0.9859 -0.1787 -0.0024
  294TMC3    H1 4489   4.459   3.096  12.928  1.2862 -0.9621  3.1599
  294TMC3    H2 4490   4.349   2.741  12.715  2.8022 -1.1497  0.0727
  294TMC3    C7 4491   4.378   3.000  12.698 -0.1946 -0.0063  0.3713
  294TMC3    C8 4492   4.517   2.595  12.861 -0.4798  0.3837 -0.6912
  294TMC3    O1 4493   4.267   3.050  12.668 -0.0895  0.3629  0.1983
  294TMC3    O2 4494   4.553   2.529  12.959  0.4162  0.5319  0.0650
  295MPD2     C 4495   0.387   2.077   0.833  0.1500 -0.4210 -0.1657
  295MPD2    C1 4496   0.423   2.182   0.754 -0.3089  0.4198  0.0158
  295MPD2    C2 4497   0.377   2.305   0.787 -0.1297 -0.4123  0.1580
  295MPD2    C3 4498   0.284   2.318   0.894 -0.4490 -0.2482  0.1455
  295MPD2    C4 4499   0.246   2.212   0.968  0.0104 -0.0053 -0.0113
  295MPD2    C5 4500   0.302   2.091   0.935  0.9133  0.3817  0.3875
  295MPD2     H 4501   0.416   2.389   0.729  0.3460 -1.1461 -0.5799
  295MPD2    H1 4502   0.176   2.226   1.049 -1.1725 -3.5294 -0.4714
  295MPD2    H2 4503   0.419   1.977   0.805 -0.6215 -0.6508 -0.2225
  295MPD2    H3 4504   0.273   2.010   1.000 -1.0356  0.7287 -0.0394
  295MPD2     N 4505   0.240   2.442   0.937  0.2253  0.0455 -0.0807
  295MPD2    H5 4506   0.181   2.436   1.019  0.0009  1.5314 -0.1386
  295MPD2    N1 4507   0.510   2.165   0.651 -0.1794  0.0693 -0.2414
  295MPD2    H7 4508   0.536   2.252   0.607  0.8402 -0.4833 -0.7252
  296TMC3    C1 4509   0.239   2.673   0.945  0.0220  0.0990  0.1386
  296TMC3    C2 4510   0.249   2.793   0.879  0.1584 -0.5388  0.0029
  296TMC3    C3 4511   0.257   2.912   0.952  0.1782  0.0977 -0.3422
  296TMC3    C4 4512   0.229   2.671   1.085 -0.5553 -0.3441  0.1604
  296TMC3    C5 4513   0.230   2.794   1.152 -1.0283  0.3169 -0.2646
  296TMC3    C6 4514   0.245   2.916   1.092 -0.3273 -0.1860  0.1393
  296TMC3     C 4515   0.258   2.560   0.871 -0.2733 -0.7712 -0.1223
  296TMC3     O 4516   0.292   2.579   0.755 -0.2720 -0.6201 -0.6076
  296TMC3     H 4517   0.240   2.797   0.772  0.1047  1.4345  0.0889
  296TMC3    H1 4518   0.219   2.573   1.131 -2.0756 -0.8194 -1.1392
  296TMC3    H2 4519   0.265   3.005   1.151 -1.2773  1.5387 -2.1828
  296TMC3    C7 4520   0.225   2.791   1.299  0.0221  0.0769  0.1364
  296TMC3    C8 4521   0.280   3.032   0.891 -0.2799 -0.2732  0.0998
  296TMC3    O1 4522   0.212   2.905   1.338 -0.5471  0.2867 -0.0970
  296TMC3    O2 4523   0.229   3.050   0.781 -0.3347  0.1266 -0.4344
  297MPD2     C 4524   3.525   3.991  16.904  0.1578  0.8114  0.8165
  297MPD2    C1 4525   3.411   4.039  16.843 -0.4098 -0.5259  0.1825
  297MPD2    C2 4526   3.424   4.104  16.728 -0.1679  0.1589  0.2436
  297MPD2    C3 4527   3.554   4.134  16.683  0.0413 -0.1373  0.3125
  297MPD2    C4 4528   3.666   4.081  16.745 -0.0896  0.2637  0.0946
  297MPD2    C5 4529   3.653   4.015  16.862  0.1780  0.3860 -0.1911
  297MPD2     H 4530   3.338   4.140  16.673  0.9277  1.1558 -0.8205
  297MPD2    H1 4531   3.764   4.107  16.706 -0.8832  2.0353 -0.6993
  297MPD2    H2 4532   3.523   3.940  17.000 -1.6962 -0.3629  0.1378
  297MPD2    H3 4533   3.728   3.977  16.931 -0.9307 -0.3198  0.6384
  297MPD2     N 4534   3.557   4.226  16.576 -0.6216 -0.4407 -0.5612
  297MPD2    H5 4535   3.472   4.236  16.523 -0.9571 -1.2692 -0.1892
  297MPD2    N1 4536   3.277   4.030  16.900 -0.0761 -0.1321  0.0266
  297MPD2    H7 4537   3.200   4.064  16.844  1.8578 -1.1356 -3.2807
  298TMC3    C1 4538   3.094   3.966  17.042 -0.2257  0.5950  0.7366
  298TMC3    C2 4539   3.036   3.849  17.068  0.4372 -0.0467 -0.3662
  298TMC3    C3 4540   2.903   3.841  17.050  0.6803 -0.0804  1.2489
  298TMC3    C4 4541   3.027   4.075  16.990 -0.3325 -0.6131  0.5950
  298TMC3    C5 4542   2.891   4.066  16.985 -0.0629  0.1084 -0.4639
  298TMC3    C6 4543   2.826   3.950  17.021  0.0709 -0.2119  0.1895
  298TMC3     C 4544   3.243   3.968  17.021  0.1436  0.6557 -0.6266
  298TMC3     O 4545   3.315   3.903  17.097  0.5876  0.8141  0.3140
  298TMC3     H 4546   3.092   3.759  17.091 -0.7513 -0.7923 -0.3974
  298TMC3    H1 4547   3.080   4.166  16.964  2.4270 -1.7086  2.3241
  298TMC3    H2 4548   2.718   3.947  17.029 -0.0270  0.3190 -0.8250
  298TMC3    C7 4549   2.815   4.187  16.971  0.8144 -1.2074 -0.1231
  298TMC3    C8 4550   2.836   3.719  17.066  0.7354 -0.1507 -0.2805
  298TMC3    O1 4551   2.875   4.292  16.991 -0.2314  0.2669  0.2121
  298TMC3    O2 4552   2.741   3.711  16.989 -0.2141 -0.3490 -0.2073
  299MPD2     C 4553   3.631   3.560  11.363 -0.3642 -0.4947 -0.2839
  299MPD2    C1 4554   3.659   3.652  11.274  0.9236 -0.6206 -0.1459
  299MPD2    C2 4555   3.608   3.629  11.151  0.3779 -0.2259 -0.7186
  299MPD2    C3 4556   3.527   3.529  11.115  0.6742  0.9710  0.8583
  299MPD2    C4 4557   3.497   3.441  11.208 -0.4164 -0.3405  0.2028
  299MPD2    C5 4558   3.544   3.462  11.335  0.0409 -0.2530  0.0952
  299MPD2     H 4559   3.642   3.693  11.070 -0.4541  1.8307  0.5550
  299MPD2    H1 4560   3.421   3.365  11.195 -0.8225  0.0569  0.2454
  299MPD2    H2 4561   3.646   3.567  11.470 -0.5228 -0.5119 -0.2606
  299MPD2    H3 4562   3.527   3.390  11.415 -3.2854  0.8260  0.3665
  299MPD2     N 4563   3.473   3.517  10.982 -0.2759  0.7469  0.8116
  299MPD2    H5 4564   3.420   3.433  10.964  0.5852  0.0137  1.6930
  299MPD2    N1 4565   3.754   3.746  11.315 -0.6534  0.6853  0.1027
  299MPD2    H7 4566   3.784   3.740  11.411  1.3958 -0.5869 -0.6250
  300TMC3    C1 4567   3.370   3.588  10.786 -0.9487 -0.2786 -0.5547
  300TMC3    C2 4568   3.339   3.693  10.710 -0.2676  0.1754  1.2089
  300TMC3    C3 4569   3.217   3.707  10.651 -0.0759  0.0809  0.2544
  300TMC3    C4 4570   3.292   3.481  10.787  0.0791  0.6780 -0.7545
  300TMC3    C5 4571   3.175   3.491  10.715 -0.3754 -0.4529  0.5384
  300TMC3    C6 4572   3.126   3.599  10.652  0.8695 -0.1370  0.0591
  300TMC3     C 4573   3.459   3.624  10.892  0.1339 -0.4691  0.1666
  300TMC3     O 4574   3.499   3.737  10.888 -0.1388 -0.2241 -0.5547
  300TMC3     H 4575   3.404   3.779  10.702 -1.4268  1.0889  1.5327
  300TMC3    H1 4576   3.338   3.385  10.807 -0.7764  0.9237  2.4530
  300TMC3    H2 4577   3.029   3.604  10.603  0.6648  0.4963  0.5252
  300TMC3    C7 4578   3.076   3.395  10.760  0.4304  0.4112  0.6144
  300TMC3    C8 4579   3.169   3.841  10.615  0.0653  0.5366  0.2829
  300TMC3    O1 4580   3.099   3.277  10.740 -0.4661 -0.1002  0.6069
  300TMC3    O2 4581   3.239   3.930  10.664 -0.3299 -0.1034  0.1118
  301MPD2     C 4582   1.287   0.834   1.214 -1.2449 -0.2988 -0.5370
  301MPD2    C1 4583   1.170   0.769   1.189  0.2665 -0.4323  0.2124
  301MPD2    C2 4584   1.148   0.646   1.247  0.2900  0.4754  0.2474
  301MPD2    C3 4585   1.255   0.576   1.311  0.0377 -0.2439  0.0257
  301MPD2    C4 4586   1.376   0.640   1.321  1.0099 -0.4682  1.0260
  301MPD2    C5 4587   1.392   0.763   1.267 -0.0097 -0.1322 -0.9600
  301MPD2     H 4588   1.055   0.600   1.216  0.3329  1.5009 -1.3623
  301MPD2    H1 4589   1.459   0.583   1.360  2.6687 -1.2227 -3.6200
  301MPD2    H2 4590   1.307   0.928   1.164  0.7980 -0.1439  0.5822
  301MPD2    H3 4591   1.493   0.802   1.265 -0.2134  0.4576  0.2739
  301MPD2     N 4592   1.255   0.446   1.363 -1.0194 -0.4366  0.2231
  301MPD2    H5 4593   1.346   0.417   1.398 -0.7545 -1.0298 -0.9583
  301MPD2    N1 4594   1.066   0.809   1.109 -0.5496 -0.1379 -0.3189
  301MPD2    H7 4595   0.990   0.744   1.097 -0.3301 -0.4153 -0.2012
  302TMC3    C1 4596   1.181   0.222   1.373  0.3650 -0.4468 -0.0310
  302TMC3    C2 4597   1.285   0.190   1.455  0.2727  0.3325 -0.0659
  302TMC3    C3 4598   1.327   0.060   1.445 -0.4023  0.2782 -0.0168
  302TMC3    C4 4599   1.114   0.135   1.294  0.6484 -0.8657 -0.3929
  302TMC3    C5 4600   1.153   0.001   1.298  0.1455 -0.5584  0.9833
  302TMC3    C6 4601   1.262   4.707   1.372  0.0640  0.0236 -0.3604
  302TMC3     C 4602   1.150   0.361   1.348 -0.2806  0.0940 -0.4074
  302TMC3     O 4603   1.043   0.383   1.289  0.9489 -0.5715  0.3135
  302TMC3     H 4604   1.335   0.269   1.510  2.2527 -0.6530 -0.4617
  302TMC3    H1 4605   1.025   0.163   1.239 -1.2310  0.8671  3.4812
  302TMC3    H2 4606   1.300   4.605   1.378  1.5811  0.4492 -2.5898
  302TMC3    C7 4607   1.090   4.639   1.216  0.5998 -0.3036  0.1006
  302TMC3    C8 4608   1.416   0.008   1.554 -0.1933 -0.4325 -0.2365
  302TMC3    O1 4609   1.109   4.528   1.254 -0.2162 -0.1417  0.1394
  302TMC3    O2 4610   1.456   4.631   1.537 -0.7896  0.2791 -0.1121
  303MPD2     C 4611   1.040   3.527  11.165  0.7879 -0.1251 -0.1999
  303MPD2    C1 4612   0.973   3.440  11.081 -0.0964  1.1336  0.1058
  303MPD2    C2 4613   0.924   3.493  10.961  0.1724 -0.3551  0.1071
  303MPD2    C3 4614   0.921   3.629  10.942 -0.0757  0.6695  0.7952
  303MPD2    C4 4615   0.998   3.711  11.012 -0.0898  0.9187  0.1188
  303MPD2    C5 4616   1.062   3.660  11.125 -0.3940 -0.1303  0.6232
  303MPD2     H 4617   0.886   3.430  10.882  0.4994  0.0727 -0.3890
  303MPD2    H1 4618   1.008   3.817  10.988  0.5142  0.7403 -0.4289
  303MPD2    H2 4619   1.089   3.487  11.253  0.9790  2.2799  0.7708
  303MPD2    H3 4620   1.118   3.731  11.185  0.5502 -0.0339 -0.3884
  303MPD2     N 4621   0.844   3.690  10.840  0.2165 -0.5631 -0.2337
  303MPD2    H5 4622   0.873   3.779  10.800  1.1968  0.0104  1.7522
  303MPD2    N1 4623   0.947   3.304  11.119 -0.2323  0.3415  0.4572
  303MPD2    H7 4624   0.952   3.281  11.217  1.5518 -2.0727 -0.1922
  304TMC3    C1 4625   0.865   3.093  11.103  0.1582  0.1578  0.3806
  304TMC3    C2 4626   0.747   3.097  11.166  0.5209  0.2304 -0.1762
  304TMC3    C3 4627   0.688   2.978  11.201 -0.1251 -0.3279  0.3639
  304TMC3    C4 4628   0.934   2.973  11.078  0.4339  0.1036  0.2966
  304TMC3    C5 4629   0.867   2.855  11.115 -0.4719  0.5208 -0.2805
  304TMC3    C6 4630   0.749   2.856  11.181 -0.5519 -0.0845  0.3232
  304TMC3     C 4631   0.905   3.211  11.029  0.2941 -0.3798 -0.7478
  304TMC3     O 4632   0.917   3.203  10.906  0.5238 -0.1106 -0.2811
  304TMC3     H 4633   0.688   3.188  11.169 -0.7814 -0.7119  2.6078
  304TMC3    H1 4634   1.030   2.981  11.029 -0.0202  0.1326 -0.5869
  304TMC3    H2 4635   0.702   2.764  11.214  1.9061 -0.7077  2.0943
  304TMC3    C7 4636   0.859   2.754  11.010 -0.3554 -0.3736 -0.1079
  304TMC3    C8 4637   0.548   2.969  11.164 -0.2581  0.4421 -0.1794
  304TMC3    O1 4638   0.961   2.725  10.945 -0.2357  0.0277 -0.4669
  304TMC3    O2 4639   0.519   2.862  11.116  0.5414  0.2230 -0.3623
  305MPD2     C 4640   3.949   0.478  14.111 -0.0709 -0.0973  0.4823
  305MPD2    C1 4641   4.051   0.390  14.126  0.2380  0.4520  0.1527
  305MPD2    C2 4642   4.060   0.283  14.035  0.5085  0.2121  0.4725
  305MPD2    C3 4643   3.974   0.280  13.922 -0.9263  0.6129 -0.6076
  305MPD2    C4 4644   3.875   0.373  13.909 -0.0879 -0.1808 -0.2555
  305MPD2    C5 4645   3.862   0.472  14.003  0.2172 -1.2318 -0.1209
  305MPD2     H 4646   4.140   0.212  14.056 -0.8900 -1.7461 -0.8458
  305MPD2    H1 4647   3.810   0.369  13.823  0.5767 -0.0652 -0.7658
  305MPD2    H2 4648   3.943   0.562  14.179 -2.2613 -0.6119  0.9361
  305MPD2    H3 4649   3.785   0.547  13.988  0.5172 -0.8280  0.3687
  305MPD2     N 4650   3.995   0.189  13.815  0.2378 -0.1260  0.2802
  305MPD2    H5 4651   3.923   0.179  13.745  0.0245  1.6748  0.2398
  305MPD2    N1 4652   4.144   0.413  14.237  0.5266 -0.1124  0.3388
  305MPD2    H7 4653   4.126   0.498  14.289  1.1238 -1.1203  2.2016
  306TMC3    C1 4654   4.328   0.364  14.391 -0.3944 -0.4897  0.2509
  306TMC3    C2 4655   4.418   0.264  14.429 -0.2529 -0.0135  0.1538
  306TMC3    C3 4656   4.455   0.268  14.560  0.4706 -0.5692  0.6189
  306TMC3    C4 4657   4.285   0.465  14.473 -0.2775 -0.0289 -0.4850
  306TMC3    C5 4658   4.334   0.466  14.600  0.6481 -0.1994  0.3451
  306TMC3    C6 4659   4.421   0.371  14.646  0.2737 -0.8851 -0.0045
  306TMC3     C 4660   4.261   0.341  14.260 -0.3416  0.2214 -0.3050
  306TMC3     O 4661   4.315   0.259  14.182 -0.2290  0.0773  0.4249
  306TMC3     H 4662   4.436   0.176  14.368 -2.6677 -1.5335  1.6295
  306TMC3    H1 4663   4.209   0.538  14.445 -2.3992 -2.4607 -1.0703
  306TMC3    H2 4664   4.475   0.385  14.739 -2.2553 -0.5452  1.4152
  306TMC3    C7 4665   4.309   0.586  14.680  0.2923  0.3541  0.4442
  306TMC3    C8 4666   4.513   0.150  14.612 -0.3120  0.0520 -0.2889
  306TMC3    O1 4667   4.238   0.668  14.631  0.3037 -0.2880  0.1659
  306TMC3    O2 4668   4.492   0.048  14.544  0.1247 -0.3265  0.3902
  307MPD2     C 4669   2.006   3.453   0.054  0.3078  0.3057 -0.2837
  307MPD2    C1 4670   1.982   3.541   0.159  0.0146 -0.3484 -0.0178
  307MPD2    C2 4671   1.984   3.492   0.288 -0.7689 -0.1410  0.8485
  307MPD2    C3 4672   2.008   3.356   0.316  0.2869 -0.3124 -0.5301
  307MPD2    C4 4673   2.032   3.279   0.210  0.2704  0.1113 -0.5209
  307MPD2    C5 4674   2.018   3.319   0.079  0.7059  0.0931  0.0055
  307MPD2     H 4675   1.957   3.562   0.366 -2.4551  2.7773 -2.3203
  307MPD2    H1 4676   2.045   3.171   0.220 -0.7723 -0.1791 -2.2023
  307MPD2    H2 4677   2.011   3.478  17.698 -1.7963 -0.1757 -0.4963
  307MPD2    H3 4678   2.054   3.248   0.005 -0.6574  0.8142 -1.3412
  307MPD2     N 4679   1.998   3.297   0.445 -0.2464 -0.4274  0.1637
  307MPD2    H5 4680   1.983   3.197   0.445 -0.3605 -0.4076  1.2386
  307MPD2    N1 4681   1.974   3.687   0.151 -0.6590  0.7409  0.0754
  307MPD2    H7 4682   1.986   3.736   0.239  0.5781 -0.0556  0.3503
  308TMC3    C1 4683   1.787   3.207   0.756  0.2084  0.3899  0.8830
  308TMC3    C2 4684   1.785   3.296   0.860 -0.1186  1.1444  0.6815
  308TMC3    C3 4685   1.899   3.369   0.884 -0.2379  0.9578 -0.0079
  308TMC3    C4 4686   1.891   3.193   0.666  0.0469  0.2010  0.1839
  308TMC3    C5 4687   1.995   3.287   0.679  0.0040  0.0958  0.9498
  308TMC3    C6 4688   2.001   3.366   0.797 -0.3522 -0.0202  0.3001
  308TMC3     C 4689   1.669   3.126   0.747 -0.2238  0.5260 -0.0451
  308TMC3     O 4690   1.687   3.006   0.751 -0.2629 -0.5442 -0.6524
  308TMC3     H 4691   1.710   3.284   0.937 -0.9042  0.6420 -0.1542
  308TMC3    H1 4692   1.871   3.134   0.577  0.0734 -0.3888  0.5713
  308TMC3    H2 4693   2.091   3.426   0.807 -1.2369  1.4804 -0.7056
  308TMC3    C7 4694   2.022   3.366   0.558  0.0915  0.2375 -0.3059
  308TMC3    C8 4695   1.903   3.470   0.985 -0.3238 -0.8204  0.5932
  308TMC3    O1 4696   2.067   3.480   0.572 -0.6064 -0.5495  0.3948
  308TMC3    O2 4697   2.016   3.486   1.029  0.1280  0.4046  0.5775
  309MPD2     C 4698   1.167   3.611  17.381  0.4908  0.0880 -0.1698
  309MPD2    C1 4699   1.074   3.646  17.282  0.3875 -0.6415  0.2549
  309MPD2    C2 4700   0.939   3.624  17.316  0.4939 -0.3352 -0.4635
  309MPD2    C3 4701   0.894   3.600  17.446 -0.5476  0.4274 -0.3260
  309MPD2    C4 4702   0.990   3.561  17.533 -0.0196  0.6819  0.4411
  309MPD2    C5 4703   1.123   3.565  17.501  0.1382 -0.4827  0.2223
  309MPD2     H 4704   0.862   3.652  17.245  0.8835  0.5317 -0.5485
  309MPD2    H1 4705   0.962   3.535  17.635  0.0674 -1.5767 -0.1150
  309MPD2    H2 4706   1.273   3.627  17.367  0.9849 -4.0695 -1.3195
  309MPD2    H3 4707   1.200   3.535  17.571  0.8265 -1.8143 -1.0863
  309MPD2     N 4708   0.759   3.620  17.491  0.2064 -0.5006 -0.1120
  309MPD2    H5 4709   0.752   3.616  17.592 -0.4818 -1.5846 -0.1966
  309MPD2    N1 4710   1.109   3.680  17.149  0.1449 -0.2944 -0.0426
  309MPD2    H7 4711   1.031   3.702  17.089 -0.4757 -0.6286  0.6511
  310TMC3    C1 4712   1.224   3.672  16.939  0.3920  0.2688  0.2998
  310TMC3    C2 4713   1.144   3.767  16.881  0.6639  0.3916 -0.6644
  310TMC3    C3 4714   1.160   3.782  16.745  0.1369  0.5221 -0.4178
  310TMC3    C4 4715   1.309   3.595  16.864  0.2767  0.4882 -0.0364
  310TMC3    C5 4716   1.323   3.617  16.722  0.1142  0.2825 -0.3019
  310TMC3    C6 4717   1.244   3.712  16.660 -0.3965 -0.5957 -0.4312
  310TMC3     C 4718   1.220   3.640  17.081  0.0924  0.1848  0.3446
  310TMC3     O 4719   1.309   3.565  17.122  0.0611  0.1787  0.1651
  310TMC3     H 4720   1.079   3.838  16.931  0.7048  0.9939 -1.4692
  310TMC3    H1 4721   1.382   3.529  16.911  1.1062  0.7817 -0.9128
  310TMC3    H2 4722   1.244   3.736  16.554  0.4610 -1.5723 -0.6440
  310TMC3    C7 4723   1.411   3.534  16.637 -0.4636  0.4745 -0.4398
  310TMC3    C8 4724   1.070   3.880  16.686 -0.6713 -0.3253 -0.0093
  310TMC3    O1 4725   1.444   3.429  16.682 -0.1883  0.2806  0.1191
  310TMC3    O2 4726   0.982   3.933  16.754  0.0810 -0.5614  0.4134
  311MPD2     C 4727   2.957   0.017  12.687 -0.5266 -0.3397 -0.8275
  311MPD2    C1 4728   2.959   0.083  12.810 -0.3436  0.1853  0.5843
  311MPD2    C2 4729   2.855   0.060  12.893  0.2620  0.2822  0.3235
  311MPD2    C3 4730   2.759   4.705  12.865  0.3301  0.4151 -0.2302
  311MPD2    C4 4731   2.764   4.632  12.750 -0.2245  0.1523 -0.5330
  311MPD2    C5 4732   2.861   4.664  12.660 -0.0884 -0.6241 -0.2891
  311MPD2     H 4733   2.850   0.130  12.976  1.0844  0.5342  0.1573
  311MPD2    H1 4734   2.694   4.553  12.724  0.8457 -0.8604 -0.3152
  311MPD2    H2 4735   3.029   0.035  12.608  0.1385 -1.7673 -0.5404
  311MPD2    H3 4736   2.881   4.598  12.576 -1.5174  2.3271 -2.9372
  311MPD2     N 4737   2.649   4.709  12.954  0.4292  0.2782 -0.2341
  311MPD2    H5 4738   2.652   0.049  13.021  3.7166 -0.7196  0.7508
  311MPD2    N1 4739   3.045   0.193  12.831  0.5772  0.1749 -0.0686
  311MPD2    H7 4740   3.045   0.244  12.919  1.5819  0.0052  0.0208
  312TMC3    C1 4741   2.422   4.683  13.020  0.2095 -0.0081  0.0815
  312TMC3    C2 4742   2.297   4.637  12.986  0.1620  0.3786 -0.3624
  312TMC3    C3 4743   2.184   4.711  12.990  0.0346  0.8080  0.0377
  312TMC3    C4 4744   2.428   0.068  13.080 -0.5884 -0.4408 -0.3287
  312TMC3    C5 4745   2.307   0.132  13.108  0.1111  0.0898  0.1560
  312TMC3    C6 4746   2.190   0.097  13.050 -0.5917 -0.6135  0.2834
  312TMC3     C 4747   2.542   4.625  12.956  0.5262  0.8505  0.2240
  312TMC3     O 4748   2.515   4.520  12.891 -0.4402 -0.2537 -0.3903
  312TMC3     H 4749   2.282   4.543  12.934 -0.4027  0.8840 -1.0921
  312TMC3    H1 4750   2.522   0.109  13.113  0.1807 -1.5506 -1.1485
  312TMC3    H2 4751   2.096   0.140  13.084 -0.5428  1.9976 -2.7497
  312TMC3    C7 4752   2.305   0.233  13.214 -0.4692  0.2649  1.1441
  312TMC3    C8 4753   2.058   4.650  12.943  0.1052 -0.3894 -0.5653
  312TMC3    O1 4754   2.208   0.312  13.216 -0.5204  0.0609  0.7197
  312TMC3    O2 4755   2.065   4.533  12.923 -0.5567 -0.1587 -0.1733
  313MPD2     C 4756   2.062   4.188  11.581  0.1429  0.0036 -0.0223
  313MPD2    C1 4757   1.966   4.249  11.509 -0.2238 -0.1604 -0.2746
  313MPD2    C2 4758   1.853   4.174  11.468 -0.6041 -1.2823  0.5296
  313MPD2    C3 4759   1.834   4.044  11.513 -0.1301 -0.3085  0.3529
  313MPD2    C4 4760   1.937   3.979  11.583 -0.3754 -0.5776 -0.2717
  313MPD2    C5 4761   2.043   4.057  11.617  0.5399  0.5147 -0.2303
  313MPD2     H 4762   1.774   4.220  11.409 -0.5562 -1.2178  0.5146
  313MPD2    H1 4763   1.935   3.871  11.595  1.9451 -0.6019 -0.0347
  313MPD2    H2 4764   2.142   4.242  11.630  0.1556  0.3460 -0.4249
  313MPD2    H3 4765   2.129   4.017  11.670  0.8789 -0.1873 -1.3152
  313MPD2     N 4766   1.713   3.978  11.477 -0.0346  0.7716 -0.5362
  313MPD2    H5 4767   1.633   4.030  11.442  0.4439  1.2580 -0.8969
  313MPD2    N1 4768   1.971   4.384  11.471 -0.5171  0.4419 -0.1423
  313MPD2    H7 4769   1.900   4.422  11.409 -0.4213  0.7627 -0.0550
  314TMC3    C1 4770   2.070   4.606  11.446 -0.2271  0.2112  0.3431
  314TMC3    C2 4771   2.186   4.680  11.450 -0.5462  0.4573  0.5389
  314TMC3    C3 4772   2.195   0.053  11.361  0.5419 -0.7506  0.0969
  314TMC3    C4 4773   1.970   4.643  11.357 -0.4187 -0.2638  0.0083
  314TMC3    C5 4774   1.972   0.018  11.286  0.1791  0.2113 -0.1817
  314TMC3    C6 4775   2.087   0.094  11.282 -0.5817 -0.3399  0.0949
  314TMC3     C 4776   2.076   4.468  11.494  0.2561 -0.2612 -0.1978
  314TMC3     O 4777   2.184   4.443  11.547 -0.8096 -0.3059 -0.4395
  314TMC3     H 4778   2.277   4.648  11.498  1.3419  2.2651 -1.8597
  314TMC3    H1 4779   1.877   4.588  11.349  0.2173 -1.2369 -0.6913
  314TMC3    H2 4780   2.107   0.162  11.201  0.0172  0.8180  1.2164
  314TMC3    C7 4781   1.895   0.025  11.168  0.7580 -0.6516 -0.3047
  314TMC3    C8 4782   2.319   0.121  11.341  0.2332  0.7775  0.2763
  314TMC3    O1 4783   1.776   0.043  11.171  0.4990  0.5889 -0.3174
  314TMC3    O2 4784   2.335   0.180  11.232  0.7386 -0.2675 -0.3254
  315MPD2     C 4785   2.409   3.356   0.231 -0.4591 -0.8203 -0.1063
  315MPD2    C1 4786   2.480   3.381   0.338 -0.4574 -0.5246 -0.2520
  315MPD2    C2 4787   2.478   3.513   0.390 -0.3496  0.4358 -0.3080
  315MPD2    C3 4788   2.391   3.608   0.346 -0.0486 -0.1121  0.6238
  315MPD2    C4 4789   2.306   3.583   0.242 -0.1904 -0.0001  0.3901
  315MPD2    C5 4790   2.321   3.457   0.185 -0.2861 -0.9769  0.0577
  315MPD2     H 4791   2.551   3.533   0.468 -1.5942 -3.7599  1.8919
  315MPD2    H1 4792   2.243   3.657   0.193  2.2842  1.6935 -0.2040
  315MPD2    H2 4793   2.412   3.260   0.181 -1.4755 -0.7334 -0.3218
  315MPD2    H3 4794   2.275   3.432   0.090  0.1358  2.1570 -0.9606
  315MPD2     N 4795   2.405   3.737   0.397  0.6549 -0.1238 -0.3949
  315MPD2    H5 4796   2.486   3.755   0.455 -0.1487  1.7861  0.1506
  315MPD2    N1 4797   2.569   3.288   0.398 -0.3962  0.8874 -1.0640
  315MPD2    H7 4798   2.626   3.325   0.473 -0.6277 -2.0900  0.5915
  316TMC3    C1 4799   2.401   3.955   0.369  0.3809 -0.3867 -0.0090
  316TMC3    C2 4800   2.535   3.957   0.375 -0.4086  0.2763  0.0108
  316TMC3    C3 4801   2.591   4.066   0.306  0.2913 -0.3582  0.3018
  316TMC3    C4 4802   2.333   4.058   0.311 -0.1224 -0.8380  0.5711
  316TMC3    C5 4803   2.389   4.164   0.249 -0.0085 -0.1266  0.4057
  316TMC3    C6 4804   2.525   4.175   0.246 -0.1800  0.6019  0.3177
  316TMC3     C 4805   2.324   3.840   0.377 -0.0569 -0.2070  0.1110
  316TMC3     O 4806   2.204   3.841   0.349 -0.0753 -0.0337 -0.4001
  316TMC3     H 4807   2.597   3.879   0.416  0.0944  0.3611 -0.6035
  316TMC3    H1 4808   2.225   4.053   0.301 -0.2335 -0.3426  1.6302
  316TMC3    H2 4809   2.573   4.253   0.189 -1.0523  2.1990  1.7882
  316TMC3    C7 4810   2.295   4.271   0.213  0.5110 -0.4328  0.2122
  316TMC3    C8 4811   2.732   4.086   0.332  0.2439 -0.7690  1.1450
  316TMC3    O1 4812   2.181   4.265   0.247  0.1504  0.1925 -0.0651
  316TMC3    O2 4813   2.778   4.195   0.304  0.3315 -0.1925 -0.5800
  317MPD2     C 4814   4.187   2.079  12.279  0.7928 -0.0848 -0.5543
  317MPD2    C1 4815   4.246   1.953  12.243  0.2767  0.4982 -0.1566
  317MPD2    C2 4816   4.262   1.854  12.337 -0.5920 -1.1086  0.2336
  317MPD2    C3 4817   4.207   1.876  12.464  0.0130 -0.5792  0.5103
  317MPD2    C4 4818   4.127   1.990  12.486 -0.5620 -0.5774  0.6129
  317MPD2    C5 4819   4.120   2.093  12.398 -0.4227 -0.0553 -0.1664
  317MPD2     H 4820   4.310   1.760  12.314  0.6009 -0.0785 -1.5520
  317MPD2    H1 4821   4.079   2.013  12.580  1.3911 -1.0381  1.7047
  317MPD2    H2 4822   4.179   2.160  12.207 -1.3841 -1.1714 -1.5379
  317MPD2    H3 4823   4.065   2.184  12.420 -1.3297 -0.0483 -2.4881
  317MPD2     N 4824   4.228   1.774  12.562 -0.4623  0.4897 -0.1803
  317MPD2    H5 4825   4.283   1.692  12.537 -0.9024  0.9462 -2.5916
  317MPD2    N1 4826   4.308   1.925  12.118 -0.2604  0.4471 -0.3484
  317MPD2    H7 4827   4.331   1.828  12.098 -1.0073  0.0470  0.7237
  318TMC3    C1 4828   4.244   1.660  12.759  0.6708  0.2496 -0.6858
  318TMC3    C2 4829   4.168   1.602  12.860  0.3562  0.2134 -0.6292
  318TMC3    C3 4830   4.225   1.519  12.961  0.9567 -0.7189 -0.2094
  318TMC3    C4 4831   4.378   1.646  12.751  0.2432 -0.0767  1.0342
  318TMC3    C5 4832   4.425   1.565  12.856 -0.5119  0.0909  0.0475
  318TMC3    C6 4833   4.355   1.499  12.952  0.3606 -0.6588  0.3258
  318TMC3     C 4834   4.182   1.771  12.689  0.3544 -0.1483 -1.0963
  318TMC3     O 4835   4.126   1.857  12.756  0.1455 -0.2183  0.8025
  318TMC3     H 4836   4.065   1.634  12.864  0.6126  1.0563 -0.6507
  318TMC3    H1 4837   4.437   1.684  12.668  1.6621 -1.5304  1.3887
  318TMC3    H2 4838   4.401   1.420  13.010  1.1649 -0.3867  0.0553
  318TMC3    C7 4839   4.567   1.584  12.870 -0.5804 -0.4092  0.3028
  318TMC3    C8 4840   4.137   1.428  13.038  0.3600 -0.2360 -0.4448
  318TMC3    O1 4841   4.619   1.653  12.785 -0.0477 -0.1339 -0.0060
  318TMC3    O2 4842   4.195   1.345  13.106 -0.1723  0.1978 -0.0717
  319MPD2     C 4843   0.364   3.057  16.616 -0.1909 -0.0191  0.4143
  319MPD2    C1 4844   0.278   3.011  16.720  0.2669  0.2041 -0.1327
  319MPD2    C2 4845   0.154   2.968  16.692 -0.6017 -0.5298  0.2571
  319MPD2    C3 4846   0.093   2.999  16.574  0.5748 -0.2254  0.1620
  319MPD2    C4 4847   0.171   3.042  16.470 -0.7325  0.5303 -0.4077
  319MPD2    C5 4848   0.307   3.063  16.492 -0.0595  0.4683  0.2772
  319MPD2     H 4849   0.094   2.941  16.779  0.6515 -1.9671  0.6851
  319MPD2    H1 4850   0.133   3.057  16.370 -0.0141  4.6139 -0.0604
  319MPD2    H2 4851   0.468   3.088  16.625 -0.7942  1.6036  1.8181
  319MPD2    H3 4852   0.372   3.092  16.411  2.4918 -1.8733  1.4746
  319MPD2     N 4853   4.691   2.983  16.550  0.0161 -0.5033  0.1495
  319MPD2    H5 4854   4.653   3.007  16.458 -0.7497 -1.9866  0.0781
  319MPD2    N1 4855   0.327   2.983  16.854  0.2509  0.0161 -0.5123
  319MPD2    H7 4856   0.266   2.952  16.928  3.3612 -3.1601  0.7348
  320TMC3    C1 4857   4.470   2.907  16.587 -0.5298  0.2841  0.0358
  320TMC3    C2 4858   4.422   3.013  16.517 -0.6917  0.7470  0.0118
  320TMC3    C3 4859   4.319   2.986  16.429  0.1598 -0.2211  0.4112
  320TMC3    C4 4860   4.404   2.791  16.600 -0.0351  0.6499  0.5750
  320TMC3    C5 4861   4.296   2.774  16.520  0.2010 -0.0082  0.3205
  320TMC3    C6 4862   4.254   2.871  16.438  0.5406 -0.7989  0.1792
  320TMC3     C 4863   4.608   2.901  16.634 -0.7810 -0.0082 -0.6347
  320TMC3     O 4864   4.646   2.825  16.719  0.0140  0.9752  0.1890
  320TMC3     H 4865   4.482   3.102  16.501 -0.3401  0.6268  0.6336
  320TMC3    H1 4866   4.440   2.718  16.671 -0.1685 -1.2489 -1.3061
  320TMC3    H2 4867   4.160   2.857  16.385  1.3887 -0.5719 -1.3890
  320TMC3    C7 4868   4.275   2.641  16.462  0.4249 -0.0871  0.0878
  320TMC3    C8 4869   4.271   3.104  16.349 -0.4579 -0.0656  0.1592
  320TMC3    O1 4870   4.192   2.630  16.377  0.3744 -0.8108 -0.5682
  320TMC3    O2 4871   4.312   3.210  16.391  0.3578  0.1719 -0.2936
  321TMC3    C1 4872   0.448   3.035  17.035 -0.2072 -0.0950 -0.4895
  321TMC3    C2 4873   0.380   2.930  17.099 -0.1230  0.3529  0.0065
  321TMC3    C3 4874   0.360   2.949  17.232 -1.1695  0.2489 -0.2106
  321TMC3    C4 4875   0.479   3.157  17.096 -0.6512  0.4936 -0.0915
  321TMC3    C5 4876   0.437   3.171  17.225 -0.0663  0.5365 -0.7491
  321TMC3    C6 4877   0.369   3.070  17.293 -1.2108 -0.2819 -1.0546
  321TMC3     C 4878   0.455   3.021  16.892 -0.5873 -0.9390  0.2629
  321TMC3     O 4879   0.534   3.106  16.844  0.2820 -0.2877 -0.0905
  321TMC3     H 4880   0.366   2.832  17.054  3.7908 -1.3604  2.5129
  321TMC3    H1 4881   0.539   3.223  17.035  0.0996  0.4648  0.6213
  321TMC3    H2 4882   0.342   3.085  17.397  0.0483  1.0533 -0.9128
  321TMC3    C7 4883   0.523   3.262  17.300 -0.0624 -0.1373 -0.1068
  321TMC3    C8 4884   0.436   2.857  17.313  0.2161 -0.5510  0.7997
  321TMC3    O1 4885   0.616   3.303  17.237  0.8395 -0.5206 -0.4089
  321TMC3    O2 4886   0.440   2.882  17.434  0.2962 -0.3040 -0.2762
  322MPD2     C 4887   3.662   4.450  14.151  0.7371 -1.1784  0.2144
  322MPD2    C1 4888   3.774   4.453  14.075  0.2331  0.0499 -0.5363
  322MPD2    C2 4889   3.818   4.339  14.010 -0.3064 -0.3003  0.3504
  322MPD2    C3 4890   3.752   4.218  14.029 -0.0656  0.0746  0.4524
  322MPD2    C4 4891   3.629   4.219  14.093  0.4263  0.1502  0.2852
  322MPD2    C5 4892   3.588   4.334  14.153 -0.3992 -0.3664  0.0559
  322MPD2     H 4893   3.919   4.333  13.974 -0.7190 -0.6039 -0.7499
  322MPD2    H1 4894   3.559   4.137  14.082 -0.7929  1.1196  0.8218
  322MPD2    H2 4895   3.639   4.535  14.214  1.5609 -0.0789 -0.9789
  322MPD2    H3 4896   3.491   4.343  14.200 -0.7501  0.0755 -0.7625
  322MPD2     N 4897   3.814   4.097  13.982 -0.0617  0.2862  0.2168
  322MPD2    H5 4898   3.893   4.109  13.919 -0.1483 -0.6388 -0.0715
  322MPD2    N1 4899   3.863   4.560  14.085 -0.0531  0.6307 -0.1223
  322MPD2    H7 4900   3.832   4.637  14.144 -2.2668  0.2487 -0.7827
  323TMC3    C1 4901   4.091   4.630  14.119  0.3078 -1.0903 -0.3732
  323TMC3    C2 4902   4.219   4.621  14.064  0.2385 -0.3755  1.3182
  323TMC3    C3 4903   4.320   4.646  14.161 -0.8222  0.3469 -1.1872
  323TMC3    C4 4904   4.065   4.641  14.254 -0.2193  0.1610  0.1567
  323TMC3    C5 4905   4.171   4.651  14.335  0.0635  0.5036  0.2342
  323TMC3    C6 4906   4.299   4.655  14.293  0.0866 -0.7916 -0.4291
  323TMC3     C 4907   3.990   4.570  14.030  0.3671 -0.4587 -0.1395
  323TMC3     O 4908   4.033   4.518  13.931 -0.4617 -0.2792  0.4811
  323TMC3     H 4909   4.246   4.590  13.964 -0.2746 -1.9724  1.6678
  323TMC3    H1 4910   3.965   4.653  14.294 -0.8696 -0.7038 -1.1688
  323TMC3    H2 4911   4.383   4.657  14.361  0.0638  3.8230 -0.5247
  323TMC3    C7 4912   4.146   4.571  14.457 -0.2009 -0.4101  0.0343
  323TMC3    C8 4913   4.451   4.670  14.120  0.3417 -0.2610 -0.3162
  323TMC3    O1 4914   4.055   4.489  14.455 -0.1484 -0.3705 -0.1707
  323TMC3    O2 4915   4.545   4.614  14.178 -0.6527  0.1174  0.7293
  324MPD2     C 4916   0.825   0.873  14.317  1.0703  0.2310 -0.3389
  324MPD2    C1 4917   0.870   1.001  14.299  0.1122  0.3320 -0.1569
  324MPD2    C2 4918   0.791   1.095  14.230  0.0553  0.1615 -0.5198
  324MPD2    C3 4919   0.671   1.053  14.166 -0.3251 -0.4390  0.2472
  324MPD2    C4 4920   0.637   0.921  14.187  0.3065 -0.7562 -0.0532
  324MPD2    C5 4921   0.712   0.832  14.255  0.5556 -0.4317 -0.4904
  324MPD2     H 4922   0.823   1.197  14.214 -1.5811  0.3032 -2.8456
  324MPD2    H1 4923   0.547   0.892  14.135  0.7608 -0.0628 -1.2185
  324MPD2    H2 4924   0.872   0.803  14.384 -1.1051 -0.7250  0.2112
  324MPD2    H3 4925   0.668   0.733  14.261 -0.1869  0.1218  2.9150
  324MPD2     N 4926   0.590   1.129  14.081  0.6599  0.1441  0.0477
  324MPD2    H5 4927   0.523   1.077  14.026  1.7330 -0.2222 -0.9209
  324MPD2    N1 4928   0.986   1.055  14.373 -0.3708  0.6558  0.4904
  324MPD2    H7 4929   0.981   1.148  14.414 -3.4249  0.3442  0.8585
  325TMC3    C1 4930   0.488   1.326  13.993  0.2193 -0.7523  0.2470
  325TMC3    C2 4931   0.395   1.240  13.947 -0.1427 -0.0356  0.3442
  325TMC3    C3 4932   0.268   1.269  13.961 -0.2201  0.1000  0.0881
  325TMC3    C4 4933   0.447   1.450  14.042  0.1868 -0.4576 -0.2778
  325TMC3    C5 4934   0.316   1.469  14.073 -0.0811 -0.2767 -0.7074
  325TMC3    C6 4935   0.223   1.380  14.023  0.4743 -0.9445 -0.7278
  325TMC3     C 4936   0.596   1.271  14.074 -0.0446 -0.2148 -0.2979
  325TMC3     O 4937   0.673   1.354  14.126 -0.5844  0.2757 -0.4352
  325TMC3     H 4938   0.431   1.150  13.898  1.3391  0.3392  0.7332
  325TMC3    H1 4939   0.519   1.518  14.088 -0.0006 -0.3233 -0.1832
  325TMC3    H2 4940   0.116   1.390  14.036  0.6359  0.0314 -0.1475
  325TMC3    C7 4941   0.279   1.564  14.172  0.3526  0.3458  0.4606
  325TMC3    C8 4942   0.183   1.169  13.913  0.1018  0.1255 -0.6436
  325TMC3    O1 4943   0.360   1.651  14.198 -0.0415  0.1119  0.2385
  325TMC3    O2 4944   0.236   1.057  13.913  0.4962 -0.0742 -0.5102
  326MPD2     C 4945   1.712   2.047  11.103  0.7322 -0.8624 -0.3000
  326MPD2    C1 4946   1.775   2.048  10.984 -0.6086  0.7425 -0.3582
  326MPD2    C2 4947   1.909   2.086  10.971  0.2477 -0.0339 -0.1356
  326MPD2    C3 4948   1.990   2.102  11.080 -0.3417  0.1179  0.2744
  326MPD2    C4 4949   1.929   2.108  11.201 -0.3573  0.1268 -0.2517
  326MPD2    C5 4950   1.793   2.076  11.212  0.0276  0.2565  0.4282
  326MPD2     H 4951   1.948   2.113  10.873  0.5011  1.9619  0.5158
  326MPD2    H1 4952   1.986   2.125  11.292 -0.1877  3.5711 -1.0183
  326MPD2    H2 4953   1.607   2.021  11.114  0.4786 -0.8550 -2.7204
  326MPD2    H3 4954   1.751   2.098  11.310  1.6584 -1.4787  1.5277
  326MPD2     N 4955   2.124   2.137  11.065 -0.0616 -0.2223 -0.2022
  326MPD2    H5 4956   2.159   2.171  11.154 -2.7673  1.7893  0.1114
  326MPD2    N1 4957   1.695   2.031  10.872  0.4075  0.2405 -0.1361
  326MPD2    H7 4958   1.594   2.029  10.885  0.1482  0.3169 -2.1694
  327TMC3    C1 4959   1.658   2.011  10.630  0.0642 -0.2698  0.1478
  327TMC3    C2 4960   1.577   2.125  10.634  0.2915  0.3108  0.8948
  327TMC3    C3 4961   1.598   2.222  10.543  0.4568  0.4953  0.5440
  327TMC3    C4 4962   1.748   1.990  10.535 -0.0138 -0.3229  0.2210
  327TMC3    C5 4963   1.774   2.096  10.453 -0.4133  0.7234 -0.0374
  327TMC3    C6 4964   1.704   2.212  10.460 -0.3842 -0.0940 -0.0095
  327TMC3     C 4965   1.745   2.004  10.748  0.9585  0.6712 -0.5950
  327TMC3     O 4966   1.856   1.965  10.721 -0.3100 -0.2196  0.1273
  327TMC3     H 4967   1.498   2.123  10.708 -0.5308  0.3502  0.0198
  327TMC3    H1 4968   1.801   1.896  10.527  0.7445  0.2606 -1.5821
  327TMC3    H2 4969   1.733   2.294  10.395  1.1020  0.1830  1.0245
  327TMC3    C7 4970   1.904   2.111  10.397  0.1666 -0.2271 -0.1544
  327TMC3    C8 4971   1.526   2.350  10.554 -0.5827  0.0547  0.6686
  327TMC3    O1 4972   1.924   2.197  10.318 -0.0839 -0.2075  0.6275
  327TMC3    O2 4973   1.570   2.441  10.480  0.3251  0.0702  0.0341
  328MPD2     C 4974   4.505   1.799  17.195 -0.1624  0.9104  0.1618
  328MPD2    C1 4975   4.467   1.759  17.063 -0.3000  0.8418 -0.5767
  328MPD2    C2 4976   4.447   1.867  16.976  0.1485 -0.4833  0.7159
  328MPD2    C3 4977   4.457   2.004  17.005 -0.7171 -1.0957 -0.7660
  328MPD2    C4 4978   4.508   2.030  17.134 -0.1687 -0.1204 -0.4709
  328MPD2    C5 4979   4.511   1.933  17.232  0.2845  0.7592  0.0916
  328MPD2     H 4980   4.420   1.825  16.880  0.8091 -0.0783  0.3570
  328MPD2    H1 4981   4.511   2.130  17.174 -2.0561 -0.4047  0.3738
  328MPD2    H2 4982   4.512   1.736  17.283 -2.5900 -0.0296 -0.3200
  328MPD2    H3 4983   4.544   1.954  17.334 -1.2720 -1.3191  1.0254
  328MPD2     N 4984   4.418   2.105  16.921  0.3690  0.6578  0.5068
  328MPD2    H5 4985   4.424   2.201  16.951  0.3936  0.6780  0.4374
  328MPD2    N1 4986   4.441   1.632  17.017 -0.6821  0.6317  0.1131
  328MPD2    H7 4987   4.424   1.621  16.918  0.4023  2.1532 -0.2365
  329TMC3    C1 4988   4.306   1.431  17.036  0.2353  0.5235 -0.1636
  329TMC3    C2 4989   4.172   1.455  17.082  0.8436 -0.2585  0.0463
  329TMC3    C3 4990   4.069   1.461  16.991  0.0100  0.2065  0.7783
  329TMC3    C4 4991   4.331   1.418  16.904 -0.8976  0.3797 -0.2159
  329TMC3    C5 4992   4.228   1.406  16.817  0.1934  0.5143 -0.0440
  329TMC3    C6 4993   4.101   1.441  16.854 -0.5931 -0.0574 -0.1353
  329TMC3     C 4994   4.382   1.531  17.103 -0.3376  0.1765 -0.6460
  329TMC3     O 4995   4.379   1.517  17.227 -0.7937  0.3708 -0.6498
  329TMC3     H 4996   4.159   1.449  17.189  1.5030  1.6360  0.2400
  329TMC3    H1 4997   4.432   1.412  16.865 -0.9288  1.8777 -0.5247
  329TMC3    H2 4998   4.015   1.442  16.787  0.3845 -2.0641 -1.4249
  329TMC3    C7 4999   4.262   1.385  16.679  0.1199 -0.1882  0.1727
  329TMC3    C8 5000   3.990   1.580  17.003 -0.1777  0.1554  1.3433
  329TMC3    O1 5001   4.362   1.323  16.650  0.3879  0.1822  0.0817
  329TMC3    O2 5002   3.904   1.596  16.920 -0.6266 -0.2018 -0.0346
  330TMC3    C1 5003   2.380   1.169   9.746 -0.5340 -0.0200  0.1835
  330TMC3    C2 5004   2.251   1.201   9.780 -0.0942  0.1866 -0.3402
  330TMC3    C3 5005   2.194   1.141   9.892  0.3611  1.1782 -0.0733
  330TMC3    C4 5006   2.450   1.077   9.815 -0.1599 -0.6095 -0.1328
  330TMC3    C5 5007   2.395   1.019   9.922 -0.3139 -1.1203  0.8128
  330TMC3    C6 5008   2.268   1.054   9.966  0.0645  0.1402 -0.1605
  330TMC3     C 5009   2.462   1.248   9.660  0.2086 -0.3100  0.8727
  330TMC3     O 5010   2.580   1.217   9.647 -0.5236  0.1997 -0.4092
  330TMC3     H 5011   2.203   1.287   9.736  2.0073  1.0046 -1.0215
  330TMC3    H1 5012   2.553   1.049   9.796  1.1124  2.6003  1.9971
  330TMC3    H2 5013   2.246   1.041  10.071  0.9773 -0.3797 -0.0300
  330TMC3    C7 5014   2.491   0.960  10.009 -0.5188  0.0871  0.8588
  330TMC3    C8 5015   2.062   1.186   9.937 -0.1766 -0.1027  0.3148
  330TMC3    O1 5016   2.605   1.012  10.019 -0.1478 -0.1422 -0.0007
  330TMC3    O2 5017   2.021   1.290   9.889  0.7786 -0.3843 -0.8925
  331MPD2     C 5018   0.435   0.155  13.379 -0.1530 -0.1325 -0.2091
  331MPD2    C1 5019   0.414   0.149  13.245  0.5244  0.4033 -0.2730
  331MPD2    C2 5020   0.371   0.032  13.188 -0.1608  0.3601  0.3396
  331MPD2    C3 5021   0.358   4.654  13.268 -0.0013  0.4655  0.1901
  331MPD2    C4 5022   0.368   4.670  13.407 -0.4610 -0.0693 -0.5680
  331MPD2    C5 5023   0.410   0.049  13.461  0.0905 -0.0898  0.6320
  331MPD2     H 5024   0.359   0.025  13.080  0.9759  0.7474  0.1844
  331MPD2    H1 5025   0.346   4.586  13.471 -0.4296  0.4875  0.1700
  331MPD2    H2 5026   0.464   0.250  13.422 -0.8039 -0.2790  0.5580
  331MPD2    H3 5027   0.415   0.062  13.569 -1.2683  2.6001  0.3611
  331MPD2     N 5028   0.331   4.529  13.207 -0.3891 -0.1121  0.2490
  331MPD2    H5 5029   0.323   4.544  13.106  1.5263 -0.7426 -0.0034
  331MPD2    N1 5030   0.437   0.255  13.153  0.4514 -0.7835  0.0019
  331MPD2    H7 5031   0.387   0.250  13.064  0.3440  1.2486 -0.0402
  332TMC3    C1 5032   0.324   4.295  13.163 -0.1924 -0.2932 -0.5541
  332TMC3    C2 5033   0.339   4.333  13.033 -0.3207  0.5510  0.2834
  332TMC3    C3 5034   0.385   4.233  12.949  0.4741  0.0542  0.8980
  332TMC3    C4 5035   0.359   4.174  13.215  1.1247 -0.7142  0.3439
  332TMC3    C5 5036   0.414   4.083  13.128 -0.1144 -0.4913 -0.2401
  332TMC3    C6 5037   0.419   4.112  12.990  0.5540  0.0234 -0.5432
  332TMC3     C 5038   0.325   4.405  13.265 -0.9425 -0.8175 -0.1690
  332TMC3     O 5039   0.352   4.374  13.380 -0.2854 -0.3187 -0.0886
  332TMC3     H 5040   0.316   4.431  12.992 -3.3537 -1.3577 -2.6757
  332TMC3    H1 5041   0.360   4.155  13.321 -0.9644  1.1909  0.7160
  332TMC3    H2 5042   0.461   4.039  12.922 -0.1723 -0.4797 -0.4479
  332TMC3    C7 5043   0.526   4.009  13.184  0.2146 -0.3509 -0.1247
  332TMC3    C8 5044   0.473   4.284  12.844  0.2112  0.4284 -0.8483
  332TMC3    O1 5045   0.522   3.962  13.298  0.7068  0.3532  0.4106
  332TMC3    O2 5046   0.585   4.234  12.838  0.0268  0.3149 -0.5236
  333MPD2     C 5047   0.415   0.243  10.883  0.1491  0.7211 -0.0279
  333MPD2    C1 5048   0.537   0.206  10.930  0.8199  0.4707 -0.3936
  333MPD2    C2 5049   0.531   0.084  10.997  0.2207  0.1556 -0.1739
  333MPD2    C3 5050   0.417   0.004  11.011  0.5938 -0.1629  0.7981
  333MPD2    C4 5051   0.302   0.050  10.954 -0.5444 -0.1606 -0.1468
  333MPD2    C5 5052   0.299   0.169  10.897 -0.4805  0.1135 -0.0922
  333MPD2     H 5053   0.622   0.039  11.034  0.0219  1.9021  2.3933
  333MPD2    H1 5054   0.216   4.723  10.943 -2.0322  1.7650  0.2024
  333MPD2    H2 5055   0.397   0.335  10.828 -0.1383 -0.2895 -1.6468
  333MPD2    H3 5056   0.218   0.222  10.849 -0.4992  1.3146  1.2533
  333MPD2     N 5057   0.426   4.623  11.085 -0.8182 -0.4012 -0.0205
  333MPD2    H5 5058   0.504   4.620  11.150 -0.4145  1.3277 -0.4278
  333MPD2    N1 5059   0.649   0.294  10.917 -0.0479  0.1533  0.0911
  333MPD2    H7 5060   0.624   0.386  10.884  1.0713  0.4619  0.1382
  334TMC3    C1 5061   0.867   0.380  10.966 -0.2140 -0.5446  0.5512
  334TMC3    C2 5062   0.995   0.344  11.005 -1.3765 -0.1486  0.0596
  334TMC3    C3 5063   1.086   0.449  11.009  0.3108  0.5940 -0.1852
  334TMC3    C4 5064   0.819   0.508  10.940 -0.0609  0.2963  0.4625
  334TMC3    C5 5065   0.920   0.602  10.935  0.5018 -0.8032  0.0110
  334TMC3    C6 5066   1.050   0.573  10.973  0.1114 -0.2513  0.0229
  334TMC3     C 5067   0.775   0.266  10.969 -0.0099 -0.8153  0.4862
  334TMC3     O 5068   0.828   0.158  10.996 -0.2527 -0.4488  0.4452
  334TMC3     H 5069   1.027   0.241  11.015  0.4813  0.5501  1.3556
  334TMC3    H1 5070   0.715   0.536  10.927 -0.3263 -0.9093 -0.0418
  334TMC3    H2 5071   1.119   0.655  10.955 -1.9727  1.2553 -1.2549
  334TMC3    C7 5072   0.900   0.729  10.857  0.6392  1.2678  0.7009
  334TMC3    C8 5073   1.222   0.410  11.048  0.5568  0.3533 -0.0239
  334TMC3    O1 5074   0.991   0.809  10.852  0.5028  0.1044 -0.0799
  334TMC3    O2 5075   1.241   0.297  11.091  1.0133  0.3297 -0.0420
  335TMC3    C1 5076   0.497   2.010  17.309  0.1815  0.1532  0.2589
  335TMC3    C2 5077   0.406   1.926  17.242 -0.7541  0.4379  0.4460
  335TMC3    C3 5078   0.444   1.868  17.123 -0.0932  0.5612  0.4692
  335TMC3    C4 5079   0.630   2.029  17.265  0.0501  0.3402 -0.1676
  335TMC3    C5 5080   0.657   1.980  17.145 -0.5048  0.5639  1.3134
  335TMC3    C6 5081   0.571   1.892  17.084 -0.1254  0.7384  0.4599
  335TMC3     C 5082   0.441   2.080  17.414 -0.1269  0.0790 -0.4523
  335TMC3     O 5083   0.346   2.035  17.475 -0.4537  0.2252 -0.3250
  335TMC3     H 5084   0.306   1.914  17.281 -0.2095 -0.6893  1.4813
  335TMC3    H1 5085   0.691   2.112  17.300  1.0771  0.7821 -3.0434
  335TMC3    H2 5086   0.595   1.832  16.997 -0.3675 -0.9756  1.5743
  335TMC3    C7 5087   0.788   1.994  17.086 -0.7271 -0.1862 -0.4422
  335TMC3    C8 5088   0.354   1.798  17.039  0.0582 -0.1837 -0.0178
  335TMC3    O1 5089   0.805   1.929  16.980  0.2888  0.5920 -0.2804
  335TMC3    O2 5090   0.384   1.796  16.919  0.7095 -0.0485 -0.6947
  336MPD2     C 5091   0.070   4.318  16.342  0.4817 -0.6443 -0.9805
  336MPD2    C1 5092   0.005   4.252  16.233  1.1385 -0.2533  0.0999
  336MPD2    C2 5093   0.003   4.111  16.229  0.7633 -0.1364  0.3952
  336MPD2    C3 5094   0.056   4.039  16.331 -0.0672  0.1766 -0.4351
  336MPD2    C4 5095   0.101   4.107  16.439 -0.5593  0.1188  0.0807
  336MPD2    C5 5096   0.113   4.241  16.443  0.4366 -0.3855 -0.6611
  336MPD2     H 5097   4.695   4.063  16.143 -1.0995 -0.2050  1.4081
  336MPD2    H1 5098   0.139   4.045  16.520  1.0271  0.5538 -0.3359
  336MPD2    H2 5099   0.058   4.425  16.353  2.0550 -0.7695  2.0089
  336MPD2    H3 5100   0.149   4.292  16.532  0.0747 -0.6096 -0.3891
  336MPD2     N 5101   0.066   3.895  16.329 -0.5366 -0.7350  0.4950
  336MPD2    H5 5102   0.095   3.846  16.413  1.6374 -0.4092 -0.0766
  336MPD2    N1 5103   4.684   4.308  16.119  0.2611 -0.2578 -0.1531
  336MPD2    H7 5104   4.643   4.243  16.053 -0.8082 -2.6093  2.8172
  337TMC3    C1 5105   4.629   4.473  15.964  0.8457  0.2495  0.1446
  337TMC3    C2 5106   4.542   4.395  15.883 -0.1060  0.1801 -0.4462
  337TMC3    C3 5107   4.506   4.434  15.757  0.3493 -0.0527  1.0694
  337TMC3    C4 5108   4.660   4.596  15.919  0.1787  0.4348 -0.3403
  337TMC3    C5 5109   4.623   4.635  15.800  0.4926  0.5630 -0.2251
  337TMC3    C6 5110   4.539   4.562  15.713  0.6714  0.2202  0.2169
  337TMC3     C 5111   4.666   4.442  16.096  0.4471 -0.6452  1.2605
  337TMC3     O 5112   4.727   4.528  16.158  0.4215 -0.0863  0.4250
  337TMC3     H 5113   4.503   4.305  15.928 -1.6886  1.3462  0.5379
  337TMC3    H1 5114   4.716   4.662  15.983 -1.3240  1.9445 -0.5713
  337TMC3    H2 5115   4.540   4.570  15.605  0.5701  3.5358  0.4504
  337TMC3    C7 5116   4.684   0.020  15.754 -0.8578 -0.4614  0.3955
  337TMC3    C8 5117   4.387   4.372  15.704 -0.2191  0.2135 -0.1283
  337TMC3    O1 5118   0.065   0.043  15.783 -0.0913  0.0757 -0.5478
  337TMC3    O2 5119   4.365   4.262  15.746 -0.3569 -0.1116 -0.4041
  338MPD2     C 5120   1.013   3.994   1.070  0.5173  0.4088  0.4241
  338MPD2    C1 5121   0.888   3.941   1.053  0.3827  0.0121  0.3636
  338MPD2    C2 5122   0.791   4.004   1.123  0.4507 -0.2493 -0.0803
  338MPD2    C3 5123   0.814   4.099   1.221 -0.0316 -0.0585  0.6109
  338MPD2    C4 5124   0.941   4.155   1.233 -0.0090  0.2397 -0.2568
  338MPD2    C5 5125   1.037   4.100   1.153 -0.9747 -0.6214 -0.4234
  338MPD2     H 5126   0.688   3.974   1.106 -0.6993  2.3114  2.3246
  338MPD2    H1 5127   0.965   4.241   1.295 -0.3564 -0.4023  0.7860
  338MPD2    H2 5128   1.100   3.946   1.028 -0.3653  0.7362 -1.7866
  338MPD2    H3 5129   1.137   4.137   1.170 -0.1024 -3.1551 -0.0514
  338MPD2     N 5130   0.702   4.149   1.291 -0.2942  0.5428 -0.2370
  338MPD2    H5 5131   0.614   4.108   1.261 -1.1212  2.9489 -1.1283
  338MPD2    N1 5132   0.853   3.840   0.967  0.8115 -0.7459 -0.2545
  338MPD2    H7 5133   0.753   3.824   0.965  0.9137 -1.5155  0.7081
  339TMC3    C1 5134   0.576   4.214   1.461  0.2818 -0.1092  0.2595
  339TMC3    C2 5135   0.575   4.141   1.576 -0.3035 -0.1696 -0.2515
  339TMC3    C3 5136   0.468   4.060   1.609 -0.9585  0.3443 -0.0815
  339TMC3    C4 5137   0.476   4.187   1.370 -0.2083 -0.4728 -0.2760
  339TMC3    C5 5138   0.370   4.109   1.399  0.3507  0.5030 -0.5445
  339TMC3    C6 5139   0.364   4.044   1.521  0.2288  0.3104  0.4858
  339TMC3     C 5140   0.709   4.218   1.408 -0.5126  0.2274  0.7039
  339TMC3     O 5141   0.804   4.235   1.485 -0.1110  0.2293 -0.0382
  339TMC3     H 5142   0.653   4.154   1.650 -0.9935 -3.9206  1.1203
  339TMC3    H1 5143   0.468   4.236   1.273  1.4677 -1.5965 -0.9874
  339TMC3    H2 5144   0.278   3.984   1.545 -0.0921  0.4712 -0.2594
  339TMC3    C7 5145   0.300   4.056   1.281  0.0361  0.2582 -0.4891
  339TMC3    C8 5146   0.480   3.976   1.728  0.0769 -0.6826  0.1567
  339TMC3    O1 5147   0.371   4.036   1.182  0.1732 -0.5583  0.1763
  339TMC3    O2 5148   0.556   4.013   1.815  0.0379 -0.3886 -0.3663
  340MPD2     C 5149   0.616   1.825  10.368 -0.6799 -0.1572  0.3645
  340MPD2    C1 5150   0.577   1.947  10.415 -0.2691  0.3585 -0.1834
  340MPD2    C2 5151   0.672   2.049  10.402 -0.1933  0.2843 -0.0748
  340MPD2    C3 5152   0.802   2.021  10.355 -0.1034  0.2509 -0.1304
  340MPD2    C4 5153   0.826   1.902  10.296 -0.3267  0.1668  0.1959
  340MPD2    C5 5154   0.732   1.804  10.306 -0.1664 -0.5383 -0.7708
  340MPD2     H 5155   0.648   2.144  10.451 -2.0655 -0.0467 -0.3537
  340MPD2    H1 5156   0.920   1.874  10.251 -0.3275 -1.5351  1.2813
  340MPD2    H2 5157   0.544   1.745  10.381  0.2819 -0.8628  1.2558
  340MPD2    H3 5158   0.754   1.703  10.273  1.0397 -0.6972  0.5373
  340MPD2     N 5159   0.906   2.117  10.346  0.5740 -0.0450  0.0545
  340MPD2    H5 5160   0.979   2.099  10.277  0.9279 -2.2065  0.9799
  340MPD2    N1 5161   0.453   1.955  10.476  0.1588  0.5275  0.1859
  340MPD2    H7 5162   0.406   1.867  10.494  0.1954  0.8361  1.8214
  341TMC3    C1 5163   0.258   2.057  10.570  0.3407  1.1069 -0.6157
  341TMC3    C2 5164   0.217   1.929  10.601 -0.8529 -0.0757  0.4257
  341TMC3    C3 5165   0.085   1.908  10.600  0.2516  0.6420 -0.1624
  341TMC3    C4 5166   0.177   2.163  10.553 -0.3634 -0.0169 -0.7031
  341TMC3    C5 5167   0.043   2.134  10.538  0.1168  0.0917 -0.4180
  341TMC3    C6 5168   4.734   2.002  10.561 -0.2212 -0.0850  0.2296
  341TMC3     C 5169   0.388   2.078  10.499 -0.0452 -0.2924  0.4739
  341TMC3     O 5170   0.414   2.186  10.452 -0.7971  0.0129 -0.2736
  341TMC3     H 5171   0.283   1.843  10.612  0.6833  1.3769  2.4374
  341TMC3    H1 5172   0.216   2.261  10.575  0.2350 -1.0179  2.6933
  341TMC3    H2 5173   4.627   1.986  10.549 -0.2648  0.4357 -0.0445
  341TMC3    C7 5174   4.735   2.182  10.410  0.0550 -0.0681 -0.0487
  341TMC3    C8 5175   0.044   1.771  10.606  1.2265  0.2215 -0.2796
  341TMC3    O1 5176   4.631   2.135  10.368 -0.3772  0.1391 -0.1833
  341TMC3    O2 5177   0.124   1.684  10.649 -0.2395  0.1441  0.4745
  342MPD2     C 5178   3.382   0.570  17.552  0.6503 -0.9303  0.4157
  342MPD2    C1 5179   3.512   0.537  17.578  0.8717 -0.1466  0.3133
  342MPD2    C2 5180   3.606   0.641  17.584  0.1731  0.1100  0.1317
  342MPD2    C3 5181   3.574   0.775  17.582 -0.2483  0.0966  0.4826
  342MPD2    C4 5182   3.442   0.805  17.552  0.0643 -0.0097  0.1371
  342MPD2    C5 5183   3.350   0.701  17.544  0.1730 -0.2153  0.1529
  342MPD2     H 5184   3.707   0.614  17.609 -0.0726  0.5613  1.6159
  342MPD2    H1 5185   3.391   0.901  17.559  3.2761  1.5552  1.9237
  342MPD2    H2 5186   3.305   0.498  17.528 -0.1066 -0.2122  0.7081
  342MPD2    H3 5187   3.246   0.724  17.528  0.7254  1.5118 -0.9105
  342MPD2     N 5188   3.661   0.888  17.594  0.0740 -0.3702 -0.5115
  342MPD2    H5 5189   3.628   0.982  17.577 -0.4444 -0.8179 -2.0082
  342MPD2    N1 5190   3.557   0.404  17.596  0.6872 -0.1029  0.1463
  342MPD2    H7 5191   3.656   0.388  17.580  0.4870  0.1468 -1.3293
  343TMC3    C1 5192   3.529   0.173  17.608  0.2445  0.6784 -0.1610
  343TMC3    C2 5193   3.624   0.147  17.509 -0.2076 -0.1410 -0.2154
  343TMC3    C3 5194   3.661   0.014  17.477  0.7705  0.1610  0.2031
  343TMC3    C4 5195   3.471   0.072  17.686 -0.0208 -0.3141 -0.5746
  343TMC3    C5 5196   3.495   4.681  17.639  0.1666  0.1403 -0.4102
  343TMC3    C6 5197   3.592   4.647  17.542 -0.5788 -0.1654 -0.4292
  343TMC3     C 5198   3.470   0.303  17.626  0.9463  0.3078 -0.3704
  343TMC3     O 5199   3.365   0.319  17.690 -0.2266  0.1828 -0.5774
  343TMC3     H 5200   3.656   0.229  17.445 -0.2867  0.0601  0.0045
  343TMC3    H1 5201   3.386   0.095   0.002  0.0928  1.5250 -1.1069
  343TMC3    H2 5202   3.628   4.546  17.526  0.2071  0.6465 -3.9079
  343TMC3    C7 5203   3.424   4.568  17.695 -0.2674  0.5927  0.0927
  343TMC3    C8 5204   3.765   4.729  17.381  0.1380  0.1252  0.3571
  343TMC3    O1 5205   3.410   4.467  17.625  0.0908  0.1636  0.4361
  343TMC3    O2 5206   3.825   0.089  17.337 -0.1920 -0.4803  0.0601
  344MPD2     C 5207   4.082   4.496  11.550  0.1950  0.2320  0.3047
  344MPD2    C1 5208   4.041   4.442  11.427 -0.2001  0.0708 -0.2326
  344MPD2    C2 5209   4.033   4.537  11.326 -0.0706 -1.0914  0.0117
  344MPD2    C3 5210   4.054   4.675  11.340 -0.2824 -0.1835  0.2648
  344MPD2    C4 5211   4.081   4.717  11.471  0.1770 -0.6298 -0.0090
  344MPD2    C5 5212   4.098   4.624  11.574  0.9147 -0.7255 -0.3576
  344MPD2     H 5213   4.020   4.493  11.228  2.4003 -2.0871  0.1354
  344MPD2    H1 5214   4.097   0.085  11.490  2.0514 -0.9801  0.3355
  344MPD2    H2 5215   4.086   4.434  11.640 -0.3535  0.9463  0.8232
  344MPD2    H3 5216   4.125   4.652  11.675  1.2116 -2.6416  0.0946
  344MPD2     N 5217   4.043   0.038  11.234 -0.4576  0.3418 -0.4378
  344MPD2    H5 5218   4.071   0.130  11.267  0.5888 -0.7179  1.6465
  344MPD2    N1 5219   4.013   4.309  11.394 -0.4132 -0.0722 -0.3978
  344MPD2    H7 5220   3.996   4.282  11.298  1.1524 -2.0152 -0.1425
  345TMC3    C1 5221   3.979   0.141  11.034 -0.0775  0.0768 -0.3399
  345TMC3    C2 5222   4.000   0.263  11.094  0.3162 -0.2525  0.1331
  345TMC3    C3 5223   4.008   0.371  11.002  0.1832  0.2287  0.4332
  345TMC3    C4 5224   3.979   0.120  10.903 -0.2537 -0.1504 -0.4748
  345TMC3    C5 5225   3.994   0.229  10.821  0.6694 -0.3302  0.6091
  345TMC3    C6 5226   4.007   0.357  10.868 -0.1846  0.5300 -0.3644
  345TMC3     C 5227   3.990   0.020  11.111 -0.1384  0.2350 -0.5616
  345TMC3     O 5228   3.961   4.646  11.067 -1.2076 -0.2787  0.4460
  345TMC3     H 5229   3.990   0.283  11.200  2.3808  0.4367  0.1989
  345TMC3    H1 5230   3.969   0.020  10.862 -1.5647  0.3401 -1.3391
  345TMC3    H2 5231   4.014   0.443  10.803 -0.1828 -1.0229 -2.4134
  345TMC3    C7 5232   3.969   0.225  10.679 -0.2385 -0.3847  0.2612
  345TMC3    C8 5233   4.047   0.502  11.047  0.6447 -0.1170  0.4582
  345TMC3    O1 5234   4.028   0.312  10.613 -0.2796  0.3748  0.1637
  345TMC3    O2 5235   4.007   0.595  10.981  0.0811  0.3418  0.1507
  346MPD2     C 5236   3.701   1.445  13.893  0.3075  0.2244  0.7684
  346MPD2    C1 5237   3.816   1.373  13.874  0.4140 -1.3111  0.0680
  346MPD2    C2 5238   3.903   1.358  13.983 -0.5158 -0.2618  0.4812
  346MPD2    C3 5239   3.867   1.409  14.106 -0.0477 -0.2556  0.0794
  346MPD2    C4 5240   3.746   1.479  14.127 -1.0726 -0.8754 -0.3778
  346MPD2    C5 5241   3.670   1.498  14.015 -0.5598  0.2298  0.5269
  346MPD2     H 5242   4.002   1.319  13.967 -0.4604 -0.5725  1.5716
  346MPD2    H1 5243   3.707   1.520  14.220 -0.1656 -2.3336  0.6389
  346MPD2    H2 5244   3.629   1.452  13.813 -0.4990 -1.5155  1.3434
  346MPD2    H3 5245   3.582   1.561  14.020  0.5455  1.8493 -0.5661
  346MPD2     N 5246   3.968   1.405  14.203 -0.4955 -0.6950  0.2233
  346MPD2    H5 5247   4.057   1.367  14.172 -1.4908 -1.8418 -1.1949
  346MPD2    N1 5248   3.853   1.330  13.742 -0.6755 -0.2761 -0.3592
  346MPD2    H7 5249   3.789   1.348  13.665  0.5975  0.8746 -1.1606
  347TMC3    C1 5250   4.065   1.464  14.405  0.3267  0.3478  0.2067
  347TMC3    C2 5251   4.173   1.521  14.342  0.3268  0.0455 -0.5944
  347TMC3    C3 5252   4.264   1.590  14.422 -1.0392 -0.8241  0.0986
  347TMC3    C4 5253   4.043   1.480  14.541 -0.1176 -0.0903 -0.0553
  347TMC3    C5 5254   4.125   1.564  14.612 -0.3321  0.6442 -1.0437
  347TMC3    C6 5255   4.235   1.621  14.554  0.3115 -0.4482 -0.7335
  347TMC3     C 5256   3.944   1.429  14.337  0.4098 -0.6450 -0.8575
  347TMC3     O 5257   3.832   1.430  14.384  0.0811 -0.6581  0.0215
  347TMC3     H 5258   4.196   1.503  14.238 -1.9165 -3.5034 -0.4571
  347TMC3    H1 5259   3.963   1.431  14.596 -0.1021  0.1573  0.1862
  347TMC3    H2 5260   4.307   1.670  14.618  0.1255  2.0562 -2.4558
  347TMC3    C7 5261   4.148   1.512  14.744  0.5125  0.1273 -0.5211
  347TMC3    C8 5262   4.399   1.584  14.372 -0.3458 -0.2343  0.1392
  347TMC3    O1 5263   4.123   1.395  14.769 -0.1745 -0.0362  0.3067
  347TMC3    O2 5264   4.423   1.518  14.270 -0.1637 -0.0856  1.1549
  348MPD2     C 5265   2.754   0.646  12.050  0.0967 -0.0188 -0.5276
  348MPD2    C1 5266   2.857   0.722  11.999 -0.7338 -0.3714 -0.5632
  348MPD2    C2 5267   2.820   0.808  11.891  0.3525 -0.3818  0.2888
  348MPD2    C3 5268   2.684   0.817  11.848  0.0901  0.3934 -0.1818
  348MPD2    C4 5269   2.590   0.731  11.899  0.5340 -0.1323  0.0567
  348MPD2    C5 5270   2.625   0.649  12.002 -0.0228  0.0871 -0.3523
  348MPD2     H 5271   2.898   0.877  11.861 -1.3183  0.5362 -1.9333
  348MPD2    H1 5272   2.490   0.715  11.861  0.7937 -0.6827 -0.3957
  348MPD2    H2 5273   2.770   0.573  12.129  0.4709 -0.4525 -1.0055
  348MPD2    H3 5274   2.558   0.574  12.041 -0.2803  1.3986  1.6855
  348MPD2     N 5275   2.658   0.913  11.752  0.5678 -0.1109 -0.6744
  348MPD2    H5 5276   2.731   0.976  11.719 -0.7395  1.2394 -0.9569
  348MPD2    N1 5277   2.991   0.729  12.050 -0.3466 -0.5033 -0.6250
  348MPD2    H7 5278   3.061   0.780  11.997  0.2563  0.5910  1.2160
  349TMC3    C1 5279   3.166   0.592  12.129 -0.2319 -0.5151 -0.0122
  349TMC3    C2 5280   3.163   0.482  12.204  0.5211  0.1005 -0.4981
  349TMC3    C3 5281   3.138   0.369  12.135  0.0769 -0.0778  0.0042
  349TMC3    C4 5282   3.188   0.589  11.995 -0.2694  0.5120 -0.1798
  349TMC3    C5 5283   3.163   0.470  11.926 -0.6077  0.6953  0.3265
  349TMC3    C6 5284   3.127   0.358  12.000 -0.4176 -0.4560  0.0571
  349TMC3     C 5285   3.034   0.648  12.151  0.3344 -0.4581 -0.3091
  349TMC3     O 5286   2.969   0.616  12.253 -0.0634  0.6202 -0.6208
  349TMC3     H 5287   3.166   0.480  12.312  1.1956 -0.0565 -0.5205
  349TMC3    H1 5288   3.206   0.684  11.946 -4.6260  2.2025  1.5595
  349TMC3    H2 5289   3.109   0.260  11.956  0.4490 -1.1816  1.3318
  349TMC3    C7 5290   3.103   0.483  11.796  0.4344 -0.6450 -0.3120
  349TMC3    C8 5291   3.152   0.250  12.214 -0.7968 -0.2507 -0.4001
  349TMC3    O1 5292   3.005   0.414  11.765 -0.2085  0.1539  0.3612
  349TMC3    O2 5293   3.219   0.253  12.316 -0.0310  0.2959 -0.3290
  350MPD2     C 5294   1.199   4.173  10.794 -0.3475 -0.6670  0.2955
  350MPD2    C1 5295   1.325   4.121  10.801  0.0285 -0.0231 -0.4630
  350MPD2    C2 5296   1.375   4.067  10.915  0.0956 -0.0866 -0.2253
  350MPD2    C3 5297   1.293   4.066  11.022 -0.1734  0.4005  0.4973
  350MPD2    C4 5298   1.161   4.110  11.017 -0.5498 -0.2876 -0.4997
  350MPD2    C5 5299   1.116   4.170  10.902  0.2412  0.1249  0.5146
  350MPD2     H 5300   1.473   4.023  10.929  0.3141  0.0510 -1.3082
  350MPD2    H1 5301   1.086   4.107  11.095 -0.9176 -2.8182 -0.9641
  350MPD2    H2 5302   1.159   4.208  10.699  0.4704  3.7836  1.5938
  350MPD2    H3 5303   1.023   4.225  10.896 -1.4317 -3.2149 -4.1394
  350MPD2     N 5304   1.342   4.003  11.141 -0.0084  0.4152  0.2846
  350MPD2    H5 5305   1.441   3.981  11.140 -0.1362 -0.2460  1.7287
  350MPD2    N1 5306   1.404   4.124  10.684 -0.3785  0.1612  0.4228
  350MPD2    H7 5307   1.498   4.086  10.693 -0.6907 -0.4230  1.2432
  351TMC3    C1 5308   1.474   4.143  10.461  0.4637 -0.5723  0.5264
  351TMC3    C2 5309   1.534   4.023  10.477 -0.0714  0.1457  0.5588
  351TMC3    C3 5310   1.597   3.973  10.361  0.6324  0.8240  0.4679
  351TMC3    C4 5311   1.474   4.219  10.353 -0.3973  0.4757 -0.3661
  351TMC3    C5 5312   1.550   4.170  10.243 -0.8269 -0.8562  0.5459
  351TMC3    C6 5313   1.605   4.047  10.247  0.3111 -0.4364  0.5700
  351TMC3     C 5314   1.370   4.176  10.565 -0.1971 -0.5381 -0.3550
  351TMC3     O 5315   1.267   4.231  10.525  0.2630  0.0647  0.0740
  351TMC3     H 5316   1.509   3.948  10.551 -1.1243 -0.1134 -0.0464
  351TMC3    H1 5317   1.409   4.305  10.362 -0.6668  0.3082 -0.7212
  351TMC3    H2 5318   1.650   4.001  10.160 -2.4811  0.3924 -1.3199
  351TMC3    C7 5319   1.547   4.239  10.120 -0.1171  0.8945 -0.7452
  351TMC3    C8 5320   1.656   3.842  10.356  0.2136  0.4649 -0.1738
  351TMC3    O1 5321   1.452   4.318  10.106  0.0731 -0.3837  0.2350
  351TMC3    O2 5322   1.723   3.817  10.261 -0.5318  0.0261 -0.4197
  352MPD2     C 5323   0.789   1.722   0.749  0.4111 -0.2698  0.3481
  352MPD2    C1 5324   0.703   1.624   0.708 -0.0933 -0.9050 -0.6308
  352MPD2    C2 5325   0.732   1.494   0.732 -0.3729 -0.5862 -0.0146
  352MPD2    C3 5326   0.855   1.461   0.784  0.2504  0.5755 -0.0922
  352MPD2    C4 5327   0.939   1.554   0.834 -0.4226 -0.4828 -0.3444
  352MPD2    C5 5328   0.909   1.687   0.807  0.8580 -0.5782  0.0681
  352MPD2     H 5329   0.669   1.411   0.702 -0.8495  1.0631 -3.6466
  352MPD2    H1 5330   1.037   1.527   0.870 -1.0038  0.4706  1.9620
  352MPD2    H2 5331   0.771   1.828   0.735  0.8089 -0.4847 -1.7611
  352MPD2    H3 5332   0.969   1.772   0.836  0.9829 -0.6466  0.0138
  352MPD2     N 5333   0.895   1.330   0.795  0.1588 -0.3911  1.0214
  352MPD2    H5 5334   0.987   1.316   0.836 -0.5396  0.2435  2.7871
  352MPD2    N1 5335   0.580   1.662   0.652 -0.6218 -0.3524 -0.2617
  352MPD2    H7 5336   0.555   1.759   0.636 -1.9524 -0.2934  2.0979
  353TMC3    C1 5337   0.889   1.087   0.781 -0.0648 -0.4066 -0.8340
  353TMC3    C2 5338   0.956   1.073   0.901 -0.0578 -0.0222  0.2297
  353TMC3    C3 5339   0.967   0.945   0.945  0.3214 -0.7038 -0.0579
  353TMC3    C4 5340   0.843   0.977   0.710  0.4281 -0.0783 -0.6829
  353TMC3    C5 5341   0.869   0.857   0.755 -0.8158  0.3338 -0.3955
  353TMC3    C6 5342   0.929   0.833   0.873  0.0540  0.4035  0.5265
  353TMC3     C 5343   0.840   1.219   0.727 -0.0173 -0.0828  0.5733
  353TMC3     O 5344   0.768   1.217   0.626 -0.2074 -0.5583  0.3832
  353TMC3     H 5345   0.997   1.159   0.952 -0.1932 -0.8468  1.7364
  353TMC3    H1 5346   0.780   0.997   0.624  0.9296 -1.1592 -1.3086
  353TMC3    H2 5347   0.954   0.735   0.913  1.1559  0.7010  0.5445
  353TMC3    C7 5348   0.794   0.747   0.701 -0.4989 -0.2415  0.1840
  353TMC3    C8 5349   1.069   0.930   1.045 -0.1709  0.2977  0.3361
  353TMC3    O1 5350   0.763   0.664   0.783 -0.4665 -0.2486  0.1598
  353TMC3    O2 5351   1.120   1.034   1.078  0.5024  1.2365  0.1188
  354TMC3    C1 5352   1.962   1.682  13.239  0.3545 -0.0488 -0.3618
  354TMC3    C2 5353   1.924   1.812  13.221 -0.5222 -0.0946  0.3793
  354TMC3    C3 5354   1.993   1.886  13.128 -0.1732 -0.5431 -0.0117
  354TMC3    C4 5355   2.062   1.619  13.168 -0.5682 -0.7269 -0.2096
  354TMC3    C5 5356   2.131   1.709  13.076  0.1338  0.6070 -0.1744
  354TMC3    C6 5357   2.095   1.835  13.060 -0.3049 -0.1554 -0.4310
  354TMC3     C 5358   1.943   1.616  13.374  0.4018 -0.5035  0.2413
  354TMC3     O 5359   1.956   1.495  13.376  0.4742 -0.3731  0.6230
  354TMC3     H 5360   1.837   1.854  13.270 -0.2945  1.2466 -0.3638
  354TMC3    H1 5361   2.108   1.523  13.188  3.5216  1.4876  1.0483
  354TMC3    H2 5362   2.132   1.886  12.971 -0.5439 -0.1432 -0.5224
  354TMC3    C7 5363   2.248   1.662  13.003 -0.1525 -0.4390  0.0321
  354TMC3    C8 5364   1.957   2.020  13.100 -0.7930  0.2070  0.0344
  354TMC3    O1 5365   2.260   1.541  12.995  0.3045  0.6143 -0.1145
  354TMC3    O2 5366   2.009   2.072  13.002  0.6550  0.4492 -0.6143
  355MPD2     C 5367   2.027   2.936  11.902 -0.7325 -0.5349 -0.4658
  355MPD2    C1 5368   2.072   2.988  11.780  0.7227 -0.1562  0.3989
  355MPD2    C2 5369   2.207   2.978  11.742 -0.4757  0.1320 -0.8250
  355MPD2    C3 5370   2.297   2.936  11.838 -0.0156 -0.0671 -0.5981
  355MPD2    C4 5371   2.260   2.902  11.969 -0.5815 -0.1589  0.0735
  355MPD2    C5 5372   2.122   2.900  11.999  0.3183 -0.4993 -0.3765
  355MPD2     H 5373   2.240   3.007  11.643 -3.7686  2.8617 -1.0990
  355MPD2    H1 5374   2.338   2.877  12.040 -1.7382 -0.4526  1.2441
  355MPD2    H2 5375   1.923   2.923  11.930 -0.7702  0.6519 -0.0162
  355MPD2    H3 5376   2.094   2.879  12.101  0.8086  2.4036  0.3396
  355MPD2     N 5377   2.436   2.943  11.811  0.0348  0.4947  0.4615
  355MPD2    H5 5378   2.494   2.928  11.893 -0.8949  0.3701  1.1047
  355MPD2    N1 5379   1.968   3.040  11.698 -0.5096  0.4869 -0.3664
  355MPD2    H7 5380   1.876   3.021  11.738 -0.2590  0.4133  0.1711
  356TMC3    C1 5381   2.597   3.093  11.737 -0.6531 -0.3591 -0.1860
  356TMC3    C2 5382   2.680   3.118  11.632 -0.3864  0.8129  0.6647
  356TMC3    C3 5383   2.801   3.173  11.663 -0.5129  0.2120  0.2521
  356TMC3    C4 5384   2.621   3.129  11.864  0.2832 -0.5663 -0.5809
  356TMC3    C5 5385   2.736   3.195  11.889 -0.2477 -0.4616 -0.5374
  356TMC3    C6 5386   2.835   3.216  11.794  0.0913 -0.8087 -0.3297
  356TMC3     C 5387   2.495   2.997  11.701 -0.2623  0.2368  0.3967
  356TMC3     O 5388   2.455   2.991  11.587 -0.0095  0.1241 -0.1312
  356TMC3     H 5389   2.638   3.099  11.534  0.8781 -0.1834  0.3159
  356TMC3    H1 5390   2.552   3.117  11.947 -1.1464 -2.9487 -2.1054
  356TMC3    H2 5391   2.931   3.260  11.818 -0.3547 -0.4386  0.7813
  356TMC3    C7 5392   2.777   3.199  12.034  0.1151  0.4939  0.1100
  356TMC3    C8 5393   2.881   3.208  11.553 -0.0025  1.2392  0.3827
  356TMC3    O1 5394   2.722   3.121  12.110  0.0301  0.2483 -0.2395
  356TMC3    O2 5395   2.823   3.217  11.447 -0.1275  0.2049 -0.2341
  357MPD2     C 5396   1.601   2.887   1.026  0.0986 -0.4626 -0.0381
  357MPD2    C1 5397   1.697   2.963   1.104 -0.0647  0.2562  0.3720
  357MPD2    C2 5398   1.655   3.021   1.221  0.1490 -0.3321 -0.2696
  357MPD2    C3 5399   1.520   3.018   1.257 -0.1099 -0.1597  0.5351
  357MPD2    C4 5400   1.437   2.950   1.173 -0.9759 -1.1895 -0.3899
  357MPD2    C5 5401   1.471   2.881   1.063 -0.4899  1.1948  0.0597
  357MPD2     H 5402   1.724   3.079   1.282  0.9629  1.2322 -2.6862
  357MPD2    H1 5403   1.329   2.945   1.187 -0.5135 -0.6059  3.2307
  357MPD2    H2 5404   1.619   2.841   0.929  0.1962 -1.1457  0.3031
  357MPD2    H3 5405   1.400   2.824   1.004  1.4428 -0.6488 -0.4709
  357MPD2     N 5406   1.455   3.077   1.366 -0.6400  0.6543  0.0007
  357MPD2    H5 5407   1.356   3.060   1.377 -1.1650  2.5178 -1.7846
  357MPD2    N1 5408   1.827   2.970   1.051  0.1528 -0.3936  0.1782
  357MPD2    H7 5409   1.854   2.910   0.974 -0.1413 -0.5233  0.1789
  358TMC3    C1 5410   2.051   3.040   1.031  0.2260  0.1174  0.0565
  358TMC3    C2 5411   2.060   2.979   0.901  0.2712  0.0946 -0.2757
  358TMC3    C3 5412   2.182   2.972   0.846 -0.1024 -0.2050 -0.0243
  358TMC3    C4 5413   2.163   3.097   1.094 -0.3190  0.4556 -0.3284
  358TMC3    C5 5414   2.282   3.098   1.023 -0.9875  0.4296 -0.3385
  358TMC3    C6 5415   2.291   3.028   0.911 -0.6538  0.1527  0.7693
  358TMC3     C 5416   1.920   3.067   1.088  0.0573 -0.1529 -0.1913
  358TMC3     O 5417   1.917   3.155   1.174  0.2000 -0.2481  0.0776
  358TMC3     H 5418   1.970   2.940   0.855  1.9921  0.0896 -3.6043
  358TMC3    H1 5419   2.141   3.138   1.192  2.0960  0.7541  0.1041
  358TMC3    H2 5420   2.383   3.051   0.858 -0.8406  0.7156  0.6882
  358TMC3    C7 5421   2.402   3.133   1.091 -0.3275  0.1915  0.1225
  358TMC3    C8 5422   2.205   2.889   0.727 -0.4026  0.0107  0.4728
  358TMC3    O1 5423   2.496   3.056   1.071 -0.4624  0.0871 -0.0304
  358TMC3    O2 5424   2.106   2.861   0.663 -0.5610  0.0966 -0.4021
  359MPD2     C 5425   1.929   1.800  12.264 -0.2347  0.0544 -0.4294
  359MPD2    C1 5426   1.980   1.673  12.297  0.3498 -0.3449  0.0282
  359MPD2    C2 5427   1.911   1.587  12.384  0.8447 -0.1134  0.3691
  359MPD2    C3 5428   1.796   1.632  12.449  0.0758  0.3355  0.7884
  359MPD2    C4 5429   1.755   1.762  12.426 -0.4055 -0.1591 -0.1419
  359MPD2    C5 5430   1.827   1.843  12.340  0.0462  0.6258  0.1361
  359MPD2     H 5431   1.955   1.490  12.404  0.4382 -0.1085  1.2868
  359MPD2    H1 5432   1.679   1.805  12.491 -0.3525 -1.3909  0.7406
  359MPD2    H2 5433   1.978   1.876  12.204  1.2410 -1.2946 -0.9335
  359MPD2    H3 5434   1.796   1.945  12.324  0.7861  0.6775 -0.9479
  359MPD2     N 5435   1.709   1.551  12.526  0.4750  0.4157  0.1543
  359MPD2    H5 5436   1.638   1.600  12.580 -0.0214 -2.6321  2.2678
  359MPD2    N1 5437   2.095   1.619  12.231 -0.5799  0.4134  0.2942
  359MPD2    H7 5438   2.125   1.529  12.267  1.2018  1.5863  1.6952
  360TMC3    C1 5439   2.268   1.611  12.077 -0.3660 -0.2669 -0.1850
  360TMC3    C2 5440   2.291   1.480  12.125  0.4465 -0.3426  0.2270
  360TMC3    C3 5441   2.339   1.383  12.037  0.0554  0.8923  0.4234
  360TMC3    C4 5442   2.281   1.641  11.946 -0.5980 -1.0946 -0.1686
  360TMC3    C5 5443   2.315   1.534  11.861  0.1009 -0.5535  0.0049
  360TMC3    C6 5444   2.348   1.407  11.907  0.1134 -0.3736 -0.6400
  360TMC3     C 5445   2.165   1.689  12.138 -0.4937  0.0194 -0.1744
  360TMC3     O 5446   2.153   1.800  12.086  0.5848 -0.0941 -0.4164
  360TMC3     H 5447   2.299   1.459  12.231  0.2758  1.0961  0.5201
  360TMC3    H1 5448   2.258   1.736  11.898 -0.3004 -0.6320  0.6014
  360TMC3    H2 5449   2.355   1.317  11.847  2.5842 -1.0495  0.6535
  360TMC3    C7 5450   2.321   1.561  11.719 -0.0634  0.1392  0.1662
  360TMC3    C8 5451   2.445   1.297  12.097 -0.6284  0.4179 -0.1662
  360TMC3    O1 5452   2.367   1.670  11.688 -0.3700  0.2792 -0.1701
  360TMC3    O2 5453   2.418   1.237  12.199 -0.2841 -0.2462  0.0102
  361MPD2     C 5454   4.410   0.074  16.356  0.3316  0.4395 -0.1861
  361MPD2    C1 5455   4.391   0.119  16.486 -0.2707  0.4057  0.5478
  361MPD2    C2 5456   4.497   0.076  16.566  0.8523  0.6284  0.0462
  361MPD2    C3 5457   4.601   4.736  16.524  0.4949 -0.9796 -0.6381
  361MPD2    C4 5458   4.609   4.695  16.397 -0.0279  0.1363  0.2305
  361MPD2    C5 5459   4.510   4.729  16.313 -0.0672  0.0524 -0.3500
  361MPD2     H 5460   4.485   0.099  16.672  0.8350  0.6479  0.0401
  361MPD2    H1 5461   4.697   4.640  16.365  0.3568  0.6023  0.4963
  361MPD2    H2 5462   4.345   0.113  16.279 -1.7987 -0.0056  1.3663
  361MPD2    H3 5463   4.516   4.701  16.209 -2.3994  1.3128 -0.8092
  361MPD2     N 5464   4.704   4.691  16.608 -1.0074 -0.3588  0.3917
  361MPD2    H5 5465   0.029   4.620  16.572 -1.6028 -1.8051  2.2433
  361MPD2    N1 5466   4.301   0.213  16.528 -0.5800  0.0576 -0.5611
  361MPD2    H7 5467   4.297   0.231  16.627 -1.4688 -0.3575 -0.5227
  362TMC3    C1 5468   4.135   0.388  16.519  0.2779  0.2231 -0.3921
  362TMC3    C2 5469   4.144   0.405  16.657 -0.3150 -0.1020  0.3261
  362TMC3    C3 5470   4.085   0.516  16.716  0.2611 -0.1716  0.0639
  362TMC3    C4 5471   4.068   0.474  16.433  0.2245 -0.3188  0.1403
  362TMC3    C5 5472   4.019   0.590  16.495 -0.1023  0.1857  0.2146
  362TMC3    C6 5473   4.020   0.608  16.629  0.2448 -0.3787 -0.2243
  362TMC3     C 5474   4.212   0.278  16.453 -0.6260 -0.2976  0.5458
  362TMC3     O 5475   4.200   0.273  16.328 -0.5390 -0.5736  0.1787
  362TMC3     H 5476   4.174   0.325  16.725 -1.4939 -1.4862 -0.7981
  362TMC3    H1 5477   4.054   0.451  16.328  2.5502 -0.8795 -0.0500
  362TMC3    H2 5478   3.973   0.697  16.669  0.0755  0.0604 -1.4124
  362TMC3    C7 5479   3.963   0.693  16.414 -0.5549 -0.0217 -0.5956
  362TMC3    C8 5480   4.074   0.524  16.860 -0.3383 -0.4542 -0.6454
  362TMC3    O1 5481   3.897   0.786  16.460  0.3008  0.2680 -0.3785
  362TMC3    O2 5482   4.109   0.429  16.933  0.3725 -0.8156  0.1423
  363TMC3    C1 5483   2.595   3.894  10.020 -0.6141 -0.7145  0.2505
  363TMC3    C2 5484   2.589   3.764  10.064  0.3462  0.0038  0.0077
  363TMC3    C3 5485   2.485   3.735  10.148 -0.2875 -0.1163 -0.7038
  363TMC3    C4 5486   2.496   3.985  10.047  0.3316  1.1477 -0.2848
  363TMC3    C5 5487   2.387   3.947  10.118  0.0443  0.3308  0.4522
  363TMC3    C6 5488   2.386   3.824  10.174 -0.1565 -0.7796  0.2146
  363TMC3     C 5489   2.723   3.936   9.971  0.1654 -0.7270 -0.5693
  363TMC3     O 5490   2.718   4.039   9.910  0.8065  0.2404 -0.8226
  363TMC3     H 5491   2.667   3.690  10.045  1.6451  2.0052 -2.4749
  363TMC3    H1 5492   2.493   4.070   9.980  1.1574  0.0770 -1.6785
  363TMC3    H2 5493   2.307   3.787  10.239  0.7113 -1.3620  0.9343
  363TMC3    C7 5494   2.277   4.034  10.139 -0.1632  0.5601 -0.3335
  363TMC3    C8 5495   2.503   3.635  10.256  0.4021 -0.2672 -0.3406
  363TMC3    O1 5496   2.273   4.141  10.083 -0.1057  0.0984  1.0097
  363TMC3    O2 5497   2.437   3.639  10.355  0.0822 -0.6275 -0.5537
  364MPD2     C 5498   1.251   2.682  10.801  0.0040  0.1810 -0.4384
  364MPD2    C1 5499   1.333   2.701  10.693 -0.5784  0.0434 -0.3516
  364MPD2    C2 5500   1.399   2.592  10.643  0.0609 -0.7426 -0.8880
  364MPD2    C3 5501   1.373   2.469  10.702  0.8719  0.0462 -0.3732
  364MPD2    C4 5502   1.282   2.450  10.803  0.0048 -0.0840 -0.2258
  364MPD2    C5 5503   1.224   2.559  10.856 -0.0390 -0.3928  0.2502
  364MPD2     H 5504   1.477   2.613  10.571 -0.1560  1.5995 -0.4453
  364MPD2    H1 5505   1.264   2.352  10.844  2.1465 -0.4653 -0.1746
  364MPD2    H2 5506   1.210   2.758  10.867  0.2117  0.2672 -0.4093
  364MPD2    H3 5507   1.154   2.552  10.939  3.0689  0.0682  2.9037
  364MPD2     N 5508   1.441   2.354  10.660  0.7651  0.3916  0.4247
  364MPD2    H5 5509   1.416   2.269  10.710  1.0416 -0.3024 -0.6200
  364MPD2    N1 5510   1.359   2.839  10.650 -0.1241  0.8669  0.4227
  364MPD2    H7 5511   1.315   2.913  10.703 -1.6925 -0.4832  1.0047
  365TMC3    C1 5512   1.453   3.030  10.534  0.0575  0.4894 -0.2768
  365TMC3    C2 5513   1.527   3.079  10.437  0.1513 -0.3410  0.6024
  365TMC3    C3 5514   1.542   3.212  10.425  0.7395  0.1536 -0.3464
  365TMC3    C4 5515   1.389   3.116  10.624  1.0348 -0.1108 -0.0558
  365TMC3    C5 5516   1.396   3.251  10.603 -0.1299 -0.2193  0.0727
  365TMC3    C6 5517   1.477   3.302  10.503 -0.0557  0.2441 -0.3862
  365TMC3     C 5518   1.442   2.883  10.547 -0.0087 -0.8125  0.1197
  365TMC3     O 5519   1.490   2.815  10.462 -0.2444  0.3031 -0.5120
  365TMC3     H 5520   1.555   3.008  10.359  0.2700 -0.8486  1.1082
  365TMC3    H1 5521   1.307   3.086  10.688 -2.5537 -1.7831 -5.4557
  365TMC3    H2 5522   1.472   3.408  10.480 -1.0101  0.0628 -1.0232
  365TMC3    C7 5523   1.344   3.347  10.703  0.0753 -0.0904 -0.6346
  365TMC3    C8 5524   1.623   3.273  10.312 -0.0315  0.4340 -0.4703
  365TMC3    O1 5525   1.315   3.459  10.661 -0.2266  0.1868 -0.1706
  365TMC3    O2 5526   1.626   3.396  10.310  0.3681 -0.1172  0.2390
  366MPD2     C 5527   4.265   3.344  15.593  0.5692  0.3778 -0.1408
  366MPD2    C1 5528   4.388   3.407  15.583 -0.2277 -0.3453 -0.3761
  366MPD2    C2 5529   4.498   3.338  15.537  0.1685 -0.0055 -0.1533
  366MPD2    C3 5530   4.486   3.199  15.512  0.7307  0.0982 -0.4229
  366MPD2    C4 5531   4.370   3.131  15.529 -0.1164  1.4124 -0.0042
  366MPD2    C5 5532   4.262   3.208  15.569 -0.8680  0.4396 -0.1833
  366MPD2     H 5533   4.592   3.393  15.532  0.6269 -0.9008 -1.3153
  366MPD2    H1 5534   4.363   3.027  15.502  0.1348  1.3344  0.2302
  366MPD2    H2 5535   4.179   3.395  15.635  1.0131  0.8113  0.2360
  366MPD2    H3 5536   4.178   3.145  15.598 -1.9661  2.9054  1.9390
  366MPD2     N 5537   4.605   3.144  15.446  0.1179 -0.3368 -0.4094
  366MPD2    H5 5538   4.687   3.204  15.454 -0.3815  0.3283 -0.2853
  366MPD2    N1 5539   4.400   3.550  15.585 -0.2786 -0.2002  0.6042
  366MPD2    H7 5540   4.493   3.588  15.601 -0.6794  1.5912 -1.2682
  367TMC3    C1 5541   4.319   3.781  15.561  0.0727 -0.0899  0.1936
  367TMC3    C2 5542   4.433   3.831  15.627  0.3653 -0.8233 -0.7690
  367TMC3    C3 5543   4.473   3.959  15.602  0.1708 -0.2898  0.1239
  367TMC3    C4 5544   4.253   3.860  15.464 -0.2067  0.3792  0.3817
  367TMC3    C5 5545   4.294   3.989  15.444  0.5369  0.0231  0.7721
  367TMC3    C6 5546   4.403   4.034  15.514 -0.8978  0.1273 -0.8996
  367TMC3     C 5547   4.296   3.635  15.549  0.0362 -0.7343  0.1914
  367TMC3     O 5548   4.177   3.606  15.521  0.4484 -0.2854  0.4010
  367TMC3     H 5549   4.485   3.767  15.697 -0.4833 -0.7107 -0.0261
  367TMC3    H1 5550   4.189   3.810  15.392 -0.0522 -1.3453  1.4386
  367TMC3    H2 5551   4.413   4.142  15.512 -0.2648  0.0827  0.0010
  367TMC3    C7 5552   4.219   4.084  15.364  0.0104 -0.1194 -0.2323
  367TMC3    C8 5553   4.572   4.008  15.695  0.3046  0.1131 -0.0446
  367TMC3    O1 5554   4.285   4.174  15.317  0.0959  0.0671 -0.4384
  367TMC3    O2 5555   4.598   3.944  15.793 -0.0893 -0.1316 -0.0035
  368MPD2     C 5556   1.170   0.411  13.287 -0.0019 -0.7444 -0.7179
  368MPD2    C1 5557   1.224   0.531  13.246 -0.2699 -0.7752 -1.4324
  368MPD2    C2 5558   1.361   0.546  13.237 -0.2108 -0.1489 -0.1769
  368MPD2    C3 5559   1.442   0.439  13.253 -0.0276 -0.1084  0.1810
  368MPD2    C4 5560   1.381   0.315  13.277  0.6453  0.5914  0.3861
  368MPD2    C5 5561   1.252   0.302  13.299 -0.4536  0.0562 -0.1253
  368MPD2     H 5562   1.401   0.646  13.228  1.5750 -0.8926 -0.5232
  368MPD2    H1 5563   1.444   0.226  13.283 -0.4960 -0.4423 -3.0074
  368MPD2    H2 5564   1.069   0.409  13.325  0.5755  0.1068  0.8201
  368MPD2    H3 5565   1.211   0.203  13.318  1.1803 -0.3445  1.2836
  368MPD2     N 5566   1.582   0.440  13.263 -0.5605 -0.6469 -0.2278
  368MPD2    H5 5567   1.626   0.354  13.291 -1.9436 -1.5227 -0.7381
  368MPD2    N1 5568   1.138   0.634  13.228  0.0577 -0.2754  0.3080
  368MPD2    H7 5569   1.039   0.621  13.248 -0.2476  0.1777 -0.9089
  369TMC3    C1 5570   1.052   0.836  13.158  0.2217 -0.2550  0.7333
  369TMC3    C2 5571   1.060   0.948  13.072  0.0449  0.0595 -0.2195
  369TMC3    C3 5572   0.951   1.027  13.059 -0.5862 -0.4648 -0.0063
  369TMC3    C4 5573   0.930   0.784  13.195  0.3082 -0.2409 -0.0800
  369TMC3    C5 5574   0.820   0.848  13.153 -0.3779 -0.0735  0.2480
  369TMC3    C6 5575   0.827   0.975  13.096  0.5420 -0.6748 -0.6722
  369TMC3     C 5576   1.163   0.748  13.161 -0.8646 -0.2329  0.1190
  369TMC3     O 5577   1.252   0.774  13.084 -0.2908  0.8673 -0.1460
  369TMC3     H 5578   1.152   0.976  13.023 -0.5057  1.8430 -0.2451
  369TMC3    H1 5579   0.917   0.693  13.251 -1.0065 -0.6249 -1.0159
  369TMC3    H2 5580   0.736   1.032  13.076  1.4199  1.1214  0.5035
  369TMC3    C7 5581   0.698   0.794  13.196 -0.1908  1.3010  0.6636
  369TMC3    C8 5582   0.963   1.149  12.984  0.0734 -0.1036  0.4326
  369TMC3    O1 5583   0.698   0.723  13.295 -0.0814  0.4580  0.8023
  369TMC3    O2 5584   0.859   1.202  12.947 -0.0669 -0.5127  0.3220
  370TMC3    C1 5585   0.466   1.376  16.047 -0.4195 -0.5628  0.9238
  370TMC3    C2 5586   0.411   1.305  16.153 -0.3237  0.2921  0.3293
  370TMC3    C3 5587   0.389   1.171  16.137 -0.7037  0.5701 -0.0998
  370TMC3    C4 5588   0.498   1.317  15.923 -1.0939 -0.4084 -0.1591
  370TMC3    C5 5589   0.459   1.183  15.911  0.0015  0.1612  0.3887
  370TMC3    C6 5590   0.421   1.108  16.019 -0.2040 -0.0107 -0.7429
  370TMC3     C 5591   0.527   1.499  16.080  0.4885 -0.5569  0.6088
  370TMC3     O 5592   0.545   1.526  16.200 -0.1541  0.0468 -0.2444
  370TMC3     H 5593   0.411   1.342  16.255  0.3459  1.5433 -0.1326
  370TMC3    H1 5594   0.549   1.369  15.842 -0.6227  0.1074  0.4708
  370TMC3    H2 5595   0.384   1.007  16.005  1.6797 -0.4277 -2.7028
  370TMC3    C7 5596   0.514   1.128  15.794  0.0599 -0.6237 -0.5029
  370TMC3    C8 5597   0.373   1.088  16.257 -0.5388  0.8428 -1.1563
  370TMC3    O1 5598   0.548   1.194  15.695 -0.2916  0.3121 -0.0768
  370TMC3    O2 5599   0.394   0.972  16.230  0.0962 -0.2334 -0.4627
  371TMC3    C1 5600   1.755   4.082  15.741  0.6247 -0.4603 -0.1624
  371TMC3    C2 5601   1.626   4.083  15.792 -0.2257  0.1706 -0.5539
  371TMC3    C3 5602   1.559   4.201  15.777  0.0082 -1.0468 -0.2075
  371TMC3    C4 5603   1.819   4.193  15.682 -0.5367  0.0359 -0.1616
  371TMC3    C5 5604   1.743   4.304  15.667 -0.0664 -0.2156 -0.3689
  371TMC3    C6 5605   1.612   4.313  15.716 -0.0652  0.6310  0.1574
  371TMC3     C 5606   1.843   3.978  15.796  0.3637 -0.2513 -0.0875
  371TMC3     O 5607   1.964   3.990  15.781  0.0436 -0.4197  0.4915
  371TMC3     H 5608   1.586   3.992  15.834  3.3996  0.7430  4.1798
  371TMC3    H1 5609   1.923   4.179  15.655 -0.4862  0.0922  0.0035
  371TMC3    H2 5610   1.549   4.395  15.682 -1.5443  0.2417  1.9839
  371TMC3    C7 5611   1.783   4.414  15.581 -0.5167  0.0298 -0.3637
  371TMC3    C8 5612   1.419   4.202  15.827  0.1401 -0.7644  0.0720
  371TMC3    O1 5613   1.729   4.525  15.600  0.4005  0.0852 -0.0428
  371TMC3    O2 5614   1.379   4.096  15.875  0.3264 -0.3904  0.2429
  372MPD2     C 5615   1.679   0.979  13.490  0.0591  0.2729  0.3770
  372MPD2    C1 5616   1.747   0.887  13.578  0.0580  0.1949  0.0498
  372MPD2    C2 5617   1.677   0.769  13.608 -0.2303 -0.0709  0.3149
  372MPD2    C3 5618   1.559   0.735  13.550  0.3279  0.3072 -0.3983
  372MPD2    C4 5619   1.492   0.828  13.473  0.1818 -0.0534 -0.3134
  372MPD2    C5 5620   1.554   0.947  13.442  0.8103  0.3587 -0.0018
  372MPD2     H 5621   1.729   0.704  13.678  0.5483 -0.0555 -0.2528
  372MPD2    H1 5622   1.392   0.813  13.434  0.3148 -0.9194 -0.3218
  372MPD2    H2 5623   1.726   1.072  13.460  1.0448 -0.0223  1.0375
  372MPD2    H3 5624   1.510   1.018  13.375  3.1676 -0.2633 -2.2167
  372MPD2     N 5625   1.496   0.617  13.592 -0.4344  0.1114  0.5808
  372MPD2    H5 5626   1.552   0.554  13.649 -0.2385 -1.6331 -1.5375
  372MPD2    N1 5627   1.880   0.918  13.628  0.1494 -0.4322  0.6018
  372MPD2    H7 5628   1.934   0.841  13.666  1.3366 -0.7274 -1.6587
  373TMC3    C1 5629   1.310   0.497  13.680 -0.2483 -0.1327 -0.6107
  373TMC3    C2 5630   1.295   0.539  13.808  0.2038 -0.3837 -0.4725
  373TMC3    C3 5631   1.289   0.441  13.911 -0.8772  0.5196  0.2205
  373TMC3    C4 5632   1.335   0.370  13.646  0.2460 -0.2170  0.1454
  373TMC3    C5 5633   1.343   0.279  13.753 -0.6601 -0.4632  0.5130
  373TMC3    C6 5634   1.343   0.318  13.882 -0.8107  0.0709  0.2901
  373TMC3     C 5635   1.355   0.593  13.588  0.9742  0.1270 -0.0809
  373TMC3     O 5636   1.267   0.676  13.562  0.3016 -0.4174  0.2128
  373TMC3     H 5637   1.262   0.641  13.826 -0.9847 -1.1567  1.7485
  373TMC3    H1 5638   1.357   0.356  13.541 -0.8944  0.6625 -0.2049
  373TMC3    H2 5639   1.353   0.251  13.967  3.7373  2.4007  1.5879
  373TMC3    C7 5640   1.380   0.143  13.730  0.5021  0.3454  0.0066
  373TMC3    C8 5641   1.323   0.490  14.045  0.0864  0.1371  0.6625
  373TMC3    O1 5642   1.460   0.097  13.808  0.1827  0.4457 -0.3262
  373TMC3    O2 5643   1.361   0.408  14.130  0.2636 -0.4129  0.4395
  374TMC3    C1 5644   1.693   1.499   9.700 -0.0115  0.1166  0.2299
  374TMC3    C2 5645   1.814   1.541   9.756 -0.8208  0.3416  0.2050
  374TMC3    C3 5646   1.890   1.623   9.683  0.3272  0.9621  0.3026
  374TMC3    C4 5647   1.648   1.526   9.575 -0.2083 -0.3720  0.1183
  374TMC3    C5 5648   1.737   1.608   9.506  0.0713  0.3664  0.1534
  374TMC3    C6 5649   1.853   1.662   9.553  0.3391 -0.0244  0.6793
  374TMC3     C 5650   1.610   1.419   9.787 -0.1063 -0.0411  0.3892
  374TMC3     O 5651   1.541   1.332   9.736  0.5059  0.0960 -0.0085
  374TMC3     H 5652   1.850   1.519   9.856 -0.8630 -1.1049 -0.0994
  374TMC3    H1 5653   1.551   1.491   9.542 -1.3443  0.3141  2.7211
  374TMC3    H2 5654   1.920   1.725   9.495 -2.3321  2.4008  0.2213
  374TMC3    C7 5655   1.668   1.680   9.396  0.0240 -0.3812 -0.4710
  374TMC3    C8 5656   2.031   1.632   9.720  0.1896  0.3620  0.3433
  374TMC3    O1 5657   1.567   1.630   9.352  0.0063  0.5454 -0.4351
  374TMC3    O2 5658   2.080   1.730   9.665  1.1433 -0.3669 -0.6515
  375MPD2     C 5659   1.791   1.338  16.759  0.0126 -0.2343  0.7141
  375MPD2    C1 5660   1.795   1.414  16.645 -0.6693 -0.1121 -0.0274
  375MPD2    C2 5661   1.853   1.358  16.530  0.4344  0.7949  1.1940
  375MPD2    C3 5662   1.897   1.229  16.527 -0.3505  0.4208  0.2082
  375MPD2    C4 5663   1.891   1.154  16.636 -0.2774  0.5495 -0.5295
  375MPD2    C5 5664   1.844   1.210  16.753  0.0614 -0.2075  0.3874
  375MPD2     H 5665   1.857   1.418  16.440 -1.2349 -0.7969  0.0490
  375MPD2    H1 5666   1.940   1.057  16.648  0.0842  0.9783  1.5986
  375MPD2    H2 5667   1.755   1.381  16.852  0.8287 -1.0005  1.3786
  375MPD2    H3 5668   1.843   1.149  16.842 -0.8698 -0.0691  0.4695
  375MPD2     N 5669   1.935   1.166  16.410 -0.3764  0.2733  0.4136
  375MPD2    H5 5670   1.951   1.066  16.420 -0.1763  0.2632  0.0130
  375MPD2    N1 5671   1.734   1.539  16.634  0.1526 -0.2843 -0.7828
  375MPD2    H7 5672   1.734   1.583  16.543  3.2776 -0.0380 -0.6625
  376TMC3    C1 5673   1.975   1.121  16.170 -0.2647 -0.2108 -0.2519
  376TMC3    C2 5674   2.087   1.046  16.181 -0.3653 -0.2092 -0.2800
  376TMC3    C3 5675   2.154   0.996  16.067  0.5513 -0.0403 -0.2518
  376TMC3    C4 5676   1.919   1.142  16.044 -0.3712 -0.1043 -0.5793
  376TMC3    C5 5677   1.990   1.092  15.936 -0.8031 -0.5500  0.2850
  376TMC3    C6 5678   2.111   1.027  15.944  0.2526 -0.3315 -0.3235
  376TMC3     C 5679   1.933   1.209  16.280 -0.1190  0.8685 -0.1412
  376TMC3     O 5680   1.900   1.315  16.234  0.0574 -0.5236  0.0071
  376TMC3     H 5681   2.140   1.038  16.275 -1.0742  1.5254  0.2685
  376TMC3    H1 5682   1.849   1.223  16.031 -0.3141  0.1876  0.9442
  376TMC3    H2 5683   2.172   0.987  15.864  1.0980  0.8354 -0.2599
  376TMC3    C7 5684   1.945   1.125  15.799 -0.2647 -0.0497  0.3576
  376TMC3    C8 5685   2.302   0.991  16.070 -0.4458  0.5158 -0.6111
  376TMC3    O1 5686   1.881   1.226  15.794  0.2736 -0.2767  0.4888
  376TMC3    O2 5687   2.369   1.028  15.978 -0.3391  0.0400  0.1130
  377MPD2     C 5688   4.620   1.048  12.393 -0.0719  0.6281  0.2025
  377MPD2    C1 5689   4.698   1.011  12.498 -0.3488 -0.1984  0.3962
  377MPD2    C2 5690   4.649   0.951  12.608  0.4024 -0.4225  0.0638
  377MPD2    C3 5691   4.510   0.935  12.610  0.3742 -0.3059  0.0696
  377MPD2    C4 5692   4.429   0.991  12.513 -0.5588  0.1968 -0.7275
  377MPD2    C5 5693   4.484   1.045  12.401 -0.2787  0.3837  1.0038
  377MPD2     H 5694   4.708   0.913  12.691 -0.3878 -0.0502  0.7938
  377MPD2    H1 5695   4.320   0.993  12.514 -0.5736 -0.4622 -1.4433
  377MPD2    H2 5696   4.663   1.083  12.300 -1.0273  0.1674 -0.4144
  377MPD2    H3 5697   4.421   1.091  12.326  0.0851  0.0631  0.5020
  377MPD2     N 5698   4.449   0.871  12.720 -0.0059  0.0306  0.4629
  377MPD2    H5 5699   4.349   0.887  12.728  0.1113  0.3095  1.3518
  377MPD2    N1 5700   0.097   1.016  12.462  0.4615 -0.2797  0.2067
  377MPD2    H7 5701   0.125   1.028  12.365  0.9155 -2.9278 -0.0020
  378TMC3    C1 5702   0.469   1.013  12.302  0.0072 -0.2192 -0.3044
  378TMC3    C2 5703   0.345   1.022  12.355 -0.0769  0.1215  0.3492
  378TMC3    C3 5704   0.324   0.959  12.475 -0.0334 -0.5998  0.4791
  378TMC3    C4 5705   0.570   0.941  12.364 -0.3770  0.6745 -0.0102
  378TMC3    C5 5706   0.549   0.905  12.496  0.7145  0.2784  0.1028
  378TMC3    C6 5707   0.425   0.914  12.553 -0.1103 -0.8836  0.7267
  378TMC3     C 5708   0.473   1.060  12.166 -0.3605  0.1458 -0.6149
  378TMC3     O 5709   0.373   1.084  12.103 -0.1290 -0.6371  0.3802
  378TMC3     H 5710   0.265   1.082  12.312 -0.2411 -0.0677  0.3924
  378TMC3    H1 5711   0.666   0.931  12.315 -1.5891 -0.6841 -2.0916
  378TMC3    H2 5712   0.407   0.890  12.657 -0.6444 -1.1273  0.5814
  378TMC3    C7 5713   0.658   0.869  12.577  1.1298 -0.0726 -0.1835
  378TMC3    C8 5714   0.197   0.976  12.545  0.0654  0.1225 -0.4070
  378TMC3    O1 5715   0.640   0.795  12.674  0.1771  0.1267 -0.2745
  378TMC3    O2 5716   0.198   0.973  12.667 -0.0892  0.3433  0.2787
  379MPD2     C 5717   0.903   4.165  16.278 -0.2599  0.3217  0.4268
  379MPD2    C1 5718   0.830   4.112  16.383 -0.5608 -0.7114  0.0499
  379MPD2    C2 5719   0.892   4.036  16.481  0.0707 -0.3971  0.1934
  379MPD2    C3 5720   1.030   4.011  16.476  0.5289 -0.4561  0.7573
  379MPD2    C4 5721   1.098   4.062  16.367 -0.5282 -0.3089 -0.3149
  379MPD2    C5 5722   1.039   4.138  16.273 -0.0518 -0.5252 -0.3077
  379MPD2     H 5723   0.843   3.985  16.563 -1.3088  0.3462 -0.1747
  379MPD2    H1 5724   1.204   4.043  16.365 -0.2086  1.5918 -1.1063
  379MPD2    H2 5725   0.859   4.225  16.198  0.5845  0.0775 -0.2233
  379MPD2    H3 5726   1.102   4.172  16.191 -0.9900  1.1587 -0.3159
  379MPD2     N 5727   1.105   3.925  16.556  0.1739  0.1656  0.4863
  379MPD2    H5 5728   1.197   3.903  16.518  0.1357 -0.3706  0.7151
  379MPD2    N1 5729   0.692   4.121  16.368  0.4030  0.0950 -0.2005
  379MPD2    H7 5730   0.657   4.160  16.281 -0.6022 -0.2397  0.0488
  380TMC3    C1 5731   0.477   4.017  16.365  0.5814  0.2685  0.1748
  380TMC3    C2 5732   0.509   3.899  16.301  0.8120  0.2588  0.0752
  380TMC3    C3 5733   0.467   3.878  16.173  0.0544  0.1065 -0.1107
  380TMC3    C4 5734   0.411   4.116  16.292 -0.3398 -0.2206  0.5167
  380TMC3    C5 5735   0.362   4.087  16.170  0.7210 -0.0961  0.4434
  380TMC3    C6 5736   0.374   3.967  16.121 -0.0882  0.0795 -0.0619
  380TMC3     C 5737   0.598   4.054  16.443 -0.4932 -0.2573  1.0090
  380TMC3     O 5738   0.611   4.001  16.552 -0.5313  0.4208 -0.4830
  380TMC3     H 5739   0.568   3.837  16.367  0.4564 -0.1982 -0.0360
  380TMC3    H1 5740   0.416   4.217  16.331  0.6545  0.4603 -1.3384
  380TMC3    H2 5741   0.346   3.945  16.019 -0.6260  0.7127 -0.0506
  380TMC3    C7 5742   0.315   4.194  16.084  0.4602 -0.6124  0.0119
  380TMC3    C8 5743   0.570   3.861  16.065 -0.2094  1.0622  0.0200
  380TMC3    O1 5744   0.332   4.312  16.112  0.5469 -0.3392  0.4896
  380TMC3    O2 5745   0.539   3.880  15.949 -0.1445  0.0341 -0.5344
  381TMC3    C1 5746   0.217   0.696  16.190 -0.1315  0.6542  0.1665
  381TMC3    C2 5747   0.338   0.712  16.124  0.5115 -1.0711 -0.1133
  381TMC3    C3 5748   0.436   0.642  16.183 -0.3237 -0.0246  0.5913
  381TMC3    C4 5749   0.194   0.629  16.302  0.2135  0.3242  1.4687
  381TMC3    C5 5750   0.295   0.551  16.345 -0.4926 -0.8929  0.4450
  381TMC3    C6 5751   0.418   0.566  16.289 -0.1789  1.1179  0.0748
  381TMC3     C 5752   0.129   0.808  16.175  0.1843  0.5005  0.2564
  381TMC3     O 5753   0.043   0.821  16.260  0.0449 -0.3682 -1.2389
  381TMC3     H 5754   0.362   0.790  16.052 -0.7548  0.4397  1.0963
  381TMC3    H1 5755   0.089   0.621  16.326  0.2069 -1.5794  0.8151
  381TMC3    H2 5756   0.503   0.540  16.351  1.4130 -0.0510 -2.5932
  381TMC3    C7 5757   0.300   0.503  16.486 -0.9579 -0.7139  0.1032
  381TMC3    C8 5758   0.573   0.681  16.162 -0.1962  0.0489 -0.0213
  381TMC3    O1 5759   0.390   0.428  16.521  0.2145 -0.3075  0.1243
  381TMC3    O2 5760   0.645   0.592  16.117 -0.1872 -0.5276 -0.2988
  382MPD2     C 5761   4.616   3.000  17.016  0.3086 -0.4696 -0.3299
  382MPD2    C1 5762   4.551   3.118  17.048 -0.2877  0.2959 -0.4132
  382MPD2    C2 5763   4.413   3.111  17.083 -0.0328  0.4051 -0.9777
  382MPD2    C3 5764   4.347   2.981  17.094 -0.3202  0.1276  0.0606
  382MPD2    C4 5765   4.421   2.871  17.076  0.2926  0.5138  0.2849
  382MPD2    C5 5766   4.551   2.881  17.034 -0.3550 -0.3759 -0.4307
  382MPD2     H 5767   4.364   3.202  17.114 -0.2242  0.3577 -1.1432
  382MPD2    H1 5768   4.381   2.771  17.090 -1.0376  0.6615 -2.3823
  382MPD2    H2 5769   4.718   3.009  16.981  0.0233  0.3571 -0.9517
  382MPD2    H3 5770   4.599   2.784  17.023  1.6638  0.1863  3.2491
  382MPD2     N 5771   4.205   2.966  17.119  0.3108  0.1886  0.8940
  382MPD2    H5 5772   4.161   2.876  17.099  1.4216 -0.0454 -0.5824
  382MPD2    N1 5773   4.613   3.241  17.061  0.3959  0.3549 -0.1885
  382MPD2    H7 5774   4.544   3.312  17.084  0.2101 -0.0571  0.5148
  383TMC3    C1 5775   3.985   3.037  17.161  0.0249 -0.1204 -0.3693
  383TMC3    C2 5776   3.939   2.906  17.173 -0.2573  0.0649 -0.7134
  383TMC3    C3 5777   3.810   2.885  17.203  0.1495  0.4563  0.0755
  383TMC3    C4 5778   3.907   3.145  17.187 -0.1156 -0.7216 -0.0422
  383TMC3    C5 5779   3.784   3.114  17.232  0.9475  0.0287  0.2183
  383TMC3    C6 5780   3.732   2.991  17.241 -0.1800  0.0092  0.0157
  383TMC3     C 5781   4.126   3.070  17.147 -0.3417  0.0878 -0.2977
  383TMC3     O 5782   4.147   3.192  17.139  0.1661 -0.3496  0.4509
  383TMC3     H 5783   4.003   2.820  17.156  0.6644  0.4890  0.5531
  383TMC3    H1 5784   3.949   3.244  17.177  2.2338 -1.3652  3.1284
  383TMC3    H2 5785   3.631   2.982  17.279 -0.5737  1.4750 -0.6775
  383TMC3    C7 5786   3.693   3.221  17.224 -0.3052 -0.3556 -0.0392
  383TMC3    C8 5787   3.746   2.753  17.198 -0.1209 -0.1714  0.5597
  383TMC3    O1 5788   3.581   3.180  17.192  0.5202  0.0132 -0.2619
  383TMC3    O2 5789   3.627   2.738  17.217  0.0417 -0.3373 -0.2186
  384MPD2     C 5790   0.888   4.114  12.213  0.1666 -0.5685  0.1214
  384MPD2    C1 5791   0.913   4.045  12.323  0.1175  0.4946  0.6843
  384MPD2    C2 5792   1.043   3.989  12.338 -0.1908 -0.2740 -0.6654
  384MPD2    C3 5793   1.146   3.999  12.240  0.6200 -0.1863  1.0595
  384MPD2    C4 5794   1.113   4.076  12.131  0.4447 -0.0990 -0.1058
  384MPD2    C5 5795   0.987   4.127  12.117  0.2367 -0.6714 -0.4909
  384MPD2     H 5796   1.053   3.938  12.433 -1.0944 -0.3065 -0.5825
  384MPD2    H1 5797   1.187   4.099  12.055 -0.3443  1.9964 -0.2337
  384MPD2    H2 5798   0.797   4.169  12.192 -0.0411 -1.2043 -0.6612
  384MPD2    H3 5799   0.963   4.181  12.026  1.8377 -0.1020 -0.5608
  384MPD2     N 5800   1.278   3.939  12.258  0.5250  0.3687  0.6297
  384MPD2    H5 5801   1.360   3.967  12.204  1.4384  1.4655  2.5732
  384MPD2    N1 5802   0.828   4.035  12.436  0.0500 -0.1501 -0.2170
  384MPD2    H7 5803   0.867   3.978  12.511  2.1903  2.0413  0.3170
  385TMC3    C1 5804   1.457   3.859  12.391 -0.1111  0.1472  0.5160
  385TMC3    C2 5805   1.521   3.763  12.317  0.0948  0.2707 -0.4463
  385TMC3    C3 5806   1.613   3.676  12.375 -0.5471  0.9110 -0.2057
  385TMC3    C4 5807   1.474   3.847  12.527 -0.1657 -0.7644  0.1640
  385TMC3    C5 5808   1.546   3.752  12.592  0.0315 -0.2523  0.3610
  385TMC3    C6 5809   1.630   3.677  12.514 -0.0549  0.3167  0.3123
  385TMC3     C 5810   1.308   3.867  12.364 -0.3712  0.5297  0.2741
  385TMC3     O 5811   1.240   3.812  12.449  0.0443 -0.3796  0.0322
  385TMC3     H 5812   1.492   3.757  12.212 -1.6901 -0.3613  0.0785
  385TMC3    H1 5813   1.411   3.911  12.588 -1.0399 -2.3876  0.9995
  385TMC3    H2 5814   1.695   3.601  12.554 -0.1705 -0.0607 -0.2200
  385TMC3    C7 5815   1.481   3.681  12.704 -0.4853 -0.7178 -0.1078
  385TMC3    C8 5816   1.688   3.590  12.291  0.1287  0.0780  0.4120
  385TMC3    O1 5817   1.555   3.636  12.793  0.1022 -0.1938  0.1596
  385TMC3    O2 5818   1.809   3.576  12.323 -0.1503  0.1105 -0.3519
  386TMC3    C1 5819   1.734   1.526  11.670 -0.4354 -0.1550 -0.2997
  386TMC3    C2 5820   1.707   1.581  11.550  0.2142 -0.2059 -0.1386
  386TMC3    C3 5821   1.594   1.651  11.537 -0.3944 -0.8988 -0.2205
  386TMC3    C4 5822   1.647   1.536  11.780 -0.7969  0.0880 -0.5877
  386TMC3    C5 5823   1.536   1.614  11.763  0.0241  0.1440  0.2603
  386TMC3    C6 5824   1.511   1.672  11.643  0.2234 -0.1930  0.4967
  386TMC3     C 5825   1.848   1.441  11.675  0.2296  0.2504 -0.2820
  386TMC3     O 5826   1.880   1.411  11.563 -0.6922 -0.8188  0.3478
  386TMC3     H 5827   1.779   1.576  11.468  2.2780  0.3990  1.6265
  386TMC3    H1 5828   1.654   1.480  11.872  0.1933 -2.2171 -2.0704
  386TMC3    H2 5829   1.437   1.751  11.640 -2.2254 -2.5067 -0.0430
  386TMC3    C7 5830   1.419   1.568  11.829 -0.7689  0.2249  0.4695
  386TMC3    C8 5831   1.529   1.657  11.410 -0.5511  0.1443  0.6338
  386TMC3    O1 5832   1.417   1.543  11.948  0.4941 -0.1553 -0.5084
  386TMC3    O2 5833   1.406   1.659  11.424 -0.5623 -1.0496  0.7074
  387MPD2     C 5834   3.368   1.315  10.194 -1.1325  0.2139  0.2395
  387MPD2    C1 5835   3.505   1.329  10.168  0.1999 -0.5034  0.3686
  387MPD2    C2 5836   3.574   1.234  10.100 -0.0894  0.0791 -0.0795
  387MPD2    C3 5837   3.512   1.119  10.065  0.1176  0.0925 -0.9340
  387MPD2    C4 5838   3.378   1.097  10.103  0.3878  0.6332 -0.3511
  387MPD2    C5 5839   3.308   1.194  10.171 -0.2046  0.2523  0.6696
  387MPD2     H 5840   3.680   1.237  10.078 -0.1142 -1.5826 -0.3883
  387MPD2    H1 5841   3.327   1.001  10.101  3.4397 -1.0332  0.7916
  387MPD2    H2 5842   3.319   1.396  10.248  0.4358  1.1659  0.2189
  387MPD2    H3 5843   3.210   1.171  10.212  0.4527  0.0756  2.1285
  387MPD2     N 5844   3.592   1.012  10.024  0.5758  0.7138  0.7442
  387MPD2    H5 5845   3.692   1.026  10.017  0.5822 -0.0225 -0.6516
  387MPD2    N1 5846   3.588   1.436  10.212  0.1692 -0.4219 -0.0127
  387MPD2    H7 5847   3.683   1.436  10.178  0.7329 -1.0162  1.5921
  388TMC3    C1 5848   3.662   1.608  10.353  0.4722 -0.2966 -0.1386
  388TMC3    C2 5849   3.656   1.736  10.394 -0.1107  0.1701  0.3486
  388TMC3    C3 5850   3.773   1.793  10.446  0.5168  0.0216 -0.2306
  388TMC3    C4 5851   3.778   1.536  10.377 -0.1417  0.5537  0.4529
  388TMC3    C5 5852   3.889   1.591  10.437  0.3312  0.2907  0.7810
  388TMC3    C6 5853   3.894   1.726  10.458 -0.7395 -0.5574  0.1292
  388TMC3     C 5854   3.549   1.538  10.290  0.1922 -0.5764 -0.3559
  388TMC3     O 5855   3.439   1.587  10.307  0.9672  0.3554 -0.1978
  388TMC3     H 5856   3.572   1.797  10.363 -0.7687 -0.7023  0.4079
  388TMC3    H1 5857   3.779   1.433  10.344  2.0497  1.5622 -2.6438
  388TMC3    H2 5858   3.989   1.776  10.471 -1.1021  0.0661  0.3516
  388TMC3    C7 5859   4.014   1.514  10.424  0.0699 -0.0055  0.6335
  388TMC3    C8 5860   3.769   1.932  10.477 -0.1745 -0.0073  0.1638
  388TMC3    O1 5861   4.119   1.566  10.391 -0.4158 -0.0829 -0.2898
  388TMC3    O2 5862   3.705   2.000  10.396 -0.4044 -0.3184  0.1485
  389MPD2     C 5863   3.277   4.590  11.382 -0.6106  0.2625 -0.4871
  389MPD2    C1 5864   3.171   4.516  11.326  0.2346 -0.2358 -0.1944
  389MPD2    C2 5865   3.091   4.441  11.416 -0.7215 -0.2581 -0.9196
  389MPD2    C3 5866   3.132   4.429  11.548  0.3875  0.0289 -0.3815
  389MPD2    C4 5867   3.231   4.502  11.600  0.3029  0.1374 -0.1749
  389MPD2    C5 5868   3.301   4.581  11.515 -0.0043 -0.0938 -0.0664
  389MPD2     H 5869   2.998   4.393  11.388 -1.1560 -0.5671  1.0530
  389MPD2    H1 5870   3.256   4.494  11.705  0.6866  0.0532 -0.2737
  389MPD2    H2 5871   3.340   4.645  11.312 -0.5971 -0.9707 -1.4484
  389MPD2    H3 5872   3.386   4.637  11.550 -0.5620  1.4098 -1.1256
  389MPD2     N 5873   3.063   4.335  11.635  0.1559 -0.1184  0.8922
  389MPD2    H5 5874   3.086   4.332  11.734 -0.6198  0.3047  1.0818
  389MPD2    N1 5875   3.148   4.524  11.187  0.7130  0.0543 -0.3830
  389MPD2    H7 5876   3.220   4.572  11.134 -0.3803  1.1606 -0.8612
  390TMC3    C1 5877   2.903   4.183  11.713  0.0123 -0.5862 -1.2621
  390TMC3    C2 5878   2.849   4.059  11.693  0.4168 -0.1666  0.1398
  390TMC3    C3 5879   2.749   4.016  11.774 -0.3853 -0.1576 -0.2452
  390TMC3    C4 5880   2.854   4.259  11.815  0.4286  0.2236 -0.0010
  390TMC3    C5 5881   2.769   4.204  11.902 -0.2296 -0.0735  0.3303
  390TMC3    C6 5882   2.714   4.081  11.888 -0.0748  0.5430  0.8306
  390TMC3     C 5883   2.980   4.233  11.602  0.2091 -0.1122 -0.1091
  390TMC3     O 5884   3.010   4.167  11.501 -0.2890 -0.1383  0.2307
  390TMC3     H 5885   2.882   3.998  11.610 -3.0710 -0.5355 -0.9777
  390TMC3    H1 5886   2.862   4.367  11.821 -2.2093  0.3805  0.7271
  390TMC3    H2 5887   2.633   4.046  11.951 -0.6972 -1.2690 -0.9867
  390TMC3    C7 5888   2.706   4.291  12.008 -0.3443  0.3425 -0.5688
  390TMC3    C8 5889   2.713   3.877  11.761 -0.8862 -0.3420 -0.3618
  390TMC3    O1 5890   2.702   4.410  11.988 -0.3341 -0.6185 -0.1544
  390TMC3    O2 5891   2.719   3.829  11.645  0.3450 -0.1731  0.0972
  391MPD2     C 5892   2.203   0.958  11.108 -0.2028  0.8993 -0.3090
  391MPD2    C1 5893   2.321   1.029  11.112  0.1652 -0.1631  0.2235
  391MPD2    C2 5894   2.372   1.091  11.002  0.6289  0.1382 -0.3413
  391MPD2    C3 5895   2.299   1.108  10.885  0.1212 -0.0316  0.1740
  391MPD2    C4 5896   2.178   1.043  10.879  0.4824 -0.0959 -0.2628
  391MPD2    C5 5897   2.134   0.974  10.988  0.1436  0.0402 -0.6226
  391MPD2     H 5898   2.471   1.132  10.992  0.6971 -0.1035 -0.6651
  391MPD2    H1 5899   2.110   1.049  10.794  1.3104 -2.1480 -1.0705
  391MPD2    H2 5900   2.164   0.906  11.194 -0.4518 -0.4829 -1.2397
  391MPD2    H3 5901   2.038   0.924  10.986  0.3300 -0.3063 -0.8703
  391MPD2     N 5902   2.354   1.178  10.779 -0.3307 -0.4449  0.9443
  391MPD2    H5 5903   2.442   1.226  10.796 -0.3150 -0.0208 -0.3575
  391MPD2    N1 5904   2.385   1.034  11.243 -0.0367 -0.3586  0.1729
  391MPD2    H7 5905   2.353   0.978  11.322  1.6489  0.9468  1.7599
  392TMC3    C1 5906   2.378   1.273  10.560  0.8126 -0.1407  0.7865
  392TMC3    C2 5907   2.352   1.276  10.426  0.6491 -0.1132  0.5868
  392TMC3    C3 5908   2.424   1.348  10.339  0.1013 -0.7705  0.4366
  392TMC3    C4 5909   2.482   1.347  10.608  0.5057 -0.1746 -0.2025
  392TMC3    C5 5910   2.565   1.411  10.518  0.1438  0.3986 -0.7625
  392TMC3    C6 5911   2.535   1.412  10.385 -0.0921  0.7024  0.2363
  392TMC3     C 5912   2.302   1.185  10.653  0.0551 -0.6366  0.6831
  392TMC3     O 5913   2.210   1.125  10.600  0.1144 -0.7792 -0.2460
  392TMC3     H 5914   2.253   1.240  10.403  0.5755 -0.8034  1.9929
  392TMC3    H1 5915   2.504   1.346  10.714 -1.0685  2.3077  0.1474
  392TMC3    H2 5916   2.599   1.464  10.315 -1.1119  2.4091  0.5490
  392TMC3    C7 5917   2.652   1.510  10.564 -0.3070 -0.5396 -0.5847
  392TMC3    C8 5918   2.347   1.382  10.223  0.3380  0.6064 -0.4732
  392TMC3    O1 5919   2.679   1.511  10.681 -0.3903  0.4861  0.2065
  392TMC3    O2 5920   2.228   1.397  10.235  0.6713 -0.2037  0.4699
  393TMC3    C1 5921   0.678   3.917  11.029 -0.1861  0.2291  0.0014
  393TMC3    C2 5922   0.572   3.904  10.941 -0.7855 -0.1204  0.4322
  393TMC3    C3 5923   0.489   3.795  10.960  0.2216  1.2628  0.1344
  393TMC3    C4 5924   0.695   3.846  11.142  0.2036  0.2863  0.9301
  393TMC3    C5 5925   0.612   3.736  11.154 -0.2211  0.3954  0.0398
  393TMC3    C6 5926   0.515   3.705  11.062  0.3494  0.3781 -0.0468
  393TMC3     C 5927   0.770   4.028  10.997  0.4901  0.3723  1.1617
  393TMC3     O 5928   0.772   4.063  10.877  0.3071 -0.5683  0.1527
  393TMC3     H 5929   0.561   3.980  10.865 -0.4253 -3.6098 -3.0759
  393TMC3    H1 5930   0.790   3.846  11.194 -0.0608  0.5539  1.4177
  393TMC3    H2 5931   0.449   3.619  11.065 -0.9400  1.3959  0.6398
  393TMC3    C7 5932   0.660   3.620  11.238  0.2410  0.0362 -0.2171
  393TMC3    C8 5933   0.392   3.758  10.851  0.0715  0.3143  0.8969
  393TMC3    O1 5934   0.620   3.507  11.209 -0.1800  0.2215 -0.3221
  393TMC3    O2 5935   0.346   3.649  10.842 -0.3601 -0.7618  0.2249
  394TMC3    C1 5936   3.034   4.500  10.975 -0.1110  0.6650  0.1598
  394TMC3    C2 5937   2.969   4.410  10.891  1.2171  0.0188 -0.1754
  394TMC3    C3 5938   2.989   4.418  10.751  0.0444  0.1165 -0.3459
  394TMC3    C4 5939   3.109   4.600  10.910  0.3480 -0.5441  0.6845
  394TMC3    C5 5940   3.113   4.612  10.773  0.3637 -0.5964 -0.1681
  394TMC3    C6 5941   3.052   4.524  10.687  0.6020  0.0830 -0.0357
  394TMC3     C 5942   3.045   4.466  11.118  0.0922 -0.2166 -0.7234
  394TMC3     O 5943   2.946   4.408  11.170  0.9669 -0.3375 -0.1176
  394TMC3     H 5944   2.921   4.329  10.945 -1.1426  0.9450 -0.9020
  394TMC3    H1 5945   3.144   4.676  10.979 -3.2754  1.3114  0.4414
  394TMC3    H2 5946   3.071   4.533  10.581  0.3401  3.2415  0.2002
  394TMC3    C7 5947   3.205   4.709  10.709 -0.1179 -0.0495 -0.1155
  394TMC3    C8 5948   2.945   4.299  10.682  0.7893  0.0101  0.1129
  394TMC3    O1 5949   3.192   0.000  10.589  0.5528 -0.3555 -0.3106
  394TMC3    O2 5950   2.918   4.200  10.749  0.1491 -0.7465 -0.5056
  395TMC3    C1 5951   2.949   1.253  15.009  0.1023 -0.4164  0.4068
  395TMC3    C2 5952   2.812   1.233  15.004 -0.2322 -0.0510  0.0161
  395TMC3    C3 5953   2.733   1.341  14.979 -0.5364 -0.2522  0.5620
  395TMC3    C4 5954   3.009   1.368  14.975  0.1092 -0.5175 -0.2115
  395TMC3    C5 5955   2.928   1.476  14.952  0.1753  0.0899  0.1307
  395TMC3    C6 5956   2.792   1.467  14.958  0.5488  0.6479 -0.4938
  395TMC3     C 5957   3.026   1.147  15.069  0.1204 -0.3639 -0.2905
  395TMC3     O 5958   3.138   1.123  15.021  0.1480 -0.7469  0.0182
  395TMC3     H 5959   2.777   1.132  15.023 -0.9331  0.0945 -0.4846
  395TMC3    H1 5960   3.116   1.377  14.959 -0.3649  1.3281 -2.2420
  395TMC3    H2 5961   2.735   1.559  14.955 -2.6976 -1.3986 -0.8665
  395TMC3    C7 5962   2.989   1.610  14.957 -0.5941  0.2013 -0.4132
  395TMC3    C8 5963   2.615   1.338  15.053 -0.3168 -0.3213  1.3848
  395TMC3    O1 5964   2.944   1.702  15.033 -0.1821 -0.0911  1.1094
  395TMC3    O2 5965   2.593   1.438  15.121  0.0100 -0.6160 -0.4231
  396MPD2     C 5966   2.308   2.881  17.691  0.1051 -0.6607  0.0174
  396MPD2    C1 5967   2.364   2.871  17.561 -0.0621 -0.1066  0.3125
  396MPD2    C2 5968   2.384   2.988  17.490 -0.1355  0.3382 -0.2101
  396MPD2    C3 5969   2.364   3.112  17.548  0.0330 -0.3722  0.0606
  396MPD2    C4 5970   2.307   3.122  17.672 -0.5112 -0.6859 -0.0190
  396MPD2    C5 5971   2.282   3.006  17.744  0.2992 -0.2313  0.1288
  396MPD2     H 5972   2.435   2.995  17.394  0.3734 -0.1028  0.0326
  396MPD2    H1 5973   2.292   3.215  17.726  1.6212 -0.9897  1.1252
  396MPD2    H2 5974   2.283   2.794   0.002 -2.9379  1.1320  1.4155
  396MPD2    H3 5975   2.245   3.022   0.096  0.9947 -0.4629  0.4164
  396MPD2     N 5976   2.385   3.230  17.471  0.4005  0.0286  0.9357
  396MPD2    H5 5977   2.399   3.226  17.370 -1.1339 -2.2286  0.8237
  396MPD2    N1 5978   2.392   2.746  17.493 -0.3909 -0.5255 -0.4462
  396MPD2    H7 5979   2.366   2.663  17.547  2.5379 -0.5088  0.9988
  397TMC3    C1 5980   2.457   2.579  17.346 -0.3629  0.2694  0.0417
  397TMC3    C2 5981   2.496   2.556  17.213  0.1767 -0.3223 -0.6845
  397TMC3    C3 5982   2.537   2.428  17.177  0.3846 -0.2055  0.3957
  397TMC3    C4 5983   2.511   2.496  17.445 -0.5220 -0.2503 -0.1114
  397TMC3    C5 5984   2.546   2.370  17.404 -0.4198 -0.3350 -0.3728
  397TMC3    C6 5985   2.548   2.330  17.271  0.1645 -0.0493 -0.2195
  397TMC3     C 5986   2.450   2.724  17.374 -0.4673 -0.7908 -0.0585
  397TMC3     O 5987   2.473   2.806  17.286 -0.0208  0.0079  0.5167
  397TMC3     H 5988   2.444   2.611  17.136 -0.5768 -0.4606 -0.2734
  397TMC3    H1 5989   2.497   2.518  17.550  2.0596 -0.3240  0.2524
  397TMC3    H2 5990   2.567   2.226  17.245  0.9697 -0.0545  0.3629
  397TMC3    C7 5991   2.511   2.270  17.506  0.5395 -0.6085 -0.6958
  397TMC3    C8 5992   2.582   2.402  17.045  0.0393 -0.1079 -0.2211
  397TMC3    O1 5993   2.479   2.156  17.467 -0.2320 -0.1310  0.3188
  397TMC3    O2 5994   2.591   2.289  16.998  0.0753 -0.3644  0.0236
  398MPD2     C 5995   0.807   3.859   0.482 -0.4938 -0.4413  0.2476
  398MPD2    C1 5996   0.928   3.797   0.505 -0.2407  0.5952  0.2907
  398MPD2    C2 5997   1.029   3.874   0.550  0.6838 -0.9187 -0.4944
  398MPD2    C3 5998   1.000   3.994   0.614 -0.0491 -0.1305 -0.6282
  398MPD2    C4 5999   0.876   4.050   0.612  0.0149  0.1415 -0.2291
  398MPD2    C5 6000   0.786   3.990   0.528  0.0194  0.4019 -0.3297
  398MPD2     H 6001   1.120   3.816   0.558  0.2340 -1.4358  0.8845
  398MPD2    H1 6002   0.838   4.133   0.670 -3.3874 -2.2597  0.9841
  398MPD2    H2 6003   0.721   3.807   0.443 -0.7279 -1.2863  1.8851
  398MPD2    H3 6004   0.688   4.032   0.515 -0.0596  0.1135 -0.6759
  398MPD2     N 6005   1.109   4.048   0.688  0.0301 -0.3283 -0.5066
  398MPD2    H5 6006   1.196   3.996   0.683 -0.1156 -0.3868 -2.3294
  398MPD2    N1 6007   0.964   3.662   0.473 -0.2188 -0.3643  0.1731
  398MPD2    H7 6008   1.054   3.628   0.505  1.5475  1.2772 -3.0069
  399TMC3    C1 6009   0.942   3.452   0.392 -0.5206  0.3280  0.1678
  399TMC3    C2 6010   1.077   3.439   0.413  0.0521 -0.0929 -0.0214
  399TMC3    C3 6011   1.131   3.315   0.415  0.0345  0.2125  0.6440
  399TMC3    C4 6012   0.865   3.338   0.369  0.2193  0.3980  0.4090
  399TMC3    C5 6013   0.921   3.218   0.392  0.0084  0.5322 -1.3016
  399TMC3    C6 6014   1.050   3.204   0.425  0.6206 -0.2262 -0.3775
  399TMC3     C 6015   0.876   3.580   0.416 -0.0011  0.3880  0.1314
  399TMC3     O 6016   0.773   3.601   0.353 -0.1855  0.7277 -0.3211
  399TMC3     H 6017   1.140   3.524   0.434 -0.2170 -0.1035  0.8191
  399TMC3    H1 6018   0.765   3.344   0.329  0.6686 -0.6274 -0.9004
  399TMC3    H2 6019   1.096   3.108   0.446 -0.2520 -0.3126  1.1115
  399TMC3    C7 6020   0.840   3.097   0.375 -0.4660  0.5315  0.1103
  399TMC3    C8 6021   1.278   3.304   0.418  0.1780  0.5142  0.0743
  399TMC3    O1 6022   0.767   3.076   0.280  0.6305  0.0617 -0.3083
  399TMC3    O2 6023   1.345   3.406   0.414 -0.3476  0.0017  0.1892
  400TMC3    C1 6024   4.255   2.191  16.775 -0.2361  0.4577 -0.2588
  400TMC3    C2 6025   4.153   2.158  16.686 -0.7775 -0.3422 -0.5041
  400TMC3    C3 6026   4.062   2.253  16.650 -1.0020 -0.8946  0.1399
  400TMC3    C4 6027   4.270   2.321  16.820 -0.5718  0.2632 -1.0194
  400TMC3    C5 6028   4.180   2.417  16.774  0.1086 -0.1317 -0.9234
  400TMC3    C6 6029   4.070   2.379  16.699 -0.2480 -0.0859 -0.2877
  400TMC3     C 6030   4.347   2.085  16.810  0.9132  0.7862 -0.9134
  400TMC3     O 6031   4.332   1.981  16.745  0.0924  0.2603  0.8796
  400TMC3     H 6032   4.147   2.054  16.657  1.3000 -0.7046  0.3910
  400TMC3    H1 6033   4.362   2.349  16.870 -0.4305  2.1645 -2.3637
  400TMC3    H2 6034   3.990   2.448  16.674 -0.6068  0.0860  1.3002
  400TMC3    C7 6035   4.196   2.550  16.819 -0.4511  0.0909 -0.4817
  400TMC3    C8 6036   3.933   2.190  16.634  0.2356  0.7924  0.2430
  400TMC3    O1 6037   4.311   2.593  16.828 -0.0883  0.3115 -0.3015
  400TMC3    O2 6038   3.845   2.227  16.714  0.0980  0.1990  0.2924
  401MPD2     C 6039   2.546   1.501   0.436  0.1054 -0.7524 -0.2146
  401MPD2    C1 6040   2.620   1.402   0.518  0.4236  0.7600  0.3422
  401MPD2    C2 6041   2.591   1.270   0.502  0.2068 -0.5525 -0.4831
  401MPD2    C3 6042   2.489   1.230   0.422 -0.0069  0.3661  0.0598
  401MPD2    C4 6043   2.414   1.317   0.343  0.3262  0.2203  0.1068
  401MPD2    C5 6044   2.449   1.450   0.346  0.0754  0.4921  0.5482
  401MPD2     H 6045   2.630   1.194   0.569 -1.0011  1.0271  2.0215
  401MPD2    H1 6046   2.334   1.282   0.279  0.3410  1.7463 -0.7177
  401MPD2    H2 6047   2.575   1.605   0.436 -4.1456  0.4612 -0.2803
  401MPD2    H3 6048   2.402   1.516   0.273 -0.4941  1.6267  1.9451
  401MPD2     N 6049   2.455   1.095   0.442 -0.8749  0.3181 -0.9907
  401MPD2    H5 6050   2.503   1.036   0.509  0.6524  1.8646 -0.7228
  401MPD2    N1 6051   2.732   1.428   0.605  0.4725  0.2195 -0.6766
  401MPD2    H7 6052   2.779   1.345   0.639  0.1772  0.4232  0.2406
  402TMC3    C1 6053   2.362   0.879   0.397 -0.6988  0.3277  0.1130
  402TMC3    C2 6054   2.369   0.846   0.522  0.2368  0.1542  0.5074
  402TMC3    C3 6055   2.374   0.713   0.550 -0.0057  0.6632  0.4667
  402TMC3    C4 6056   2.369   0.793   0.295  0.1245  0.2999 -0.0001
  402TMC3    C5 6057   2.380   0.659   0.325  0.1908 -0.2008 -0.3774
  402TMC3    C6 6058   2.385   0.616   0.452 -0.6661 -0.1937  0.3527
  402TMC3     C 6059   2.378   1.022   0.356 -0.2841  0.2265 -0.3028
  402TMC3     O 6060   2.346   1.049   0.242  0.7772 -0.1874 -0.5517
  402TMC3     H 6061   2.372   0.921   0.601 -0.0632  2.6353 -1.8416
  402TMC3    H1 6062   2.367   0.825   0.192  0.9640  3.3395  0.9514
  402TMC3    H2 6063   2.394   0.512   0.482 -0.7795 -0.4127 -0.3512
  402TMC3    C7 6064   2.469   0.594   0.229 -0.5865  0.1315 -0.3755
  402TMC3    C8 6065   2.426   0.670   0.680  0.0470 -0.3514  0.1279
  402TMC3    O1 6066   2.472   0.643   0.118  0.3600 -0.0183 -0.0778
  402TMC3    O2 6067   2.461   0.554   0.698  0.3867 -0.2207  0.3434
  403MPD2     C 6068   1.071   2.792  13.170  0.0705 -0.6483  0.2405
  403MPD2    C1 6069   1.049   2.882  13.277  0.6692  0.0535  0.7808
  403MPD2    C2 6070   1.156   2.932  13.347 -0.2057  0.1708 -0.0828
  403MPD2    C3 6071   1.287   2.901  13.310  0.5068  0.1146  0.0656
  403MPD2    C4 6072   1.313   2.812  13.208 -0.0394  0.0095 -0.4671
  403MPD2    C5 6073   1.205   2.754  13.148 -0.3565 -0.0842 -0.8409
  403MPD2     H 6074   1.143   3.012  13.420  2.3626  1.2377 -0.7887
  403MPD2    H1 6075   1.412   2.801  13.165 -0.2689 -1.6058 -0.5889
  403MPD2    H2 6076   0.990   2.742  13.119 -0.7627 -0.1648  1.0821
  403MPD2    H3 6077   1.210   2.689  13.061  2.1167  1.1896 -1.6362
  403MPD2     N 6078   1.384   2.972  13.388  0.1623 -0.4358 -0.2458
  403MPD2    H5 6079   1.353   3.048  13.448  1.2648 -0.2780  0.1167
  403MPD2    N1 6080   0.915   2.918  13.298  0.0850 -0.0995  0.2403
  403MPD2    H7 6081   0.843   2.892  13.232  1.0638  2.5233 -1.8598
  404TMC3    C1 6082   0.736   3.037  13.401 -0.1759  0.5377  0.1592
  404TMC3    C2 6083   0.672   3.059  13.523  0.0945  0.0168  0.6487
  404TMC3    C3 6084   0.552   3.124  13.519  0.2221  0.5282  0.3700
  404TMC3    C4 6085   0.702   3.091  13.281  0.5538  0.3789 -0.4028
  404TMC3    C5 6086   0.581   3.156  13.286  0.4333 -0.5409  0.0212
  404TMC3    C6 6087   0.507   3.177  13.400 -0.4400  0.4640 -0.2709
  404TMC3     C 6088   0.878   2.996  13.409  0.5659  0.0876 -0.4420
  404TMC3     O 6089   0.941   3.031  13.508  0.3422  0.0479 -0.8638
  404TMC3     H 6090   0.715   3.021  13.615 -0.4133 -0.8084  0.5399
  404TMC3    H1 6091   0.762   3.069  13.194  0.1283  2.1950 -1.1379
  404TMC3    H2 6092   0.428   3.252  13.403  2.5064  3.5793 -0.9066
  404TMC3    C7 6093   0.513   3.179  13.166  0.5829  0.4865 -0.1834
  404TMC3    C8 6094   0.505   3.187  13.643 -0.4545 -0.0149 -0.3807
  404TMC3    O1 6095   0.586   3.187  13.066  0.2773 -0.5220 -0.1091
  404TMC3    O2 6096   0.384   3.178  13.669  0.1279  0.1033 -0.2661
  405MPD2     C 6097   1.208   0.001  15.134  0.1663 -0.5900  0.3853
  405MPD2    C1 6098   1.155   4.612  15.101 -0.0130 -0.4346  0.1436
  405MPD2    C2 6099   1.024   4.604  15.052  0.5275 -0.4100  0.0134
  405MPD2    C3 6100   0.938   4.708  15.059  0.3254  0.3626 -0.1722
  405MPD2    C4 6101   0.993   0.102  15.095  0.3202 -0.7840 -0.4183
  405MPD2    C5 6102   1.122   0.113  15.135 -0.4816  0.1654 -0.3167
  405MPD2     H 6103   0.982   4.506  15.030 -1.6757  0.5105  0.1654
  405MPD2    H1 6104   0.944   0.198  15.094 -0.0179 -0.9741 -2.2342
  405MPD2    H2 6105   1.304   0.012  15.183  0.4960  1.7069 -0.8216
  405MPD2    H3 6106   1.156   0.208  15.177 -0.2054  1.0521 -2.5720
  405MPD2     N 6107   0.799   4.703  15.041  0.0517 -0.6802 -0.8118
  405MPD2    H5 6108   0.745   0.052  15.044  0.3333 -0.5138 -0.5239
  405MPD2    N1 6109   1.230   4.495  15.099  0.4314 -0.3573 -0.9373
  405MPD2    H7 6110   1.187   4.414  15.056 -1.0791  0.9226 -1.8584
  406TMC3    C1 6111   0.440   4.590  14.858 -0.6678  0.0530  0.5316
  406TMC3    C2 6112   0.398   4.469  14.882 -0.1893  0.7034  0.8745
  406TMC3    C3 6113   0.443   4.398  14.984 -0.3815 -0.6901  0.0625
  406TMC3    C4 6114   0.531   4.650  14.939 -0.2354 -0.5431  0.0927
  406TMC3    C5 6115   0.583   4.581  15.042  0.3989 -0.4137  0.0606
  406TMC3    C6 6116   0.524   4.463  15.083  0.0893 -0.0035  0.2436
  406TMC3     C 6117   0.367   4.671  14.762 -0.6652 -0.4260 -0.0242
  406TMC3     O 6118   0.335   0.043  14.805 -0.0136  0.9573 -0.5096
  406TMC3     H 6119   0.323   4.419  14.822  0.3032  0.8308  0.1634
  406TMC3    H1 6120   0.573   0.005  14.903  0.5087 -1.4838 -1.4279
  406TMC3    H2 6121   0.574   4.404  15.159  0.9895 -3.2399 -2.8419
  406TMC3    C7 6122   0.731   4.580  15.037 -0.4345 -0.4502  0.5017
  406TMC3    C8 6123   0.496   4.269  14.935 -0.1911  0.4786 -0.0504
  406TMC3    O1 6124   0.775   4.468  15.044 -0.1126 -0.3958 -0.2317
  406TMC3    O2 6125   0.436   4.196  14.861 -0.1205 -0.5176  0.5735
  407MPD2     C 6126   2.899   1.148  10.315 -0.5731 -0.0819  0.1259
  407MPD2    C1 6127   2.943   1.220  10.214  0.2766 -0.0139 -0.1480
  407MPD2    C2 6128   2.993   1.345  10.229  0.4140 -0.3266 -0.0907
  407MPD2    C3 6129   2.996   1.405  10.352 -0.0298  0.2915  0.2973
  407MPD2    C4 6130   2.955   1.329  10.462  0.5455 -0.1936  0.1410
  407MPD2    C5 6131   2.906   1.204  10.440 -0.5043  0.3813  0.7786
  407MPD2     H 6132   3.035   1.391  10.140  1.1020  1.3439  1.1055
  407MPD2    H1 6133   2.953   1.366  10.564 -0.5795  0.0616  0.0274
  407MPD2    H2 6134   2.878   1.042  10.321 -1.9353  0.1372 -0.8234
  407MPD2    H3 6135   2.897   1.139  10.527 -3.9251  1.0250  0.8990
  407MPD2     N 6136   3.057   1.533  10.373 -0.4559 -0.1457  0.3091
  407MPD2    H5 6137   3.068   1.559  10.470 -2.1812  2.3900 -0.1490
  407MPD2    N1 6138   2.965   1.170  10.079 -0.3975 -0.3175  0.6259
  407MPD2    H7 6139   3.009   1.239  10.020 -1.2805 -0.7964 -0.5868
  408TMC3    C1 6140   2.983   1.015   9.897 -0.1007  0.1831 -0.0087
  408TMC3    C2 6141   3.097   1.062   9.848  0.1125 -0.1283  0.1092
  408TMC3    C3 6142   3.136   1.019   9.723  0.0443 -0.1491  0.2875
  408TMC3    C4 6143   2.894   0.946   9.822 -0.3496 -0.4652  0.6210
  408TMC3    C5 6144   2.915   0.925   9.691  0.3304  0.0110  0.5050
  408TMC3    C6 6145   3.040   0.965   9.639 -0.3768 -0.8641  0.3503
  408TMC3     C 6146   2.935   1.050  10.031  0.2383  0.4052  0.0350
  408TMC3     O 6147   2.871   0.972  10.096  0.1511  0.3111  0.0067
  408TMC3     H 6148   3.159   1.103   9.927  0.4313 -1.3730  0.5089
  408TMC3    H1 6149   2.793   0.931   9.859 -0.3568  1.3873  1.3378
  408TMC3    H2 6150   3.060   0.929   9.538  0.4696 -0.6276  0.4367
  408TMC3    C7 6151   2.804   0.893   9.610  0.2120  0.0215 -0.0826
  408TMC3    C8 6152   3.267   1.047   9.676  0.4162 -0.3023  0.4512
  408TMC3    O1 6153   2.775   0.955   9.508 -0.4827  0.1135  0.0947
  408TMC3    O2 6154   3.304   0.990   9.577 -0.8552  0.9777 -0.2591
  409MPD2     C 6155   3.392   1.561  16.693 -0.4866  0.1496  0.1842
  409MPD2    C1 6156   3.419   1.603  16.823  0.2548  0.0936  0.4116
  409MPD2    C2 6157   3.363   1.716  16.878  0.4642  0.0915  0.6725
  409MPD2    C3 6158   3.273   1.789  16.802  0.2250  0.2208 -0.1247
  409MPD2    C4 6159   3.254   1.752  16.667 -0.2199  0.0373  0.2049
  409MPD2    C5 6160   3.309   1.636  16.614  0.3396  0.2029  0.8156
  409MPD2     H 6161   3.386   1.738  16.981 -0.2101  0.2560  0.7868
  409MPD2    H1 6162   3.198   1.817  16.601 -1.5307 -0.0439  1.2342
  409MPD2    H2 6163   3.445   1.484  16.637  2.0282  2.5441 -0.7007
  409MPD2    H3 6164   3.308   1.613  16.508  3.1803 -0.3206  0.8964
  409MPD2     N 6165   3.206   1.911  16.833  0.2939 -0.1373 -0.5918
  409MPD2    H5 6166   3.168   1.962  16.754  1.5572 -1.6779 -2.1771
  409MPD2    N1 6167   3.518   1.538  16.903 -0.3045 -0.1369 -0.1256
  409MPD2    H7 6168   3.548   1.595  16.982  1.3283 -1.7874  0.4445
  410TMC3    C1 6169   3.173   2.102  16.941  0.1471 -0.2929  0.4052
  410TMC3    C2 6170   3.273   2.181  16.992 -0.0743  0.1364  0.7050
  410TMC3    C3 6171   3.313   2.283  16.922 -0.0981 -0.2078  0.0474
  410TMC3    C4 6172   3.119   2.135  16.819  0.4544 -0.3579 -0.3932
  410TMC3    C5 6173   3.161   2.241  16.752  0.0340  0.9380  0.0958
  410TMC3    C6 6174   3.260   2.322  16.805 -0.4990  0.1262  1.0950
  410TMC3     C 6175   3.200   1.960  16.957 -0.1356  0.2107  0.1573
  410TMC3     O 6176   3.242   1.903  17.059 -0.2959 -0.1715  0.3091
  410TMC3     H 6177   3.335   2.140  17.071 -0.2711 -1.3757  0.0791
  410TMC3    H1 6178   3.036   2.075  16.784  0.6757  0.6563 -2.6353
  410TMC3    H2 6179   3.306   2.396  16.741 -0.1011 -1.1048 -0.0470
  410TMC3    C7 6180   3.163   2.212  16.607 -0.0798  0.8065  0.2023
  410TMC3    C8 6181   3.444   2.351  16.948 -0.3399  0.1352  0.1906
  410TMC3    O1 6182   3.213   2.105  16.588  0.1013  0.2041  0.3941
  410TMC3    O2 6183   3.457   2.460  16.889  0.0767  0.1152  0.5866
  411MPD2     C 6184   3.084   2.143  14.753  0.4247 -0.5487 -0.1045
  411MPD2    C1 6185   2.961   2.202  14.757 -0.7456  0.0178 -0.1640
  411MPD2    C2 6186   2.840   2.132  14.741  0.4040 -0.0843  0.2177
  411MPD2    C3 6187   2.841   1.993  14.735  0.2526 -0.4733 -0.0056
  411MPD2    C4 6188   2.965   1.934  14.748  0.1835  0.3318  0.0702
  411MPD2    C5 6189   3.081   2.008  14.748  0.0762  1.0843 -0.2849
  411MPD2     H 6190   2.744   2.181  14.729 -0.5006 -1.8026  0.4831
  411MPD2    H1 6191   2.972   1.827  14.731 -0.2883  0.2482  0.4198
  411MPD2    H2 6192   3.175   2.200  14.743  1.2151 -1.9672 -1.0732
  411MPD2    H3 6193   3.179   1.960  14.748 -0.1750  0.5691 -0.1911
  411MPD2     N 6194   2.732   1.910  14.717 -0.4725  0.1460  0.2163
  411MPD2    H5 6195   2.762   1.813  14.708 -0.8536  0.0418  0.0631
  411MPD2    N1 6196   2.958   2.341  14.771 -0.3069  0.0840  0.1070
  411MPD2    H7 6197   2.873   2.384  14.737  0.6009 -0.0107 -2.2935
  412TMC3    C1 6198   2.517   1.835  14.646 -0.2030  0.5630  0.1809
  412TMC3    C2 6199   2.447   1.861  14.535  0.4270  0.5103 -0.3658
  412TMC3    C3 6200   2.383   1.753  14.474 -0.1378 -0.5353  0.8458
  412TMC3    C4 6201   2.527   1.720  14.708 -0.0665  0.6787 -0.0945
  412TMC3    C5 6202   2.447   1.620  14.662 -0.4613  0.4275 -0.0160
  412TMC3    C6 6203   2.376   1.636  14.549  0.4840 -0.9377 -0.7602
  412TMC3     C 6204   2.596   1.943  14.702 -0.1764 -0.3597  0.0921
  412TMC3     O 6205   2.552   2.057  14.706 -0.5050 -0.1830 -0.7587
  412TMC3     H 6206   2.453   1.958  14.486 -0.1294  1.1759  0.8781
  412TMC3    H1 6207   2.570   1.710  14.807 -0.9055  0.1699  0.2211
  412TMC3    H2 6208   2.330   1.546  14.511  2.8919 -1.2227 -3.0007
  412TMC3    C7 6209   2.524   1.498  14.651  0.0573 -0.8570 -0.0610
  412TMC3    C8 6210   2.405   1.737  14.334 -0.6128 -0.2347  0.1824
  412TMC3    O1 6211   2.528   1.415  14.741  0.3636  0.0783  0.3738
  412TMC3    O2 6212   2.498   1.795  14.285 -0.5211 -0.0690  0.3484
  413MPD2     C 6213   0.252   1.064  15.310 -0.7863 -0.0527 -0.3759
  413MPD2    C1 6214   0.239   0.957  15.395 -0.2666 -0.0274  0.1693
  413MPD2    C2 6215   0.335   0.859  15.409  0.1549 -0.8363  0.7477
  413MPD2    C3 6216   0.434   0.851  15.309  0.6332 -0.4538  0.8002
  413MPD2    C4 6217   0.446   0.956  15.225  0.3656  0.3670  0.7288
  413MPD2    C5 6218   0.366   1.072  15.231  0.2324  0.2083  0.2076
  413MPD2     H 6219   0.320   0.778  15.480  0.1177 -2.2803 -0.9036
  413MPD2    H1 6220   0.527   0.961  15.155  0.3504  2.0599  0.8231
  413MPD2    H2 6221   0.173   1.139  15.307 -1.0167 -0.3602 -1.6831
  413MPD2    H3 6222   0.370   1.152  15.157  0.8312 -0.0555 -0.0518
  413MPD2     N 6223   0.513   0.737  15.284 -0.1198  0.1027 -0.2024
  413MPD2    H5 6224   0.586   0.737  15.214  0.2675 -1.9118  0.1967
  413MPD2    N1 6225   0.115   0.960  15.469 -0.7496  0.0445 -0.4917
  413MPD2    H7 6226   0.041   1.020  15.433 -1.7190 -1.0481 -0.3222
  414TMC3    C1 6227   0.569   0.507  15.288 -0.4385  0.1846  0.0456
  414TMC3    C2 6228   0.554   0.389  15.356  0.8260 -0.2437 -0.2135
  414TMC3    C3 6229   0.534   0.273  15.288 -0.4024  0.1328 -0.0340
  414TMC3    C4 6230   0.578   0.508  15.151  0.0322 -0.6768  0.5884
  414TMC3    C5 6231   0.567   0.390  15.084  0.0069  0.2515 -0.4206
  414TMC3    C6 6232   0.534   0.268  15.148  0.0997  0.1288  0.5013
  414TMC3     C 6233   0.498   0.620  15.355  0.2652  0.7153  0.3590
  414TMC3     O 6234   0.411   0.573  15.434 -1.0781 -0.2651  0.3277
  414TMC3     H 6235   0.565   0.385  15.464 -0.1342 -0.2707 -0.1216
  414TMC3    H1 6236   0.593   0.602  15.099 -0.2928 -1.4066 -0.7982
  414TMC3    H2 6237   0.531   0.173  15.096  1.5090  1.1952 -1.5135
  414TMC3    C7 6238   0.662   0.374  14.980  0.2057 -0.0500  0.4839
  414TMC3    C8 6239   0.610   0.163  15.337  0.0322 -0.3298  0.0075
  414TMC3    O1 6240   0.762   0.441  14.992  0.3959  0.2956  0.2001
  414TMC3    O2 6241   0.566   0.052  15.304 -0.2849  0.5129  0.1555
  415TMC3    C1 6242   0.702   3.690  10.653  0.6966 -0.8206  0.2227
  415TMC3    C2 6243   0.738   3.821  10.619  0.0330  0.0116  0.4593
  415TMC3    C3 6244   0.717   3.855  10.485  0.0105 -0.1868 -0.5414
  415TMC3    C4 6245   0.643   3.600  10.566  0.1112  0.9104 -0.2791
  415TMC3    C5 6246   0.613   3.642  10.438 -0.7835  0.0483 -0.1285
  415TMC3    C6 6247   0.657   3.765  10.398 -0.1722 -0.6123 -0.8673
  415TMC3     C 6248   0.739   3.634  10.779 -0.0878  0.7999  0.1149
  415TMC3     O 6249   0.675   3.540  10.823 -0.0094  0.3461  0.7762
  415TMC3     H 6250   0.783   3.893  10.686 -0.3687 -0.2283  0.9903
  415TMC3    H1 6251   0.619   3.499  10.597  0.7755  0.0907 -2.4194
  415TMC3    H2 6252   0.619   3.808  10.306 -0.8801 -0.0410 -0.3088
  415TMC3    C7 6253   0.553   3.555  10.334 -0.0249 -0.2718 -0.2637
  415TMC3    C8 6254   0.701   3.993  10.458 -0.0979  0.2304  0.5647
  415TMC3    O1 6255   0.559   3.587  10.219 -0.1754 -0.1177  0.0058
  415TMC3    O2 6256   0.617   4.028  10.373  0.2624 -0.2176 -0.1550
  416MPD2     C 6257   2.733   2.511  11.264  0.1118  0.4084  0.4717
  416MPD2    C1 6258   2.639   2.435  11.322  0.7180 -0.0543  0.5173
  416MPD2    C2 6259   2.617   2.305  11.272 -0.2735  0.7816 -0.6168
  416MPD2    C3 6260   2.699   2.256  11.177 -0.3791 -0.5334 -0.1806
  416MPD2    C4 6261   2.802   2.331  11.125 -0.1670  0.8155  0.0948
  416MPD2    C5 6262   2.805   2.464  11.160 -0.8191  0.5689  0.3457
  416MPD2     H 6263   2.545   2.236  11.314  0.0852  1.0306  0.4210
  416MPD2    H1 6264   2.849   2.292  11.035  1.8502 -1.8655  2.3100
  416MPD2    H2 6265   2.738   2.615  11.294  2.0215  1.0691 -2.1048
  416MPD2    H3 6266   2.863   2.532  11.100 -0.5316 -0.4163 -0.4833
  416MPD2     N 6267   2.663   2.128  11.129  0.0420 -0.2831  0.2841
  416MPD2    H5 6268   2.602   2.065  11.181 -1.1347  1.4914  1.0342
  416MPD2    N1 6269   2.561   2.503  11.422  0.1038  0.0926 -0.2265
  416MPD2    H7 6270   2.576   2.603  11.433 -1.3943  0.1962  0.8600
  417TMC3    C1 6271   2.386   2.531  11.578  0.0499  0.2536 -0.1838
  417TMC3    C2 6272   2.342   2.499  11.706  0.1933  0.9138 -0.6727
  417TMC3    C3 6273   2.222   2.556  11.752 -0.2097 -0.7269 -0.1812
  417TMC3    C4 6274   2.310   2.620  11.502  0.3497 -0.2004  0.6697
  417TMC3    C5 6275   2.203   2.676  11.557 -0.0848 -0.8231  0.3371
  417TMC3    C6 6276   2.153   2.646  11.683 -0.4142  0.9246 -0.0306
  417TMC3     C 6277   2.471   2.438  11.504  0.4849  0.6709  0.5806
  417TMC3     O 6278   2.443   2.321  11.520 -0.0587  0.0414 -0.1376
  417TMC3     H 6279   2.400   2.429  11.765 -0.8334  0.7730  0.1635
  417TMC3    H1 6280   2.341   2.652  11.403  1.5385  0.3428  1.2028
  417TMC3    H2 6281   2.064   2.695  11.721 -0.3233 -0.3819  1.8791
  417TMC3    C7 6282   2.115   2.755  11.471  0.1867  0.2225  0.5411
  417TMC3    C8 6283   2.192   2.559  11.895  0.8616 -0.3991  0.2839
  417TMC3    O1 6284   2.162   2.849  11.410 -0.1527 -0.0281 -0.8832
  417TMC3    O2 6285   2.077   2.589  11.916 -0.1055  0.1258 -0.5258
  418TMC3    C1 6286   1.431   4.290   0.869 -0.2052  0.4333 -0.3783
  418TMC3    C2 6287   1.297   4.290   0.830 -0.4513  0.5826 -0.3636
  418TMC3    C3 6288   1.231   4.169   0.828 -0.2523  0.4218  0.1546
  418TMC3    C4 6289   1.488   4.179   0.925  0.1203  0.4887 -0.3505
  418TMC3    C5 6290   1.412   4.069   0.922 -0.8850  0.1585 -0.2175
  418TMC3    C6 6291   1.281   4.058   0.878  0.6645 -0.2158  0.1237
  418TMC3     C 6292   1.513   4.383   0.792 -0.2512 -0.3352 -0.4237
  418TMC3     O 6293   1.477   4.496   0.790 -0.0342 -0.5809  0.0091
  418TMC3     H 6294   1.259   4.373   0.770 -2.8206  0.3401  0.8125
  418TMC3    H1 6295   1.595   4.170   0.941 -0.1176 -2.4372 -0.3974
  418TMC3    H2 6296   1.234   3.961   0.873 -2.2937  1.3187 -2.6962
  418TMC3    C7 6297   1.460   3.945   0.962 -0.0042 -0.5641 -0.0866
  418TMC3    C8 6298   1.112   4.163   0.759 -0.5173 -0.2867 -0.6101
  418TMC3    O1 6299   1.416   3.835   0.929  0.5161  0.1929 -0.1257
  418TMC3    O2 6300   1.035   4.263   0.762  0.1553  0.2179  0.5058
  419MPD2     C 6301   4.686   1.946  12.307  0.1026 -0.2785  0.3593
  419MPD2    C1 6302   4.610   2.061  12.305 -0.1996 -0.3672 -0.1031
  419MPD2    C2 6303   4.534   2.091  12.416  0.4576 -0.3667 -0.5435
  419MPD2    C3 6304   4.539   2.018  12.530  0.0345  0.1007  0.0155
  419MPD2    C4 6305   4.612   1.897  12.525 -0.1994  0.5328 -1.0387
  419MPD2    C5 6306   4.677   1.861  12.415 -0.3027  0.6323 -0.2743
  419MPD2     H 6307   4.490   2.190  12.417 -1.8091 -1.3696 -1.3980
  419MPD2    H1 6308   4.620   1.828  12.608  0.0178  2.8575  0.8789
  419MPD2    H2 6309   0.007   1.912  12.222  1.0145 -0.8181  1.2017
  419MPD2    H3 6310   4.730   1.766  12.421 -0.6250  0.5049  0.5334
  419MPD2     N 6311   4.461   2.055  12.643 -0.6627 -0.1207  0.0147
  419MPD2    H5 6312   4.384   2.121  12.634  0.6263  1.5379  1.2239
  419MPD2    N1 6313   4.621   2.152  12.198  0.3650  0.3320 -0.3247
  419MPD2    H7 6314   4.573   2.239  12.217  0.7239  0.0178  2.1059
  420TMC3    C1 6315   4.420   2.070  12.875  0.3958 -0.0910 -0.5096
  420TMC3    C2 6316   4.288   2.091  12.854 -0.0315 -0.0487 -0.2640
  420TMC3    C3 6317   4.213   2.130  12.961 -0.2435  0.7149  1.3077
  420TMC3    C4 6318   4.486   2.097  12.995  0.4011  0.0076 -0.4561
  420TMC3    C5 6319   4.409   2.146  13.098 -0.5723  0.1679 -0.6393
  420TMC3    C6 6320   4.268   2.167  13.076  0.2596 -0.3048  0.4644
  420TMC3     C 6321   4.507   2.018  12.772 -0.3345  0.4519 -0.1209
  420TMC3     O 6322   4.614   1.971  12.805  0.8900 -0.4475  0.1717
  420TMC3     H 6323   4.241   2.080  12.756  0.4060  0.1751 -0.4988
  420TMC3    H1 6324   4.591   2.071  13.006  0.8141  1.7510 -0.2618
  420TMC3    H2 6325   4.205   2.195  13.160  0.7547  2.6974 -0.1575
  420TMC3    C7 6326   4.464   2.140  13.231 -0.2442  0.0268  0.6355
  420TMC3    C8 6327   4.086   2.192  12.924 -0.8260  0.5576  0.8552
  420TMC3    O1 6328   4.383   2.116  13.323  0.5115  0.1293 -0.4355
  420TMC3    O2 6329   4.062   2.294  12.991  0.2456 -0.2306 -0.8028
  421TMC3    C1 6330   1.583   3.058  13.459  0.3461  0.1827 -0.1421
  421TMC3    C2 6331   1.546   3.188  13.441  0.0535  0.1094 -0.0608
  421TMC3    C3 6332   1.586   3.279  13.535 -0.0613 -0.9708  0.5665
  421TMC3    C4 6333   1.668   3.024  13.562  0.3317  0.1720  0.7608
  421TMC3    C5 6334   1.722   3.126  13.641 -0.5875 -0.2202 -0.7077
  421TMC3    C6 6335   1.687   3.258  13.626  0.8156  0.2464 -0.6698
  421TMC3     C 6336   1.516   2.951  13.385 -0.0588 -0.0616  0.7101
  421TMC3     O 6337   1.577   2.849  13.360  0.1960  0.3902  0.3130
  421TMC3     H 6338   1.473   3.211  13.365 -1.3898 -0.1334  1.2479
  421TMC3    H1 6339   1.707   2.923  13.559  2.1053  0.9254 -1.8281
  421TMC3    H2 6340   1.726   3.334  13.693 -1.7031  0.7537  0.1977
  421TMC3    C7 6341   1.835   3.098  13.727 -1.0495 -0.0548  0.1981
  421TMC3    C8 6342   1.517   3.414  13.545 -0.2382 -0.0223 -0.5531
  421TMC3    O1 6343   1.901   3.195  13.765 -0.3438  0.1691 -0.0509
  421TMC3    O2 6344   1.556   3.501  13.620 -0.2854 -0.1098 -0.2383
  422TMC3    C1 6345   3.466   0.377  12.811  0.5333  0.5544 -0.6707
  422TMC3    C2 6346   3.425   0.507  12.850 -0.4046  0.8250 -0.5051
  422TMC3    C3 6347   3.293   0.532  12.874  0.0951 -0.0418 -0.6865
  422TMC3    C4 6348   3.381   0.280  12.784  0.5405  0.5267 -0.1501
  422TMC3    C5 6349   3.251   0.307  12.809  0.2452 -0.2699 -0.6377
  422TMC3    C6 6350   3.203   0.431  12.848 -0.0689  0.3316 -0.1486
  422TMC3     C 6351   3.604   0.371  12.774 -0.3657 -0.0748 -0.2072
  422TMC3     O 6352   3.669   0.473  12.769 -0.5407  0.0296  0.2789
  422TMC3     H 6353   3.499   0.586  12.849  1.5043 -0.9204  1.6948
  422TMC3    H1 6354   3.412   0.185  12.742 -0.4793  0.3192 -0.4360
  422TMC3    H2 6355   3.099   0.454  12.869 -0.3104 -0.3180 -0.6183
  422TMC3    C7 6356   3.161   0.207  12.752  0.0205 -0.3563 -0.2068
  422TMC3    C8 6357   3.256   0.667  12.847  0.2828 -1.0791  0.8163
  422TMC3    O1 6358   3.210   0.129  12.671  0.6641 -0.2620 -0.0495
  422TMC3    O2 6359   3.337   0.755  12.861  0.2373 -0.2550  0.4156
  423MPD2     C 6360   0.098   1.095   0.518 -0.3506  0.2472  0.4038
  423MPD2    C1 6361   0.130   1.194   0.424 -0.5513 -0.3730  0.2965
  423MPD2    C2 6362   0.131   1.160   0.294 -0.7422  0.4612  0.2054
  423MPD2    C3 6363   0.094   1.034   0.247  0.7478  0.2351  0.1027
  423MPD2    C4 6364   0.055   0.939   0.341 -0.0201  0.1192  0.1882
  423MPD2    C5 6365   0.056   0.972   0.475 -0.0813 -0.1390 -0.2167
  423MPD2     H 6366   0.151   1.240   0.223 -0.6439  1.5544  1.4831
  423MPD2    H1 6367   0.025   0.840   0.309 -2.0939  0.3823  1.3839
  423MPD2    H2 6368   0.106   1.112   0.625  1.6918  0.8664  0.1489
  423MPD2    H3 6369   0.019   0.890   0.535 -0.4384  0.6307  0.6207
  423MPD2     N 6370   0.079   0.999   0.113  0.6345  0.0949 -0.0996
  423MPD2    H5 6371   0.031   0.910   0.100 -1.6002  1.5085 -1.5103
  423MPD2    N1 6372   0.152   1.326   0.456  0.1019  0.7042  1.0375
  423MPD2    H7 6373   0.181   1.387   0.379 -2.5232 -0.4996 -0.9242
  424TMC3    C1 6374   0.162   1.524   0.596  0.1250  0.4075 -0.0135
  424TMC3    C2 6375   0.271   1.564   0.529 -0.3462 -1.0390 -0.3139
  424TMC3    C3 6376   0.360   1.648   0.587  0.4805 -0.2345 -0.5433
  424TMC3    C4 6377   0.122   1.584   0.706 -0.8812  0.6268 -0.0616
  424TMC3    C5 6378   0.206   1.685   0.756 -0.2950  0.5622  0.3976
  424TMC3    C6 6379   0.332   1.722   0.703  0.0584  0.6101 -0.3498
  424TMC3     C 6380   0.125   1.385   0.579  0.0684  1.0920  0.4327
  424TMC3     O 6381   0.064   1.337   0.673  0.7037  0.3696 -0.7217
  424TMC3     H 6382   0.316   1.503   0.451  0.6829  0.5813 -0.9879
  424TMC3    H1 6383   0.045   1.545   0.773 -0.6773 -1.5060 -1.0832
  424TMC3    H2 6384   0.405   1.791   0.745  2.5446 -0.7581 -2.4120
  424TMC3    C7 6385   0.181   1.732   0.892  0.4924  0.4441 -0.2071
  424TMC3    C8 6386   0.484   1.580   0.602 -0.2998  0.2255 -0.4215
  424TMC3    O1 6387   0.279   1.760   0.959  0.1228  0.4294 -0.8808
  424TMC3    O2 6388   0.492   1.458   0.586  0.1590  0.0805 -0.5985
  425MPD2     C 6389   4.316   0.902  16.985  0.4458 -0.0969  0.0045
  425MPD2    C1 6390   4.320   0.811  17.090  0.7356  0.9731 -0.5904
  425MPD2    C2 6391   4.276   0.851  17.216 -0.6624 -0.1790  0.0456
  425MPD2    C3 6392   4.239   0.985  17.235  0.2747  0.3311 -0.4864
  425MPD2    C4 6393   4.243   1.078  17.136  0.5158 -0.1930 -0.2222
  425MPD2    C5 6394   4.288   1.033  17.008 -0.2173 -0.5344 -0.5159
  425MPD2     H 6395   4.282   0.776  17.293  1.6033 -0.0079  0.0257
  425MPD2    H1 6396   4.211   1.180  17.148  1.2791  0.2359 -1.8883
  425MPD2    H2 6397   4.348   0.858  16.891  0.9287  1.0068 -0.3483
  425MPD2    H3 6398   4.298   1.103  16.926  3.0445  1.5951  1.7283
  425MPD2     N 6399   4.191   1.023  17.359 -0.3880 -0.4303 -0.1772
  425MPD2    H5 6400   4.210   0.951  17.428  3.8636 -1.2215 -2.1800
  425MPD2    N1 6401   4.371   0.678  17.065  0.4583 -0.3006 -0.6803
  425MPD2    H7 6402   4.384   0.648  16.969  3.8180 -0.7662 -0.0762
  426TMC3    C1 6403   4.482   0.467  17.117 -0.5042 -0.0211  0.2444
  426TMC3    C2 6404   4.407   0.387  17.037 -0.3624  0.2732 -0.6751
  426TMC3    C3 6405   4.407   0.253  17.065  0.2733  0.4564  0.9721
  426TMC3    C4 6406   4.559   0.415  17.217  0.0379  0.5182 -0.1944
  426TMC3    C5 6407   4.545   0.284  17.253  0.0062  0.2838 -0.1750
  426TMC3    C6 6408   4.459   0.203  17.185 -0.3695  0.7853  0.4759
  426TMC3     C 6409   4.415   0.588  17.166  0.6657  0.4336  0.0310
  426TMC3     O 6410   4.433   0.610  17.293  0.0207  0.0490  0.0848
  426TMC3     H 6411   4.358   0.430  16.950 -1.8604  0.2664  0.1758
  426TMC3    H1 6412   4.632   0.479  17.266  0.9494 -0.8969  0.2930
  426TMC3    H2 6413   4.446   0.106  17.232 -0.4108 -0.5686 -2.3244
  426TMC3    C7 6414   4.529   0.271  17.396  0.4264  0.0007  0.1046
  426TMC3    C8 6415   4.377   0.163  16.955  0.2252 -0.2722  0.2662
  426TMC3    O1 6416   4.533   0.159  17.444 -0.3560  0.0549  0.4736
  426TMC3    O2 6417   4.358   0.209  16.849 -0.5089 -0.4197  0.0995
  427MPD2     C 6418   2.250   2.000  14.899 -0.7077 -0.3345  0.6067
  427MPD2    C1 6419   2.267   2.061  15.021  0.3379  0.0382  0.1888
  427MPD2    C2 6420   2.193   2.181  15.042  0.1274 -0.1840  0.8275
  427MPD2    C3 6421   2.106   2.237  14.944  0.1128 -0.1806 -0.2435
  427MPD2    C4 6422   2.108   2.169  14.823 -0.0072 -0.0571 -0.0535
  427MPD2    C5 6423   2.179   2.055  14.798 -0.2484  0.3125  0.4146
  427MPD2     H 6424   2.206   2.221  15.142  0.2934 -2.2226  1.6093
  427MPD2    H1 6425   2.052   2.205  14.737 -1.5646  1.8635  1.7600
  427MPD2    H2 6426   2.313   1.916  14.872 -0.5416  0.0198 -0.0946
  427MPD2    H3 6427   2.177   2.005  14.702 -0.2150 -0.4676  0.8223
  427MPD2     N 6428   2.023   2.352  14.966  0.4595  0.8051 -0.2529
  427MPD2    H5 6429   1.958   2.375  14.892 -0.6255  0.3492  0.5688
  427MPD2    N1 6430   2.354   2.004  15.121  0.0193 -0.0651 -0.6526
  427MPD2    H7 6431   2.353   2.052  15.210  2.1256  1.2035 -1.3189
  428TMC3    C1 6432   2.497   1.837  15.230  0.2374  0.1632 -0.0145
  428TMC3    C2 6433   2.497   1.706  15.272  0.1681 -0.0929  0.5333
  428TMC3    C3 6434   2.597   1.671  15.359  0.2437  0.1542 -0.2149
  428TMC3    C4 6435   2.586   1.929  15.277  0.4404 -0.6253 -0.5870
  428TMC3    C5 6436   2.686   1.889  15.359 -0.0912 -0.1162 -0.1341
  428TMC3    C6 6437   2.691   1.762  15.399  1.1945 -0.4865 -0.3744
  428TMC3     C 6438   2.413   1.875  15.114  0.3293  0.0989  0.6126
  428TMC3     O 6439   2.391   1.781  15.039 -0.1187  0.1485 -0.4821
  428TMC3     H 6440   2.433   1.634  15.223 -0.4641  1.6550 -1.2199
  428TMC3    H1 6441   2.575   2.029  15.237  2.4934 -0.0893  0.1518
  428TMC3    H2 6442   2.779   1.747  15.461  2.0510  0.6076 -1.3441
  428TMC3    C7 6443   2.783   1.989  15.409 -0.0412  0.1326  0.0904
  428TMC3    C8 6444   2.578   1.560  15.438  0.1605 -0.3293  0.7731
  428TMC3    O1 6445   2.838   1.959  15.515  0.0051  0.2300  0.6062
  428TMC3    O2 6446   2.660   1.530  15.518 -0.0847 -0.0516  0.7467
  429MPD2     C 6447   3.174   2.418  17.245 -1.2564 -0.9660 -0.3948
  429MPD2    C1 6448   3.293   2.464  17.291  0.0033  0.0705  0.3584
  429MPD2    C2 6449   3.328   2.590  17.254 -0.3521  0.2312  0.1255
  429MPD2    C3 6450   3.249   2.670  17.170 -0.6724  0.1432  0.1272
  429MPD2    C4 6451   3.133   2.614  17.115  0.0734 -0.1820  0.1180
  429MPD2    C5 6452   3.099   2.487  17.154 -0.0488  0.3032 -0.8325
  429MPD2     H 6453   3.417   2.635  17.297 -2.6136  1.8238  3.0942
  429MPD2    H1 6454   3.069   2.676  17.052  2.1008 -0.4221 -2.1634
  429MPD2    H2 6455   3.138   2.319  17.270  1.8481 -1.7876  0.8268
  429MPD2    H3 6456   3.004   2.442  17.126  0.3749 -3.1770  3.3137
  429MPD2     N 6457   3.294   2.801  17.142 -0.3170 -0.0254  0.0777
  429MPD2    H5 6458   3.382   2.826  17.187 -0.4797 -0.1732  0.4796
  429MPD2    N1 6459   3.379   2.394  17.371  0.3052 -0.1580 -0.2575
  429MPD2    H7 6460   3.462   2.449  17.392  0.4030 -0.6785  0.6870
  430TMC3    C1 6461   3.328   2.989  17.013  0.5040 -0.0566  0.4420
  430TMC3    C2 6462   3.289   3.111  16.958 -0.3820  0.9259 -0.0083
  430TMC3    C3 6463   3.382   3.171  16.873 -0.0695 -0.5704  0.2815
  430TMC3    C4 6464   3.455   2.937  16.997  0.0293  0.5879 -0.1329
  430TMC3    C5 6465   3.538   2.999  16.904 -0.2615  0.1624  0.0433
  430TMC3    C6 6466   3.510   3.122  16.854  0.6006  0.2472 -0.0612
  430TMC3     C 6467   3.229   2.897  17.070 -0.0630  1.1737 -0.5359
  430TMC3     O 6468   3.116   2.894  17.016 -0.0322 -0.0578 -0.2379
  430TMC3     H 6469   3.189   3.146  16.978 -0.9375 -0.2807 -0.6857
  430TMC3    H1 6470   3.492   2.844  17.039  0.6679  1.1049  0.4503
  430TMC3    H2 6471   3.578   3.170  16.784  0.6579 -1.0999 -0.9347
  430TMC3    C7 6472   3.651   2.920  16.857  0.3352 -0.6585  0.3969
  430TMC3    C8 6473   3.329   3.241  16.764 -0.2890  0.4229 -0.1130
  430TMC3    O1 6474   3.645   2.799  16.867  0.0478 -0.4718  0.2227
  430TMC3    O2 6475   3.243   3.321  16.798 -0.3454 -0.2059 -0.4694
  431MPD2     C 6476   4.677   2.367  12.750  0.2575 -0.1284  0.4944
  431MPD2    C1 6477   4.640   2.483  12.678  0.1925  0.2813 -0.5072
  431MPD2    C2 6478   4.687   2.498  12.554  0.9509 -0.2622 -0.1689
  431MPD2    C3 6479   0.015   2.400  12.485 -1.0670  0.2409  0.0994
  431MPD2    C4 6480   0.032   2.283  12.548 -0.0734 -0.2013 -0.0514
  431MPD2    C5 6481   0.010   2.269  12.683 -1.0030  0.2550  0.0110
  431MPD2     H 6482   4.654   2.586  12.500  2.4860 -1.9719 -3.9214
  431MPD2    H1 6483   0.087   2.205  12.496 -0.8889  0.0138 -1.2262
  431MPD2    H2 6484   4.642   2.339  12.849 -0.4982  0.9728  0.5238
  431MPD2    H3 6485   0.018   2.170  12.727  0.4068  0.5651  0.4697
  431MPD2     N 6486   0.050   2.409  12.352 -0.0264  0.1315 -0.0995
  431MPD2    H5 6487   0.058   2.317  12.311  3.7891  0.7185 -0.6847
  431MPD2    N1 6488   4.560   2.591  12.730  0.6668 -0.2176 -0.5599
  431MPD2    H7 6489   4.533   2.654  12.655 -1.2777 -0.6015 -0.1679
  432TMC3    C1 6490   0.052   2.471  12.132 -0.2625  0.5783 -0.2997
  432TMC3    C2 6491   0.171   2.453  12.064  0.6981  0.6203  0.5553
  432TMC3    C3 6492   0.184   2.360  11.966 -0.6454 -0.2879 -1.0098
  432TMC3    C4 6493   4.679   2.391  12.097  0.2146  0.6509 -0.3554
  432TMC3    C5 6494   4.702   2.279  12.022 -0.0576  0.1063  0.0601
  432TMC3    C6 6495   0.085   2.271  11.949 -0.3604  0.1677  0.1230
  432TMC3     C 6496   0.049   2.520  12.265  0.9556  0.0261  0.1861
  432TMC3     O 6497   0.030   2.638  12.287  0.4757 -0.0016  0.4871
  432TMC3     H 6498   0.241   2.532  12.090  1.8204  0.3928 -1.8778
  432TMC3    H1 6499   4.582   2.393  12.146  0.7136  2.8470  0.5177
  432TMC3    H2 6500   0.100   2.193  11.875  0.8479  0.7835 -0.2724
  432TMC3    C7 6501   4.689   2.148  12.086 -0.4252  0.2462  0.0959
  432TMC3    C8 6502   0.303   2.341  11.880  0.7315  0.1698  0.5573
  432TMC3    O1 6503   0.036   2.068  12.048 -0.7405 -0.0505  0.7663
  432TMC3    O2 6504   0.285   2.270  11.781  0.0090  0.0194 -0.8285
  433MPD2     C 6505   2.955   1.060  10.922  0.3576 -0.4947  0.4489
  433MPD2    C1 6506   3.091   1.071  10.936 -0.2595 -0.0506 -0.0763
  433MPD2    C2 6507   3.138   1.116  11.058  0.1724 -0.6067 -0.4261
  433MPD2    C3 6508   3.045   1.133  11.161  0.2405 -0.4321  0.1587
  433MPD2    C4 6509   2.913   1.106  11.144 -0.1331 -0.6115  0.0303
  433MPD2    C5 6510   2.866   1.079  11.022  0.4629  0.5072  0.1878
  433MPD2     H 6511   3.243   1.118  11.081  0.1896  1.1946 -0.6622
  433MPD2    H1 6512   2.838   1.095  11.222 -2.6560  0.5553 -2.2061
  433MPD2    H2 6513   2.920   1.021  10.827 -1.1283 -1.6095  1.4643
  433MPD2    H3 6514   2.761   1.062  11.003  0.5981  0.9515 -0.9308
  433MPD2     N 6515   3.086   1.176  11.285 -0.1283 -0.4510  0.5448
  433MPD2    H5 6516   3.018   1.167  11.361 -0.4583 -2.5937  0.0187
  433MPD2    N1 6517   3.178   1.021  10.831  0.1619  0.8030 -0.0130
  433MPD2    H7 6518   3.133   0.961  10.763 -0.5140  2.2089 -0.7994
  434TMC3    C1 6519   3.374   0.903  10.801 -0.0906 -1.2327  0.1289
  434TMC3    C2 6520   3.467   0.860  10.892  0.0078  0.4432 -0.2941
  434TMC3    C3 6521   3.472   0.725  10.912 -0.8889  0.3140  0.1831
  434TMC3    C4 6522   3.296   0.816  10.727  0.0924 -0.3852 -0.6009
  434TMC3    C5 6523   3.321   0.681  10.738  0.3770  0.0973  0.4239
  434TMC3    C6 6524   3.395   0.637  10.834 -0.1476  0.3075  0.4064
  434TMC3     C 6525   3.312   1.026  10.838  0.1704  0.4279  0.0791
  434TMC3     O 6526   3.379   1.111  10.893  0.0643 -0.3207  0.5555
  434TMC3     H 6527   3.523   0.914  10.968 -1.6970  0.8285  0.6711
  434TMC3    H1 6528   3.210   0.850  10.671 -1.7449 -2.4712  0.9176
  434TMC3    H2 6529   3.418   0.531  10.842 -0.7990  0.2378  1.4322
  434TMC3    C7 6530   3.219   0.598  10.683  0.2061  1.0605 -0.2915
  434TMC3    C8 6531   3.585   0.676  10.983  0.3061 -0.2957  0.3867
  434TMC3    O1 6532   3.150   0.649  10.590 -0.2582 -0.3811 -0.0582
  434TMC3    O2 6533   3.686   0.744  10.974  0.0332  0.0229  0.4754
  435MPD2     C 6534   0.751   1.246  15.201 -0.6110 -0.5030 -0.9756
  435MPD2    C1 6535   0.717   1.246  15.336 -0.2425  0.1219  0.6943
  435MPD2    C2 6536   0.800   1.172  15.419 -0.1111  0.0541  0.0568
  435MPD2    C3 6537   0.896   1.089  15.370  0.0212 -0.2868  0.7123
  435MPD2    C4 6538   0.935   1.095  15.238 -0.8191  0.2971 -0.3159
  435MPD2    C5 6539   0.860   1.177  15.153  0.0143  0.2860 -0.1401
  435MPD2     H 6540   0.788   1.167  15.526  1.7765 -2.6583  0.1448
  435MPD2    H1 6541   1.016   1.037  15.194 -0.2369  0.2680  0.8004
  435MPD2    H2 6542   0.685   1.292  15.128 -1.3313  0.0501  0.0191
  435MPD2    H3 6543   0.870   1.180  15.045  3.8694 -1.0276  0.1858
  435MPD2     N 6544   0.959   0.993  15.459  0.1777  0.3794  0.2301
  435MPD2    H5 6545   0.943   1.015  15.557 -0.4403  0.6237  0.0772
  435MPD2    N1 6546   0.604   1.315  15.392  0.4141  0.5492  0.2372
  435MPD2    H7 6547   0.574   1.285  15.484  1.9586  2.0878  1.2388
  436TMC3    C1 6548   0.289   1.505  15.592  0.0577  0.0433  0.1634
  436TMC3    C2 6549   0.404   1.452  15.540  0.5955 -0.4040  0.1706
  436TMC3    C3 6550   0.425   1.466  15.405 -0.1735  0.5267  0.0261
  436TMC3    C4 6551   0.198   1.570  15.511 -0.0682  0.8587 -0.4122
  436TMC3    C5 6552   0.226   1.578  15.378 -0.8706 -0.1197 -0.0417
  436TMC3    C6 6553   0.341   1.529  15.323  0.2912 -0.3545 -0.1433
  436TMC3     C 6554   0.300   1.552  15.728  0.2491  0.4814  0.6281
  436TMC3     O 6555   0.416   1.561  15.761  0.3334 -0.4830 -0.1091
  436TMC3     H 6556   0.475   1.398  15.602  0.8592 -0.1822  0.0583
  436TMC3    H1 6557   0.114   1.625  15.551 -2.7826 -2.2988 -1.7486
  436TMC3    H2 6558   0.359   1.518  15.217  4.3709 -2.9620  0.8228
  436TMC3    C7 6559   0.113   1.621  15.292  0.0098  0.0594  0.0818
  436TMC3    C8 6560   0.540   1.419  15.335 -0.9170 -0.6653 -0.1907
  436TMC3    O1 6561   0.002   1.620  15.348 -0.2820  0.2128 -0.0683
  436TMC3    O2 6562   0.571   1.480  15.236 -0.6350  0.7176 -0.4898
  437TMC3    C1 6563   3.477   3.357  13.478 -0.2392 -0.3744 -0.2053
  437TMC3    C2 6564   3.383   3.417  13.542 -0.0336  0.2894 -0.1380
  437TMC3    C3 6565   3.390   3.550  13.550 -0.6783 -0.4100  0.2676
  437TMC3    C4 6566   3.568   3.416  13.399  0.0190  0.4041 -0.2624
  437TMC3    C5 6567   3.570   3.559  13.410 -0.0445  0.0657 -0.9057
  437TMC3    C6 6568   3.481   3.630  13.488 -0.9170 -0.0531  0.2893
  437TMC3     C 6569   3.478   3.214  13.497 -0.1977 -0.7626 -0.0139
  437TMC3     O 6570   3.379   3.157  13.543  0.3533 -0.1881  0.3546
  437TMC3     H 6571   3.309   3.357  13.594 -1.3059  2.2283  0.2673
  437TMC3    H1 6572   3.636   3.361  13.335 -1.1478 -0.1556 -1.0229
  437TMC3    H2 6573   3.491   3.738  13.490  0.3416 -0.1453 -1.6051
  437TMC3    C7 6574   3.639   3.635  13.313  0.1566 -1.0388 -0.1451
  437TMC3    C8 6575   3.281   3.625  13.594  0.2585 -0.8040 -0.3782
  437TMC3    O1 6576   3.584   3.730  13.265  0.6490  0.4897 -0.0374
  437TMC3    O2 6577   3.267   3.740  13.560  0.3137 -1.0516 -0.0023
  438MPD2     C 6578   1.850   0.005  17.537 -1.1635  0.2144 -0.0692
  438MPD2    C1 6579   1.871   4.608  17.545  0.4542  0.5357 -0.3321
  438MPD2    C2 6580   1.817   4.533  17.649 -0.0880  0.3034 -0.3206
  438MPD2    C3 6581   1.730   4.592  17.744 -0.5022  0.3227  0.4491
  438MPD2    C4 6582   1.710   4.726  17.739 -0.8069 -0.2617 -0.7298
  438MPD2    C5 6583   1.769   0.056  17.638  0.6562  0.2375 -0.4196
  438MPD2     H 6584   1.853   4.433  17.666 -0.5742 -0.1876 -2.1685
  438MPD2    H1 6585   1.645   0.044   0.057  0.6463  0.4452  0.1170
  438MPD2    H2 6586   1.890   0.068  17.458 -1.2023  1.2261  0.7123
  438MPD2    H3 6587   1.753   0.163  17.644 -1.3104 -0.1733  1.5086
  438MPD2     N 6588   1.661   4.517   0.095 -0.1404 -0.4523  0.5600
  438MPD2    H5 6589   1.625   4.558   0.181  1.2629 -0.0926  0.9683
  438MPD2    N1 6590   1.974   4.542  17.465  0.2824 -0.2237 -0.1263
  438MPD2    H7 6591   2.003   4.451  17.499 -0.7997 -0.7055 -0.4686
  439TMC3    C1 6592   2.126   4.498  17.290 -0.3065  0.1563 -0.1248
  439TMC3    C2 6593   2.094   4.455  17.167  0.4102  0.2143 -0.3321
  439TMC3    C3 6594   2.116   4.321  17.134 -0.2861  0.9551 -0.6246
  439TMC3    C4 6595   2.188   4.416  17.380  0.0565  0.0777  0.0906
  439TMC3    C5 6596   2.211   4.290  17.338  0.2439 -0.2062 -0.5375
  439TMC3    C6 6597   2.189   4.244  17.210  0.1356 -0.0856 -0.6114
  439TMC3     C 6598   2.017   4.590  17.341 -0.6139  0.0146  0.3184
  439TMC3     O 6599   1.982   4.689  17.275  0.2498 -0.0252  0.2793
  439TMC3     H 6600   2.032   4.519  17.106 -1.9978 -1.8654 -0.1004
  439TMC3    H1 6601   2.198   4.442  17.485  0.4358 -0.0764  0.0936
  439TMC3    H2 6602   2.213   4.141  17.184  1.4543 -0.1571  0.9198
  439TMC3    C7 6603   2.269   4.204  17.438 -0.1307  1.1408 -0.0628
  439TMC3    C8 6604   2.056   4.262  17.017 -0.1663  0.0014 -0.7622
  439TMC3    O1 6605   2.352   4.254  17.508  0.4836 -0.3626 -0.2272
  439TMC3    O2 6606   2.075   4.142  17.010 -0.4042  0.1915 -0.3200
  440MPD2     C 6607   0.208   4.283  15.329 -0.0426 -0.5678 -0.1255
  440MPD2    C1 6608   0.298   4.362  15.390  0.5182 -0.1601  0.4009
  440MPD2    C2 6609   0.431   4.322  15.381 -0.0520  0.0290 -0.1409
  440MPD2    C3 6610   0.473   4.209  15.324  0.1409  0.0052 -0.1364
  440MPD2    C4 6611   0.379   4.122  15.282  0.8996  0.3898 -0.3063
  440MPD2    C5 6612   0.251   4.169  15.281 -0.4931  0.7492 -0.3446
  440MPD2     H 6613   0.503   4.396  15.415  0.8114  0.8258 -3.7462
  440MPD2    H1 6614   0.409   4.029  15.235  0.3457 -0.1976  0.5172
  440MPD2    H2 6615   0.106   4.316  15.318 -1.0043 -2.8725  2.0309
  440MPD2    H3 6616   0.178   4.105  15.231 -0.6332 -0.3934  1.3344
  440MPD2     N 6617   0.604   4.166  15.315 -0.2238 -0.3579  0.5034
  440MPD2    H5 6618   0.609   4.065  15.312 -1.2862 -0.4473  1.3612
  440MPD2    N1 6619   0.270   4.487  15.440  0.4152 -0.4437 -0.4586
  440MPD2    H7 6620   0.342   4.544  15.484 -1.8812  1.1040  1.2946
  441TMC3    C1 6621   0.836   4.173  15.335 -0.1137 -0.3218 -0.2750
  441TMC3    C2 6622   0.927   4.276  15.327 -0.0775 -0.0411 -0.6641
  441TMC3    C3 6623   1.004   4.286  15.444 -0.2425 -0.4295  0.2418
  441TMC3    C4 6624   0.842   4.065  15.421  0.4925 -0.4699  0.4906
  441TMC3    C5 6625   0.921   4.084  15.527  0.2014  0.4364 -0.2564
  441TMC3    C6 6626   0.997   4.196  15.543  0.1137 -0.0043 -0.6163
  441TMC3     C 6627   0.708   4.242  15.330  0.5841  0.6204 -0.5047
  441TMC3     O 6628   0.718   4.361  15.348  0.6996 -0.1588  0.5327
  441TMC3     H 6629   0.917   4.350  15.248  0.0583 -0.0921 -0.7281
  441TMC3    H1 6630   0.769   3.986  15.406  2.1847 -1.8752 -0.3802
  441TMC3    H2 6631   1.052   4.225  15.632 -2.2594  1.6218  0.2964
  441TMC3    C7 6632   0.880   4.010  15.642 -0.1850  0.2390  0.1244
  441TMC3    C8 6633   1.030   4.416  15.489  0.0607  0.3953 -0.1571
  441TMC3    O1 6634   0.767   3.961  15.635 -0.3653 -0.1528  1.1191
  441TMC3    O2 6635   1.133   4.413  15.553 -0.5444 -1.0720 -0.1501
  442MPD2     C 6636   3.747   0.474  16.174  0.0848  0.0554  0.0436
  442MPD2    C1 6637   3.694   0.435  16.298 -0.5121  0.4681  0.0917
  442MPD2    C2 6638   3.678   0.296  16.326 -0.3644 -0.0696 -0.5155
  442MPD2    C3 6639   3.714   0.202  16.234  0.0340  0.5785  0.7826
  442MPD2    C4 6640   3.769   0.241  16.117  0.4473 -0.6245 -0.2607
  442MPD2    C5 6641   3.798   0.371  16.090 -0.1700  0.1142 -0.5958
  442MPD2     H 6642   3.635   0.274  16.424  0.9810  0.7748  0.2636
  442MPD2    H1 6643   3.787   0.162  16.045 -1.6497 -1.1797 -0.2039
  442MPD2    H2 6644   3.757   0.576  16.138 -1.1090 -0.4245 -1.6546
  442MPD2    H3 6645   3.816   0.403  15.988  2.9296 -3.9909 -1.3292
  442MPD2     N 6646   3.696   0.068  16.253  0.0921  0.1197  0.4544
  442MPD2    H5 6647   3.737   0.009  16.182  0.2474 -1.1136  1.5760
  442MPD2    N1 6648   3.643   0.531  16.390 -0.2687  0.5432  0.4735
  442MPD2    H7 6649   3.607   0.500  16.480 -0.0091  0.2700  0.4827
  443TMC3    C1 6650   3.550   0.729  16.461  0.6031 -0.0872  0.0715
  443TMC3    C2 6651   3.466   0.833  16.415 -0.3445  0.2100 -0.5329
  443TMC3    C3 6652   3.355   0.854  16.493 -0.4226  0.5951 -0.8684
  443TMC3    C4 6653   3.527   0.663  16.584  0.2809  0.1206 -0.3869
  443TMC3    C5 6654   3.413   0.693  16.647 -0.3714  0.6209  0.7702
  443TMC3    C6 6655   3.334   0.800  16.617 -0.2821 -0.1157  0.2064
  443TMC3     C 6656   3.615   0.657  16.355 -0.0368 -1.0843  0.0466
  443TMC3     O 6657   3.618   0.717  16.249 -0.6047  0.3035  0.4196
  443TMC3     H 6658   3.477   0.892  16.324 -2.7897  0.7380 -0.4952
  443TMC3    H1 6659   3.605   0.602  16.629  0.4170  0.6833  0.1460
  443TMC3    H2 6660   3.236   0.814  16.661  0.2429  0.0691  1.3365
  443TMC3    C7 6661   3.401   0.634  16.778 -0.6452  0.1229  0.5537
  443TMC3    C8 6662   3.250   0.943  16.444 -0.3048 -0.6208 -0.2605
  443TMC3    O1 6663   3.480   0.544  16.809 -0.0436  0.4506 -0.0149
  443TMC3    O2 6664   3.287   1.040  16.378  0.0313  0.3523  0.4717
  444MPD2     C 6665   3.946   4.633  17.160 -0.4174 -0.4973 -0.0454
  444MPD2    C1 6666   3.863   4.551  17.234  0.2197 -0.3100  0.2001
  444MPD2    C2 6667   3.865   4.415  17.215 -0.6668  0.2545  0.7140
  444MPD2    C3 6668   3.940   4.356  17.113  0.1686 -0.6210 -0.0596
  444MPD2    C4 6669   4.008   4.440  17.026 -0.0284 -0.3166 -0.0995
  444MPD2    C5 6670   4.017   4.576  17.053 -0.1799 -0.5742 -0.2913
  444MPD2     H 6671   3.798   4.355  17.277  0.0617 -2.9050 -1.5400
  444MPD2    H1 6672   4.074   4.423  16.941  0.5980 -0.4339  0.4170
  444MPD2    H2 6673   3.961   0.001  17.181 -1.6277 -0.2943 -0.2596
  444MPD2    H3 6674   4.093   4.630  16.997  1.0593 -2.1079 -0.0917
  444MPD2     N 6675   3.939   4.219  17.094  0.3033 -0.6657  0.3466
  444MPD2    H5 6676   3.887   4.164  17.162 -1.3552 -1.4602 -1.5780
  444MPD2    N1 6677   3.777   4.600  17.340 -0.3575 -0.4245 -0.6107
  444MPD2    H7 6678   3.701   4.538  17.368  0.2357 -1.0652 -0.4343
  445TMC3    C1 6679   4.029   4.002  17.030  0.6285  0.3892  0.2163
  445TMC3    C2 6680   3.983   3.939  17.150  0.5088 -0.3315 -0.2394
  445TMC3    C3 6681   4.038   3.830  17.195  0.0059 -0.6603  0.1406
  445TMC3    C4 6682   4.124   3.938  16.948  0.2555  0.6829 -0.4495
  445TMC3    C5 6683   4.173   3.820  16.994  0.5663 -0.2827  0.2460
  445TMC3    C6 6684   4.129   3.757  17.110  0.3632  0.4026 -0.2736
  445TMC3     C 6685   4.014   4.144  17.002 -0.2457  0.0468 -0.2181
  445TMC3     O 6686   4.078   4.185  16.904  0.2989  0.0955  0.3236
  445TMC3     H 6687   3.906   3.992  17.207  0.2066 -1.2444  0.1957
  445TMC3    H1 6688   4.154   3.982  16.854 -0.4866  1.4067 -0.3438
  445TMC3    H2 6689   4.189   3.674  17.144  0.3494  0.2855 -0.5396
  445TMC3    C7 6690   4.256   3.751  16.896 -0.1031 -0.7173 -0.2552
  445TMC3    C8 6691   4.021   3.779  17.324 -0.5557  0.2012  0.2410
  445TMC3    O1 6692   4.322   3.819  16.818  0.2189  0.3103  0.0275
  445TMC3    O2 6693   4.047   3.662  17.336 -0.1882  0.5126  0.0015
  446MPD2     C 6694   3.391   0.714  11.337  0.2704 -0.6394  0.4922
  446MPD2    C1 6695   3.343   0.800  11.243 -0.5239 -0.0825  0.0339
  446MPD2    C2 6696   3.407   0.913  11.220  0.2751 -0.7327  0.0241
  446MPD2    C3 6697   3.527   0.942  11.286  0.0511  0.0526 -0.4336
  446MPD2    C4 6698   3.573   0.861  11.386  0.2464 -0.4175  0.3365
  446MPD2    C5 6699   3.499   0.746  11.416 -0.3440  0.1320 -0.3610
  446MPD2     H 6700   3.385   0.983  11.141 -0.5265 -2.1154 -0.9776
  446MPD2    H1 6701   3.667   0.871  11.439  0.2293  2.0541 -0.1105
  446MPD2    H2 6702   3.353   0.614  11.355  2.6243 -1.4685  0.8567
  446MPD2    H3 6703   3.533   0.678  11.494 -0.6298  1.8638  1.2724
  446MPD2     N 6704   3.588   1.061  11.248  0.2610  0.5831 -0.0701
  446MPD2    H5 6705   3.541   1.124  11.184  1.5931  0.5864 -1.0517
  446MPD2    N1 6706   3.229   0.773  11.167  0.3613  0.7289 -0.0312
  446MPD2    H7 6707   3.196   0.848  11.108 -1.6780 -1.4277 -1.6589
  447TMC3    C1 6708   3.706   1.249  11.270  0.3392  0.5091 -0.9158
  447TMC3    C2 6709   3.644   1.306  11.162  0.0048 -0.7172  0.4489
  447TMC3    C3 6710   3.698   1.405  11.086 -0.3849 -0.4977  0.4745
  447TMC3    C4 6711   3.821   1.301  11.307  0.2413  0.2357 -0.4997
  447TMC3    C5 6712   3.887   1.401  11.235 -0.0899  0.3077 -1.1062
  447TMC3    C6 6713   3.823   1.448  11.119  0.0938 -0.2780  0.2127
  447TMC3     C 6714   3.698   1.109  11.309 -0.4230  0.1764 -0.1844
  447TMC3     O 6715   3.776   1.057  11.390  0.1707  0.4543  0.1400
  447TMC3     H 6716   3.554   1.262  11.121  0.2839 -1.2614  0.4080
  447TMC3    H1 6717   3.868   1.255  11.393 -2.8251 -0.3831  0.8289
  447TMC3    H2 6718   3.872   1.527  11.064 -2.7023 -0.2070 -2.1618
  447TMC3    C7 6719   4.027   1.391  11.213  0.0545 -0.2094 -0.0529
  447TMC3    C8 6720   3.613   1.485  10.996  0.1954  0.0968  0.2748
  447TMC3    O1 6721   4.082   1.456  11.126  0.2510 -0.6839  0.1784
  447TMC3    O2 6722   3.515   1.432  10.939 -0.2175 -0.8504  0.1421
  448TMC3    C1 6723   1.420   0.214  17.687 -0.2531 -0.3527  0.0665
  448TMC3    C2 6724   1.471   0.261  17.561 -0.2193 -0.6564 -0.7590
  448TMC3    C3 6725   1.559   0.371  17.571  0.5887 -0.6899  1.1594
  448TMC3    C4 6726   1.444   0.269   0.059  0.5829  0.6342 -0.1596
  448TMC3    C5 6727   1.525   0.380   0.061 -0.0668  0.2167  0.4953
  448TMC3    C6 6728   1.591   0.433  17.697 -0.5931 -0.9654  0.8969
  448TMC3     C 6729   1.380   0.072  17.679  0.3899 -0.0356 -0.9719
  448TMC3     O 6730   1.416   0.011  17.575  0.0759  0.6458 -0.2696
  448TMC3     H 6731   1.436   0.212  17.471  0.3087 -2.0710 -0.1963
  448TMC3    H1 6732   1.412   0.216   0.148 -2.7723  3.8944  0.5702
  448TMC3    H2 6733   1.657   0.519  17.695 -3.9197  1.5065 -2.5435
  448TMC3    C7 6734   1.580   0.411   0.190 -0.1176 -0.5469 -0.1623
  448TMC3    C8 6735   1.657   0.399  17.475 -0.5106  0.1010  0.2046
  448TMC3    O1 6736   1.507   0.407   0.287 -0.3352 -0.0297  0.0846
  448TMC3    O2 6737   1.772   0.405  17.520 -0.6973  0.4792  0.4399
  449MPD2     C 6738   3.140   3.592  14.303 -0.2981  0.2250  0.0221
  449MPD2    C1 6739   3.048   3.697  14.277 -0.8215  0.2722 -0.5484
  449MPD2    C2 6740   2.912   3.672  14.278 -0.9946  0.9000 -0.2802
  449MPD2    C3 6741   2.865   3.540  14.289 -0.9054 -0.0073  0.0963
  449MPD2    C4 6742   2.956   3.437  14.313  0.4419  0.2315 -0.1319
  449MPD2    C5 6743   3.087   3.466  14.339 -0.0961 -0.4690  0.0537
  449MPD2     H 6744   2.844   3.751  14.250 -0.0432  1.6693 -0.4008
  449MPD2    H1 6745   2.923   3.334  14.323  2.1483 -0.5499 -2.7886
  449MPD2    H2 6746   3.248   3.603  14.302 -0.2696  0.0232  0.6307
  449MPD2    H3 6747   3.155   3.383  14.352  0.9990  0.4254  0.0281
  449MPD2     N 6748   2.730   3.522  14.256  0.0106  0.1674  0.4045
  449MPD2    H5 6749   2.675   3.606  14.241 -1.1619 -0.5432  0.7764
  449MPD2    N1 6750   3.078   3.835  14.250  0.1265  0.1361  0.0883
  449MPD2    H7 6751   3.005   3.903  14.234  1.2820  1.8329  2.0431
  450TMC3    C1 6752   3.195   4.011  14.165 -0.0542 -0.0382 -0.2226
  450TMC3    C2 6753   3.237   4.015  14.032 -0.0987  0.0814 -0.2229
  450TMC3    C3 6754   3.196   4.115  13.952  0.5620  0.1220 -0.2962
  450TMC3    C4 6755   3.088   4.086  14.204  0.0414 -0.7808 -0.1345
  450TMC3    C5 6756   3.025   4.159  14.107 -1.0529 -0.4415 -0.4052
  450TMC3    C6 6757   3.078   4.178  13.980  0.0923 -0.3086  0.3261
  450TMC3     C 6758   3.202   3.877  14.219 -0.0388  0.3237  0.1343
  450TMC3     O 6759   3.312   3.822  14.215 -0.3686 -0.0264  1.0550
  450TMC3     H 6760   3.321   3.950  14.009 -0.5837 -0.2674 -0.9768
  450TMC3    H1 6761   3.054   4.077  14.306  2.2237 -1.7864  0.5063
  450TMC3    H2 6762   3.034   4.252  13.913 -1.4312 -2.2704 -0.8199
  450TMC3    C7 6763   2.889   4.110  14.105  0.0325 -0.1624  0.1967
  450TMC3    C8 6764   3.289   4.207  13.895 -0.0042  0.2662  0.2251
  450TMC3    O1 6765   2.870   4.021  14.186  0.0975 -0.3355 -0.0722
  450TMC3    O2 6766   3.274   4.330  13.903 -0.2241 -0.0514 -0.2995
  451MPD2     C 6767   4.303   2.310   1.134 -0.0318 -0.5798  0.2400
  451MPD2    C1 6768   4.431   2.346   1.091  0.4627  0.4083  0.0135
  451MPD2    C2 6769   4.495   2.277   0.983  0.2159 -0.1862  0.4231
  451MPD2    C3 6770   4.432   2.170   0.930 -0.0701 -0.4884  0.6295
  451MPD2    C4 6771   4.306   2.137   0.968  0.3285  0.3168 -0.3179
  451MPD2    C5 6772   4.244   2.206   1.066 -0.2079 -0.2778 -0.0514
  451MPD2     H 6773   4.596   2.303   0.956  0.1581  0.7113  1.0843
  451MPD2    H1 6774   4.250   2.054   0.926 -0.2971  1.0924 -1.0107
  451MPD2    H2 6775   4.256   2.358   1.219  3.4411 -0.1801  1.9083
  451MPD2    H3 6776   4.144   2.175   1.095 -0.3951  0.4431  0.0663
  451MPD2     N 6777   4.488   2.091   0.830  0.1580  0.1446  0.2542
  451MPD2    H5 6778   4.427   2.021   0.789 -1.0961 -0.1576  2.6178
  451MPD2    N1 6779   4.494   2.451   1.159 -0.4544  0.0434 -0.7170
  451MPD2    H7 6780   4.445   2.492   1.238 -0.2073 -0.6847 -0.1887
  452TMC3    C1 6781   4.631   2.002   0.669  0.5464 -0.0687 -0.0691
  452TMC3    C2 6782   4.527   1.918   0.637 -0.3327 -0.6626 -0.6459
  452TMC3    C3 6783   4.535   1.843   0.522 -0.3935 -0.6183  0.0035
  452TMC3    C4 6784   0.011   2.000   0.604  1.0588  0.0839 -0.0828
  452TMC3    C5 6785   0.019   1.919   0.496  0.5878 -0.2654 -0.2415
  452TMC3    C6 6786   4.652   1.838   0.455 -0.4829  0.1263 -0.7215
  452TMC3     C 6787   4.615   2.094   0.786 -0.5674  0.2974 -0.1463
  452TMC3     O 6788   4.702   2.180   0.814  0.8527 -0.3600  0.4892
  452TMC3     H 6789   4.430   1.910   0.686  0.5997 -1.3237  1.0668
  452TMC3    H1 6790   0.095   2.061   0.636  1.1814  0.0735 -0.3860
  452TMC3    H2 6791   4.661   1.771   0.370  1.4885  1.0181 -1.2193
  452TMC3    C7 6792   0.139   1.928   0.421 -0.6087  0.3505 -0.0250
  452TMC3    C8 6793   4.433   1.737   0.505  0.6953  0.0344 -0.8749
  452TMC3    O1 6794   0.227   2.006   0.463 -0.4180 -0.1049 -0.5652
  452TMC3    O2 6795   4.331   1.743   0.571 -0.3792 -0.0642  0.0138
  453TMC3    C1 6796   0.823   0.051  11.860 -0.0299 -0.0019 -0.9669
  453TMC3    C2 6797   0.727   4.692  11.861  0.4009  0.5651  0.3581
  453TMC3    C3 6798   0.622   4.705  11.771  0.0727  0.5266 -0.3842
  453TMC3    C4 6799   0.810   0.161  11.785 -0.4739  1.2369  0.3947
  453TMC3    C5 6800   0.693   0.179  11.713 -0.6425 -0.4275  1.1717
  453TMC3    C6 6801   0.592   0.084  11.701  0.6569 -0.4202 -0.2924
  453TMC3     C 6802   0.948   0.038  11.945 -0.1580  0.5071 -0.2265
  453TMC3     O 6803   1.013   0.137  11.964 -0.2227 -0.8912 -0.0578
  453TMC3     H 6804   0.728   4.609  11.932  0.2597  0.1841 -0.0872
  453TMC3    H1 6805   0.885   0.239  11.793  2.3278 -1.3942 -0.5096
  453TMC3    H2 6806   0.501   0.083  11.642 -0.3407  0.3703  1.1906
  453TMC3    C7 6807   0.689   0.293  11.629 -0.1928  0.0159  0.5173
  453TMC3    C8 6808   0.519   4.607  11.758 -0.6116  0.7629  0.3226
  453TMC3    O1 6809   0.769   0.380  11.664  0.1042 -0.0089 -0.2968
  453TMC3    O2 6810   0.428   4.634  11.685  0.1385 -0.3421  0.0529
  454MPD2     C 6811   4.424   4.108  16.306  0.0448 -0.1258  0.4693
  454MPD2    C1 6812   4.353   4.147  16.196  0.0553  0.8396 -0.2038
  454MPD2    C2 6813   4.323   4.277  16.182  0.2797 -0.0057  0.4232
  454MPD2    C3 6814   4.353   4.369  16.279 -0.0762  0.9354 -0.6277
  454MPD2    C4 6815   4.427   4.328  16.387  0.3004 -0.2421  0.2449
  454MPD2    C5 6816   4.463   4.202  16.398 -0.1411 -1.0698  0.4651
  454MPD2     H 6817   4.267   4.309  16.095  1.1990 -0.2040 -0.2445
  454MPD2    H1 6818   4.453   4.389  16.473  0.0388 -0.1523  0.2592
  454MPD2    H2 6819   4.445   4.004  16.330  0.9430  0.3224  1.5886
  454MPD2    H3 6820   4.528   4.171  16.480  1.5817  0.7010 -0.2232
  454MPD2     N 6821   4.292   4.495  16.269  0.3593 -0.0083  0.3177
  454MPD2    H5 6822   4.294   4.545  16.357  1.2356 -1.3469  1.0521
  454MPD2    N1 6823   4.331   4.059  16.087  0.2022  1.1689 -0.1367
  454MPD2    H7 6824   4.272   4.104  16.018  0.2274  1.5774  0.1089
  455TMC3    C1 6825   4.074   4.553  16.241  0.0365 -0.4279 -0.5806
  455TMC3    C2 6826   4.081   4.611  16.368 -0.2069  0.3845 -0.6092
  455TMC3    C3 6827   4.054   4.530  16.474 -0.1367  0.1223 -0.1553
  455TMC3    C4 6828   4.014   4.434  16.228  0.4520 -0.2704  0.1267
  455TMC3    C5 6829   3.983   4.366  16.343 -0.1693 -0.1493 -0.7955
  455TMC3    C6 6830   4.007   4.407  16.469  0.1961  0.5420  0.1494
  455TMC3     C 6831   4.198   4.534  16.173  0.0138  0.3667  0.9181
  455TMC3     O 6832   4.182   4.510  16.055 -0.0935 -0.1300  0.6562
  455TMC3     H 6833   4.135   4.704  16.383  0.4290  0.1933 -1.7094
  455TMC3    H1 6834   4.003   4.390  16.130 -2.5668  1.7444 -0.4669
  455TMC3    H2 6835   3.970   4.347  16.551  1.0672 -1.5267 -0.9501
  455TMC3    C7 6836   3.940   4.224  16.324  0.2182 -0.7956  0.0586
  455TMC3    C8 6837   4.093   4.589  16.604 -0.0334 -0.2733 -0.0506
  455TMC3    O1 6838   3.888   4.199  16.220  0.1105  0.2325 -0.2977
  455TMC3    O2 6839   4.081   4.713  16.602  0.2041 -0.1858  0.4767
  456MPD2     C 6840   2.485   4.195  16.806  0.7713 -0.4985 -0.2885
  456MPD2    C1 6841   2.582   4.232  16.893 -0.5203  0.1995  0.1170
  456MPD2    C2 6842   2.569   4.346  16.965 -0.2550  0.1582  0.3067
  456MPD2    C3 6843   2.452   4.418  16.950  0.1480 -0.1587  0.1362
  456MPD2    C4 6844   2.352   4.375  16.868  0.3860 -1.0432 -0.4148
  456MPD2    C5 6845   2.369   4.260  16.789  0.1763  0.7186 -0.4722
  456MPD2     H 6846   2.648   4.383  17.029  1.3281 -4.3976  1.0199
  456MPD2    H1 6847   2.257   4.425  16.858  0.9533  0.8542  3.4784
  456MPD2    H2 6848   2.491   4.103  16.749 -0.3406 -0.3558 -0.6338
  456MPD2    H3 6849   2.289   4.220  16.729  1.4990 -0.6798 -1.2882
  456MPD2     N 6850   2.439   4.540  17.023  0.1165  0.6055  0.0553
  456MPD2    H5 6851   2.520   4.570  17.076  1.0023 -1.2315 -0.2255
  456MPD2    N1 6852   2.694   4.154  16.911  0.7165  0.1981  0.2518
  456MPD2    H7 6853   2.698   4.063  16.865 -2.2775 -0.2894  0.9631
  457TMC3    C1 6854   2.334   4.729  17.127 -0.1413  0.2631 -0.4246
  457TMC3    C2 6855   2.244   0.089  17.114  0.4274 -0.5753  0.9167
  457TMC3    C3 6856   2.230   0.173  17.221  1.1537 -0.2470 -0.0624
  457TMC3    C4 6857   2.410   4.698  17.239 -0.3535 -0.6254 -0.2236
  457TMC3    C5 6858   2.377   0.039  17.351  0.3584  0.2488 -0.2218
  457TMC3    C6 6859   2.295   0.144  17.337  0.1576 -0.1587 -0.0559
  457TMC3     C 6860   2.331   4.627  17.019 -0.4550 -0.2952  0.0768
  457TMC3     O 6861   2.226   4.624  16.957  0.6322  0.1672 -0.0431
  457TMC3     H 6862   2.169   0.094  17.036 -0.5755  0.2531  1.9479
  457TMC3    H1 6863   2.458   4.602  17.256 -0.0288 -0.9010 -2.6847
  457TMC3    H2 6864   2.282   0.213  17.419 -2.4441  0.5860 -1.1231
  457TMC3    C7 6865   2.385   4.696  17.472 -0.7684  0.2688 -0.5742
  457TMC3    C8 6866   2.112   0.257  17.236 -0.1139  0.2158 -0.0299
  457TMC3    O1 6867   2.449   4.594  17.471  0.6398 -0.2519 -0.5238
  457TMC3    O2 6868   2.090   0.286  17.352  0.1847  0.4165 -0.2149
  458MPD2     C 6869   4.019   3.706  12.974  0.3537  0.9671  0.0132
  458MPD2    C1 6870   4.064   3.622  13.070  0.7655 -0.1976  0.1298
  458MPD2    C2 6871   3.979   3.578  13.173 -0.2012  0.6081  0.2338
  458MPD2    C3 6872   3.847   3.627  13.180  0.6782  0.0853  0.5997
  458MPD2    C4 6873   3.817   3.717  13.084 -0.4601 -0.0151 -0.5446
  458MPD2    C5 6874   3.896   3.759  12.977 -0.3922 -0.3507  0.0813
  458MPD2     H 6875   4.010   3.498  13.238  0.6357  1.8649  1.3759
  458MPD2    H1 6876   3.719   3.764  13.083  0.1082  1.1555 -1.5879
  458MPD2    H2 6877   4.078   3.735  12.888  1.0948  2.2392  0.9428
  458MPD2    H3 6878   3.865   3.828  12.900 -0.1066  0.8674  1.0660
  458MPD2     N 6879   3.762   3.588  13.286 -0.7018  0.2711  0.1076
  458MPD2    H5 6880   3.808   3.518  13.344 -1.0829 -1.2810 -1.4449
  458MPD2    N1 6881   4.196   3.573  13.064 -0.0519 -0.4548 -0.0146
  458MPD2    H7 6882   4.234   3.578  12.970 -0.8144  0.8595 -0.2542
  459TMC3    C1 6883   4.387   3.454  13.105  0.7098 -0.1172  0.1782
  459TMC3    C2 6884   4.468   3.535  13.030  0.3029  0.4148 -0.2697
  459TMC3    C3 6885   4.605   3.522  13.045  0.1087 -0.2974 -0.8756
  459TMC3    C4 6886   4.451   3.356  13.184 -0.1590  0.2738 -1.2560
  459TMC3    C5 6887   4.584   3.349  13.194  0.6601 -0.0198  0.5137
  459TMC3    C6 6888   4.664   3.430  13.123  0.4137  0.3482 -0.5145
  459TMC3     C 6889   4.262   3.496  13.155 -0.2311 -0.1547 -0.7418
  459TMC3     O 6890   4.225   3.453  13.261  0.1255  0.2705 -0.6174
  459TMC3     H 6891   4.439   3.630  12.986 -2.3230 -0.1562  0.2198
  459TMC3    H1 6892   4.395   3.297  13.256  0.1707  2.2207  0.6193
  459TMC3    H2 6893   0.034   3.434  13.137  0.3204 -1.0055  0.4856
  459TMC3    C7 6894   4.650   3.269  13.297 -0.3760 -0.0559  0.3251
  459TMC3    C8 6895   4.685   3.614  12.961  0.2709 -0.4956  0.3845
  459TMC3    O1 6896   0.020   3.306  13.339  0.5184 -0.0546  0.0656
  459TMC3    O2 6897   0.063   3.640  13.004 -0.0166  0.5016 -0.1392
  460MPD2     C 6898   3.675   1.835  10.940  0.1746 -0.3556 -0.2966
  460MPD2    C1 6899   3.605   1.725  10.935  0.3525 -0.0891 -0.1284
  460MPD2    C2 6900   3.509   1.708  10.830 -0.8613  0.1272 -0.1180
  460MPD2    C3 6901   3.471   1.817  10.749 -0.5415 -0.8070 -0.0970
  460MPD2    C4 6902   3.535   1.940  10.771 -0.4630  1.0442  0.5809
  460MPD2    C5 6903   3.641   1.944  10.860  0.4987 -0.0972  0.1774
  460MPD2     H 6904   3.461   1.611  10.821  1.0288 -0.8082 -0.0475
  460MPD2    H1 6905   3.511   2.028  10.711  0.3016  0.7537 -0.1596
  460MPD2    H2 6906   3.749   1.845  11.019  0.6733 -0.6930 -0.7243
  460MPD2    H3 6907   3.686   2.040  10.881 -0.3955  0.3730 -0.0376
  460MPD2     N 6908   3.370   1.817  10.645 -0.1833 -0.0632 -0.4790
  460MPD2    H5 6909   3.335   1.731  10.603  0.5745  0.0135 -1.2565
  460MPD2    N1 6910   3.650   1.615  11.009  0.0648  0.1347  0.3472
  460MPD2    H7 6911   3.718   1.626  11.083  1.9158 -0.8509 -1.2082
  461TMC3    C1 6912   3.216   1.899  10.484  0.4852 -0.1737 -1.5148
  461TMC3    C2 6913   3.192   1.771  10.436  0.2650 -0.5620  0.6563
  461TMC3    C3 6914   3.121   1.760  10.319 -0.1839 -0.9410  0.0870
  461TMC3    C4 6915   3.174   2.008  10.421  0.0187  0.3977  0.5174
  461TMC3    C5 6916   3.120   1.991  10.296  0.3473 -0.0750  0.1843
  461TMC3    C6 6917   3.090   1.871  10.242 -0.1644 -0.3106 -0.3211
  461TMC3     C 6918   3.289   1.926  10.603  0.5882  0.2546 -0.3148
  461TMC3     O 6919   3.286   2.037  10.651 -0.4565  0.1066 -0.5611
  461TMC3     H 6920   3.247   1.687  10.478  0.3250  0.2915  2.2996
  461TMC3    H1 6921   3.221   2.101  10.449  1.1879 -0.0123 -0.1036
  461TMC3    H2 6922   3.046   1.865  10.143  0.0120 -0.0691 -0.4143
  461TMC3    C7 6923   3.121   2.104  10.207 -0.0600  0.5347  0.0669
  461TMC3    C8 6924   3.092   1.626  10.272  0.3268  0.2058  0.2827
  461TMC3    O1 6925   3.110   2.214  10.259 -0.5569  0.1811  0.4611
  461TMC3    O2 6926   3.092   1.610  10.150  0.3673  0.0796 -0.3702
  462TMC3    C1 6927   4.468   2.453  17.428  0.1265 -0.4903 -0.0964
  462TMC3    C2 6928   4.393   2.399  17.324  0.7061 -0.2838  0.0637
  462TMC3    C3 6929   4.323   2.283  17.345  0.5367 -0.7319  0.1639
  462TMC3    C4 6930   4.463   2.387  17.548 -0.0618 -0.4138  1.0702
  462TMC3    C5 6931   4.387   2.274  17.570  0.2610  0.6571 -0.2154
  462TMC3    C6 6932   4.323   2.220  17.463 -0.1763  0.3932  0.1290
  462TMC3     C 6933   4.531   2.579  17.411 -0.0226 -0.6429  0.5529
  462TMC3     O 6934   4.491   2.648  17.319 -0.1889 -0.8603 -0.1462
  462TMC3     H 6935   4.384   2.450  17.230 -2.6550 -0.0740  0.4724
  462TMC3    H1 6936   4.512   2.426  17.637  1.7644  0.9841 -0.5548
  462TMC3    H2 6937   4.241   2.151  17.478 -0.7579  0.7936 -1.2018
  462TMC3    C7 6938   4.357   2.220  17.707  0.1904  0.4514  0.4193
  462TMC3    C8 6939   4.230   2.235  17.240 -0.1786 -0.5178 -0.4091
  462TMC3    O1 6940   4.274   2.131  17.718  0.2290 -0.5320 -0.1679
  462TMC3    O2 6941   4.189   2.329  17.172 -0.0183 -0.1082  0.6785
  463MPD2     C 6942   0.403   1.726   1.337  0.6306 -0.5230  0.9288
  463MPD2    C1 6943   0.287   1.692   1.391 -0.5979  0.4370  0.6892
  463MPD2    C2 6944   0.235   1.757   1.502  0.9852  0.6467  0.6983
  463MPD2    C3 6945   0.310   1.857   1.565 -0.0266  0.1445  0.4499
  463MPD2    C4 6946   0.428   1.898   1.507  0.3986  0.2993 -0.0238
  463MPD2    C5 6947   0.473   1.827   1.394  0.2274 -0.6960 -0.0092
  463MPD2     H 6948   0.134   1.733   1.533  1.0358  0.0603  0.4239
  463MPD2    H1 6949   0.499   1.957   1.563 -1.0674  1.3005  0.7810
  463MPD2    H2 6950   0.444   1.677   1.250  0.1133  0.1658  0.2945
  463MPD2    H3 6951   0.568   1.850   1.348  1.0636 -1.3649  1.3600
  463MPD2     N 6952   0.251   1.934   1.673  0.8103  0.5106 -0.1830
  463MPD2    H5 6953   0.314   2.008   1.702  1.6190 -0.7872  1.3830
  463MPD2    N1 6954   0.203   1.593   1.325  0.5784 -0.0061  0.2167
  463MPD2    H7 6955   0.109   1.571   1.356  0.0306  1.0417 -0.7108
  464TMC3    C1 6956   0.145   1.433   1.163 -0.1024  0.0369  0.1267
  464TMC3    C2 6957   0.026   1.500   1.136 -0.0287  1.0725 -0.1878
  464TMC3    C3 6958   4.668   1.451   1.054  0.0974 -0.1013  0.1764
  464TMC3    C4 6959   0.175   1.328   1.087  0.5813  0.0814 -0.4535
  464TMC3    C5 6960   0.078   1.276   1.007  0.2676 -0.0556  0.1982
  464TMC3    C6 6961   4.694   1.332   0.991 -0.2670 -0.6636  0.1344
  464TMC3     C 6962   0.247   1.499   1.232  0.2381  0.0585 -0.9250
  464TMC3     O 6963   0.364   1.480   1.194  0.1840 -0.8626 -0.3675
  464TMC3     H 6964   0.000   1.590   1.191  1.5468  0.7377  1.1060
  464TMC3    H1 6965   0.270   1.278   1.100  0.8024  0.7478  0.5241
  464TMC3    H2 6966   4.624   1.276   0.930 -2.3491  1.8102  0.2722
  464TMC3    C7 6967   0.107   1.149   0.950  0.4177  0.7336 -0.0968
  464TMC3    C8 6968   4.530   1.475   1.082  0.7757  0.2802 -0.8662
  464TMC3    O1 6969   0.224   1.130   0.935 -0.2326  0.1314  0.2849
  464TMC3    O2 6970   4.450   1.418   1.006 -0.1153 -0.6590  0.5078
  465MPD2     C 6971   1.664   3.773  16.696  0.4659 -0.4062 -0.1529
  465MPD2    C1 6972   1.597   3.804  16.808 -0.2787 -0.9762  0.6178
  465MPD2    C2 6973   1.499   3.904  16.810  0.1798  0.2912  0.3348
  465MPD2    C3 6974   1.485   3.977  16.692  0.2659  0.0686  0.2590
  465MPD2    C4 6975   1.550   3.938  16.576  0.1197  0.0544  0.0002
  465MPD2    C5 6976   1.644   3.835  16.586 -0.0538  0.5588  0.4655
  465MPD2     H 6977   1.455   3.939  16.903  1.2809  1.9298  0.2583
  465MPD2    H1 6978   1.520   3.978  16.480  2.4114  1.4301 -0.1491
  465MPD2    H2 6979   1.743   3.699  16.691 -0.0494 -0.9911  0.4194
  465MPD2    H3 6980   1.694   3.793  16.498  0.1013  0.4582  0.6011
  465MPD2     N 6981   1.389   4.083  16.698 -0.3008  0.6176 -0.0501
  465MPD2    H5 6982   1.351   4.098  16.791  0.4748 -0.2912  0.4128
  465MPD2    N1 6983   1.634   3.758  16.936 -0.2204 -0.6011  0.5722
  465MPD2    H7 6984   1.611   3.819  17.014  1.2474  2.6175 -1.4793
  466TMC3    C1 6985   1.048   4.291  16.749  0.2709 -0.0945 -0.4574
  466TMC3    C2 6986   1.015   4.401  16.675  0.2478  0.3006  0.2051
  466TMC3    C3 6987   1.100   4.436  16.577  0.8332 -0.6654  0.6305
  466TMC3    C4 6988   1.161   4.219  16.733  0.1005 -0.1203  0.2571
  466TMC3    C5 6989   1.240   4.254  16.628  0.2506  0.1539 -0.4856
  466TMC3    C6 6990   1.216   4.365  16.551  0.3181 -0.1892  0.4480
  466TMC3     C 6991   0.966   4.284  16.868 -0.3680 -0.3992  0.1209
  466TMC3     O 6992   0.893   4.379  16.895 -0.4370  0.0125 -0.1218
  466TMC3     H 6993   0.928   4.463  16.690  1.1155  1.0292  2.3253
  466TMC3    H1 6994   1.192   4.145  16.807  1.2950 -1.1948 -1.3133
  466TMC3    H2 6995   1.280   4.382  16.465 -0.4583  0.9810  0.0952
  466TMC3    C7 6996   1.360   4.174  16.594  0.6695 -0.0111 -0.1139
  466TMC3    C8 6997   1.060   4.537  16.484 -0.8227 -0.1243  0.4414
  466TMC3    O1 6998   1.428   4.203  16.497 -0.0815 -0.2926  0.2147
  466TMC3    O2 6999   1.112   4.546  16.375  0.3803  0.2072 -0.0511
  467TMC3    C1 7000   2.093   2.380  13.692 -0.1544 -0.1560  0.6546
  467TMC3    C2 7001   2.043   2.452  13.587 -0.4447 -0.0791  0.4619
  467TMC3    C3 7002   1.934   2.526  13.603 -0.0030 -0.0089  0.0697
  467TMC3    C4 7003   2.029   2.374  13.815 -0.1989 -1.3182  0.0102
  467TMC3    C5 7004   1.912   2.442  13.819 -0.2163  0.1165 -0.3797
  467TMC3    C6 7005   1.858   2.525  13.721  0.5419  0.9704 -0.6802
  467TMC3     C 7006   2.230   2.415  13.717  0.5223  0.5785  0.2464
  467TMC3     O 7007   2.265   2.529  13.683  0.3446 -0.7629  0.7806
  467TMC3     H 7008   2.114   2.473  13.508 -0.3914 -1.9049  0.0118
  467TMC3    H1 7009   2.067   2.314  13.897 -0.7814 -1.4864  0.1590
  467TMC3    H2 7010   1.770   2.588  13.730 -0.5164 -0.7804  1.0568
  467TMC3    C7 7011   1.829   2.438  13.938 -0.4174  0.0613  0.8201
  467TMC3    C8 7012   1.936   2.650  13.535  0.4560 -0.1750 -0.7403
  467TMC3    O1 7013   1.730   2.512  13.949  0.6782 -0.1348 -0.2007
  467TMC3    O2 7014   1.913   2.750  13.600 -0.1656 -0.1124  0.0274
  468MPD2     C 7015   0.635   1.104  10.623  0.0880 -0.2903 -0.3502
  468MPD2    C1 7016   0.755   1.105  10.698 -0.4653  0.8371  0.4337
  468MPD2    C2 7017   0.799   0.993  10.760 -0.8755  0.3458  0.5093
  468MPD2    C3 7018   0.731   0.869  10.747 -0.0046 -0.7763  0.7454
  468MPD2    C4 7019   0.617   0.873  10.664  0.4997 -0.1547 -0.5711
  468MPD2    C5 7020   0.565   0.988  10.615 -0.2256  0.5136  0.6602
  468MPD2     H 7021   0.888   0.998  10.822  0.9625 -1.5276 -1.9910
  468MPD2    H1 7022   0.574   0.775  10.647  0.6073  0.0757 -2.1129
  468MPD2    H2 7023   0.600   1.190  10.567 -0.7185 -1.1532 -1.1669
  468MPD2    H3 7024   0.481   0.982  10.546  0.1815 -0.0191  0.2139
  468MPD2     N 7025   0.772   0.747  10.811 -0.0580 -0.1587 -0.0211
  468MPD2    H5 7026   0.706   0.670  10.805  1.2727 -1.3104  0.4080
  468MPD2    N1 7027   0.834   1.228  10.721 -0.4009  0.3050  0.1561
  468MPD2    H7 7028   0.914   1.228  10.784  0.0348 -0.7029 -0.3907
  469TMC3    C1 7029   0.867   1.452  10.760 -0.3833  0.1249  0.7164
  469TMC3    C2 7030   1.000   1.423  10.776 -0.0135  0.4006  0.3181
  469TMC3    C3 7031   1.065   1.487  10.874 -0.4841 -0.5703  0.3354
  469TMC3    C4 7032   0.800   1.540  10.846  0.1421  0.0286 -0.2106
  469TMC3    C5 7033   0.863   1.609  10.937  0.8100  0.5854  0.4118
  469TMC3    C6 7034   1.003   1.592  10.948  0.0723 -0.3731  0.7630
  469TMC3     C 7035   0.786   1.357  10.696  0.1258 -0.6217  0.4438
  469TMC3     O 7036   0.668   1.389  10.667  0.1259  0.0494  0.1020
  469TMC3     H 7037   1.040   1.348  10.709 -3.1787 -0.8677 -0.1287
  469TMC3    H1 7038   0.692   1.539  10.851  0.1246 -3.9173 -1.8009
  469TMC3    H2 7039   1.060   1.641  11.026  1.6902  0.4570 -0.9509
  469TMC3    C7 7040   0.788   1.704  11.020 -0.9414 -0.0255 -0.2755
  469TMC3    C8 7041   1.208   1.486  10.864  0.1876  0.4175 -0.4529
  469TMC3    O1 7042   0.667   1.711  11.006  0.1050  0.0883 -0.2923
  469TMC3    O2 7043   1.255   1.478  10.753 -0.5104 -0.0900  0.0541
  470TMC3    C1 7044   3.485   2.367   0.896  0.1439  0.1866  0.0922
  470TMC3    C2 7045   3.553   2.481   0.939  0.1242  0.3170 -0.7063
  470TMC3    C3 7046   3.518   2.543   1.056 -0.4847 -0.3051 -0.0241
  470TMC3    C4 7047   3.385   2.311   0.973 -0.7201  1.0047 -0.1796
  470TMC3    C5 7048   3.363   2.366   1.095  0.6907 -0.7208  1.0820
  470TMC3    C6 7049   3.425   2.478   1.142  0.4089  0.1363 -0.4126
  470TMC3     C 7050   3.513   2.297   0.767  0.1111  0.0104  0.4678
  470TMC3     O 7051   3.424   2.218   0.732 -0.2542 -0.0033 -0.0334
  470TMC3     H 7052   3.632   2.524   0.880 -0.2203  1.0390 -0.6382
  470TMC3    H1 7053   3.331   2.223   0.939 -0.3646  0.2212  1.2973
  470TMC3    H2 7054   3.394   2.524   1.235 -0.8882  0.7813 -1.1541
  470TMC3    C7 7055   3.266   2.297   1.183  0.7634 -0.8035  0.2635
  470TMC3    C8 7056   3.596   2.658   1.100  0.1404  0.5266 -0.0449
  470TMC3    O1 7057   3.188   2.223   1.126 -0.1814 -0.5905  0.3732
  470TMC3    O2 7058   3.605   2.680   1.219  0.0669  0.5266 -0.2821
  471MPD2     C 7059   3.189   3.307  16.280 -0.1298 -0.2928 -0.2341
  471MPD2    C1 7060   3.244   3.179  16.292  0.2364 -0.1025  0.2002
  471MPD2    C2 7061   3.299   3.144  16.416  0.2965 -0.2008  0.4961
  471MPD2    C3 7062   3.291   3.228  16.525 -0.7447 -0.3564  0.9059
  471MPD2    C4 7063   3.236   3.359  16.508 -0.0826  0.4128  0.1879
  471MPD2    C5 7064   3.191   3.392  16.385 -0.4906  0.7897  0.4289
  471MPD2     H 7065   3.342   3.046  16.434 -3.3747 -2.0513 -0.6599
  471MPD2    H1 7066   3.253   3.433  16.585 -1.4477 -1.2597  2.0918
  471MPD2    H2 7067   3.145   3.348  16.190 -1.0375  1.0109  0.8004
  471MPD2    H3 7068   3.156   3.494  16.375 -1.5019  0.2759 -1.1656
  471MPD2     N 7069   3.352   3.191  16.643  0.0599 -0.0835 -0.1702
  471MPD2    H5 7070   3.402   3.103  16.633  0.9908  0.3433  0.6468
  471MPD2    N1 7071   3.267   3.090  16.184  0.0416 -0.5934 -0.1647
  471MPD2    H7 7072   3.297   2.995  16.205 -0.5672 -1.0045 -1.1561
  472TMC3    C1 7073   3.236   2.981  15.976  0.2932 -0.1697  0.2143
  472TMC3    C2 7074   3.126   2.968  15.889  0.0191 -0.0008  0.4797
  472TMC3    C3 7075   3.079   2.847  15.850  0.1589  0.3663 -0.0398
  472TMC3    C4 7076   3.283   2.870  16.040  0.0653  0.0692  1.1561
  472TMC3    C5 7077   3.232   2.750  16.005 -0.5796  0.2610 -0.4220
  472TMC3    C6 7078   3.130   2.735  15.913  0.2256  0.0965 -0.1021
  472TMC3     C 7079   3.228   3.107  16.059 -0.1157 -0.2958  0.1952
  472TMC3     O 7080   3.180   3.203  16.003 -0.1678  0.1313 -0.0724
  472TMC3     H 7081   3.071   3.054  15.853 -1.4585 -0.6213  1.2595
  472TMC3    H1 7082   3.374   2.872  16.099  1.2128  0.3845 -0.6052
  472TMC3    H2 7083   3.094   2.636  15.889 -0.0123 -0.0964  1.0303
  472TMC3    C7 7084   3.233   2.656  16.116  0.0001  0.2885 -0.0075
  472TMC3    C8 7085   2.935   2.840  15.817  0.5968 -0.5467  0.4680
  472TMC3    O1 7086   3.256   2.701  16.228  0.4338 -0.0476 -0.6439
  472TMC3    O2 7087   2.906   2.906  15.716  0.7564 -0.0928 -0.0366
  473MPD2     C 7088   3.446   0.326  13.810  0.3822  0.1017  0.1706
  473MPD2    C1 7089   3.458   0.404  13.697 -0.9207  0.3639  0.6125
  473MPD2    C2 7090   3.483   0.542  13.712  0.2864  0.2357  0.5268
  473MPD2    C3 7091   3.504   0.597  13.835  0.7819 -0.1664 -0.7263
  473MPD2    C4 7092   3.489   0.518  13.951 -0.5448  0.2657 -0.4045
  473MPD2    C5 7093   3.469   0.384  13.936 -0.0629 -0.0100  0.7333
  473MPD2     H 7094   3.499   0.603  13.623  0.8879 -1.0147 -0.2254
  473MPD2    H1 7095   3.509   0.556  14.051  1.4296  0.3457 -0.8336
  473MPD2    H2 7096   3.417   0.222  13.822  2.3654 -0.5831 -0.8570
  473MPD2    H3 7097   3.470   0.319  14.023 -0.0166  0.8589  1.3880
  473MPD2     N 7098   3.552   0.725  13.864 -0.2036 -0.6645 -1.1552
  473MPD2    H5 7099   3.576   0.741  13.961 -1.1570 -1.5261 -0.7841
  473MPD2    N1 7100   3.424   0.349  13.572  0.1916 -0.8838 -0.0965
  473MPD2    H7 7101   3.403   0.413  13.496 -0.5043 -1.1294 -0.1129
  474TMC3    C1 7102   3.613   0.943  13.850  0.7723 -0.7259  0.2754
  474TMC3    C2 7103   3.510   1.019  13.892 -0.1384 -0.5950 -0.3265
  474TMC3    C3 7104   3.541   1.103  13.993 -0.6977  0.4258  0.0250
  474TMC3    C4 7105   3.736   0.941  13.904 -0.3731  0.8548 -0.6060
  474TMC3    C5 7106   3.764   1.030  14.003 -0.6673 -0.2207  0.1496
  474TMC3    C6 7107   3.667   1.104  14.057 -0.0589  0.7191  0.3786
  474TMC3     C 7108   3.566   0.828  13.780  0.3450 -0.4485 -0.8083
  474TMC3     O 7109   3.523   0.842  13.664  0.4530  0.4993  0.7541
  474TMC3     H 7110   3.418   1.024  13.834 -1.2015  3.3547  1.6706
  474TMC3    H1 7111   3.808   0.867  13.870  0.3051  2.0326 -1.7281
  474TMC3    H2 7112   3.694   1.183  14.125  0.9552  0.7797 -0.0867
  474TMC3    C7 7113   3.879   1.019  14.082 -0.6869  0.0859  0.4462
  474TMC3    C8 7114   3.422   1.149  14.059 -0.4124 -0.2751 -0.4919
  474TMC3    O1 7115   3.966   0.949  14.033  0.3580  0.2919  1.0733
  474TMC3    O2 7116   3.320   1.088  14.037 -0.3310 -0.0190  0.4913
  475MPD2     C 7117   1.029   3.444  11.551 -0.9633  0.6229  0.1686
  475MPD2    C1 7118   1.025   3.579  11.553 -0.2185 -0.2568  0.1050
  475MPD2    C2 7119   0.924   3.651  11.502 -0.0517 -0.0387  0.1671
  475MPD2    C3 7120   0.827   3.585  11.426 -0.4313  0.2799  0.0759
  475MPD2    C4 7121   0.828   3.448  11.423 -0.2701 -0.4325 -0.3258
  475MPD2    C5 7122   0.926   3.376  11.491  0.3734  0.4654  0.0235
  475MPD2     H 7123   0.927   3.759  11.501  0.2656 -0.0442  0.5159
  475MPD2    H1 7124   0.758   3.391  11.364 -2.8334  2.1248  0.2550
  475MPD2    H2 7125   1.108   3.389  11.601 -0.2476  0.0680 -1.5782
  475MPD2    H3 7126   0.921   3.268  11.494 -0.0941  0.4594 -1.1980
  475MPD2     N 7127   0.754   3.661  11.332  0.0413  0.2087 -0.3679
  475MPD2    H5 7128   0.763   3.760  11.355  2.0845 -0.4274  1.6436
  475MPD2    N1 7129   1.138   3.655  11.600  0.3550 -0.4013  0.4050
  475MPD2    H7 7130   1.117   3.753  11.616  0.3501 -0.4554  0.7312
  476TMC3    C1 7131   1.339   3.729  11.521 -0.9525 -0.8557 -0.1715
  476TMC3    C2 7132   1.272   3.811  11.430  0.2448 -0.1082  0.3067
  476TMC3    C3 7133   1.346   3.891  11.349 -0.2630  0.1284  0.1878
  476TMC3    C4 7134   1.475   3.733  11.531  0.3014 -0.2286  0.0487
  476TMC3    C5 7135   1.540   3.822  11.451 -0.4063  0.7909 -0.2990
  476TMC3    C6 7136   1.480   3.902  11.358 -0.4356  0.1810 -0.2649
  476TMC3     C 7137   1.271   3.615  11.580  0.2000 -0.0218 -0.7077
  476TMC3     O 7138   1.324   3.505  11.555  0.2716 -0.0688  0.5265
  476TMC3     H 7139   1.165   3.804  11.410  0.8534 -2.8961 -1.9761
  476TMC3    H1 7140   1.529   3.675  11.605 -0.6467  0.2100  1.0896
  476TMC3    H2 7141   1.533   3.976  11.300  0.1237  0.5495  0.7151
  476TMC3    C7 7142   1.674   3.852  11.513 -1.0144  0.7736  0.0494
  476TMC3    C8 7143   1.269   3.963  11.252  1.3644  0.4700 -0.2962
  476TMC3    O1 7144   1.726   3.771  11.586  0.7392  0.5022  0.0796
  476TMC3    O2 7145   1.147   3.958  11.262  0.5990 -0.2175 -0.0054
  477MPD2     C 7146   4.537   0.635  12.078 -0.4859 -0.6429  0.3067
  477MPD2    C1 7147   4.469   0.542  12.000  0.1559  0.1095  0.2329
  477MPD2    C2 7148   4.477   0.407  12.018 -0.2311 -0.3985  0.6550
  477MPD2    C3 7149   4.535   0.367  12.136  0.0000 -0.3106 -0.1226
  477MPD2    C4 7150   4.606   0.459  12.216 -0.0795  0.0098 -0.1286
  477MPD2    C5 7151   4.612   0.589  12.185  0.6339 -0.3077  0.8846
  477MPD2     H 7152   4.415   0.336  11.965  0.5688 -0.0868 -0.7010
  477MPD2    H1 7153   4.661   0.426  12.303  0.8705 -2.4658 -1.6429
  477MPD2    H2 7154   4.546   0.739  12.052  1.1817 -0.8356  0.0619
  477MPD2    H3 7155   4.670   0.657  12.246 -0.2233  1.3267 -0.1175
  477MPD2     N 7156   4.546   0.230  12.175  0.2461 -0.4886 -0.3432
  477MPD2    H5 7157   4.576   0.213  12.271  0.5333  2.3176  0.0498
  477MPD2    N1 7158   4.398   0.592  11.889  0.1691 -0.1044 -0.4295
  477MPD2    H7 7159   4.397   0.693  11.883  0.4166 -0.2919 -3.5204
  478TMC3    C1 7160   4.236   0.601  11.714 -0.6298 -0.1785  0.3158
  478TMC3    C2 7161   4.216   0.735  11.734 -0.4643  0.4370 -0.2960
  478TMC3    C3 7162   4.139   0.802  11.645 -0.0169 -0.8167 -0.3706
  478TMC3    C4 7163   4.175   0.543  11.604  0.0602  0.5965  0.9527
  478TMC3    C5 7164   4.096   0.614  11.516  0.3803 -0.0228 -0.3927
  478TMC3    C6 7165   4.075   0.747  11.543  0.2443 -0.0558 -0.1564
  478TMC3     C 7166   4.330   0.524  11.792  0.3713 -0.2220  0.5147
  478TMC3     O 7167   4.341   0.404  11.764 -0.0907 -0.2777 -0.2232
  478TMC3     H 7168   4.257   0.788  11.819 -2.5180  1.2562  0.2035
  478TMC3    H1 7169   4.185   0.436  11.596  0.3233  0.5224  2.2887
  478TMC3    H2 7170   4.025   0.812  11.473 -0.8174  0.2307  0.8605
  478TMC3    C7 7171   3.989   0.522  11.468 -0.1999 -0.0594  0.0606
  478TMC3    C8 7172   4.101   0.931  11.685  0.3264  0.0856  0.2938
  478TMC3    O1 7173   4.001   0.407  11.514 -0.3551 -0.7035  0.8512
  478TMC3    O2 7174   4.180   0.996  11.749  0.1095  0.4141  0.3470
  479MPD2     C 7175   2.954   2.257  15.227 -0.1261  0.1431  0.1315
  479MPD2    C1 7176   2.906   2.192  15.339 -0.9254  0.6184  1.0601
  479MPD2    C2 7177   2.960   2.234  15.459  0.2637 -0.5137 -0.1097
  479MPD2    C3 7178   3.035   2.354  15.471  0.8551  0.1988 -0.4816
  479MPD2    C4 7179   3.078   2.413  15.361  0.0161 -0.1565 -0.8631
  479MPD2    C5 7180   3.037   2.368  15.239  0.6127  0.0880 -0.3475
  479MPD2     H 7181   2.933   2.183  15.551 -2.2042  1.7873  0.4720
  479MPD2    H1 7182   3.117   2.514  15.353 -0.9992  0.2059 -1.2176
  479MPD2    H2 7183   2.924   2.245  15.124  1.5274 -2.0139 -0.0875
  479MPD2    H3 7184   3.055   2.433  15.154  1.0462 -3.2556 -2.8231
  479MPD2     N 7185   3.077   2.414  15.595 -0.3824  0.5000 -0.2379
  479MPD2    H5 7186   3.163   2.468  15.595 -0.1084  0.0736 -1.5220
  479MPD2    N1 7187   2.809   2.095  15.324  0.0240  0.1676 -0.2465
  479MPD2    H7 7188   2.772   2.074  15.231  1.1470 -0.9153 -0.4468
  480TMC3    C1 7189   2.776   2.149  15.822 -0.0245  0.2373  0.6039
  480TMC3    C2 7190   2.670   2.179  15.737  0.1069  0.4312 -0.6602
  480TMC3    C3 7191   2.696   2.285  15.653 -0.1350  0.5278 -0.1330
  480TMC3    C4 7192   2.887   2.222  15.837  0.4591  0.2811  0.1575
  480TMC3    C5 7193   2.901   2.328  15.745  0.6336 -0.3526  0.1038
  480TMC3    C6 7194   2.805   2.364  15.663  0.7168 -0.0725 -0.0682
  480TMC3     C 7195   2.765   2.037  15.911  0.4678 -0.1765 -0.2663
  480TMC3     O 7196   2.700   1.940  15.871 -0.5096 -0.1449  0.1504
  480TMC3     H 7197   2.574   2.129  15.742 -0.9878  2.5205 -0.6065
  480TMC3    H1 7198   2.976   2.173  15.873 -0.2672 -1.4299 -0.3835
  480TMC3    H2 7199   2.814   2.454  15.604 -0.0129  0.8489  1.2143
  480TMC3    C7 7200   3.040   2.377  15.722  0.5366  0.0099 -0.0256
  480TMC3    C8 7201   2.605   2.295  15.536  0.3937 -0.5099 -0.2228
  480TMC3    O1 7202   3.108   2.397  15.819 -0.1954 -0.0345 -0.4884
  480TMC3    O2 7203   2.488   2.256  15.559 -0.5488 -0.0850  0.4150
  481MPD2     C 7204   0.142   2.324  14.425  0.0724  0.0413 -0.0676
  481MPD2    C1 7205   0.039   2.230  14.420 -0.1368 -0.2932  0.3008
  481MPD2    C2 7206   4.696   2.224  14.530 -0.0727  0.2933 -1.0600
  481MPD2    C3 7207   4.696   2.315  14.636  0.1828 -0.2814  0.2905
  481MPD2    C4 7208   0.069   2.396  14.641 -0.9333  0.3002  0.2473
  481MPD2    C5 7209   0.154   2.404  14.537  0.6108 -0.6059 -0.0166
  481MPD2     H 7210   4.616   2.153  14.550 -0.3432  0.5895 -1.0942
  481MPD2    H1 7211   0.084   2.466  14.723  3.5705 -0.0716 -0.2455
  481MPD2    H2 7212   0.211   2.324  14.341 -1.3021 -0.7908 -1.2169
  481MPD2    H3 7213   0.233   2.478  14.527 -0.0095  0.1157  0.3869
  481MPD2     N 7214   4.608   2.329  14.746  0.0853 -0.4770  0.3843
  481MPD2    H5 7215   4.629   2.400  14.816  0.1247  0.0918 -0.2025
  481MPD2    N1 7216   0.038   2.143  14.313 -0.1324  0.3561 -0.6013
  481MPD2    H7 7217   0.097   2.157  14.232 -0.0030  0.9169 -0.4093
  482TMC3    C1 7218   4.658   1.999  14.161 -0.2369 -0.1846  1.1557
  482TMC3    C2 7219   4.539   1.937  14.136  0.7563 -0.3805  0.3359
  482TMC3    C3 7220   4.493   1.917  14.009  0.2133  0.7673  0.2872
  482TMC3    C4 7221   4.733   2.050  14.059  0.4093 -0.1688  0.2632
  482TMC3    C5 7222   4.677   2.057  13.932  0.3602  0.5721  0.2111
  482TMC3    C6 7223   4.559   1.984  13.908  0.7756  0.6124 -0.3500
  482TMC3     C 7224   4.676   2.050  14.298  0.3087 -1.3138 -0.3013
  482TMC3     O 7225   4.581   2.034  14.369 -0.2459 -0.2813 -0.6525
  482TMC3     H 7226   4.479   1.899  14.218 -0.3794 -0.5665 -0.5808
  482TMC3    H1 7227   0.094   2.094  14.075 -0.7622  2.9706 -1.2175
  482TMC3    H2 7228   4.514   1.973  13.810 -1.7221  1.9622  0.6198
  482TMC3    C7 7229   0.027   2.082  13.813 -0.7940  0.4697 -0.0470
  482TMC3    C8 7230   4.352   1.895  13.998 -0.8746 -0.0926 -0.3264
  482TMC3    O1 7231   0.148   2.086  13.826  0.4738 -0.0432  0.1166
  482TMC3    O2 7232   4.286   1.970  14.070 -0.0869  0.5499  0.1738
  483TMC3    C1 7233   2.903   1.532   0.735 -0.1790  0.0234 -0.1605
  483TMC3    C2 7234   2.964   1.649   0.764 -0.2036 -0.2872  0.9909
  483TMC3    C3 7235   3.053   1.649   0.876 -0.2309 -0.3438 -0.0046
  483TMC3    C4 7236   2.924   1.411   0.800  0.6196  0.3190 -0.1286
  483TMC3    C5 7237   3.025   1.413   0.895 -0.6934  0.5444 -0.7225
  483TMC3    C6 7238   3.081   1.528   0.937  0.5106  0.0612 -1.1520
  483TMC3     C 7239   2.787   1.551   0.638  0.0952  0.4345 -0.1473
  483TMC3     O 7240   2.743   1.663   0.607 -0.2337 -0.4510  0.3497
  483TMC3     H 7241   2.933   1.743   0.720 -0.3210 -0.4658  0.6941
  483TMC3    H1 7242   2.883   1.319   0.761  0.9561  0.9367 -1.9082
  483TMC3    H2 7243   3.161   1.500   1.004 -1.1581  0.6421  1.0655
  483TMC3    C7 7244   3.106   1.292   0.891 -0.4339  0.2289  0.0624
  483TMC3    C8 7245   3.155   1.747   0.859  0.7699 -0.7199 -0.6302
  483TMC3    O1 7246   3.226   1.306   0.881 -0.5351 -0.3364 -0.1141
  483TMC3    O2 7247   3.178   1.787   0.745 -0.1540 -0.5786 -0.5759
  484MPD2     C 7248   4.640   3.687  12.610 -0.1470  0.2469  0.2011
  484MPD2    C1 7249   4.715   3.675  12.724  0.5650  0.0560  0.2284
  484MPD2    C2 7250   0.112   3.726  12.730  0.3518  0.3889  0.1383
  484MPD2    C3 7251   0.160   3.808  12.626 -0.1243 -0.5844  0.3848
  484MPD2    C4 7252   0.082   3.826  12.518  0.2040 -0.3349 -0.4736
  484MPD2    C5 7253   4.694   3.765  12.512  0.0162 -0.1252  1.4688
  484MPD2     H 7254   0.172   3.707  12.818  0.8069  2.2700  0.2448
  484MPD2    H1 7255   0.110   3.878  12.428 -1.6144 -0.6523 -1.2303
  484MPD2    H2 7256   4.541   3.643  12.598  1.0180 -1.7856 -1.9744
  484MPD2    H3 7257   4.635   3.774  12.421 -2.0970  1.0328  2.9535
  484MPD2     N 7258   0.291   3.868  12.624 -0.6472  0.0071 -0.1427
  484MPD2    H5 7259   0.314   3.922  12.541 -0.2791  2.6479  1.6828
  484MPD2    N1 7260   4.642   3.613  12.833 -0.1115  0.1548 -0.2059
  484MPD2    H7 7261   4.549   3.579  12.807  0.4196 -0.2093 -1.6467
  485TMC3    C1 7262   0.518   3.904  12.690  0.2228 -0.3757  0.1535
  485TMC3    C2 7263   0.626   3.862  12.768  0.0042 -0.4148 -0.2085
  485TMC3    C3 7264   0.747   3.929  12.755 -0.7022 -0.1279  0.2122
  485TMC3    C4 7265   0.533   4.002  12.599  1.3219  0.1199  0.6925
  485TMC3    C5 7266   0.650   4.065  12.589  0.5010  0.4384  1.0476
  485TMC3    C6 7267   0.759   4.036  12.673  0.6002  0.5527 -0.2873
  485TMC3     C 7268   0.391   3.837  12.715 -0.1551  0.4857 -0.1667
  485TMC3     O 7269   0.403   3.733  12.776  0.4304  0.0236 -0.2232
  485TMC3     H 7270   0.614   3.773  12.829  2.1523 -0.4932  0.0790
  485TMC3    H1 7271   0.471   4.022  12.513  0.2542  2.2710  1.9607
  485TMC3    H2 7272   0.854   4.086  12.660 -0.2498  2.1408 -0.4790
  485TMC3    C7 7273   0.697   4.080  12.452 -0.2754 -0.2607  0.8450
  485TMC3    C8 7274   0.871   3.859  12.748 -0.2445  0.1405  0.1868
  485TMC3    O1 7275   0.630   4.125  12.360 -0.4421  0.2104 -0.8057
  485TMC3    O2 7276   0.929   3.889  12.645 -0.1014  0.9598 -0.8321
  486MPD2     C 7277   3.085   2.728  12.976  0.1509 -0.6235  0.1960
  486MPD2    C1 7278   2.987   2.645  12.940  0.0578  0.2592  0.3285
  486MPD2    C2 7279   2.865   2.703  12.914 -0.1571 -0.1097  0.5405
  486MPD2    C3 7280   2.849   2.839  12.919 -0.3261  0.1562 -0.1765
  486MPD2    C4 7281   2.953   2.924  12.954  0.7914  0.2126  0.3481
  486MPD2    C5 7282   3.066   2.862  12.996 -0.2255  0.7239 -0.4330
  486MPD2     H 7283   2.784   2.638  12.882  0.7779 -0.9295 -0.1464
  486MPD2    H1 7284   2.948   3.030  12.978 -1.1055  0.0633  0.6416
  486MPD2    H2 7285   3.182   2.691  13.006  0.1949 -0.9307 -0.3403
  486MPD2    H3 7286   3.142   2.923  13.042 -1.7979  0.8344  2.0059
  486MPD2     N 7287   2.718   2.887  12.886  0.2567 -0.2097 -0.2187
  486MPD2    H5 7288   2.652   2.816  12.855  1.6056 -1.4008 -0.3904
  486MPD2    N1 7289   3.014   2.511  12.927 -0.1351  0.1241  0.5406
  486MPD2    H7 7290   3.094   2.471  12.975 -0.2972 -1.8342 -0.8364
  487TMC3    C1 7291   2.961   2.289  12.891 -0.2323 -0.3930  0.2868
  487TMC3    C2 7292   2.925   2.198  12.801  0.3767 -0.7086 -0.9219
  487TMC3    C3 7293   2.948   2.072  12.833 -0.1791  0.2806 -0.0635
  487TMC3    C4 7294   3.021   2.262  13.014  0.1429 -0.1390  0.2243
  487TMC3    C5 7295   3.037   2.132  13.043  0.3823  0.3905 -0.2736
  487TMC3    C6 7296   3.007   2.032  12.952 -0.1471  0.2240 -1.1542
  487TMC3     C 7297   2.932   2.424  12.863 -0.1053 -0.3478  0.2002
  487TMC3     O 7298   2.853   2.440  12.776  1.0882  0.0218 -0.2450
  487TMC3     H 7299   2.883   2.225  12.704  1.9593 -2.0200 -1.9599
  487TMC3    H1 7300   3.047   2.345  13.079  0.7820  0.0645 -0.2921
  487TMC3    H2 7301   2.980   1.936  12.994  0.4212  0.0465 -1.1937
  487TMC3    C7 7302   3.048   2.084  13.175  0.3354 -0.3465 -0.3737
  487TMC3    C8 7303   2.863   1.983  12.769  0.3068  0.2445 -0.2362
  487TMC3    O1 7304   3.071   1.964  13.181  0.0890  0.5502  0.5520
  487TMC3    O2 7305   2.869   1.980  12.646 -0.4668  0.5493 -0.4637
  488MPD2     C 7306   3.247   4.487  16.575  0.0218  0.1359 -0.4085
  488MPD2    C1 7307   3.294   4.613  16.602 -0.1298  0.6467 -0.3596
  488MPD2    C2 7308   3.310   4.656  16.733  0.4379 -0.6060 -0.7188
  488MPD2    C3 7309   3.292   4.564  16.840 -0.1225  0.9972  0.0239
  488MPD2    C4 7310   3.267   4.432  16.810 -0.5145  0.2301 -0.1504
  488MPD2    C5 7311   3.234   4.400  16.680  1.0487  0.0595 -0.0243
  488MPD2     H 7312   3.337   0.021  16.755 -4.7641  0.3118  1.5143
  488MPD2    H1 7313   3.276   4.347  16.877  0.4928  0.2079 -0.3022
  488MPD2    H2 7314   3.217   4.451  16.478 -1.1989  0.0214  0.0072
  488MPD2    H3 7315   3.198   4.299  16.663  1.6364 -0.0661 -0.5215
  488MPD2     N 7316   3.311   4.623  16.969 -0.1551 -0.1935  0.0108
  488MPD2    H5 7317   3.344   4.719  16.970 -0.2385 -0.1866  3.4082
  488MPD2    N1 7318   3.299   4.713  16.499 -0.2769  0.5573 -0.4382
  488MPD2    H7 7319   3.319   0.072  16.520 -2.1262  1.0746 -1.0143
  489TMC3    C1 7320   3.329   4.647  17.200 -0.3003  1.1347  0.3100
  489TMC3    C2 7321   3.382   0.034  17.172  0.4174  0.1875 -0.1747
  489TMC3    C3 7322   3.338   0.143  17.245 -0.2628  0.2841 -0.5696
  489TMC3    C4 7323   3.265   4.619  17.314 -0.2300 -0.3135  0.4745
  489TMC3    C5 7324   3.239   4.727  17.397 -0.7661 -0.0909  0.6418
  489TMC3    C6 7325   3.260   0.123  17.356  0.5881  0.0906  0.0232
  489TMC3     C 7326   3.306   4.558  17.087  0.9874 -0.0082  0.5430
  489TMC3     O 7327   3.265   4.445  17.117 -0.0492  0.2342 -0.1529
  489TMC3     H 7328   3.446   0.049  17.087 -1.7740  1.3945 -1.6118
  489TMC3    H1 7329   3.236   4.517  17.340 -1.0589  0.1390  1.3288
  489TMC3    H2 7330   3.210   0.200  17.413 -2.0639 -1.9209  0.4357
  489TMC3    C7 7331   3.152   4.708  17.508  0.3557 -0.1146  0.2426
  489TMC3    C8 7332   3.374   0.278  17.192 -0.5143  0.1442 -0.6018
  489TMC3    O1 7333   3.167   0.048  17.601 -0.4296 -0.2658 -0.2380
  489TMC3    O2 7334   3.458   0.283  17.102 -0.3560 -0.6252  0.2298
  490MPD2     C 7335   3.767   4.332  17.595 -0.2105  0.8085  0.2392
  490MPD2    C1 7336   3.722   4.243  17.696 -1.0964 -0.4940  0.3682
  490MPD2    C2 7337   3.789   4.234   0.064  0.4594 -0.2974 -0.3640
  490MPD2    C3 7338   3.911   4.300   0.078 -0.3246 -0.5261  0.5307
  490MPD2    C4 7339   3.957   4.386  17.728  0.6122 -0.7840  0.2305
  490MPD2    C5 7340   3.885   4.397  17.611 -0.2683 -0.3286 -0.4157
  490MPD2     H 7341   3.749   4.170   0.142  3.7660 -1.3907  0.4265
  490MPD2    H1 7342   4.045   4.448  17.737  0.8463 -0.9707 -0.7512
  490MPD2    H2 7343   3.723   4.327  17.496 -0.8877  0.1158  0.5689
  490MPD2    H3 7344   3.929   4.454  17.530 -1.0288 -1.3268 -1.5202
  490MPD2     N 7345   3.996   4.280   0.183 -0.4184  0.0302  0.3042
  490MPD2    H5 7346   4.081   4.335   0.175  0.0034 -0.8970 -1.7192
  490MPD2    N1 7347   3.617   4.148  17.679  0.9403  0.2055 -0.4695
  490MPD2    H7 7348   3.588   4.093   0.011 -0.0343 -0.3047 -1.1709
  491TMC3    C1 7349   3.471   3.995  17.576 -0.5681 -0.3897  0.3945
  491TMC3    C2 7350   3.507   3.896  17.669  0.1050 -0.8230  0.0985
  491TMC3    C3 7351   3.453   3.771  17.656  0.2833 -0.3804  0.3632
  491TMC3    C4 7352   3.376   3.967  17.481  0.7669 -0.3082  0.3791
  491TMC3    C5 7353   3.314   3.841  17.484 -0.9112  1.2811  0.0895
  491TMC3    C6 7354   3.350   3.741  17.569 -0.0848  0.2315 -0.2050
  491TMC3     C 7355   3.561   4.108  17.560 -0.5139 -0.1517  0.3342
  491TMC3     O 7356   3.560   4.164  17.451  0.1410 -0.3336  0.1859
  491TMC3     H 7357   3.582   3.918  17.743 -1.5299  0.2462  1.4312
  491TMC3    H1 7358   3.364   4.036  17.397  0.8894  1.8147  2.1011
  491TMC3    H2 7359   3.292   3.650  17.573 -2.8953  2.1086  1.4757
  491TMC3    C7 7360   3.178   3.840  17.442 -0.0842 -0.2918 -0.6117
  491TMC3    C8 7361   3.510   3.664  17.735  0.2986  0.8388 -0.4975
  491TMC3    O1 7362   3.123   3.729  17.429  0.6015 -0.2754  0.0309
  491TMC3    O2 7363   3.554   3.688   0.095  0.0763 -0.0090  0.8089
  492MPD2     C 7364   4.080   3.769  11.976 -0.4779  0.2115 -0.0391
  492MPD2    C1 7365   3.984   3.743  11.881  0.1086  0.0453  0.0157
  492MPD2    C2 7366   3.859   3.685  11.914 -0.0537  0.0509 -0.3792
  492MPD2    C3 7367   3.834   3.635  12.038 -0.7515 -0.2639  0.4458
  492MPD2    C4 7368   3.931   3.665  12.130  0.6610 -0.5920 -0.1926
  492MPD2    C5 7369   4.048   3.727  12.100  0.6341  0.4153  0.1529
  492MPD2     H 7370   3.785   3.670  11.836  0.3724 -1.7487 -0.4503
  492MPD2    H1 7371   3.916   3.633  12.232  1.0280 -1.0515 -0.2815
  492MPD2    H2 7372   4.175   3.814  11.950 -0.5772  0.3484 -0.1620
  492MPD2    H3 7373   4.106   3.757  12.186  0.5917  0.0288  0.3132
  492MPD2     N 7374   3.711   3.573  12.082  0.3084  0.6981 -0.3247
  492MPD2    H5 7375   3.704   3.538  12.177  2.3035  1.1307 -0.0214
  492MPD2    N1 7376   4.019   3.799  11.757 -0.1794  0.2985  0.1060
  492MPD2    H7 7377   4.105   3.852  11.759 -0.4832  0.7999  0.0034
  493TMC3    C1 7378   4.029   3.842  11.526 -0.1650  0.4336  0.0195
  493TMC3    C2 7379   4.052   3.978  11.539 -0.1400 -0.3769 -0.4117
  493TMC3    C3 7380   4.006   4.068  11.444 -0.6646 -0.1124  0.3312
  493TMC3    C4 7381   3.979   3.801  11.410  0.1572 -0.7659 -0.2820
  493TMC3    C5 7382   3.931   3.889  11.316 -0.2429 -1.0248 -0.8941
  493TMC3    C6 7383   3.938   4.033  11.327  0.4406 -0.1784 -0.2397
  493TMC3     C 7384   3.961   3.779  11.634 -0.1532  0.2614 -0.4005
  493TMC3     O 7385   3.870   3.710  11.595  0.2313 -0.1259  0.4344
  493TMC3     H 7386   4.081   4.013  11.638  1.3559 -0.9791 -0.6431
  493TMC3    H1 7387   3.986   3.696  11.383 -2.5163 -0.9675 -0.1462
  493TMC3    H2 7388   3.907   4.104  11.251 -3.3400 -1.9102 -0.3088
  493TMC3    C7 7389   3.814   3.841  11.242 -0.0770 -0.0481  0.0262
  493TMC3    C8 7390   4.013   4.208  11.488  0.5845 -0.1899 -0.3055
  493TMC3    O1 7391   3.780   3.902  11.140  0.5882  0.0551  0.1913
  493TMC3    O2 7392   4.040   4.223  11.604  0.2007  0.6089  0.7342
  494TMC3    C1 7393   4.215   0.804   0.510 -0.0895 -0.3699  0.1570
  494TMC3    C2 7394   4.312   0.739   0.583  0.6378 -0.2490  0.0109
  494TMC3    C3 7395   4.434   0.711   0.515 -1.0317 -0.8155 -0.4904
  494TMC3    C4 7396   4.240   0.849   0.383 -0.4357  0.3986 -0.3906
  494TMC3    C5 7397   4.362   0.831   0.327 -0.3172  0.1374 -0.2926
  494TMC3    C6 7398   4.458   0.758   0.385  0.3506  0.3301 -0.5650
  494TMC3     C 7399   4.105   0.858   0.593  0.2844  0.4135  0.0176
  494TMC3     O 7400   4.120   0.872   0.712 -0.1264  0.5668 -0.2048
  494TMC3     H 7401   4.296   0.712   0.686 -0.2801 -1.5102 -0.4645
  494TMC3    H1 7402   4.160   0.899   0.330  0.0987 -0.0632 -1.6418
  494TMC3    H2 7403   4.556   0.745   0.342  0.5521  1.0540 -0.3264
  494TMC3    C7 7404   4.397   0.899   0.202 -0.1103 -0.0538  0.3043
  494TMC3    C8 7405   4.514   0.596   0.556  0.3423  0.2543  0.0949
  494TMC3    O1 7406   4.503   0.867   0.149 -0.5993 -0.0022  0.1046
  494TMC3    O2 7407   4.626   0.600   0.511  0.5301 -0.0170 -0.0743
  495TMC3    C1 7408   3.006   2.562  14.814  0.8337  0.0834 -0.3368
  495TMC3    C2 7409   2.916   2.600  14.720  0.2727  0.4531 -0.8479
  495TMC3    C3 7410   2.843   2.718  14.741  0.2114  0.9801 -0.1591
  495TMC3    C4 7411   3.019   2.623  14.934 -0.8233 -0.1055 -0.6170
  495TMC3    C5 7412   2.929   2.725  14.964  0.5492 -0.3120 -0.4956
  495TMC3    C6 7413   2.850   2.776  14.864  0.2397 -0.5985 -0.4944
  495TMC3     C 7414   3.055   2.421  14.823  0.2667  0.6731 -0.6468
  495TMC3     O 7415   3.157   2.392  14.885 -0.3121 -0.5268  0.3513
  495TMC3     H 7416   2.913   2.553  14.623 -3.5110 -1.2146  0.1020
  495TMC3    H1 7417   3.089   2.588  15.008 -1.6905  0.7256  0.5907
  495TMC3    H2 7418   2.781   2.857  14.887  0.5368  0.0629 -1.9311
  495TMC3    C7 7419   2.861   2.694  15.088  0.0376  0.0284 -0.3234
  495TMC3    C8 7420   2.811   2.803  14.624 -0.3406 -0.6309 -0.9808
  495TMC3    O1 7421   2.931   2.659  15.182  0.7455  0.3378  0.0512
  495TMC3    O2 7422   2.827   2.925  14.648  0.1398 -0.4809 -0.5413
  496MPD2     C 7423   0.693   2.845  15.787 -0.2270  0.1079 -0.2475
  496MPD2    C1 7424   0.581   2.814  15.712  0.0416  0.0932 -0.2685
  496MPD2    C2 7425   0.455   2.790  15.769  0.2984 -0.6362 -0.1016
  496MPD2    C3 7426   0.448   2.806  15.910 -0.1769 -0.0886  0.1937
  496MPD2    C4 7427   0.562   2.849  15.980  0.0134 -0.5126  0.2862
  496MPD2    C5 7428   0.685   2.861  15.928  0.5067 -0.1612  0.4484
  496MPD2     H 7429   0.375   2.760  15.702 -0.1438  1.0531 -0.3376
  496MPD2    H1 7430   0.560   2.861  16.088  0.8188 -0.0101  0.2424
  496MPD2    H2 7431   0.789   2.859  15.739  0.1046  0.0616  0.4111
  496MPD2    H3 7432   0.768   2.895  15.989  0.3374 -1.4352  1.3670
  496MPD2     N 7433   0.331   2.790  15.984 -0.6508 -0.3434 -0.0171
  496MPD2    H5 7434   0.342   2.795  16.085  2.4348  0.0439 -0.3933
  496MPD2    N1 7435   0.617   2.798  15.576 -0.8108  0.6062  0.2140
  496MPD2    H7 7436   0.713   2.815  15.548 -0.1197 -0.5666  1.9057
  497TMC3    C1 7437   0.101   2.756  16.052  0.0815  0.1432  0.0242
  497TMC3    C2 7438   4.707   2.771  16.009 -1.1195  0.6187 -0.6114
  497TMC3    C3 7439   4.614   2.730  16.098  0.4411  0.3666  0.2796
  497TMC3    C4 7440   0.135   2.731  16.182  0.1583 -0.0809  0.8817
  497TMC3    C5 7441   0.032   2.704  16.269  0.0692 -0.1245  0.0121
  497TMC3    C6 7442   4.641   2.706  16.229 -0.6733  0.5322  0.8443
  497TMC3     C 7443   0.201   2.769  15.947 -0.6319 -0.5259 -0.2181
  497TMC3     O 7444   0.165   2.755  15.834 -0.1181  0.1094 -0.2180
  497TMC3     H 7445   4.690   2.793  15.905  0.7342  0.6151 -0.9010
  497TMC3    H1 7446   0.238   2.703  16.202 -0.3712 -2.6828 -0.0415
  497TMC3    H2 7447   4.566   2.677  16.302 -1.4104  0.6238  0.1207
  497TMC3    C7 7448   0.060   2.655  16.402  0.3395 -0.6675 -0.8168
  497TMC3    C8 7449   4.477   2.709  16.054  0.7193  0.6593 -0.3373
  497TMC3    O1 7450   4.711   2.600  16.470 -0.2331  0.0579  0.1766
  497TMC3    O2 7451   4.391   2.722  16.136  0.1911 -0.2011 -0.4730
  498MPD2     C 7452   0.864   4.466  10.495 -0.0153 -0.2604 -0.1417
  498MPD2    C1 7453   0.971   4.381  10.503 -0.3985  0.3427 -0.3283
  498MPD2    C2 7454   0.953   4.250  10.513 -0.1522 -0.4377 -0.8064
  498MPD2    C3 7455   0.826   4.202  10.508 -0.1913 -0.2554  0.6863
  498MPD2    C4 7456   0.717   4.282  10.490 -0.3614  0.1271  0.5380
  498MPD2    C5 7457   0.737   4.418  10.483  0.4330 -0.0940  0.3324
  498MPD2     H 7458   1.034   4.178  10.511  0.7572  0.5729 -0.0245
  498MPD2    H1 7459   0.618   4.242  10.474 -1.1634  2.0942  0.5783
  498MPD2    H2 7460   0.873   4.574  10.503  2.1294 -0.5349  1.1953
  498MPD2    H3 7461   0.646   4.476  10.472  0.7444  0.4041  0.3884
  498MPD2     N 7462   0.807   4.059  10.510 -0.1557  0.0893 -0.4631
  498MPD2    H5 7463   0.884   4.002  10.542  0.4149  0.7206 -0.7218
  498MPD2    N1 7464   1.101   4.438  10.504 -0.6894  0.5044 -0.7984
  498MPD2    H7 7465   1.174   4.368  10.516  1.0635  2.3312 -0.8025
  499TMC3    C1 7466   1.278   4.596  10.504 -0.6206  0.6201 -0.7379
  499TMC3    C2 7467   1.357   4.526  10.589 -0.3323  0.0003  0.2419
  499TMC3    C3 7468   1.495   4.526  10.574  0.6860 -0.1011  0.4752
  499TMC3    C4 7469   1.333   4.697  10.426  0.3884  0.3637  0.5147
  499TMC3    C5 7470   1.471   4.711  10.425  0.2499 -0.8661 -0.0577
  499TMC3    C6 7471   1.552   4.624  10.490  0.0432  0.2828  0.3023
  499TMC3     C 7472   1.138   4.569  10.480  0.2100  0.3397  0.4746
  499TMC3     O 7473   1.078   4.668  10.437  0.1180 -0.3746  0.7087
  499TMC3     H 7474   1.312   4.455  10.658 -0.9563 -1.0778 -1.2584
  499TMC3    H1 7475   1.276   0.016  10.353  0.1126  0.2703  0.6572
  499TMC3    H2 7476   1.660   4.631  10.493  0.0889 -0.3323  0.1219
  499TMC3    C7 7477   1.528   0.108  10.392  0.4406  0.2002  0.1594
  499TMC3    C8 7478   1.576   4.479  10.686  0.3549 -0.0839 -0.1527
  499TMC3    O1 7479   1.634   0.104  10.330 -0.1895  0.2844  0.2886
  499TMC3    O2 7480   1.507   4.452  10.784 -0.4550  0.0759  0.2326
  500MPD2     C 7481   2.512   4.319  10.998  0.3447  0.1269 -0.4049
  500MPD2    C1 7482   2.551   4.437  10.932  1.1985  0.2411 -0.4159
  500MPD2    C2 7483   2.539   4.457  10.798 -0.3678 -0.1544 -0.4755
  500MPD2    C3 7484   2.470   4.370  10.722  1.4061 -0.1970 -0.1551
  500MPD2    C4 7485   2.428   4.255  10.779  0.7304 -0.0091 -0.9780
  500MPD2    C5 7486   2.444   4.224  10.916 -0.1956  0.6267 -0.1195
  500MPD2     H 7487   2.578   4.553  10.764  0.4500 -0.7040 -1.1118
  500MPD2    H1 7488   2.367   4.185  10.723 -1.7842  1.1885  0.2652
  500MPD2    H2 7489   2.526   4.290  11.102  0.7072  1.4712 -0.0781
  500MPD2    H3 7490   2.403   4.137  10.964  0.3233  0.0488 -0.7246
  500MPD2     N 7491   2.431   4.393  10.589  0.1626 -0.4551  0.7010
  500MPD2    H5 7492   2.349   4.345  10.554 -1.0870  2.2660 -0.1452
  500MPD2    N1 7493   2.607   4.541  11.011  0.0017 -0.1276  0.5157
  500MPD2    H7 7494   2.647   4.610  10.948 -0.0843 -0.8930 -0.3726
  501TMC3    C1 7495   2.698   4.661  11.193  0.1510  0.2512  0.0370
  501TMC3    C2 7496   2.790   4.716  11.108 -0.1175  0.6652  0.1883
  501TMC3    C3 7497   2.890   0.062  11.156  0.1703 -0.4680 -0.1573
  501TMC3    C4 7498   2.729   4.668  11.331 -0.3751  0.2727 -0.0833
  501TMC3    C5 7499   2.841   4.735  11.379 -0.0061 -0.6639  0.3932
  501TMC3    C6 7500   2.926   0.062  11.290  0.0408 -0.3783 -0.2126
  501TMC3     C 7501   2.611   4.554  11.150  0.6267  0.1869 -0.3859
  501TMC3     O 7502   2.538   4.495  11.230 -0.0998  0.1045  0.5731
  501TMC3     H 7503   2.790   4.691  11.003  1.4444 -1.3751  0.6742
  501TMC3    H1 7504   2.655   4.620  11.393  1.4854 -0.5934  1.4549
  501TMC3    H2 7505   3.008   0.122  11.326 -0.6405  0.5094 -0.1200
  501TMC3    C7 7506   2.888   4.710  11.513  0.5916  0.6157  0.2369
  501TMC3    C8 7507   2.977   0.142  11.072  0.5856  0.2551  0.2212
  501TMC3    O1 7508   2.821   4.624  11.574 -0.1887  0.6253  0.1676
  501TMC3    O2 7509   3.078   0.197  11.116 -0.2668  0.0647  0.0254
  502TMC3    C1 7510   2.685   3.770  15.655 -0.1259  0.2177 -0.2431
  502TMC3    C2 7511   2.791   3.771  15.569  0.6214 -0.5205 -0.1136
  502TMC3    C3 7512   2.809   3.665  15.487 -0.0354  0.6164  0.4411
  502TMC3    C4 7513   2.594   3.672  15.665  0.1694 -0.1162  0.2393
  502TMC3    C5 7514   2.623   3.568  15.584  0.2170 -0.0664 -0.5644
  502TMC3    C6 7515   2.728   3.559  15.501  1.1179 -1.6627 -0.0514
  502TMC3     C 7516   2.644   3.903  15.698 -0.1305 -0.6612  0.4651
  502TMC3     O 7517   2.690   4.002  15.643 -0.3897 -0.0051  0.2498
  502TMC3     H 7518   2.857   3.857  15.568  0.2537 -0.2627 -2.1022
  502TMC3    H1 7519   2.501   3.675  15.721  0.8183 -2.2171  1.4565
  502TMC3    H2 7520   2.753   3.468  15.447 -0.1545  0.3534 -4.0211
  502TMC3    C7 7521   2.536   3.446  15.587  0.5009 -0.0701  0.0443
  502TMC3    C8 7522   2.840   3.701  15.347  0.2339  0.4378 -0.1492
  502TMC3    O1 7523   2.593   3.336  15.585  0.6411  0.0357  0.6603
  502TMC3    O2 7524   2.875   3.815  15.327 -0.0483  0.1144 -0.2714
  503MPD2     C 7525   4.724   4.141  17.052  0.2756 -0.6974 -0.4176
  503MPD2    C1 7526   0.110   4.188  17.078  0.8204  0.1208  0.4500
  503MPD2    C2 7527   0.186   4.119  17.169  0.1240  0.2156  0.6716
  503MPD2    C3 7528   0.147   3.995  17.216 -0.0149 -0.9554  0.2868
  503MPD2    C4 7529   0.019   3.951  17.192  0.0538 -0.2153 -0.3226
  503MPD2    C5 7530   4.680   4.027  17.108  0.0216 -0.8432  0.1475
  503MPD2     H 7531   0.281   4.160  17.201  0.5195 -0.6311  0.5825
  503MPD2    H1 7532   4.709   3.864  17.237 -0.1005  0.4377  0.7801
  503MPD2    H2 7533   4.664   4.193  16.979  0.0413 -0.0963  0.2121
  503MPD2    H3 7534   4.581   3.990  17.083  0.0999 -0.1708 -1.1629
  503MPD2     N 7535   0.233   3.916  17.294 -1.1340 -0.7992 -0.4048
  503MPD2    H5 7536   0.331   3.941  17.287 -1.4736  0.8973  1.1037
  503MPD2    N1 7537   0.161   4.301  17.014 -0.2689  0.9058  0.3606
  503MPD2    H7 7538   0.242   4.331  17.068  0.6919 -0.8263 -0.1221
  504TMC3    C1 7539   0.309   3.758  17.449 -0.4084 -0.2625  0.0183
  504TMC3    C2 7540   0.275   3.710  17.568 -0.6431 -0.5048 -0.2947
  504TMC3    C3 7541   0.375   3.661  17.655  0.0378 -0.3508  0.0524
  504TMC3    C4 7542   0.442   3.769  17.414  0.2137  0.2496 -0.3646
  504TMC3    C5 7543   0.540   3.719  17.491 -0.2215 -0.4042  0.1255
  504TMC3    C6 7544   0.508   3.660  17.617 -0.4087  1.5967 -0.5736
  504TMC3     C 7545   0.194   3.814  17.379 -0.2296  0.3386 -0.1651
  504TMC3     O 7546   0.082   3.776  17.410 -0.0531  0.5206  0.3676
  504TMC3     H 7547   0.171   3.712  17.597 -1.2957 -0.0582 -2.6637
  504TMC3    H1 7548   0.475   3.803  17.316  0.7374 -0.3844 -0.4049
  504TMC3    H2 7549   0.580   3.605  17.677 -1.3870  2.8295  1.7326
  504TMC3    C7 7550   0.659   3.687  17.419 -1.1674  0.2340 -0.6079
  504TMC3    C8 7551   0.329   3.577   0.016 -0.2948 -0.3380  0.2771
  504TMC3    O1 7552   0.650   3.688  17.296  0.5545 -0.2332 -0.1938
  504TMC3    O2 7553   0.221   3.527   0.006  0.7252  0.0154 -0.3276
  505MPD2     C 7554   0.095   3.141  11.042  0.0625  0.0497 -0.2211
  505MPD2    C1 7555   0.160   3.036  10.992  0.3984  0.0478 -0.1090
  505MPD2    C2 7556   0.289   3.007  11.038 -0.1250 -0.2898 -0.1615
  505MPD2    C3 7557   0.344   3.094  11.131  0.0893 -0.2701 -0.0609
  505MPD2    C4 7558   0.276   3.200  11.184 -0.3133 -0.2286  0.1557
  505MPD2    C5 7559   0.154   3.226  11.138 -0.8585  0.4225  0.0410
  505MPD2     H 7560   0.354   2.943  10.980 -3.1960 -2.1688 -1.5533
  505MPD2    H1 7561   0.309   3.257  11.270 -0.7570  1.1077 -0.5570
  505MPD2    H2 7562   4.734   3.165  11.003 -0.4335 -1.5389  0.0620
  505MPD2    H3 7563   0.097   3.302  11.189 -0.8911  0.9333 -0.7459
  505MPD2     N 7564   0.464   3.075  11.193  0.1342  0.2743  0.5389
  505MPD2    H5 7565   0.498   3.144  11.259  1.8056 -1.5736  1.5870
  505MPD2    N1 7566   0.109   2.969  10.876 -0.0176 -0.7304  0.3732
  505MPD2    H7 7567   0.027   2.998  10.824 -0.0991 -1.9291 -0.1650
  506TMC3    C1 7568   0.106   2.796  10.705  1.1015  0.0454  0.2725
  506TMC3    C2 7569   0.125   2.878  10.598  0.0165 -0.5318  0.2103
  506TMC3    C3 7570   0.157   2.821  10.480  0.5387  0.0689 -0.1017
  506TMC3    C4 7571   0.135   2.661  10.695 -0.1641 -0.1184  0.0727
  506TMC3    C5 7572   0.169   2.607  10.580 -0.5572  1.1689  0.4928
  506TMC3    C6 7573   0.179   2.687  10.468  0.5230 -0.5768 -0.1992
  506TMC3     C 7574   0.158   2.845  10.833 -0.8003  0.1626 -0.2203
  506TMC3     O 7575   0.224   2.763  10.895  0.2688 -0.1457 -0.1846
  506TMC3     H 7576   0.102   2.984  10.593 -3.6733 -1.2606  1.8043
  506TMC3    H1 7577   0.118   2.602  10.784  2.6519  0.1623  0.7877
  506TMC3    H2 7578   0.226   2.650  10.377  0.3741  1.5925 -1.1635
  506TMC3    C7 7579   0.293   2.536  10.595 -0.3204  0.0339 -0.8742
  506TMC3    C8 7580   0.213   2.903  10.370 -0.1112  1.1212 -0.6112
  506TMC3    O1 7581   0.342   2.477  10.502  0.4327 -0.1853 -0.2900
  506TMC3    O2 7582   0.194   2.849  10.267  0.3112 -0.6970 -0.0453
  507TMC3    C1 7583   1.315   4.139  15.274  0.3037  0.1338  0.2369
  507TMC3    C2 7584   1.273   4.074  15.159  0.4358  0.0174 -0.3559
  507TMC3    C3 7585   1.270   4.153  15.047 -0.2434  0.2990 -0.1307
  507TMC3    C4 7586   1.363   4.266  15.283 -0.8023  0.0853  0.3654
  507TMC3    C5 7587   1.375   4.332  15.168 -0.5301  0.1398  0.0145
  507TMC3    C6 7588   1.326   4.282  15.048  0.1066 -0.1562 -0.2591
  507TMC3     C 7589   1.309   4.074  15.404 -0.5928 -0.7074  0.9136
  507TMC3     O 7590   1.379   4.121  15.494  0.1448  0.0216 -0.3384
  507TMC3     H 7591   1.228   3.977  15.174 -0.2908  0.0892 -2.0004
  507TMC3    H1 7592   1.402   4.304  15.377 -3.4920 -2.0148  2.3403
  507TMC3    H2 7593   1.336   4.341  14.957  0.5428 -0.1411 -0.1973
  507TMC3    C7 7594   1.340   4.471  15.178  0.2930  0.6449  0.5512
  507TMC3    C8 7595   1.135   4.160  14.987 -0.5145  0.3659  0.4704
  507TMC3    O1 7596   1.382   4.539  15.273 -0.2931  0.0484  0.6329
  507TMC3    O2 7597   1.100   4.273  14.955  0.2537 -0.1442  0.2956
  508MPD2     C 7598   1.974   0.931  15.491  0.3510  0.8619  0.1939
  508MPD2    C1 7599   1.951   1.049  15.567  0.6132 -0.3836 -0.7607
  508MPD2    C2 7600   1.912   1.167  15.505  0.6292  0.8258  0.5483
  508MPD2    C3 7601   1.896   1.171  15.367 -0.7730  0.1566 -0.0102
  508MPD2    C4 7602   1.912   1.057  15.296 -0.1066 -0.3385  0.3156
  508MPD2    C5 7603   1.938   0.940  15.360  0.2529  0.8565  0.2370
  508MPD2     H 7604   1.921   1.256  15.566 -2.2775 -0.2139  2.4817
  508MPD2    H1 7605   1.886   1.047  15.191 -0.0421  0.9687  0.1785
  508MPD2    H2 7606   2.015   0.837  15.526 -1.1395  0.6895  1.5080
  508MPD2    H3 7607   1.940   0.846  15.306 -0.7237  0.0009  1.6804
  508MPD2     N 7608   1.876   1.296  15.316 -0.2384  0.1574 -0.4187
  508MPD2    H5 7609   1.869   1.375  15.379  1.4130  1.4377 -1.8253
  508MPD2    N1 7610   1.983   1.034  15.705  0.8802  0.2739  0.1304
  508MPD2    H7 7611   2.005   0.939  15.733  0.2936  0.7589  2.2530
  509TMC3    C1 7612   1.818   1.675  15.100 -0.2445  0.3396 -0.1751
  509TMC3    C2 7613   1.906   1.733  15.189  0.3988 -0.2812 -0.1147
  509TMC3    C3 7614   2.000   1.651  15.249  0.1745  0.2277  0.3646
  509TMC3    C4 7615   1.820   1.542  15.070  0.0232 -0.0709 -0.4091
  509TMC3    C5 7616   1.902   1.463  15.146 -0.1052 -1.0308  0.4658
  509TMC3    C6 7617   1.995   1.517  15.227 -0.3742  1.1181  0.1002
  509TMC3     C 7618   1.722   1.751  15.035  0.4196  0.0098  0.3829
  509TMC3     O 7619   1.666   1.704  14.933 -0.2628 -0.0759 -0.3515
  509TMC3     H 7620   1.933   1.839  15.193 -0.3692 -0.1209  0.8146
  509TMC3    H1 7621   1.763   1.496  14.991  1.1213 -0.0642 -1.2051
  509TMC3    H2 7622   2.053   1.451  15.291  0.7188  2.6835  0.7263
  509TMC3    C7 7623   1.873   1.323  15.175  0.6296 -0.1088  0.5833
  509TMC3    C8 7624   2.111   1.696  15.330 -0.3155  0.2326 -0.0087
  509TMC3    O1 7625   1.846   1.254  15.080  0.2431  0.1179 -0.2865
  509TMC3    O2 7626   2.215   1.632  15.317 -0.3556 -0.5243 -0.2388
  510MPD2     C 7627   4.356   3.527  14.834  0.5648  0.6966 -0.2411
  510MPD2    C1 7628   4.354   3.396  14.797  0.6460  0.8130 -0.2372
  510MPD2    C2 7629   4.459   3.352  14.719  0.0712 -0.0512  0.6904
  510MPD2    C3 7630   4.555   3.436  14.674 -0.3236  0.4710  0.7718
  510MPD2    C4 7631   4.556   3.569  14.710 -0.0460 -0.2761  0.0700
  510MPD2    C5 7632   4.455   3.613  14.794  0.1279 -0.1930 -0.2972
  510MPD2     H 7633   4.471   3.249  14.686 -1.0430 -0.2191  0.8083
  510MPD2    H1 7634   4.623   3.636  14.658  0.8879 -0.9581  0.3959
  510MPD2    H2 7635   4.267   3.577  14.872 -0.2139 -1.4217  0.7219
  510MPD2    H3 7636   4.451   3.718  14.820 -1.7000 -0.1471 -0.7183
  510MPD2     N 7637   4.651   3.372  14.592  0.3431  0.4580  0.4463
  510MPD2    H5 7638   4.654   3.271  14.602  1.9999  0.4203 -0.4355
  510MPD2    N1 7639   4.242   3.318  14.837 -0.1523 -0.2667 -0.3173
  510MPD2    H7 7640   4.166   3.368  14.882  1.5679  1.6715  0.4334
  511TMC3    C1 7641   4.100   3.117  14.865  0.0978  0.2888 -0.7736
  511TMC3    C2 7642   4.035   3.171  14.972 -0.0243  0.2879  0.5523
  511TMC3    C3 7643   3.943   3.096  15.044  0.4815 -0.3530  0.8031
  511TMC3    C4 7644   4.080   2.989  14.828  0.1244  0.1164 -0.2661
  511TMC3    C5 7645   4.003   2.912  14.912 -0.3959  0.6432 -0.3783
  511TMC3    C6 7646   3.935   2.963  15.019 -0.4874 -0.0573  0.0124
  511TMC3     C 7647   4.223   3.181  14.811 -0.7485  0.2219 -0.4363
  511TMC3     O 7648   4.308   3.101  14.774 -0.0621  0.1117 -0.0857
  511TMC3     H 7649   4.055   3.272  15.003  1.5298 -0.1123  0.8433
  511TMC3    H1 7650   4.136   2.943  14.747  3.7987  1.9031  1.2603
  511TMC3    H2 7651   3.864   2.898  15.070 -1.0853  1.2166  0.8068
  511TMC3    C7 7652   3.944   2.792  14.853 -0.6115 -0.6119  0.0661
  511TMC3    C8 7653   3.891   3.152  15.165  0.6339 -0.7955 -1.2311
  511TMC3    O1 7654   3.956   2.782  14.732 -0.4583 -0.2162 -0.2322
  511TMC3    O2 7655   3.870   3.271  15.191  0.5028 -0.0986 -0.0253
  512TMC3    C1 7656   3.302   2.522  13.436 -0.5065 -0.2452 -0.2722
  512TMC3    C2 7657   3.401   2.469  13.515 -0.5123  0.0214 -0.3932
  512TMC3    C3 7658   3.494   2.386  13.459 -0.4199  0.3296 -0.3273
  512TMC3    C4 7659   3.275   2.474  13.314 -0.5037  0.0225 -0.2088
  512TMC3    C5 7660   3.364   2.380  13.265 -0.3546 -0.6567  0.1046
  512TMC3    C6 7661   3.473   2.328  13.334 -0.3986  0.1843  0.1236
  512TMC3     C 7662   3.231   2.629  13.494  0.4216 -0.1503  0.0802
  512TMC3     O 7663   3.248   2.659  13.613  0.0842 -0.2844 -0.1755
  512TMC3     H 7664   3.418   2.499  13.618  0.8661 -0.8275 -0.3780
  512TMC3    H1 7665   3.193   2.517  13.257 -0.0934  1.4077  0.2530
  512TMC3    H2 7666   3.547   2.261  13.292 -1.4175 -1.2225  0.5713
  512TMC3    C7 7667   3.327   2.352  13.124  0.1116 -0.2647 -0.4572
  512TMC3    C8 7668   3.624   2.364  13.520  0.6270  0.1441 -0.0987
  512TMC3    O1 7669   3.270   2.442  13.058 -0.1018  0.1093  0.2816
  512TMC3    O2 7670   3.711   2.295  13.463 -0.4655 -0.1306 -0.1260
  513MPD2     C 7671   0.131   2.651  13.207  0.1889  0.2133  0.0423
  513MPD2    C1 7672   0.218   2.557  13.156  0.4997 -0.0175  0.1407
  513MPD2    C2 7673   0.281   2.473  13.247 -0.4003  0.1570 -0.4488
  513MPD2    C3 7674   0.279   2.490  13.386 -0.4815  0.9930  0.3758
  513MPD2    C4 7675   0.192   2.587  13.440  0.1928 -0.4462 -0.1163
  513MPD2    C5 7676   0.113   2.658  13.346 -0.7097 -0.0334 -0.3772
  513MPD2     H 7677   0.340   2.395  13.201  1.1972 -0.3318  2.4456
  513MPD2    H1 7678   0.190   2.612  13.546 -3.4597  2.9253 -1.0051
  513MPD2    H2 7679   0.074   2.726  13.153  1.7644  1.8135  0.6145
  513MPD2    H3 7680   0.048   2.739  13.378 -2.4826 -1.5307 -0.1744
  513MPD2     N 7681   0.359   2.400  13.462 -0.0775 -0.5154  0.2313
  513MPD2    H5 7682   0.409   2.338  13.399  0.1393  1.1896 -1.2567
  513MPD2    N1 7683   0.235   2.521  13.014 -0.0721 -0.7210 -0.0731
  513MPD2    H7 7684   0.288   2.436  12.998  1.5047  0.3591 -0.4894
  514TMC3    C1 7685   0.221   2.523  12.779  0.0077 -0.1458  0.0859
  514TMC3    C2 7686   0.278   2.622  12.701 -0.8812 -0.6327 -0.5597
  514TMC3    C3 7687   0.396   2.600  12.637 -0.6824 -0.0916 -0.4706
  514TMC3    C4 7688   0.277   2.397  12.793  0.4017  0.1211  0.7213
  514TMC3    C5 7689   0.402   2.377  12.729 -0.6889  0.4013 -0.3167
  514TMC3    C6 7690   0.456   2.478  12.652 -0.5155 -0.2980  0.5324
  514TMC3     C 7691   0.174   2.573  12.903  0.0993 -0.6076  0.2115
  514TMC3     O 7692   0.118   2.684  12.891 -0.3697  0.2223 -0.4647
  514TMC3     H 7693   0.237   2.723  12.703  1.3300  0.2257  1.6842
  514TMC3    H1 7694   0.227   2.312  12.838 -0.3234 -0.6038 -1.4488
  514TMC3    H2 7695   0.552   2.445  12.613 -0.0826 -0.1366  1.4606
  514TMC3    C7 7696   0.482   2.337  12.845 -0.3203  0.6857 -0.6912
  514TMC3    C8 7697   0.465   2.701  12.561  0.5166 -0.5658  0.2780
  514TMC3    O1 7698   0.423   2.332  12.952  0.8212 -0.0650  0.1812
  514TMC3    O2 7699   0.550   2.655  12.487  0.1190 -0.3390 -0.0672
  515MPD2     C 7700   3.331   4.257  15.194  0.2913  0.2551 -0.1100
  515MPD2    C1 7701   3.360   4.260  15.054  0.2631 -0.2605  0.5696
  515MPD2    C2 7702   3.453   4.354  15.005 -0.4043 -0.1512  0.0482
  515MPD2    C3 7703   3.527   4.430  15.095 -0.2686 -0.4012  0.1009
  515MPD2    C4 7704   3.497   4.426  15.230  0.2136 -0.3798  0.4458
  515MPD2    C5 7705   3.394   4.347  15.275 -0.2373  0.6356  0.8018
  515MPD2     H 7706   3.469   4.365  14.899  1.6650  0.7316  0.4676
  515MPD2    H1 7707   3.547   4.488  15.303 -0.0751  0.8510 -0.4105
  515MPD2    H2 7708   3.259   4.189  15.239 -0.6345  0.7435 -0.8581
  515MPD2    H3 7709   3.369   4.335  15.380 -2.5590 -1.7518 -0.0290
  515MPD2     N 7710   3.634   4.516  15.057  0.4759  0.0343 -0.1821
  515MPD2    H5 7711   3.690   4.555  15.132  0.2807 -0.0507  0.0073
  515MPD2    N1 7712   3.287   4.171  14.966  0.1599  0.4638 -0.1117
  515MPD2    H7 7713   3.288   4.184  14.866 -0.6206  1.4996  0.0206
  516TMC3    C1 7714   3.146   3.984  14.921 -0.4294  0.3925 -0.3565
  516TMC3    C2 7715   3.116   4.059  14.809 -0.2357  0.5238 -0.3522
  516TMC3    C3 7716   3.068   3.977  14.707 -0.1961 -0.4079 -0.2223
  516TMC3    C4 7717   3.141   3.848  14.942 -0.1504 -0.3630 -0.3124
  516TMC3    C5 7718   3.083   3.771  14.842  0.7383 -0.4122 -0.3399
  516TMC3    C6 7719   3.059   3.838  14.724 -0.6307  0.2194 -0.3544
  516TMC3     C 7720   3.219   4.064  15.023  0.4298 -0.7274  0.0682
  516TMC3     O 7721   3.249   3.997  15.123 -0.6399 -0.4116 -0.4745
  516TMC3     H 7722   3.113   4.167  14.804  1.1965  0.6095  0.5635
  516TMC3    H1 7723   3.188   3.807  15.031  0.3109  0.6440 -0.0872
  516TMC3    H2 7724   3.026   3.788  14.634 -0.0722 -1.5882  0.4500
  516TMC3    C7 7725   3.059   3.632  14.878  0.6108  0.4481 -0.1183
  516TMC3    C8 7726   2.989   4.035  14.606  0.3362  0.7604  0.0709
  516TMC3    O1 7727   3.107   3.602  14.986 -0.1607  0.8252  0.0123
  516TMC3    O2 7728   2.906   3.966  14.549 -0.5231  0.2395 -0.2229
  517MPD2     C 7729   3.538   1.448   0.131  0.9016  0.1397 -0.3190
  517MPD2    C1 7730   3.670   1.454   0.120 -1.1339 -0.0119  0.3362
  517MPD2    C2 7731   3.743   1.548   0.192 -0.0050  0.0659  0.1770
  517MPD2    C3 7732   3.676   1.630   0.281 -0.4289 -0.2429  0.4254
  517MPD2    C4 7733   3.536   1.626   0.290  0.3760  0.0529 -1.1347
  517MPD2    C5 7734   3.468   1.531   0.213  0.1469  0.3883 -0.5283
  517MPD2     H 7735   3.850   1.557   0.173  0.0982 -0.9809  0.2157
  517MPD2    H1 7736   3.477   1.679   0.363 -0.7515  0.5195 -2.3816
  517MPD2    H2 7737   3.475   1.375   0.081 -1.5049  2.3676 -0.5604
  517MPD2    H3 7738   3.364   1.508   0.235  0.8480 -1.7543  0.5984
  517MPD2     N 7739   3.736   1.710   0.381  0.0378  0.1956 -0.6462
  517MPD2    H5 7740   3.673   1.777   0.423 -2.4216 -1.8845 -1.0039
  517MPD2    N1 7741   3.732   1.351   0.036  0.6403  0.2593 -0.0524
  517MPD2    H7 7742   3.669   1.299  17.724 -1.3286  1.0453  1.2913
  518TMC3    C1 7743   3.897   1.230  17.666  0.1826  0.1165 -0.4079
  518TMC3    C2 7744   3.814   1.121  17.672  0.1879  0.4135 -0.0525
  518TMC3    C3 7745   3.862   1.009  17.613  0.0022 -0.1470  0.2453
  518TMC3    C4 7746   4.014   1.234  17.599 -0.1205 -0.2497 -0.2319
  518TMC3    C5 7747   4.058   1.119  17.529  0.6779 -0.1165  0.4226
  518TMC3    C6 7748   3.983   1.003  17.542 -0.0260  0.3101  0.2882
  518TMC3     C 7749   3.867   1.342   0.005 -0.0726 -0.8143 -0.3574
  518TMC3     O 7750   3.953   1.419   0.042  0.2819 -0.0660 -0.3798
  518TMC3     H 7751   3.720   1.113  17.726  0.9141 -0.5534  1.0777
  518TMC3    H1 7752   4.062   1.331  17.590 -1.1484  0.0912 -2.0487
  518TMC3    H2 7753   4.013   0.906  17.506 -1.2574 -0.2543  0.7834
  518TMC3    C7 7754   4.119   1.131  17.401 -0.1223  0.2328 -0.6739
  518TMC3    C8 7755   3.793   0.883  17.623 -0.3703  0.0908  0.7515
  518TMC3    O1 7756   4.097   1.235  17.346 -0.1591 -0.1264 -0.6465
  518TMC3    O2 7757   3.868   0.787  17.646 -0.2084 -0.2771 -0.4462
  519MPD2     C 7758   4.587   4.013  14.698 -0.1801 -0.4810  0.2520
  519MPD2    C1 7759   4.570   4.039  14.564 -0.3554  0.3477 -0.0900
  519MPD2    C2 7760   4.654   3.984  14.468  0.2775  0.3423 -0.1170
  519MPD2    C3 7761   0.016   3.900  14.505  0.0245  0.3508 -0.0428
  519MPD2    C4 7762   0.022   3.863  14.641 -0.3301 -0.0235  0.6949
  519MPD2    C5 7763   4.673   3.912  14.739 -0.4745 -0.3205 -0.1737
  519MPD2     H 7764   4.642   4.007  14.363  0.1220 -0.2694 -0.2377
  519MPD2    H1 7765   0.077   3.779  14.680 -1.2760 -0.7803  0.3929
  519MPD2    H2 7766   4.514   4.062  14.762 -0.4903  0.7336 -1.0326
  519MPD2    H3 7767   4.664   3.865  14.836 -2.6695 -0.1268 -0.2742
  519MPD2     N 7768   0.100   3.846  14.405  0.0615  0.5797  0.0807
  519MPD2    H5 7769   0.087   3.867  14.307 -1.0242  0.9568  0.3053
  519MPD2    N1 7770   4.471   4.133  14.534  0.3191 -0.3868  0.1097
  519MPD2    H7 7771   4.410   4.156  14.612  0.2158 -1.1925  0.2659
  520TMC3    C1 7772   0.252   3.716  14.302  0.1820  0.6781 -0.2969
  520TMC3    C2 7773   0.177   3.714  14.185 -0.3872 -0.7325  0.2655
  520TMC3    C3 7774   0.220   3.642  14.076 -0.1321 -0.3397 -0.2182
  520TMC3    C4 7775   0.375   3.656  14.304 -0.6853 -0.1212 -0.3686
  520TMC3    C5 7776   0.422   3.604  14.188  0.2005 -0.7005  0.4993
  520TMC3    C6 7777   0.345   3.592  14.074 -0.0201  0.7084  0.1849
  520TMC3     C 7778   0.199   3.758  14.424 -0.1649 -0.6206 -0.0055
  520TMC3     O 7779   0.261   3.736  14.534 -0.2659 -0.2529  0.3892
  520TMC3     H 7780   0.082   3.765  14.177 -1.3239 -2.8102 -1.7427
  520TMC3    H1 7781   0.426   3.659  14.400  1.8126  0.1846 -1.7083
  520TMC3    H2 7782   0.391   3.548  13.986  0.3230 -0.7182  1.0677
  520TMC3    C7 7783   0.559   3.574  14.182 -0.0989  0.0671  0.0286
  520TMC3    C8 7784   0.152   3.664  13.951 -0.0029 -0.8743 -0.9560
  520TMC3    O1 7785   0.602   3.526  14.287  0.0480  0.3832 -0.2753
  520TMC3    O2 7786   0.214   3.655  13.846 -0.2204 -0.0521 -0.0766
  521MPD2     C 7787   1.073   2.181  17.188 -0.2149 -0.3070 -0.1801
  521MPD2    C1 7788   1.008   2.099  17.106 -0.1697  0.1153 -0.7164
  521MPD2    C2 7789   1.075   2.040  16.998 -0.5582  0.1101  0.0593
  521MPD2    C3 7790   1.205   2.067  16.984  0.4591  0.1662  0.2351
  521MPD2    C4 7791   1.276   2.151  17.073  0.3578 -0.0065 -0.3602
  521MPD2    C5 7792   1.212   2.206  17.178  0.0853 -0.3328 -0.1356
  521MPD2     H 7793   1.028   1.971  16.929  1.2121 -0.8439 -0.1747
  521MPD2    H1 7794   1.383   2.168  17.069  0.4657 -1.0178 -1.6352
  521MPD2    H2 7795   1.019   2.237  17.263  0.0197  0.5378 -0.6488
  521MPD2    H3 7796   1.271   2.271  17.241  0.7678 -2.0481  0.9951
  521MPD2     N 7797   1.265   1.993  16.880  0.6368 -0.1279  0.0098
  521MPD2    H5 7798   1.208   1.937  16.818 -1.3346  2.4051 -0.4337
  521MPD2    N1 7799   0.875   2.072  17.150  0.6821 -0.3480 -0.1701
  521MPD2    H7 7800   0.849   2.119  17.237  0.4285  0.8244 -0.8775
  522TMC3    C1 7801   1.434   1.879  16.764  0.8048  0.5314  0.6880
  522TMC3    C2 7802   1.554   1.814  16.789 -0.2389 -0.2323  0.1556
  522TMC3    C3 7803   1.590   1.715  16.696 -0.5746  0.6049  0.4942
  522TMC3    C4 7804   1.354   1.855  16.651  0.3247 -0.1975 -0.1825
  522TMC3    C5 7805   1.407   1.774  16.555  0.2255  0.1600  0.0044
  522TMC3    C6 7806   1.522   1.702  16.579 -0.2860  0.1252  0.4245
  522TMC3     C 7807   1.400   1.981  16.860  0.6685  0.3638  0.2144
  522TMC3     O 7808   1.495   2.019  16.926 -0.6792 -0.0081 -0.3273
  522TMC3     H 7809   1.604   1.802  16.885  0.1145  2.9065  0.3679
  522TMC3    H1 7810   1.252   1.889  16.650 -0.9209 -3.8873 -0.0734
  522TMC3    H2 7811   1.530   1.625  16.503 -1.9960 -0.4991  0.8869
  522TMC3    C7 7812   1.302   1.701  16.485 -0.8788 -0.3032 -0.0915
  522TMC3    C8 7813   1.668   1.600  16.739 -0.2427  0.0339  0.4607
  522TMC3    O1 7814   1.320   1.584  16.457 -0.0432 -0.0228 -0.1177
  522TMC3    O2 7815   1.694   1.598  16.861 -0.2154 -0.0247  0.1200
  523MPD2     C 7816   3.215   2.148   9.858 -0.5125  0.2457  0.4480
  523MPD2    C1 7817   3.161   2.173   9.976 -1.1199  0.3956 -0.6802
  523MPD2    C2 7818   3.110   2.299   9.993  0.2105 -0.9605  0.1555
  523MPD2    C3 7819   3.136   2.399   9.902  0.1354  0.3183 -0.0490
  523MPD2    C4 7820   3.198   2.368   9.784 -0.7779 -0.8231 -0.1407
  523MPD2    C5 7821   3.252   2.240   9.766  0.0555 -0.4953  0.4181
  523MPD2     H 7822   3.049   2.322  10.080 -0.5806 -2.1798 -0.0793
  523MPD2    H1 7823   3.220   2.436   9.702 -0.2942  1.4639  1.9137
  523MPD2    H2 7824   3.248   2.047   9.836 -0.3938  0.1657  0.9893
  523MPD2    H3 7825   3.303   2.209   9.676  0.4706 -0.6102  0.6915
  523MPD2     N 7826   3.088   2.530   9.916 -0.2216 -0.2601  0.1732
  523MPD2    H5 7827   3.116   2.593   9.841  1.4557  0.6758  1.5957
  523MPD2    N1 7828   3.134   2.072  10.071 -0.0287 -0.2761 -0.6721
  523MPD2    H7 7829   3.159   1.976  10.050  0.5815 -0.6790  1.9335
  524TMC3    C1 7830   2.956   2.710   9.975  0.3736  1.1664 -0.6918
  524TMC3    C2 7831   3.001   2.766   9.855  0.0097 -0.3376 -0.4812
  524TMC3    C3 7832   2.941   2.889   9.828  0.1192 -0.2561  0.4594
  524TMC3    C4 7833   2.868   2.770  10.060 -0.1250  0.7647  0.2406
  524TMC3    C5 7834   2.829   2.897  10.034 -0.1177 -0.1925  0.0972
  524TMC3    C6 7835   2.864   2.957   9.916 -0.3450 -0.0433 -0.2725
  524TMC3     C 7836   2.993   2.574  10.000 -0.2813 -0.0019 -0.2737
  524TMC3     O 7837   2.937   2.518  10.100 -0.4571  0.6821 -0.0353
  524TMC3     H 7838   3.042   2.708   9.773  0.5298 -0.3628 -0.2050
  524TMC3    H1 7839   2.824   2.712  10.140 -1.8707 -0.1264 -1.3699
  524TMC3    H2 7840   2.811   3.046   9.884  0.0209 -0.1618 -1.1942
  524TMC3    C7 7841   2.779   2.979  10.146  0.4015  0.0307 -0.7020
  524TMC3    C8 7842   2.996   2.958   9.718  0.4927 -0.2357 -0.1494
  524TMC3    O1 7843   2.769   2.916  10.252  0.0599 -0.1516  0.5389
  524TMC3    O2 7844   3.109   2.916   9.682  0.3602 -0.3180  0.0813
  525MPD2     C 7845   1.819   3.300  14.413 -0.0742 -0.3004  0.2042
  525MPD2    C1 7846   1.764   3.342  14.535  0.0979 -0.4478 -0.3150
  525MPD2    C2 7847   1.710   3.469  14.552 -0.4896 -0.0099 -0.1896
  525MPD2    C3 7848   1.733   3.566  14.453  0.4562 -0.2450 -0.7055
  525MPD2    C4 7849   1.810   3.530  14.345 -0.2372 -0.1785 -0.2379
  525MPD2    C5 7850   1.841   3.393  14.316  0.3893 -0.1103  0.6551
  525MPD2     H 7851   1.657   3.494  14.642 -0.1188 -3.6685  1.0507
  525MPD2    H1 7852   1.841   3.600  14.268  0.7068 -0.0707  0.2358
  525MPD2    H2 7853   1.853   3.199  14.395  1.6655  0.4792 -0.9402
  525MPD2    H3 7854   1.886   3.359  14.224 -0.9330  1.0863 -0.4321
  525MPD2     N 7855   1.712   3.711  14.474  0.0293 -0.2244  0.6333
  525MPD2    H5 7856   1.737   3.773  14.398 -2.5817  0.0455  0.0227
  525MPD2    N1 7857   1.764   3.244  14.638 -0.0689  0.3316 -0.2599
  525MPD2    H7 7858   1.798   3.153  14.607  0.5439  0.0110  1.3988
  526TMC3    C1 7859   1.726   3.151  14.858  0.3723  0.6885 -0.6276
  526TMC3    C2 7860   1.635   3.143  14.963  0.6670 -0.1935 -0.3902
  526TMC3    C3 7861   1.677   3.069  15.068 -0.4297 -0.6649 -0.3290
  526TMC3    C4 7862   1.848   3.087  14.853  0.2241  0.3837  0.3380
  526TMC3    C5 7863   1.879   3.009  14.967  0.3607 -0.8491 -0.4757
  526TMC3    C6 7864   1.798   3.002  15.074  0.1215  0.3421  0.0048
  526TMC3     C 7865   1.690   3.249  14.755  0.2698 -0.4075 -0.0540
  526TMC3     O 7866   1.603   3.329  14.792  0.0825  0.3610  0.0457
  526TMC3     H 7867   1.548   3.206  14.979  1.8803  1.1167  0.9619
  526TMC3    H1 7868   1.915   3.093  14.768 -0.6008  1.1504 -0.2468
  526TMC3    H2 7869   1.816   2.926  15.149 -0.4450 -0.8940 -1.1183
  526TMC3    C7 7870   2.002   2.927  14.973  0.6825 -0.0054  0.2514
  526TMC3    C8 7871   1.598   3.069  15.192  0.4341 -0.1733 -0.9349
  526TMC3    O1 7872   2.027   2.873  15.082 -0.2084 -0.7243  0.1649
  526TMC3    O2 7873   1.657   3.041  15.294  0.1780  0.0752  0.2003
  527MPD2     C 7874   4.629   1.894   1.267 -0.9425 -0.1482 -0.7937
  527MPD2    C1 7875   4.545   1.861   1.169  0.3292 -0.1145  0.0647
  527MPD2    C2 7876   4.596   1.819   1.043  0.4236 -0.7318 -0.4820
  527MPD2    C3 7877   4.733   1.809   1.026 -0.1418  0.1552  0.0874
  527MPD2    C4 7878   0.075   1.855   1.132  0.1118 -0.0373 -0.0089
  527MPD2    C5 7879   0.022   1.892   1.246  0.5071  0.1820 -0.3782
  527MPD2     H 7880   4.532   1.789   0.961 -0.9664 -0.5638  0.5280
  527MPD2    H1 7881   0.183   1.851   1.128 -0.0140 -1.1118 -2.0741
  527MPD2    H2 7882   4.598   1.924   1.366 -1.3743 -0.9470 -0.6863
  527MPD2    H3 7883   0.087   1.921   1.328  1.5101 -0.1094 -1.0707
  527MPD2     N 7884   0.046   1.756   0.909  0.4682  0.0529 -0.4676
  527MPD2    H5 7885   4.716   1.735   0.836 -0.8394  1.2741  0.4031
  527MPD2    N1 7886   4.409   1.872   1.175 -0.0366  0.2137 -0.1316
  527MPD2    H7 7887   4.356   1.863   1.089 -2.4487  0.9508  1.2721
  528TMC3    C1 7888   4.191   1.915   1.262 -0.0004 -0.1701 -0.3108
  528TMC3    C2 7889   4.133   1.833   1.166  0.0859  0.1134  0.5919
  528TMC3    C3 7890   4.007   1.855   1.139  0.4117 -0.0198 -0.1360
  528TMC3    C4 7891   4.119   1.988   1.352 -0.7412  0.1805  0.2372
  528TMC3    C5 7892   3.987   1.986   1.336  0.1028  0.7902 -0.1825
  528TMC3    C6 7893   3.921   1.928   1.228 -0.0327 -0.6863 -0.7098
  528TMC3     C 7894   4.334   1.901   1.287  0.3199  0.3098  0.4716
  528TMC3     O 7895   4.366   1.931   1.403  0.2631  0.0604 -0.1184
  528TMC3     H 7896   4.195   1.769   1.105  1.1353  0.7900  0.9303
  528TMC3    H1 7897   4.164   2.057   1.422 -0.5090 -0.9969  1.2556
  528TMC3    H2 7898   3.819   1.952   1.200 -0.5335 -2.2343 -0.2774
  528TMC3    C7 7899   3.905   2.056   1.437  0.3044  0.0611  0.5004
  528TMC3    C8 7900   3.949   1.772   1.037 -0.3792 -0.4028 -0.0115
  528TMC3    O1 7901   3.955   2.160   1.486 -0.1736 -0.4361  0.5516
  528TMC3    O2 7902   4.012   1.739   0.940  0.3388 -0.4909 -0.2553
  529MPD2     C 7903   1.611   4.461   1.112 -0.2762 -0.2086  0.8520
  529MPD2    C1 7904   1.729   4.500   1.045  0.5335 -0.0993  0.2216
  529MPD2    C2 7905   1.746   4.635   1.029 -0.2845  0.0568  0.4130
  529MPD2    C3 7906   1.661   4.730   1.078 -0.3353 -0.1364 -0.3672
  529MPD2    C4 7907   1.548   4.693   1.152 -0.6901 -0.2454 -0.2180
  529MPD2    C5 7908   1.527   4.556   1.160 -0.2029  0.7574  0.1426
  529MPD2     H 7909   1.834   4.666   0.974  0.2913 -2.0333  0.1602
  529MPD2    H1 7910   1.477   0.028   1.192 -0.2309  0.3390 -0.4680
  529MPD2    H2 7911   1.578   4.359   1.131 -0.8301 -0.4604 -1.5240
  529MPD2    H3 7912   1.438   4.519   1.208 -0.9834 -0.8405 -2.5753
  529MPD2     N 7913   1.679   0.127   1.058  0.7614 -0.2272  0.5173
  529MPD2    H5 7914   1.607   0.190   1.091  2.2209  2.3348 -1.2271
  529MPD2    N1 7915   1.838   4.413   1.002  0.1025 -0.1189  1.1689
  529MPD2    H7 7916   1.913   4.466   0.959 -0.1895 -0.3999  0.3209
  530TMC3    C1 7917   1.995   4.228   0.993  0.1484  0.2177  0.0660
  530TMC3    C2 7918   2.075   4.308   0.922 -0.1511 -0.4902  0.4849
  530TMC3    C3 7919   2.211   4.299   0.945  0.0906  0.4046 -0.3052
  530TMC3    C4 7920   2.041   4.131   1.082  0.4424 -0.1969 -0.1443
  530TMC3    C5 7921   2.180   4.120   1.099  0.6087 -0.4916  0.2483
  530TMC3    C6 7922   2.266   4.203   1.026 -0.6065  0.6245 -0.1617
  530TMC3     C 7923   1.856   4.277   1.024  0.3790 -0.2445  0.2603
  530TMC3     O 7924   1.773   4.197   1.071  0.2719  0.6238 -0.2911
  530TMC3     H 7925   2.039   4.387   0.856  0.8279 -1.7564 -1.5420
  530TMC3    H1 7926   1.975   4.067   1.140  0.8967 -0.8772 -0.3722
  530TMC3    H2 7927   2.368   4.203   1.062 -0.3252  1.4291 -0.9727
  530TMC3    C7 7928   2.247   4.069   1.215 -0.2399 -0.3695  0.2272
  530TMC3    C8 7929   2.284   4.420   0.904  0.4970 -0.5384  0.2440
  530TMC3    O1 7930   2.366   4.051   1.214  0.2576  0.1022  0.1693
  530TMC3    O2 7931   2.214   4.515   0.867  0.0443 -0.2512  0.2325
  531MPD2     C 7932   0.886   2.119  13.069  0.0418 -0.3105  0.2003
  531MPD2    C1 7933   0.768   2.165  13.119 -0.0654  0.7279  0.4338
  531MPD2    C2 7934   0.681   2.230  13.033  0.0146  0.8331 -0.0357
  531MPD2    C3 7935   0.703   2.229  12.893  0.4851  0.5671 -0.4156
  531MPD2    C4 7936   0.821   2.178  12.847 -0.1575 -0.5752  0.2839
  531MPD2    C5 7937   0.914   2.140  12.936  0.6855 -0.1747 -0.4154
  531MPD2     H 7938   0.600   2.290  13.072  0.5266  0.8419  1.0197
  531MPD2    H1 7939   0.845   2.173  12.741 -0.3463 -1.6498  0.2925
  531MPD2    H2 7940   0.964   2.067  13.125  1.1957 -0.4928 -1.5613
  531MPD2    H3 7941   1.015   2.108  12.912  0.4949  0.0677 -1.5489
  531MPD2     N 7942   0.604   2.290  12.811  0.1648  0.2013  0.5327
  531MPD2    H5 7943   0.636   2.285  12.714  1.5070  0.9168  0.9313
  531MPD2    N1 7944   0.753   2.170  13.257 -0.4280 -0.0159 -0.0136
  531MPD2    H7 7945   0.826   2.137  13.320  0.2318  0.7720 -0.3622
  532TMC3    C1 7946   0.640   2.199  13.463 -0.2379  0.3272 -0.0872
  532TMC3    C2 7947   0.517   2.222  13.513 -0.1890 -0.1506 -0.0986
  532TMC3    C3 7948   0.503   2.311  13.616  0.1066 -0.1145 -0.8899
  532TMC3    C4 7949   0.748   2.247  13.525 -0.7170  0.4234 -0.4705
  532TMC3    C5 7950   0.735   2.317  13.642  0.3411 -0.6646  0.1181
  532TMC3    C6 7951   0.608   2.351  13.685 -0.0838  0.3864  0.0873
  532TMC3     C 7952   0.633   2.209  13.319 -0.0685  0.3598 -0.3158
  532TMC3     O 7953   0.523   2.244  13.284 -0.7342  0.6609  0.1812
  532TMC3     H 7954   0.427   2.177  13.472  0.7719 -1.3000 -0.9098
  532TMC3    H1 7955   0.847   2.245  13.481 -0.6471 -2.9723 -0.1400
  532TMC3    H2 7956   0.604   2.429  13.761 -3.4707  0.4709 -0.1430
  532TMC3    C7 7957   0.824   2.281  13.753  0.2742  0.8916  0.2784
  532TMC3    C8 7958   0.398   2.404  13.595  0.0568  0.8093  0.7901
  532TMC3    O1 7959   0.770   2.284  13.860  0.0404 -0.2722  0.2569
  532TMC3    O2 7960   0.378   2.488  13.678 -0.2551  0.4024 -0.3365
  533TMC3    C1 7961   1.642   3.906  14.579  0.2072  1.1673  0.1702
  533TMC3    C2 7962   1.742   3.977  14.516 -0.3484  0.0218 -0.0826
  533TMC3    C3 7963   1.764   4.111  14.558 -0.1630  0.7486  0.3181
  533TMC3    C4 7964   1.570   3.968  14.680 -0.4051 -0.1821  0.2210
  533TMC3    C5 7965   1.588   4.104  14.715  0.3942  0.1428  0.4452
  533TMC3    C6 7966   1.681   4.175  14.646  0.2391  0.0501  0.6623
  533TMC3     C 7967   1.634   3.759  14.577  0.2129  0.0711 -0.0967
  533TMC3     O 7968   1.572   3.705  14.669  0.2414 -0.0764  0.4132
  533TMC3     H 7969   1.805   3.932  14.439 -1.4424 -1.5095 -0.0836
  533TMC3    H1 7970   1.481   3.920  14.720  1.6911 -2.4848  2.1676
  533TMC3    H2 7971   1.704   4.278  14.673  0.5957 -0.1889  1.2864
  533TMC3    C7 7972   1.576   4.144  14.858  0.3084  0.0672  0.1067
  533TMC3    C8 7973   1.887   4.170  14.517  0.4394 -0.4375  0.5833
  533TMC3    O1 7974   1.577   4.262  14.890  0.0893 -0.3550 -0.0039
  533TMC3    O2 7975   1.977   4.098  14.477  0.2404  0.6338  0.1715
  534MPD2     C 7976   0.113   0.869   0.844  0.1619 -0.3839 -0.0143
  534MPD2    C1 7977   0.007   0.923   0.911 -0.0693 -0.2838 -0.3068
  534MPD2    C2 7978   4.635   0.845   0.944  0.1036  0.2127  0.9320
  534MPD2    C3 7979   4.638   0.710   0.901  0.2688  0.3810 -0.6722
  534MPD2    C4 7980   0.011   0.657   0.843  0.0380  0.0647  0.0138
  534MPD2    C5 7981   0.113   0.739   0.809 -0.0255 -0.8653  0.2925
  534MPD2     H 7982   4.551   0.880   1.003 -0.5970 -1.4265  0.9155
  534MPD2    H1 7983   0.019   0.551   0.822  0.7103 -0.2746  1.9503
  534MPD2    H2 7984   0.198   0.933   0.822 -1.2859  0.9122 -1.9052
  534MPD2    H3 7985   0.209   0.703   0.774  0.8477 -0.0065  1.8519
  534MPD2     N 7986   4.534   0.611   0.916  0.4426 -0.1530  0.1995
  534MPD2    H5 7987   4.557   0.519   0.878  1.3273 -1.2109  3.3280
  534MPD2    N1 7988   0.007   1.058   0.954 -0.6509 -0.6271  0.2797
  534MPD2    H7 7989   4.656   1.076   1.001 -1.9493 -1.2335 -1.9190
  535TMC3    C1 7990   4.325   0.529   0.998 -0.0906 -0.7592 -0.5820
  535TMC3    C2 7991   4.211   0.562   1.062 -0.2364 -0.0589 -0.4632
  535TMC3    C3 7992   4.131   0.457   1.098 -0.1354 -0.7943 -0.5566
  535TMC3    C4 7993   4.363   0.398   0.976  0.5130 -0.0896  0.8423
  535TMC3    C5 7994   4.279   0.299   1.012  0.2303  0.2440 -0.5882
  535TMC3    C6 7995   4.163   0.325   1.085  0.3451 -0.7325  0.3894
  535TMC3     C 7996   4.411   0.640   0.973  0.7735  0.2932  0.0444
  535TMC3     O 7997   4.361   0.747   0.999 -0.1333  0.8661 -0.4482
  535TMC3     H 7998   4.189   0.660   1.102  1.4327  0.1809 -0.1729
  535TMC3    H1 7999   4.453   0.362   0.927  0.6626  1.8246 -0.3016
  535TMC3    H2 8000   4.089   0.250   1.113 -0.9742  0.1432 -0.7076
  535TMC3    C7 8001   4.310   0.161   0.964  0.0496 -0.0724  0.6361
  535TMC3    C8 8002   3.991   0.480   1.130  0.6776 -0.8924  0.1148
  535TMC3    O1 8003   4.427   0.146   0.936 -0.6817 -0.1394 -0.1002
  535TMC3    O2 8004   3.912   0.385   1.116  0.0851 -0.6469 -0.0635
  536MPD2     C 8005   2.330   3.237  16.813  0.4706 -0.4060  0.0816
  536MPD2    C1 8006   2.319   3.363  16.867 -0.3043  0.5093  0.2481
  536MPD2    C2 8007   2.272   3.459  16.782  0.5435 -0.2865 -0.0694
  536MPD2    C3 8008   2.234   3.420  16.652 -0.1971  0.3656  0.4531
  536MPD2    C4 8009   2.246   3.290  16.597  0.3569  0.3228 -0.2350
  536MPD2    C5 8010   2.296   3.195  16.686 -0.3748  0.1424  0.4483
  536MPD2     H 8011   2.267   3.564  16.806 -3.0246 -0.7660  1.2623
  536MPD2    H1 8012   2.226   3.267  16.493  1.4828 -0.3224 -0.3131
  536MPD2    H2 8013   2.359   3.156  16.879 -1.8455 -0.5745  0.8893
  536MPD2    H3 8014   2.313   3.091  16.661 -1.0982  0.9477 -3.4150
  536MPD2     N 8015   2.170   3.508  16.557 -0.1115 -0.1943 -0.1950
  536MPD2    H5 8016   2.150   3.476  16.463 -0.8403 -0.1459 -0.0518
  536MPD2    N1 8017   2.363   3.400  16.994 -0.2150 -0.0211  0.1717
  536MPD2    H7 8018   2.396   3.325  17.054  1.1909 -0.4565 -1.1482
  537TMC3    C1 8019   2.412   3.536  17.199  0.5445 -0.0728  0.0885
  537TMC3    C2 8020   2.503   3.634  17.226  0.1373  0.1333  0.6964
  537TMC3    C3 8021   2.531   3.647  17.359  0.5620  0.8490 -0.5600
  537TMC3    C4 8022   2.369   3.431  17.275 -0.6106 -0.1970  1.0855
  537TMC3    C5 8023   2.409   3.446  17.401 -0.8844  0.1055 -0.1500
  537TMC3    C6 8024   2.492   3.549  17.441  0.0544 -0.0351 -0.3388
  537TMC3     C 8025   2.376   3.526  17.051  0.0935 -0.3550  0.3508
  537TMC3     O 8026   2.384   3.629  16.991  0.4637 -0.5740 -0.0075
  537TMC3     H 8027   2.535   3.704  17.149 -0.3651  0.9936  1.2665
  537TMC3    H1 8028   2.295   3.361  17.239 -1.3672  1.6368 -0.9460
  537TMC3    H2 8029   2.547   3.541  17.534 -0.3534 -2.7419 -0.3136
  537TMC3    C7 8030   2.388   3.355  17.511 -0.3023 -0.3304 -0.6031
  537TMC3    C8 8031   2.652   3.713  17.396  0.1311  0.5499  0.2244
  537TMC3    O1 8032   2.401   3.393  17.626 -0.2872 -0.5754 -0.0001
  537TMC3    O2 8033   2.731   3.653  17.467  0.3426  0.4439 -0.1296
  538TMC3    C1 8034   4.106   1.731  11.324  0.1389  0.0020  0.0549
  538TMC3    C2 8035   4.185   1.721  11.211 -0.5166  0.1277 -0.1719
  538TMC3    C3 8036   4.169   1.817  11.117 -0.3336 -0.3638  0.0376
  538TMC3    C4 8037   4.007   1.826  11.331  0.1910  0.5319 -0.4388
  538TMC3    C5 8038   3.998   1.922  11.243  0.3090  0.2882  0.0683
  538TMC3    C6 8039   4.073   1.914  11.131 -0.6412 -0.1324  0.0341
  538TMC3     C 8040   4.136   1.651  11.440  0.0022  0.6276 -0.7829
  538TMC3     O 8041   4.053   1.661  11.528  0.1778  0.3542  0.2560
  538TMC3     H 8042   4.241   1.630  11.196 -0.2086  0.0999  1.1407
  538TMC3    H1 8043   3.952   1.838  11.423  1.1878 -0.0039  0.2337
  538TMC3    H2 8044   4.036   1.973  11.048  0.1326 -1.0191 -0.9319
  538TMC3    C7 8045   3.876   2.000  11.242  0.1540  0.1740 -0.2799
  538TMC3    C8 8046   4.213   1.780  10.985 -0.4816 -0.3637  0.2186
  538TMC3    O1 8047   3.783   1.945  11.298  0.0146  0.4864 -0.3322
  538TMC3    O2 8048   4.254   1.663  10.967 -0.1971 -0.2117  0.5436
  539MPD2     C 8049   3.976   1.204  11.677 -0.3344  0.7937  0.3579
  539MPD2    C1 8050   3.902   1.084  11.681 -0.2456  0.4034  0.0937
  539MPD2    C2 8051   3.762   1.092  11.702 -0.4260 -0.1665 -0.4091
  539MPD2    C3 8052   3.698   1.213  11.707 -0.1659  0.4068  0.7222
  539MPD2    C4 8053   3.772   1.326  11.704 -0.1155 -0.1016 -0.5651
  539MPD2    C5 8054   3.906   1.319  11.689 -0.2938  0.2849 -0.2505
  539MPD2     H 8055   3.706   0.999  11.702  0.7666 -0.8931  2.0984
  539MPD2    H1 8056   3.719   1.421  11.706  1.3815  0.7691 -2.8559
  539MPD2    H2 8057   4.084   1.208  11.669 -0.3420  2.6980  1.1484
  539MPD2    H3 8058   3.964   1.411  11.688  1.9098 -1.1225 -3.6278
  539MPD2     N 8059   3.561   1.230  11.703  0.6172 -0.9244  0.4110
  539MPD2    H5 8060   3.525   1.317  11.665  1.4468  0.4207  2.7194
  539MPD2    N1 8061   3.968   0.956  11.662 -0.2337 -0.1848 -0.6329
  539MPD2    H7 8062   3.911   0.872  11.657  0.3801 -0.7610  1.8123
  540TMC3    C1 8063   3.341   1.161  11.661 -0.3344  0.1918 -0.1909
  540TMC3    C2 8064   3.338   1.200  11.528  0.3362  0.0920  0.0056
  540TMC3    C3 8065   3.211   1.225  11.479 -0.5824 -0.0333 -0.3261
  540TMC3    C4 8066   3.230   1.125  11.734  0.3860  0.0409  1.2894
  540TMC3    C5 8067   3.108   1.153  11.673  0.1750 -0.4109  0.7042
  540TMC3    C6 8068   3.096   1.203  11.545 -0.2088  0.5261 -0.5308
  540TMC3     C 8069   3.470   1.128  11.708  0.1389 -0.5519 -0.6611
  540TMC3     O 8070   3.468   1.025  11.776 -0.0687 -0.6925  0.4947
  540TMC3     H 8071   3.432   1.196  11.474  0.5536  0.2852  0.3676
  540TMC3    H1 8072   3.245   1.070  11.826  1.1822 -0.8874  0.6180
  540TMC3    H2 8073   2.996   1.226  11.510  0.2648  3.6532  0.0997
  540TMC3    C7 8074   2.985   1.151  11.749  0.1792 -0.0340 -0.9836
  540TMC3    C8 8075   3.210   1.214  11.328  0.2942 -0.5873 -0.7871
  540TMC3    O1 8076   2.882   1.139  11.685 -0.1545  1.0472 -0.3014
  540TMC3    O2 8077   3.321   1.213  11.271 -0.0656  0.8594  0.2412
  541MPD2     C 8078   1.719   2.254  13.267  0.7051 -0.4088 -0.1234
  541MPD2    C1 8079   1.811   2.211  13.173 -0.2241 -0.0289  0.0468
  541MPD2    C2 8080   1.840   2.301  13.069 -0.3919 -0.0279 -0.8168
  541MPD2    C3 8081   1.790   2.431  13.061  0.0948  0.1738  0.1852
  541MPD2    C4 8082   1.702   2.474  13.156  0.8793  0.2144  0.0197
  541MPD2    C5 8083   1.663   2.379  13.251  0.4914  0.0532  0.6905
  541MPD2     H 8084   1.916   2.268  13.000 -1.1778  0.5849 -1.9807
  541MPD2    H1 8085   1.651   2.569  13.152  0.2142 -0.1343  0.2102
  541MPD2    H2 8086   1.689   2.183  13.343  0.4857  0.0006  0.1725
  541MPD2    H3 8087   1.600   2.408  13.334 -0.4983  0.9508 -0.3812
  541MPD2     N 8088   1.820   2.515  12.950 -0.2633 -0.2916 -0.0459
  541MPD2    H5 8089   1.758   2.594  12.937 -1.4973 -1.5544 -1.8706
  541MPD2    N1 8090   1.874   2.080  13.192 -0.7082  0.0721 -0.5357
  541MPD2    H7 8091   1.854   2.026  13.275  0.9153  0.8225  0.3378
  542TMC3    C1 8092   1.933   2.606  12.754 -0.1204  0.9762 -0.0543
  542TMC3    C2 8093   1.953   2.556  12.628  0.1423 -0.3575 -0.0408
  542TMC3    C3 8094   1.922   2.639  12.521  0.0230  0.3435 -0.3395
  542TMC3    C4 8095   1.867   2.726  12.773 -0.0543 -0.2801  0.9162
  542TMC3    C5 8096   1.806   2.785  12.660 -0.6585 -0.1245  1.0136
  542TMC3    C6 8097   1.844   2.746  12.530  0.5161  0.6411  0.1327
  542TMC3     C 8098   1.923   2.495  12.854 -0.5631 -0.9416  0.8164
  542TMC3     O 8099   1.992   2.396  12.832 -0.1137 -0.3801 -0.2150
  542TMC3     H 8100   1.998   2.458  12.619  0.7407  0.1610 -2.6815
  542TMC3    H1 8101   1.850   2.761  12.875 -1.8314  0.5277  0.3504
  542TMC3    H2 8102   1.821   2.796  12.436  0.3186  1.7547  0.7680
  542TMC3    C7 8103   1.770   2.927  12.680 -0.0578  0.2227 -0.5625
  542TMC3    C8 8104   1.993   2.610  12.395  0.9316 -1.0243  0.0413
  542TMC3    O1 8105   1.819   2.981  12.779 -0.0536 -0.8594 -0.7790
  542TMC3    O2 8106   1.928   2.625  12.288  0.0389  0.0997 -0.0651
  543TMC3    C1 8107   1.571   4.319   0.203 -0.5375 -0.1069 -0.2062
  543TMC3    C2 8108   1.578   4.185   0.214 -0.6347 -0.1907  0.1293
  543TMC3    C3 8109   1.477   4.130   0.290  0.3479 -0.1359  0.0256
  543TMC3    C4 8110   1.462   4.399   0.249  0.2570  0.7305 -0.3274
  543TMC3    C5 8111   1.372   4.339   0.336  0.0281 -0.0163  0.7525
  543TMC3    C6 8112   1.387   4.208   0.365 -0.6106 -0.0973 -0.1273
  543TMC3     C 8113   1.652   4.380   0.095 -0.0445  0.0215  0.3211
  543TMC3     O 8114   1.708   4.292   0.028  0.3881 -0.4017  1.1610
  543TMC3     H 8115   1.640   4.120   0.154 -0.5997  2.0661 -2.2817
  543TMC3    H1 8116   1.442   4.499   0.212 -0.0811  0.0141 -2.0897
  543TMC3    H2 8117   1.327   4.161   0.441  1.0530 -0.6783  0.8252
  543TMC3    C7 8118   1.294   4.423   0.423  0.2345  0.9188  0.6001
  543TMC3    C8 8119   1.462   3.989   0.284  0.4373  0.2517  0.2808
  543TMC3    O1 8120   1.202   4.370   0.489  0.3414 -0.3633  0.4583
  543TMC3    O2 8121   1.560   3.916   0.271 -0.1270 -0.4016 -0.3308
  544MPD2     C 8122   1.159   3.601   0.121  0.2907  0.5941  0.5084
  544MPD2    C1 8123   1.295   3.607   0.127 -0.5683 -0.7692  0.7218
  544MPD2    C2 8124   1.348   3.721   0.182  0.0396 -0.5947  0.6698
  544MPD2    C3 8125   1.276   3.832   0.207  0.8891  0.0380 -0.3612
  544MPD2    C4 8126   1.144   3.826   0.197  0.3088 -0.0447  0.0627
  544MPD2    C5 8127   1.087   3.707   0.165 -0.2845 -0.2864  0.0811
  544MPD2     H 8128   1.456   3.725   0.193 -0.3526 -0.2168  4.2126
  544MPD2    H1 8129   1.075   3.899   0.238  1.3810  0.4679  0.9502
  544MPD2    H2 8130   1.109   3.520   0.070  1.9408 -1.6802  2.4891
  544MPD2    H3 8131   0.981   3.696   0.181  0.1021 -2.4022  1.1086
  544MPD2     N 8132   1.328   3.958   0.262 -0.2146  0.3806  0.1141
  544MPD2    H5 8133   1.260   4.033   0.272 -1.0554 -0.0279 -2.5011
  544MPD2    N1 8134   1.376   3.494   0.098 -0.0816  0.1906 -0.5533
  544MPD2    H7 8135   1.323   3.412   0.070 -1.6930  1.1984 -0.4606
  545TMC3    C1 8136   1.573   3.374   0.023 -0.5563 -0.1589 -0.0130
  545TMC3    C2 8137   1.687   3.391  17.706  0.7973 -0.1045 -0.3314
  545TMC3    C3 8138   1.751   3.286  17.656  0.9070  0.6984  0.1919
  545TMC3    C4 8139   1.499   3.257   0.028 -0.6691 -0.4377 -0.2569
  545TMC3    C5 8140   1.570   3.149  17.721  0.3513 -0.0069 -0.4940
  545TMC3    C6 8141   1.705   3.159  17.681 -0.2743 -0.1709 -0.4623
  545TMC3     C 8142   1.518   3.493   0.085  0.5482  0.0901  0.2742
  545TMC3     O 8143   1.595   3.588   0.106  0.0697  0.2484  0.0200
  545TMC3     H 8144   1.734   3.487  17.685 -0.3578  0.8123  1.2326
  545TMC3    H1 8145   1.420   3.237   0.100 -0.8816  0.0507 -0.3579
  545TMC3    H2 8146   1.753   3.076  17.631  0.7362 -0.0626  0.3358
  545TMC3    C7 8147   1.518   3.019   0.018  0.6458  0.4426  0.0941
  545TMC3    C8 8148   1.825   3.306  17.542 -0.5734  0.1902  0.5250
  545TMC3    O1 8149   1.401   3.010   0.043 -0.1950 -0.4308  0.0723
  545TMC3    O2 8150   1.809   3.412  17.489 -0.4050 -0.8840  0.0502
  546MPD2     C 8151   3.081   4.357   0.287 -0.0084  0.6798  0.1138
  546MPD2    C1 8152   3.125   4.309   0.169 -0.1093  0.2050  0.2051
  546MPD2    C2 8153   3.207   4.388   0.093  0.3710  0.0048  1.1803
  546MPD2    C3 8154   3.259   4.510   0.134 -0.3085 -0.2666  0.7340
  546MPD2    C4 8155   3.202   4.552   0.256  0.1871 -0.8926 -0.9906
  546MPD2    C5 8156   3.117   4.479   0.334 -0.0829  0.8401 -0.0575
  546MPD2     H 8157   3.248   4.357  17.746 -1.3231 -0.5552  0.6446
  546MPD2    H1 8158   3.237   4.644   0.300  0.2426 -1.7857  0.8123
  546MPD2    H2 8159   3.023   4.294   0.352  1.7673 -1.3140 -0.2231
  546MPD2    H3 8160   3.070   4.508   0.428 -0.9146 -1.0365  0.1022
  546MPD2     N 8161   3.356   4.597   0.063  0.1091  0.3128  0.0934
  546MPD2    H5 8162   3.379   4.686   0.107  2.9792 -2.3636  3.9582
  546MPD2    N1 8163   3.061   4.190   0.129  0.3700  0.3864  0.7274
  546MPD2    H7 8164   2.967   4.179   0.166 -0.8651 -0.2709 -2.6202
  547TMC3    C1 8165   3.021   3.991   0.023 -0.4804 -0.5691 -0.6188
  547TMC3    C2 8166   2.886   4.015   0.021  0.4870 -0.1612  0.5647
  547TMC3    C3 8167   2.792   3.911   0.003 -0.0408 -0.3608 -0.9890
  547TMC3    C4 8168   3.066   3.862   0.004  0.0981 -0.2772 -0.2182
  547TMC3    C5 8169   2.974   3.765  17.726  0.2046  0.8294 -0.5482
  547TMC3    C6 8170   2.840   3.783  17.732 -0.2362  0.1771  0.0329
  547TMC3     C 8171   3.116   4.089   0.051  1.4198  0.0916 -0.4986
  547TMC3     O 8172   3.233   4.063   0.016 -0.0477 -0.5163  0.2544
  547TMC3     H 8173   2.850   4.117   0.027 -2.3233 -1.1360  0.3476
  547TMC3    H1 8174   3.171   3.837  17.746  0.2275  0.6634 -1.6193
  547TMC3    H2 8175   2.770   3.711  17.690  0.5315  0.2821 -1.4160
  547TMC3    C7 8176   3.007   3.624  17.737  0.6085 -0.6589 -0.3289
  547TMC3    C8 8177   2.653   3.952  17.716 -0.2133 -0.0790  0.2055
  547TMC3    O1 8178   3.093   3.590   0.073  0.6390  0.0434 -0.1523
  547TMC3    O2 8179   2.628   4.072  17.721 -0.7020  0.6251  0.5523
  548MPD2     C 8180   2.802   3.886  12.999  0.2576  0.2567 -0.2579
  548MPD2    C1 8181   2.757   3.949  12.878  0.2461  0.0291 -0.6934
  548MPD2    C2 8182   2.854   3.972  12.780  0.4796 -0.0070 -0.3419
  548MPD2    C3 8183   2.980   3.925  12.792 -0.3462  0.0624  0.0533
  548MPD2    C4 8184   3.014   3.847  12.903  0.5760 -0.7631  0.1955
  548MPD2    C5 8185   2.924   3.841  13.008 -0.5670  0.8689 -1.1925
  548MPD2     H 8186   2.841   4.027  12.687 -1.1813 -1.1679 -0.7833
  548MPD2    H1 8187   3.112   3.802  12.915  0.8889  0.1477  1.0834
  548MPD2    H2 8188   2.738   3.864  13.084  0.9242 -1.9642 -0.3359
  548MPD2    H3 8189   2.952   3.787  13.098 -1.2273  2.8874  0.2142
  548MPD2     N 8190   3.070   3.951  12.686 -0.2615 -0.4245 -0.3823
  548MPD2    H5 8191   3.034   3.994  12.601 -1.0862 -0.6655 -0.1526
  548MPD2    N1 8192   2.631   4.008  12.877  0.0622  0.4241  0.5215
  548MPD2    H7 8193   2.570   3.985  12.955 -0.3747  0.2053  0.1103
  549TMC3    C1 8194   2.452   4.126  12.801 -0.1972 -0.2749 -0.3031
  549TMC3    C2 8195   2.402   4.246  12.749 -0.0037  0.1258 -0.2849
  549TMC3    C3 8196   2.278   4.275  12.784 -0.2139  0.1618 -0.1744
  549TMC3    C4 8197   2.371   4.041  12.873  0.6345 -0.2666  0.4083
  549TMC3    C5 8198   2.234   4.069  12.881 -0.5218  0.4415 -0.4125
  549TMC3    C6 8199   2.188   4.192  12.849  0.0974  0.4947  0.6496
  549TMC3     C 8200   2.588   4.092  12.776 -0.4705 -0.1801 -0.2071
  549TMC3     O 8201   2.645   4.149  12.683 -0.3326  0.4134  0.2727
  549TMC3     H 8202   2.468   4.316  12.700 -0.7237 -0.7567 -2.5299
  549TMC3    H1 8203   2.410   3.943  12.899 -0.1080 -1.0643 -1.4386
  549TMC3    H2 8204   2.083   4.216  12.856 -0.2336 -0.6901 -0.2298
  549TMC3    C7 8205   2.140   3.958  12.879 -0.3679 -0.4998 -0.0699
  549TMC3    C8 8206   2.210   4.377  12.703  1.0890  0.5062  0.0373
  549TMC3    O1 8207   2.022   3.984  12.894  0.3953  0.1440  0.2992
  549TMC3    O2 8208   2.106   4.339  12.658 -0.6205  0.6242  0.7640
  550TMC3    C1 8209   1.622   2.339  11.888  0.1803  0.4405 -0.1098
  550TMC3    C2 8210   1.525   2.350  11.986  0.2489  0.3585  0.0614
  550TMC3    C3 8211   1.571   2.400  12.108  0.3974  0.0528  0.6519
  550TMC3    C4 8212   1.746   2.403  11.905 -0.6487 -0.1154 -0.3959
  550TMC3    C5 8213   1.775   2.474  12.016 -0.4858  0.7200  0.0023
  550TMC3    C6 8214   1.696   2.457  12.130 -0.4933  0.6061 -0.1153
  550TMC3     C 8215   1.609   2.254  11.773 -0.1220 -0.4937 -0.1010
  550TMC3     O 8216   1.708   2.253  11.699 -0.0925  0.1408  0.1662
  550TMC3     H 8217   1.432   2.295  11.977  0.3116  0.6166 -2.1849
  550TMC3    H1 8218   1.818   2.413  11.825  1.0658 -1.8418  0.9519
  550TMC3    H2 8219   1.733   2.496  12.224  2.1273 -1.1751 -0.4227
  550TMC3    C7 8220   1.752   2.621  11.977 -0.1520  0.0202  0.6426
  550TMC3    C8 8221   1.476   2.469  12.187  0.7320  0.5825 -0.3028
  550TMC3    O1 8222   1.695   2.645  11.869  0.2565 -0.4606  0.7741
  550TMC3    O2 8223   1.512   2.514  12.296  0.2253 -0.9157 -0.2762
  551TMC3    C1 8224   3.972   4.616  13.563 -1.0192  0.1418 -0.1060
  551TMC3    C2 8225   4.079   4.586  13.487  0.4730 -0.3166  0.2753
  551TMC3    C3 8226   4.198   4.641  13.520 -0.2983 -0.1687  0.0903
  551TMC3    C4 8227   3.977   4.702  13.669 -0.5724 -0.0372 -0.6821
  551TMC3    C5 8228   4.098   0.009  13.707  0.9412  0.6082  0.3492
  551TMC3    C6 8229   4.214   4.721  13.636 -0.2683  0.0525  0.0750
  551TMC3     C 8230   3.857   4.615  13.476  0.4400  0.1860 -0.3525
  551TMC3     O 8231   3.831   4.513  13.417 -0.0366  0.1306 -0.1623
  551TMC3     H 8232   4.059   4.527  13.398 -1.3724  1.6063 -0.5996
  551TMC3    H1 8233   3.889   4.734  13.724 -0.6726  0.0841 -0.9144
  551TMC3    H2 8234   4.315   0.013  13.659 -0.0565 -0.8833  0.3286
  551TMC3    C7 8235   4.106   0.111  13.808  0.2888  0.1344 -0.5137
  551TMC3    C8 8236   4.286   4.665  13.408 -0.1563  0.5149  0.4823
  551TMC3    O1 8237   4.215   0.114  13.873  0.5464 -0.3564  0.5717
  551TMC3    O2 8238   4.281   4.573  13.326  0.2176 -0.2645  0.0224
  552MPD2     C 8239   0.852   1.911  14.173  0.0719  0.1737  0.8047
  552MPD2    C1 8240   0.951   1.830  14.118  0.3378  0.3352  0.1773
  552MPD2    C2 8241   1.071   1.811  14.188  0.2899 -0.1351  0.1665
  552MPD2    C3 8242   1.096   1.871  14.305  0.7810 -0.2182  0.5236
  552MPD2    C4 8243   0.998   1.947  14.363 -0.3852 -0.0374 -0.3349
  552MPD2    C5 8244   0.881   1.973  14.295 -0.4781  0.4068 -0.1926
  552MPD2     H 8245   1.130   1.727  14.154  1.2380  0.5531  0.1438
  552MPD2    H1 8246   1.009   1.992  14.461  1.3515  2.2412 -1.5674
  552MPD2    H2 8247   0.753   1.918  14.127  1.5689  2.4561 -2.0824
  552MPD2    H3 8248   0.804   2.034  14.341 -1.3314 -1.8475  1.3980
  552MPD2     N 8249   1.212   1.845  14.377  0.0127 -0.5233 -0.1639
  552MPD2    H5 8250   1.214   1.894  14.466  1.2462 -0.5085 -0.2038
  552MPD2    N1 8251   0.921   1.757  14.001 -0.0978  0.0482 -0.7523
  552MPD2    H7 8252   0.995   1.702  13.959  2.5429  1.8079  1.6354
  553TMC3    C1 8253   0.810   1.654  13.826  0.4529 -0.0254  0.6414
  553TMC3    C2 8254   0.912   1.696  13.742  0.3178  0.1476 -0.0440
  553TMC3    C3 8255   0.931   1.617  13.627 -0.4237 -0.4861  0.6721
  553TMC3    C4 8256   0.734   1.540  13.807 -0.5990 -0.7531  0.4230
  553TMC3    C5 8257   0.781   1.452  13.708  0.5429 -0.2253  0.9360
  553TMC3    C6 8258   0.880   1.494  13.619  0.2319 -0.6139 -0.6766
  553TMC3     C 8259   0.798   1.728  13.950  0.3550  0.3663 -0.6089
  553TMC3     O 8260   0.681   1.738  13.993  0.0694  0.2218 -0.0021
  553TMC3     H 8261   0.959   1.791  13.765 -0.7154  0.5528  0.3799
  553TMC3    H1 8262   0.671   1.494  13.882 -0.1942  0.2995  1.4152
  553TMC3    H2 8263   0.904   1.434  13.532 -1.2332 -0.8804 -0.8921
  553TMC3    C7 8264   0.799   1.317  13.739 -0.5649 -0.8294 -0.0910
  553TMC3    C8 8265   1.020   1.668  13.530 -0.0320 -0.3830  0.5032
  553TMC3    O1 8266   0.711   1.229  13.725  0.5853 -0.4465 -0.0401
  553TMC3    O2 8267   1.108   1.739  13.576 -0.2841 -0.2168 -0.6444
  554TMC3    C1 8268   2.545   1.044  11.598  0.3874 -0.2603  0.6338
  554TMC3    C2 8269   2.495   1.034  11.474  0.2754 -0.8631  0.4767
  554TMC3    C3 8270   2.510   1.139  11.396 -0.0501  0.3382 -0.7194
  554TMC3    C4 8271   2.579   1.165  11.652  0.4315  0.0640 -0.4817
  554TMC3    C5 8272   2.578   1.272  11.570 -0.2965 -0.0790 -0.3190
  554TMC3    C6 8273   2.547   1.263  11.435  0.0167  0.0236  0.3093
  554TMC3     C 8274   2.537   0.918  11.675  0.3098  0.2098  0.2885
  554TMC3     O 8275   2.447   0.840  11.662 -0.3036  0.0695 -0.8006
  554TMC3     H 8276   2.459   0.938  11.439 -3.4864  0.9108 -0.4761
  554TMC3    H1 8277   2.617   1.174  11.753 -0.0635  1.9366 -0.4644
  554TMC3    H2 8278   2.547   1.339  11.357  2.4661 -0.5017 -0.1984
  554TMC3    C7 8279   2.616   1.395  11.623  0.0134  0.5126 -0.7277
  554TMC3    C8 8280   2.500   1.115  11.263  0.3371 -0.3252 -0.3005
  554TMC3    O1 8281   2.599   1.413  11.739  0.4368  0.3819  0.3574
  554TMC3    O2 8282   2.566   1.184  11.190 -0.4888 -0.4516 -0.6905
  555TMC3    C1 8283   1.765   0.458  15.184 -0.3882 -0.4753 -0.0427
  555TMC3    C2 8284   1.749   0.549  15.287  0.3455  0.2315 -0.1145
  555TMC3    C3 8285   1.783   0.517  15.415 -0.4729  0.4637 -0.4019
  555TMC3    C4 8286   1.811   0.332  15.210  0.0579  0.6228  0.3576
  555TMC3    C5 8287   1.834   0.296  15.340  0.4925  0.9216  0.2499
  555TMC3    C6 8288   1.821   0.388  15.438  0.2818 -0.0282  0.2894
  555TMC3     C 8289   1.815   0.500  15.054  0.9453  0.4479 -0.2287
  555TMC3     O 8290   1.916   0.451  15.013  0.7893 -0.1336  0.1232
  555TMC3     H 8291   1.712   0.647  15.262  0.6905  0.6164  0.8907
  555TMC3    H1 8292   1.820   0.252  15.136 -2.2575 -0.2690  1.0269
  555TMC3    H2 8293   1.836   0.358  15.541 -1.2910  0.2508  0.5924
  555TMC3    C7 8294   1.864   0.163  15.391 -0.2014  0.3352  0.3382
  555TMC3    C8 8295   1.760   0.606  15.529  0.3866  0.6548  0.1720
  555TMC3    O1 8296   1.831   0.134  15.506 -0.0706 -0.0349 -0.2710
  555TMC3    O2 8297   1.677   0.697  15.527  0.3434 -0.0120  0.0306
  556MPD2     C 8298   4.511   3.019  10.875 -0.3171 -0.0737 -0.3698
  556MPD2    C1 8299   4.505   2.888  10.931 -0.3267  0.8904  0.3014
  556MPD2    C2 8300   4.505   2.777  10.842  0.9221  0.5087  0.4426
  556MPD2    C3 8301   4.515   2.800  10.705 -0.0962  0.0497  0.2945
  556MPD2    C4 8302   4.513   2.925  10.652  0.4418  0.2668 -0.1228
  556MPD2    C5 8303   4.512   3.031  10.739  0.0361 -0.5676  0.7400
  556MPD2     H 8304   4.510   2.679  10.888 -0.6725 -0.4894 -1.5125
  556MPD2    H1 8305   4.523   2.956  10.548 -1.2787 -1.9898 -0.9682
  556MPD2    H2 8306   4.507   3.112  10.930  0.5018 -0.4538  0.3545
  556MPD2    H3 8307   4.524   3.130  10.695  2.3413 -1.3810 -0.4527
  556MPD2     N 8308   4.532   2.688  10.620  0.2659 -0.3043  0.4404
  556MPD2    H5 8309   4.531   2.595  10.662 -1.1158 -1.1008 -1.3544
  556MPD2    N1 8310   4.502   2.864  11.071  0.7530  0.2563 -0.0109
  556MPD2    H7 8311   4.500   2.766  11.097  0.5832  0.8393  2.1619
  557TMC3    C1 8312   4.539   2.564  10.429 -0.2175  0.2329 -0.8445
  557TMC3    C2 8313   4.499   2.556  10.294 -0.5220 -0.0095 -0.1012
  557TMC3    C3 8314   4.427   2.449  10.251  0.1160  0.0142  0.0417
  557TMC3    C4 8315   4.510   2.454  10.510 -0.1419  0.2765 -0.0379
  557TMC3    C5 8316   4.445   2.345  10.463 -0.9799 -0.9764  0.6229
  557TMC3    C6 8317   4.399   2.340  10.334  0.1886 -0.5816 -0.2821
  557TMC3     C 8318   4.544   2.693  10.487  0.2795  0.0170  0.8247
  557TMC3     O 8319   4.553   2.783  10.408 -0.1077 -0.1568  0.0504
  557TMC3     H 8320   4.502   2.644  10.230  2.5329 -0.7678 -0.9941
  557TMC3    H1 8321   4.549   2.445  10.610  0.9554 -3.8297 -0.8222
  557TMC3    H2 8322   4.341   2.254  10.304  1.2437 -1.2148 -0.5152
  557TMC3    C7 8323   4.386   2.248  10.557  0.3206 -0.9000  0.3289
  557TMC3    C8 8324   4.323   2.479  10.147 -0.0644 -0.5968  0.2217
  557TMC3    O1 8325   4.409   2.273  10.674 -0.2844 -1.2938 -0.3636
  557TMC3    O2 8326   4.339   2.584  10.082  0.6504 -0.7997 -0.0674
  558TMC3    C1 8327   2.365   4.532  10.414  0.4729 -0.2050  0.2432
  558TMC3    C2 8328   2.234   4.517  10.452  0.5028 -0.7968 -0.3161
  558TMC3    C3 8329   2.146   4.600  10.379  0.2089 -0.0037 -0.2262
  558TMC3    C4 8330   2.405   4.603  10.308 -0.2248 -0.5659  0.8749
  558TMC3    C5 8331   2.311   4.676  10.237  0.4782 -0.7600  0.3953
  558TMC3    C6 8332   2.180   4.686  10.277 -0.2071 -0.1170 -0.4614
  558TMC3     C 8333   2.476   4.497  10.513  0.5046  0.0757 -0.9789
  558TMC3     O 8334   2.586   4.554  10.515  0.2834 -0.2061  0.0086
  558TMC3     H 8335   2.202   4.454  10.533  3.3536  0.0702  1.4835
  558TMC3    H1 8336   2.507   4.605  10.269 -0.2491 -1.4960  0.7603
  558TMC3    H2 8337   2.114   0.030  10.250  0.2774  0.5522  0.3667
  558TMC3    C7 8338   2.367   0.043  10.157  0.0069 -0.2708  0.0917
  558TMC3    C8 8339   2.036   4.647  10.452 -0.2729 -0.7706  0.3021
  558TMC3    O1 8340   2.490   0.051  10.171  0.3082  0.3355 -0.1008
  558TMC3    O2 8341   1.951   4.708  10.385  0.2870  0.0128  0.7585
  559MPD2     C 8342   2.495   0.974  10.518  0.3003 -0.5088  0.3432
  559MPD2    C1 8343   2.441   0.865  10.570  0.0067 -0.2088  0.0437
  559MPD2    C2 8344   2.518   0.793  10.659  0.0824 -0.8805  0.2433
  559MPD2    C3 8345   2.656   0.809  10.675  0.0889 -0.1847  0.1558
  559MPD2    C4 8346   2.716   0.912  10.604  0.7227 -0.2578  0.1378
  559MPD2    C5 8347   2.628   0.995  10.537  0.5834  0.2990  0.5956
  559MPD2     H 8348   2.461   0.730  10.726 -0.3278  0.0190  0.7497
  559MPD2    H1 8349   2.820   0.944  10.602  0.1673  1.3551 -2.4398
  559MPD2    H2 8350   2.441   1.045  10.457  0.3455  1.0836  2.1313
  559MPD2    H3 8351   2.677   1.074  10.481  2.3771 -0.2426  1.4087
  559MPD2     N 8352   2.722   0.724  10.765 -0.0588 -0.3016 -0.7307
  559MPD2    H5 8353   2.655   0.671  10.820 -0.5379  0.0505 -0.9788
  559MPD2    N1 8354   2.306   0.840  10.541 -0.1631 -0.2613 -0.2775
  559MPD2    H7 8355   2.253   0.914  10.497 -1.7822 -1.4458 -0.2988
  560TMC3    C1 8356   2.898   0.648  10.910 -0.1033 -0.5411 -0.2181
  560TMC3    C2 8357   2.812   0.560  10.962 -0.0615 -0.1549  0.1119
  560TMC3    C3 8358   2.831   0.530  11.096 -0.7643  0.0145 -0.1757
  560TMC3    C4 8359   3.009   0.693  10.978 -0.1506  0.3284  0.5752
  560TMC3    C5 8360   3.024   0.662  11.107  0.3430 -0.2876  0.3179
  560TMC3    C6 8361   2.935   0.584  11.174 -0.1839  0.2469 -0.1843
  560TMC3     C 8362   2.859   0.730  10.796  0.4615  0.4365 -0.1077
  560TMC3     O 8363   2.947   0.799  10.750 -0.0577  0.1090  0.3119
  560TMC3     H 8364   2.738   0.503  10.907  2.0551 -1.7567 -1.1158
  560TMC3    H1 8365   3.078   0.766  10.936 -0.1045 -1.5879 -2.7461
  560TMC3    H2 8366   2.957   0.564  11.279  2.2490  0.8294 -0.6045
  560TMC3    C7 8367   3.155   0.656  11.173 -0.5903 -0.2887  0.5495
  560TMC3    C8 8368   2.739   0.437  11.161  0.3795  0.2275 -0.2262
  560TMC3    O1 8369   3.182   0.546  11.223  0.7499  0.3185  0.2077
  560TMC3    O2 8370   2.656   0.394  11.087 -0.4532 -0.0201 -0.3403
  561TMC3    C1 8371   0.484   4.369  11.369  0.5412 -0.4623  0.2588
  561TMC3    C2 8372   0.378   4.315  11.433  0.8090  0.0269 -0.2361
  561TMC3    C3 8373   0.267   4.299  11.355 -0.0940 -0.1220  0.1837
  561TMC3    C4 8374   0.480   4.414  11.236  0.5140  0.7893 -0.0526
  561TMC3    C5 8375   0.362   4.417  11.176 -0.5133 -0.2210 -0.4555
  561TMC3    C6 8376   0.250   4.361  11.230  0.1846 -0.0204  0.1254
  561TMC3     C 8377   0.612   4.348  11.440  0.5380  0.2670  0.5667
  561TMC3     O 8378   0.618   4.253  11.517 -0.5040  0.7319  0.1079
  561TMC3     H 8379   0.384   4.262  11.527 -0.5727 -0.7707 -0.6002
  561TMC3    H1 8380   0.565   4.455  11.184  0.8993 -0.5107 -0.4556
  561TMC3    H2 8381   0.152   4.366  11.183 -0.3598 -1.3777  1.1200
  561TMC3    C7 8382   0.331   4.524  11.080  0.3462 -0.3890  0.1053
  561TMC3    C8 8383   0.150   4.257  11.424  0.2541 -0.2398 -0.2193
  561TMC3    O1 8384   0.246   4.502  10.995  0.3670 -0.2704  0.2545
  561TMC3    O2 8385   0.047   4.249  11.354 -0.1867 -0.0437 -0.1614
  562TMC3    C1 8386   1.590   1.173  16.363  0.4262 -0.0433 -0.1013
  562TMC3    C2 8387   1.569   1.304  16.325 -0.2552 -0.1876 -0.1493
  562TMC3    C3 8388   1.562   1.330  16.187  0.2296  0.3273  0.1349
  562TMC3    C4 8389   1.582   1.068  16.274 -0.0656  0.4602 -0.1154
  562TMC3    C5 8390   1.554   1.105  16.140  0.1765 -0.0393 -1.1280
  562TMC3    C6 8391   1.561   1.237  16.093  0.3473 -0.3481  0.2953
  562TMC3     C 8392   1.568   1.138  16.501  0.0602  0.1788  0.1762
  562TMC3     O 8393   1.589   1.020  16.537  0.3670 -0.0455  0.3322
  562TMC3     H 8394   1.566   1.384  16.398 -0.3559 -0.5992  0.2956
  562TMC3    H1 8395   1.583   0.966  16.311 -0.2835  0.3616 -0.3794
  562TMC3    H2 8396   1.559   1.260  15.987 -1.0607 -2.2257 -0.0856
  562TMC3    C7 8397   1.531   1.002  16.038  0.3770 -0.2041 -0.3867
  562TMC3    C8 8398   1.528   1.465  16.148 -0.0136  0.4295 -0.0284
  562TMC3    O1 8399   1.514   1.039  15.919 -0.0619 -0.1290  0.3892
  562TMC3    O2 8400   1.564   1.542  16.239 -0.7152 -0.5149  0.6754
  563MPD2     C 8401   3.718   2.507  15.647 -0.1217  1.2183 -0.3560
  563MPD2    C1 8402   3.765   2.539  15.773 -0.1667 -0.1461 -0.1904
  563MPD2    C2 8403   3.897   2.506  15.812 -0.5768  1.0407 -0.2956
  563MPD2    C3 8404   3.974   2.432  15.724  0.0545 -0.0265  0.1853
  563MPD2    C4 8405   3.916   2.398  15.601  0.7037  0.3909 -0.1577
  563MPD2    C5 8406   3.794   2.442  15.560  0.4641 -0.6862  0.4223
  563MPD2     H 8407   3.937   2.515  15.912  1.9422  1.8728 -1.3784
  563MPD2    H1 8408   3.973   2.350  15.523  1.1444 -0.0110  0.4116
  563MPD2    H2 8409   3.618   2.525  15.609 -0.0381 -0.9094 -1.5736
  563MPD2    H3 8410   3.749   2.407  15.469 -0.2519 -0.5686  0.7353
  563MPD2     N 8411   4.107   2.391  15.756 -0.1059 -0.5626  0.4211
  563MPD2    H5 8412   4.141   2.408  15.850 -0.8910  0.7060  0.4716
  563MPD2    N1 8413   3.660   2.566  15.869  0.3142 -0.0089  0.7350
  563MPD2    H7 8414   3.564   2.549  15.841 -0.0436 -0.0753  2.0269
  564TMC3    C1 8415   3.647   2.563  16.101 -0.2203 -0.2945  0.5400
  564TMC3    C2 8416   3.560   2.464  16.077 -0.4038  0.7509 -0.0809
  564TMC3    C3 8417   3.549   2.354  16.161  0.1883  0.2839  0.4330
  564TMC3    C4 8418   3.736   2.554  16.200  0.6693 -0.2670  0.5618
  564TMC3    C5 8419   3.732   2.440  16.284 -0.3212  0.3494  0.2012
  564TMC3    C6 8420   3.634   2.345  16.264 -0.5327  0.4460 -0.1493
  564TMC3     C 8421   3.702   2.629  15.988 -0.8831 -0.9639 -0.8474
  564TMC3     O 8422   3.796   2.704  15.997  0.4252  0.1898 -0.4452
  564TMC3     H 8423   3.484   2.482  16.002 -0.1669  0.2900 -0.4361
  564TMC3    H1 8424   3.809   2.632  16.215  2.5943 -2.6928  3.7192
  564TMC3    H2 8425   3.635   2.256  16.326 -0.7570  1.3620  1.1570
  564TMC3    C7 8426   3.853   2.361  16.273  0.0869  0.0073 -0.3045
  564TMC3    C8 8427   3.505   2.227  16.100 -0.6655  0.1489 -0.9967
  564TMC3    O1 8428   3.922   2.341  16.373  0.1320  0.4898 -0.7292
  564TMC3    O2 8429   3.467   2.132  16.166 -0.1060 -0.1294  0.7612
  565TMC3    C1 8430   4.279   4.073  10.605 -0.0764 -0.4382 -0.3767
  565TMC3    C2 8431   4.324   3.950  10.652 -0.3783 -0.2499 -0.2696
  565TMC3    C3 8432   4.258   3.839  10.604 -0.0712 -0.2597 -0.0409
  565TMC3    C4 8433   4.179   4.080  10.514  0.3130 -0.9663 -0.2644
  565TMC3    C5 8434   4.120   3.964  10.474  0.0433 -0.2119 -0.6837
  565TMC3    C6 8435   4.162   3.842  10.508  0.2745  0.3100 -0.3899
  565TMC3     C 8436   4.355   4.201  10.611  0.2904  0.0416  0.7925
  565TMC3     O 8437   4.345   4.269  10.510  0.2957  0.0636 -0.1274
  565TMC3     H 8438   4.404   3.967  10.722 -0.9632 -1.1861  0.6320
  565TMC3    H1 8439   4.141   4.174  10.476 -0.3921 -0.7618  0.9283
  565TMC3    H2 8440   4.102   3.753  10.491  0.2707  0.0678  0.8861
  565TMC3    C7 8441   4.002   3.976  10.381 -1.0141 -0.4982 -0.5007
  565TMC3    C8 8442   4.284   3.720  10.683  0.6988 -0.0373 -0.1766
  565TMC3    O1 8443   3.976   4.084  10.339  0.9550 -0.0504  0.1957
  565TMC3    O2 8444   4.327   3.746  10.795 -0.3781 -0.2155 -0.5048
  566MPD2     C 8445   1.488   0.862  14.354  0.1745  0.0890 -0.6737
  566MPD2    C1 8446   1.519   0.726  14.352  0.3127 -0.3217  0.6647
  566MPD2    C2 8447   1.455   0.642  14.258 -0.1837 -0.3363 -0.3212
  566MPD2    C3 8448   1.362   0.697  14.171 -0.2454 -0.0955 -0.0649
  566MPD2    C4 8449   1.331   0.826  14.176  0.0164  0.1081  0.2688
  566MPD2    C5 8450   1.393   0.907  14.265  0.8939  0.2357 -0.3770
  566MPD2     H 8451   1.466   0.535  14.264 -1.1389 -0.5484 -2.3237
  566MPD2    H1 8452   1.268   0.873  14.101  3.3899  0.7544 -2.1426
  566MPD2    H2 8453   1.541   0.938  14.410 -0.9168 -0.2982  0.8625
  566MPD2    H3 8454   1.375   1.013  14.253 -1.8775 -0.2487 -0.5347
  566MPD2     N 8455   1.314   0.631  14.057  0.1633 -1.1950  0.3042
  566MPD2    H5 8456   1.282   0.693  13.984  0.0903 -0.0015  1.3594
  566MPD2    N1 8457   1.618   0.677  14.448  0.4837  0.3700 -0.3639
  566MPD2    H7 8458   1.682   0.743  14.491  0.2227  0.7073 -0.4875
  567TMC3    C1 8459   1.769   0.538  14.547  0.1635 -0.4794 -0.4602
  567TMC3    C2 8460   1.872   0.609  14.490  0.0611 -0.2768  0.3151
  567TMC3    C3 8461   1.997   0.559  14.508  0.8187  0.0300 -0.2592
  567TMC3    C4 8462   1.788   0.422  14.613 -1.0443 -0.3081 -1.2227
  567TMC3    C5 8463   1.915   0.373  14.617  0.4096  0.5267 -0.6307
  567TMC3    C6 8464   2.024   0.443  14.575  0.7760 -0.0398 -0.2415
  567TMC3     C 8465   1.641   0.549  14.479 -0.5141 -0.6317 -0.2844
  567TMC3     O 8466   1.570   0.446  14.465  0.2369  0.0088  0.3251
  567TMC3     H 8467   1.857   0.694  14.423 -1.5761  0.9595  2.2460
  567TMC3    H1 8468   1.705   0.362  14.647 -0.3018  0.0248  1.2139
  567TMC3    H2 8469   2.123   0.402  14.590 -0.0287 -0.5441  3.7238
  567TMC3    C7 8470   1.936   0.259  14.696 -0.1697 -0.8180  0.5734
  567TMC3    C8 8471   2.094   0.615  14.419 -0.1098 -0.3743  0.1516
  567TMC3    O1 8472   2.033   0.256  14.771 -0.0632  0.6506 -0.2304
  567TMC3    O2 8473   2.092   0.739  14.404  0.6043  0.2246  0.6339
  568MPD2     C 8474   4.010   0.729  16.055 -0.1946 -0.3791  0.4527
  568MPD2    C1 8475   3.975   0.777  16.179  0.1612  0.0406  0.0794
  568MPD2    C2 8476   3.932   0.906  16.190  0.5896 -0.0178  0.4778
  568MPD2    C3 8477   3.915   0.997  16.084  0.0385 -0.1223  0.1027
  568MPD2    C4 8478   3.955   0.948  15.963  1.0587  0.0024 -0.1538
  568MPD2    C5 8479   4.007   0.821  15.948  0.1972 -0.3921  0.6523
  568MPD2     H 8480   3.902   0.934  16.290  0.9164 -0.3707  0.6745
  568MPD2    H1 8481   3.965   1.004  15.871 -0.1769  0.8637  0.2342
  568MPD2    H2 8482   4.040   0.627  16.031  2.1201  0.4298 -0.0995
  568MPD2    H3 8483   4.046   0.794  15.850 -1.1179 -0.3408  0.1168
  568MPD2     N 8484   3.866   1.127  16.110 -0.5513  0.5694  0.4473
  568MPD2    H5 8485   3.840   1.138  16.208 -0.6179  0.1167  0.4852
  568MPD2    N1 8486   3.993   0.683  16.283 -0.4653  0.0691  0.8169
  568MPD2    H7 8487   4.040   0.598  16.253  1.4890  0.7422  1.9248
  569TMC3    C1 8488   3.797   1.354  16.071  0.2615  0.5261  0.0185
  569TMC3    C2 8489   3.765   1.375  16.203 -0.3027 -0.5023 -0.4324
  569TMC3    C3 8490   3.678   1.484  16.227  0.0194 -0.6817  0.1439
  569TMC3    C4 8491   3.764   1.440  15.969  0.8281  0.8565 -0.4625
  569TMC3    C5 8492   3.681   1.542  15.993  0.5292 -0.2932 -0.7136
  569TMC3    C6 8493   3.646   1.572  16.122  0.3126 -0.2178 -0.2107
  569TMC3     C 8494   3.856   1.226  16.018  0.0286 -1.0135  0.6793
  569TMC3     O 8495   3.886   1.223  15.899 -0.7611  0.2659 -0.0945
  569TMC3     H 8496   3.801   1.317  16.286  0.0901  3.0858  1.8906
  569TMC3    H1 8497   3.783   1.418  15.865 -0.5882 -0.9674 -0.3398
  569TMC3    H2 8498   3.579   1.650  16.156 -0.6167 -1.0202 -0.2161
  569TMC3    C7 8499   3.692   1.648  15.896 -0.4293  0.5362  0.5461
  569TMC3    C8 8500   3.681   1.546  16.360 -0.8879  0.0746 -0.2980
  569TMC3    O1 8501   3.759   1.624  15.799 -0.2958 -0.1136  0.0830
  569TMC3    O2 8502   3.631   1.482  16.455  0.0915  0.6468 -0.2738
  570TMC3    C1 8503   3.308   0.060  16.282 -0.1572  0.3432  0.1126
  570TMC3    C2 8504   3.357   0.038  16.152 -0.4816  0.0619  0.0070
  570TMC3    C3 8505   3.384   0.151  16.076 -0.2879  0.5583  0.4390
  570TMC3    C4 8506   3.282   0.186  16.337 -0.1810 -0.3376  0.1928
  570TMC3    C5 8507   3.312   0.289  16.258 -0.1834 -0.0457  0.4316
  570TMC3    C6 8508   3.373   0.277  16.135 -1.2709  0.5139 -1.6298
  570TMC3     C 8509   3.302   4.681  16.366  0.7102  0.3369 -0.0038
  570TMC3     O 8510   3.310   4.572  16.311  0.4675 -0.4110  0.0072
  570TMC3     H 8511   3.372   4.674  16.115  0.1852 -0.3851  1.4769
  570TMC3    H1 8512   3.263   0.204  16.442  1.0625 -0.4968  0.4395
  570TMC3    H2 8513   3.378   0.360  16.065 -0.6548  1.3100 -0.6259
  570TMC3    C7 8514   3.271   0.424  16.298 -0.1221  0.0689  0.3774
  570TMC3    C8 8515   3.449   0.142  15.951  0.1973 -0.2137  0.5996
  570TMC3    O1 8516   3.333   0.514  16.244  0.2856 -0.2609 -0.3126
  570TMC3    O2 8517   3.488   0.248  15.898  0.1690 -0.5260 -0.4749
  571MPD2     C 8518   0.914   1.883  17.455  0.7100  0.1984 -0.4127
  571MPD2    C1 8519   0.817   1.808  17.523  0.2031 -0.3479 -0.6098
  571MPD2    C2 8520   0.796   1.826  17.657  0.1366 -0.5375  0.2083
  571MPD2    C3 8521   0.874   1.910  17.733 -0.1328  0.1128  0.2561
  571MPD2    C4 8522   0.971   1.978  17.661  0.0415 -0.3433  0.1328
  571MPD2    C5 8523   0.991   1.964  17.533  0.0382 -0.1018  0.6749
  571MPD2     H 8524   0.726   1.766  17.715  0.2662  0.4912  1.4342
  571MPD2    H1 8525   1.034   2.048  17.715 -0.3397 -0.0810  0.2355
  571MPD2    H2 8526   0.946   1.866  17.353  0.7667  0.8362 -0.4991
  571MPD2    H3 8527   1.075   2.011  17.484 -0.5838 -0.4142 -0.6948
  571MPD2     N 8528   0.868   1.932   0.124  0.2410  0.3236  0.1923
  571MPD2    H5 8529   0.929   2.001   0.165  1.0368 -1.4728  2.0546
  571MPD2    N1 8530   0.737   1.714  17.456 -0.5209  0.0758  0.4904
  571MPD2    H7 8531   0.664   1.664  17.505 -0.2286 -0.0616  0.7866
  572TMC3    C1 8532   0.780   1.968   0.331 -0.6043 -0.3967 -0.0367
  572TMC3    C2 8533   0.682   1.959   0.422  0.3482  0.2730  0.5196
  572TMC3    C3 8534   0.651   2.073   0.499  0.5705  0.6571 -0.3306
  572TMC3    C4 8535   0.864   2.076   0.338  0.7358  0.1500 -0.3831
  572TMC3    C5 8536   0.842   2.179   0.425 -0.4578  0.3189  0.4310
  572TMC3    C6 8537   0.731   2.184   0.507  0.6222  0.7177 -0.5238
  572TMC3     C 8538   0.763   1.897   0.204  0.1001 -0.1189 -0.2886
  572TMC3     O 8539   0.685   1.808   0.186  0.4527  0.2499 -0.0206
  572TMC3     H 8540   0.616   1.873   0.417 -1.0056  1.2181  1.9810
  572TMC3    H1 8541   0.947   2.098   0.272 -0.0112 -1.6928 -1.9293
  572TMC3    H2 8542   0.721   2.260   0.583  0.4099  0.3375 -0.1741
  572TMC3    C7 8543   0.902   2.310   0.394  0.5697 -0.8612  0.4866
  572TMC3    C8 8544   0.558   2.045   0.599  0.1519 -0.4203  0.3241
  572TMC3    O1 8545   0.927   2.331   0.276  0.3115  0.2928  0.8447
  572TMC3    O2 8546   0.543   1.927   0.629  0.0305  0.0941 -0.6804
  573MPD2     C 8547   2.524   2.767   0.593 -0.2286 -0.1469  0.0143
  573MPD2    C1 8548   2.386   2.785   0.594 -0.3601 -0.4015  0.9181
  573MPD2    C2 8549   2.306   2.718   0.503 -0.4021 -0.7704 -0.5235
  573MPD2    C3 8550   2.365   2.640   0.404 -1.1900 -0.0597 -0.7840
  573MPD2    C4 8551   2.502   2.639   0.396  0.2433  0.5043 -0.2553
  573MPD2    C5 8552   2.578   2.708   0.485 -0.0534  0.3309  0.0841
  573MPD2     H 8553   2.197   2.718   0.507 -0.4433  2.5329 -1.1286
  573MPD2    H1 8554   2.547   2.575   0.321 -0.5527  1.6654 -1.7130
  573MPD2    H2 8555   2.581   2.827   0.663 -0.3865  0.2500 -0.2035
  573MPD2    H3 8556   2.685   2.708   0.465  0.4526 -0.1041  2.8207
  573MPD2     N 8557   2.300   2.557   0.312 -0.0290  0.5353  0.0062
  573MPD2    H5 8558   2.358   2.513   0.242 -0.9096 -0.0752 -0.3458
  573MPD2    N1 8559   2.346   2.863   0.704 -0.1242  0.1484 -0.4741
  573MPD2    H7 8560   2.422   2.893   0.765 -1.6789 -0.8158  1.9848
  574TMC3    C1 8561   2.138   2.451   0.203  0.6741  0.8388 -0.7800
  574TMC3    C2 8562   2.011   2.400   0.199  0.1068 -0.0611  0.2469
  574TMC3    C3 8563   1.973   2.316   0.100 -0.5586 -0.2196  0.6984
  574TMC3    C4 8564   2.211   2.443   0.091 -0.5252 -0.7621  0.5452
  574TMC3    C5 8565   2.162   2.368  17.736 -0.2554  0.1351 -0.7798
  574TMC3    C6 8566   2.055   2.290  17.740  0.2686 -0.0251 -0.0957
  574TMC3     C 8567   2.161   2.536   0.318 -0.2343 -0.2428 -0.7346
  574TMC3     O 8568   2.066   2.574   0.388 -0.0553  0.0278  0.0126
  574TMC3     H 8569   1.949   2.399   0.288  0.1129  1.2965  0.2721
  574TMC3    H1 8570   2.296   2.509   0.075 -1.9399  0.8320 -0.5062
  574TMC3    H2 8571   2.006   2.240  17.657  0.2948  2.1737 -1.4644
  574TMC3    C7 8572   2.191   2.435  17.611 -0.3826 -0.0895  0.0081
  574TMC3    C8 8573   1.837   2.346   0.052 -0.9875 -1.0147 -0.2708
  574TMC3    O1 8574   2.243   2.544  17.614 -0.4469  0.1380  0.0194
  574TMC3    O2 8575   1.774   2.257  17.747 -0.4762  0.1367 -0.0143
  575TMC3    C1 8576   4.499   3.297  11.387 -0.0422  0.4641 -1.0979
  575TMC3    C2 8577   4.414   3.215  11.452  0.4780 -0.6514  1.0746
  575TMC3    C3 8578   4.298   3.191  11.385  0.8432  0.3509 -0.1946
  575TMC3    C4 8579   4.492   3.342  11.259 -0.2670  0.4416  0.1321
  575TMC3    C5 8580   4.379   3.305  11.200 -0.1482 -0.0426 -1.0980
  575TMC3    C6 8581   4.279   3.225  11.258  0.7146 -1.0711  0.3603
  575TMC3     C 8582   4.615   3.335  11.471 -0.0781  0.4230  0.1579
  575TMC3     O 8583   4.636   3.264  11.570  0.4628  0.5187 -0.0797
  575TMC3     H 8584   4.425   3.195  11.558  0.2821 -1.2956  0.9734
  575TMC3    H1 8585   4.565   3.396  11.200 -0.4432  1.5962  0.9722
  575TMC3    H2 8586   4.182   3.213  11.212  0.5262 -1.9904  1.0093
  575TMC3    C7 8587   4.353   3.373  11.075  0.5221  0.1831 -0.4511
  575TMC3    C8 8588   4.211   3.093  11.438  0.2804 -0.4206  0.3519
  575TMC3    O1 8589   4.421   3.470  11.041  0.0883  0.0588  0.0806
  575TMC3    O2 8590   4.199   3.087  11.557  0.1714 -0.7431  0.0913
  576MPD2     C 8591   4.415   4.522  12.762  0.0780  0.2842  0.1950
  576MPD2    C1 8592   4.395   4.635  12.693  0.6836 -0.1584  0.2547
  576MPD2    C2 8593   4.311   4.736  12.750  0.1771  0.0427 -0.0526
  576MPD2    C3 8594   4.252   4.709  12.868 -0.0592 -0.3349 -0.5070
  576MPD2    C4 8595   4.266   4.587  12.926  0.2819  0.3270  0.0625
  576MPD2    C5 8596   4.362   4.500  12.887  0.1009 -0.4973 -0.6808
  576MPD2     H 8597   4.282   0.089  12.698  2.5862  0.6170 -0.4023
  576MPD2    H1 8598   4.219   4.564  13.021  0.7597 -2.3720 -0.3598
  576MPD2    H2 8599   4.474   4.443  12.717  1.1929 -0.0226  2.2193
  576MPD2    H3 8600   4.380   4.414  12.951  0.7283  0.3577  0.3051
  576MPD2     N 8601   4.164   0.069  12.918  0.4876  0.2965 -0.7166
  576MPD2    H5 8602   4.190   0.160  12.881  0.7710  0.4973 -0.0234
  576MPD2    N1 8603   4.441   4.665  12.558 -0.2341 -0.3627 -0.5402
  576MPD2    H7 8604   4.400   0.011  12.517 -0.8674 -0.0082  0.8236
  577TMC3    C1 8605   4.486   4.594  12.330 -0.3185 -1.1749  0.2578
  577TMC3    C2 8606   4.530   4.487  12.260 -0.2683  0.0668 -0.3274
  577TMC3    C3 8607   4.564   4.500  12.130  0.0916 -0.1566  0.3948
  577TMC3    C4 8608   4.479   4.720  12.282  0.2247 -0.5785  0.1925
  577TMC3    C5 8609   4.519   4.737  12.149 -0.0666  0.0451 -0.3383
  577TMC3    C6 8610   4.560   4.630  12.076 -1.1869  0.7060 -0.0531
  577TMC3     C 8611   4.506   4.578  12.476 -0.2177  0.6601  0.0220
  577TMC3     O 8612   4.571   4.477  12.509  0.2230  0.1044  0.0115
  577TMC3     H 8613   4.534   4.394  12.314  1.6980  1.1071  1.3247
  577TMC3    H1 8614   4.447   0.066  12.344  2.4058  0.6642 -0.3744
  577TMC3    H2 8615   4.562   4.647  11.969 -1.2162  1.1747  0.0186
  577TMC3    C7 8616   4.516   0.126  12.089 -0.4177 -0.2222  0.5192
  577TMC3    C8 8617   4.552   4.381  12.045 -0.5415  0.1687 -0.4054
  577TMC3    O1 8618   4.513   0.132  11.966  0.0175  0.2197 -0.2792
  577TMC3    O2 8619   4.501   4.281  12.087  0.1840  0.4316 -0.1763
  578MPD2     C 8620   2.443   0.880   0.979  0.6898  0.5475 -0.2875
  578MPD2    C1 8621   2.494   0.787   0.886  0.6962 -0.9735 -0.4545
  578MPD2    C2 8622   2.606   0.715   0.914  0.0279  0.2822 -0.5787
  578MPD2    C3 8623   2.683   0.735   1.023 -0.1547 -0.2640  0.5124
  578MPD2    C4 8624   2.635   0.830   1.113 -0.9186 -0.3101 -0.1479
  578MPD2    C5 8625   2.515   0.901   1.095 -0.6648  0.1320 -0.3704
  578MPD2     H 8626   2.641   0.654   0.831  2.3755 -1.5641  1.8129
  578MPD2    H1 8627   2.688   0.861   1.202  0.9396  1.1479 -1.7603
  578MPD2    H2 8628   2.347   0.929   0.969 -0.9382 -2.9239 -1.6801
  578MPD2    H3 8629   2.479   0.973   1.168 -1.8084 -0.5373 -0.2741
  578MPD2     N 8630   2.800   0.659   1.046 -0.0105  0.4815 -0.9742
  578MPD2    H5 8631   2.808   0.574   0.991 -1.1289  1.4512 -2.6190
  578MPD2    N1 8632   2.416   0.768   0.773  0.5756 -0.0338  0.2919
  578MPD2    H7 8633   2.341   0.836   0.762  2.0379  1.3910 -0.8023
  579TMC3    C1 8634   3.003   0.587   1.140 -0.4213  0.2220 -0.3577
  579TMC3    C2 8635   3.111   0.633   1.210  0.2307 -0.3637 -1.0569
  579TMC3    C3 8636   3.230   0.581   1.180  0.2934  0.2170 -0.5489
  579TMC3    C4 8637   3.006   0.482   1.049  0.3769  0.7729 -0.0981
  579TMC3    C5 8638   3.129   0.438   1.020 -0.1768  0.3953 -0.0084
  579TMC3    C6 8639   3.244   0.483   1.079 -1.0374 -0.5172  0.4839
  579TMC3     C 8640   2.890   0.684   1.147  0.8340 -0.0955 -0.1586
  579TMC3     O 8641   2.906   0.786   1.208 -0.2154  0.1862  0.3023
  579TMC3     H 8642   3.106   0.695   1.299 -1.4689  0.2221 -1.5539
  579TMC3    H1 8643   2.919   0.426   1.016  0.2179  0.4314  0.8980
  579TMC3    H2 8644   3.337   0.455   1.032 -0.2999  2.0462  0.3947
  579TMC3    C7 8645   3.139   0.309   0.957  0.1751 -0.0515 -0.6597
  579TMC3    C8 8646   3.344   0.653   1.235 -0.1275  0.4494 -0.3007
  579TMC3    O1 8647   3.242   0.243   0.985  0.2136 -0.6294  0.1319
  579TMC3    O2 8648   3.316   0.753   1.301  0.0359  0.0986  0.4437
  580TMC3    C1 8649   1.991   3.862  12.542 -0.2886  0.0526  0.3971
  580TMC3    C2 8650   2.095   3.950  12.533 -0.2603 -0.1379 -0.2354
  580TMC3    C3 8651   2.218   3.905  12.501  0.2129 -0.6663  0.4809
  580TMC3    C4 8652   2.005   3.731  12.512  0.4144 -0.2977 -0.2690
  580TMC3    C5 8653   2.133   3.685  12.502  0.4337 -0.0313  0.2420
  580TMC3    C6 8654   2.242   3.773  12.504  0.5083 -0.3104  0.4349
  580TMC3     C 8655   1.864   3.925  12.509  0.6262 -0.0886 -0.5565
  580TMC3     O 8656   1.804   3.972  12.605  0.3871 -0.2710 -0.1855
  580TMC3     H 8657   2.071   4.055  12.546 -0.4834 -0.5916  2.9754
  580TMC3    H1 8658   1.923   3.661  12.496 -0.2429  0.1586  1.1622
  580TMC3    H2 8659   2.340   3.731  12.483  0.1641  0.0325 -1.8509
  580TMC3    C7 8660   2.160   3.543  12.497 -0.2941 -0.3104 -0.0297
  580TMC3    C8 8661   2.331   3.986  12.456 -0.3873  0.0421  0.2008
  580TMC3    O1 8662   2.280   3.517  12.500 -0.5416  0.6963  0.1096
  580TMC3    O2 8663   2.435   3.925  12.433 -0.5151  0.3599 -0.7228
  581MPD2     C 8664   4.280   3.265  15.251 -0.3942 -0.3882  0.4574
  581MPD2    C1 8665   4.367   3.349  15.191  0.0139  0.6226 -0.1101
  581MPD2    C2 8666   4.325   3.479  15.157  0.6455  0.4968 -0.1947
  581MPD2    C3 8667   4.198   3.522  15.191 -0.6323  0.2367 -0.4565
  581MPD2    C4 8668   4.108   3.430  15.245  0.0269  1.0244  0.1992
  581MPD2    C5 8669   4.155   3.306  15.282 -0.2732  0.0552 -0.7567
  581MPD2     H 8670   4.396   3.555  15.127 -0.5399  0.9201 -1.9040
  581MPD2    H1 8671   4.006   3.455  15.270  0.5940  1.7288  1.8186
  581MPD2    H2 8672   4.308   3.164  15.277 -1.1688 -0.6800  0.1691
  581MPD2    H3 8673   4.091   3.247  15.346  0.6353  0.5270  0.5953
  581MPD2     N 8674   4.158   3.652  15.160  0.2078  0.2660 -0.2664
  581MPD2    H5 8675   4.221   3.704  15.099  1.2166 -0.5141  0.1120
  581MPD2    N1 8676   4.500   3.297  15.179  0.1352 -0.4059  0.2737
  581MPD2    H7 8677   4.514   3.202  15.212 -0.1449 -0.2569  0.8178
  582TMC3    C1 8678   4.725   3.280  15.152 -0.1621  0.0441 -0.0447
  582TMC3    C2 8679   0.068   3.341  15.243  0.5713  0.1560  0.2094
  582TMC3    C3 8680   0.123   3.260  15.338 -0.1841  0.5336 -0.1219
  582TMC3    C4 8681   4.695   3.146  15.166  0.3734  0.3053  0.3314
  582TMC3    C5 8682   4.729   3.080  15.280 -0.3070 -0.2939 -0.0247
  582TMC3    C6 8683   0.089   3.132  15.356 -0.0385  0.5907 -0.0776
  582TMC3     C 8684   4.608   3.361  15.122 -0.3124 -0.1913  0.4056
  582TMC3     O 8685   4.626   3.479  15.095 -0.1328  0.4049 -0.4980
  582TMC3     H 8686   0.075   3.449  15.246 -1.2215  0.2244  1.6016
  582TMC3    H1 8687   4.623   3.097  15.102  1.3146 -0.7440  0.0765
  582TMC3    H2 8688   0.105   3.081  15.451 -1.7256 -0.8451 -0.5629
  582TMC3    C7 8689   4.606   3.047  15.355 -0.1273 -0.3099 -0.4530
  582TMC3    C8 8690   0.174   3.322  15.456 -0.1564  0.0940  0.2571
  582TMC3    O1 8691   4.515   2.996  15.289 -0.0199 -0.4355 -0.0913
  582TMC3    O2 8692   0.113   3.422  15.493 -0.1832 -0.4755 -0.5208
  583MPD2     C 8693   0.257   0.448  16.768 -0.0124  0.0314 -0.0099
  583MPD2    C1 8694   0.187   0.543  16.701  0.4416  0.2996  0.7369
  583MPD2    C2 8695   0.122   0.644  16.772  0.1702  0.4300  1.6332
  583MPD2    C3 8696   0.119   0.640  16.907 -0.0895 -0.3496 -0.3477
  583MPD2    C4 8697   0.195   0.549  16.973  0.3008  0.4586  0.1662
  583MPD2    C5 8698   0.260   0.448  16.903  0.3550  0.3360 -0.3648
  583MPD2     H 8699   0.068   0.722  16.718  0.3997  0.3358  1.2716
  583MPD2    H1 8700   0.197   0.559  17.081 -0.0793  0.5952  0.1591
  583MPD2    H2 8701   0.307   0.367  16.716 -1.0989 -1.4372  1.2440
  583MPD2    H3 8702   0.312   0.372  16.960 -1.8689 -1.1646 -0.3482
  583MPD2     N 8703   0.057   0.757  16.972 -0.3321  0.4860 -0.1427
  583MPD2    H5 8704   0.025   0.832  16.912 -1.8541 -1.8563 -2.2434
  583MPD2    N1 8705   0.204   0.566  16.561  0.2235  0.4454  0.5530
  583MPD2    H7 8706   0.150   0.640  16.518  0.7768  0.6319  0.1834
  584TMC3    C1 8707   4.682   0.882  17.133  0.2066  0.1601  0.2102
  584TMC3    C2 8708   4.701   0.990  17.059 -0.0642 -0.2848 -0.4907
  584TMC3    C3 8709   4.659   1.110  17.105 -0.4058  0.6876  1.5377
  584TMC3    C4 8710   4.627   0.893  17.254  0.0482  0.0939 -0.0558
  584TMC3    C5 8711   4.594   1.013  17.307 -0.6497 -0.2869  0.1714
  584TMC3    C6 8712   4.617   1.126  17.233 -0.5825 -0.3644 -0.0763
  584TMC3     C 8713   0.021   0.764  17.105  0.0682 -0.2563 -0.9218
  584TMC3     O 8714   0.027   0.677  17.194 -0.9309  0.5578 -0.5044
  584TMC3     H 8715   4.731   0.989  16.955  0.7179 -3.2105 -0.2281
  584TMC3    H1 8716   4.602   0.800  17.304  1.2821  0.5344  1.3833
  584TMC3    H2 8717   4.582   1.222  17.268  0.6470  0.1049 -0.1419
  584TMC3    C7 8718   4.545   1.014  17.446  0.2981  0.5484 -0.0213
  584TMC3    C8 8719   4.671   1.218  17.009 -1.2497 -0.6552 -0.2183
  584TMC3    O1 8720   4.544   0.908  17.511  0.4637  0.2578 -0.0383
  584TMC3    O2 8721   4.642   1.199  16.893 -0.5362 -0.2350  0.0240
  585MPD2     C 8722   4.552   4.184   0.967  0.1959  0.1134 -0.0263
  585MPD2    C1 8723   4.609   4.146   0.851  0.3025 -0.3564  1.0794
  585MPD2    C2 8724   4.523   4.091   0.754 -0.4268 -0.5954 -0.6253
  585MPD2    C3 8725   4.383   4.090   0.767  0.1440 -0.2915  0.4731
  585MPD2    C4 8726   4.331   4.137   0.884 -0.2525  0.1145  0.1951
  585MPD2    C5 8727   4.418   4.169   0.984  0.1149 -0.3967 -0.2355
  585MPD2     H 8728   4.568   4.057   0.661  0.2414 -1.0992 -0.1190
  585MPD2    H1 8729   4.226   4.150   0.910  0.3306  2.1160  1.5336
  585MPD2    H2 8730   4.612   4.216   1.051 -0.9668  0.7837  0.5599
  585MPD2    H3 8731   4.368   4.196   1.077  0.4321  1.6636 -0.6657
  585MPD2     N 8732   4.304   4.075   0.649 -0.4667  0.0228  0.3349
  585MPD2    H5 8733   4.212   4.116   0.660 -0.8921 -0.8325 -0.0550
  585MPD2    N1 8734   0.006   4.170   0.833  0.0221  0.2308  0.2148
  585MPD2    H7 8735   0.059   4.171   0.919  2.9144 -2.6218 -1.5362
  586TMC3    C1 8736   4.239   3.985   0.435  0.4785 -0.4466 -0.0767
  586TMC3    C2 8737   4.272   3.905   0.329  0.2385  0.0018 -0.1436
  586TMC3    C3 8738   4.229   3.943   0.207  0.1039  0.1918  0.1612
  586TMC3    C4 8739   4.151   4.092   0.429 -0.5852 -0.5656  0.1751
  586TMC3    C5 8740   4.105   4.123   0.302 -0.2525 -0.1616  0.1675
  586TMC3    C6 8741   4.148   4.055   0.192  0.2431 -0.4724 -0.8112
  586TMC3     C 8742   4.340   4.001   0.535 -0.4524 -0.5298 -0.4127
  586TMC3     O 8743   4.437   3.929   0.518 -0.4245  0.0013  0.1270
  586TMC3     H 8744   4.334   3.817   0.342 -1.3598 -0.6984  2.6074
  586TMC3    H1 8745   4.112   4.154   0.509  1.2927 -1.0978  1.4734
  586TMC3    H2 8746   4.119   4.093   0.095  0.4841 -0.2925 -0.8153
  586TMC3    C7 8747   3.977   4.189   0.284  0.6624 -0.7900 -0.5652
  586TMC3    C8 8748   4.284   3.884   0.085  0.9843  0.8734 -0.4109
  586TMC3    O1 8749   3.882   4.131   0.324 -0.1134 -0.2878 -0.3254
  586TMC3    O2 8750   4.308   3.765   0.086 -0.4991  0.3035 -0.6085
  587TMC3    C1 8751   1.786   2.835  16.355 -0.0240 -0.0292 -0.2958
  587TMC3    C2 8752   1.751   2.967  16.325 -0.7150  1.0300  0.2936
  587TMC3    C3 8753   1.864   3.051  16.306 -0.0629 -0.7215 -0.7981
  587TMC3    C4 8754   1.923   2.797  16.352 -0.3514  0.1285  0.0679
  587TMC3    C5 8755   2.025   2.886  16.363 -1.0284  0.1211  0.1032
  587TMC3    C6 8756   1.996   3.013  16.331  0.5194 -0.4711  0.5997
  587TMC3     C 8757   1.686   2.730  16.343 -0.2779 -0.2945 -0.1240
  587TMC3     O 8758   1.728   2.617  16.309 -0.3154 -0.0369 -0.3743
  587TMC3     H 8759   1.650   3.005  16.317  0.3599  3.4186 -2.2241
  587TMC3    H1 8760   1.941   2.691  16.368  1.3197  0.3128 -0.5769
  587TMC3    H2 8761   2.073   3.089  16.340  0.3234 -0.2330  0.2739
  587TMC3    C7 8762   2.149   2.852  16.426  0.4149  0.2297 -0.5754
  587TMC3    C8 8763   1.840   3.195  16.287 -0.0236  0.9760  0.3896
  587TMC3    O1 8764   2.146   2.757  16.502  0.1402  0.4434  0.4055
  587TMC3    O2 8765   1.919   3.251  16.211 -0.3209 -0.1782  0.3605
  588TMC3    C1 8766   3.669   0.789  10.035 -0.0374  0.4897  0.5676
  588TMC3    C2 8767   3.647   0.652  10.039  0.0621 -0.2085 -0.3875
  588TMC3    C3 8768   3.742   0.570  10.103  0.3540 -0.1991 -0.0008
  588TMC3    C4 8769   3.785   0.839  10.087  0.1478  0.6244  0.4641
  588TMC3    C5 8770   3.874   0.758  10.148  0.7865  0.6620  0.0163
  588TMC3    C6 8771   3.862   0.622  10.154  0.0274 -0.7785  0.2297
  588TMC3     C 8772   3.550   0.876  10.029 -0.0643 -0.4726  0.0858
  588TMC3     O 8773   3.441   0.818  10.040  0.0405  0.3166  0.3280
  588TMC3     H 8774   3.546   0.618  10.018 -0.6498  1.0498  1.0063
  588TMC3    H1 8775   3.821   0.941  10.077 -2.0324  1.1060 -2.3239
  588TMC3    H2 8776   3.941   0.571  10.208  0.6180 -0.6132 -0.4852
  588TMC3    C7 8777   3.992   0.825  10.204 -0.6283 -0.0366 -0.4916
  588TMC3    C8 8778   3.699   0.437  10.141  0.0230  0.5351 -0.1959
  588TMC3    O1 8779   4.100   0.797  10.154  0.2890 -0.0200 -0.3343
  588TMC3    O2 8780   3.588   0.400  10.105 -0.3541  0.1610  0.2046
  589TMC3    C1 8781   3.788   3.483   1.566  0.2849  0.2538 -0.2343
  589TMC3    C2 8782   3.853   3.403   1.658 -0.0479 -0.2448 -0.2528
  589TMC3    C3 8783   3.878   3.273   1.616  0.2280 -0.0916  0.0361
  589TMC3    C4 8784   3.737   3.428   1.449  0.2010  0.0973  0.0537
  589TMC3    C5 8785   3.758   3.303   1.411 -0.6736 -0.2402 -0.5951
  589TMC3    C6 8786   3.837   3.225   1.491  0.2858  0.0484 -1.4708
  589TMC3     C 8787   3.796   3.626   1.586  0.6558 -0.0565  0.8999
  589TMC3     O 8788   3.895   3.665   1.642  0.3932  0.4640  0.3770
  589TMC3     H 8789   3.904   3.451   1.741 -0.3142 -0.0784 -0.1862
  589TMC3    H1 8790   3.707   3.499   1.373  0.2828 -0.2933 -0.3453
  589TMC3    H2 8791   3.840   3.117   1.480  2.2599  0.1119 -1.6821
  589TMC3    C7 8792   3.707   3.263   1.274  0.0977 -0.0912 -0.2447
  589TMC3    C8 8793   3.979   3.197   1.688  0.2530 -0.4703 -0.6932
  589TMC3    O1 8794   3.624   3.336   1.224  0.5103 -0.1459 -0.0065
  589TMC3    O2 8795   4.006   3.234   1.799 -0.0961 -0.0058 -0.2730
  590MPD2     C 8796   2.535   0.794  16.294 -0.1967 -0.3424 -0.0622
  590MPD2    C1 8797   2.487   0.895  16.208  0.3525  0.2604  0.3789
  590MPD2    C2 8798   2.579   0.987  16.167 -0.0202  0.4094  0.1562
  590MPD2    C3 8799   2.713   0.971  16.196 -0.2821  0.6392  0.4185
  590MPD2    C4 8800   2.753   0.866  16.275 -0.0336  0.1644  0.4177
  590MPD2    C5 8801   2.663   0.784  16.325 -0.8214  0.0537 -0.3030
  590MPD2     H 8802   2.546   1.071  16.108 -0.9133  0.4620  0.7340
  590MPD2    H1 8803   2.856   0.865  16.309 -0.1215 -3.9710  0.5991
  590MPD2    H2 8804   2.474   0.717  16.341 -1.0351  1.2230  1.4214
  590MPD2    H3 8805   2.693   0.702  16.390 -1.0527 -0.9553 -1.4649
  590MPD2     N 8806   2.800   1.079  16.158 -0.0090 -0.2981  0.2413
  590MPD2    H5 8807   2.755   1.150  16.102 -0.7998 -0.4623  0.6717
  590MPD2    N1 8808   2.348   0.913  16.177  0.9377  0.1215 -0.1253
  590MPD2    H7 8809   2.282   0.857  16.228  1.5706 -0.9492 -0.4711
  591TMC3    C1 8810   2.993   1.210  16.124 -0.2326  0.2430 -0.3249
  591TMC3    C2 8811   3.109   1.210  16.052 -0.2961  0.2865 -0.5130
  591TMC3    C3 8812   3.155   1.333  16.004 -0.7178 -0.8907 -0.2711
  591TMC3    C4 8813   2.926   1.325  16.147  0.0097  0.4262 -0.1124
  591TMC3    C5 8814   2.967   1.439  16.082 -0.1953 -0.2594 -0.0914
  591TMC3    C6 8815   3.079   1.445  16.005 -0.1708  0.1558 -0.9101
  591TMC3     C 8816   2.938   1.082  16.168 -0.1289 -0.8991  0.3220
  591TMC3     O 8817   3.012   0.988  16.191 -0.1719  0.3232 -0.0212
  591TMC3     H 8818   3.168   1.121  16.037 -1.1654 -0.8084  2.6405
  591TMC3    H1 8819   2.858   1.326  16.232  0.5207 -2.8896  0.3337
  591TMC3    H2 8820   3.099   1.538  15.951  2.3625 -0.1229 -0.4415
  591TMC3    C7 8821   2.891   1.558  16.082 -1.4821 -0.2668  0.0491
  591TMC3    C8 8822   3.266   1.328  15.905  0.1062  0.5375  0.0580
  591TMC3    O1 8823   2.865   1.606  15.968  0.1476 -0.5311  0.0273
  591TMC3    O2 8824   3.297   1.215  15.872  0.0970 -0.6900  0.5687
  592MPD2     C 8825   3.211   3.551  11.358  0.1550 -0.2248  0.0531
  592MPD2    C1 8826   3.233   3.538  11.493 -0.1024  0.1134 -0.5276
  592MPD2    C2 8827   3.161   3.444  11.566 -0.6396  0.0457  0.9343
  592MPD2    C3 8828   3.069   3.363  11.505  0.8021  0.0939  0.9288
  592MPD2    C4 8829   3.045   3.381  11.365 -0.0986 -0.2842  0.5623
  592MPD2    C5 8830   3.122   3.464  11.296 -0.3011 -0.0217  0.3096
  592MPD2     H 8831   3.193   3.425  11.669  3.1985  2.8224  0.2589
  592MPD2    H1 8832   2.969   3.331  11.305  0.8533  1.2648 -1.9605
  592MPD2    H2 8833   3.267   3.618  11.295 -0.5368 -0.1293 -0.4678
  592MPD2    H3 8834   3.095   3.462  11.191 -1.4549  0.8242  0.5867
  592MPD2     N 8835   2.999   3.271  11.584 -0.2195  0.2702 -0.5396
  592MPD2    H5 8836   3.035   3.272  11.679 -2.5566 -0.9148  0.3443
  592MPD2    N1 8837   3.323   3.629  11.556  0.3041 -0.8191 -0.2534
  592MPD2    H7 8838   3.366   3.705  11.506  0.6137 -1.0222 -0.2969
  593TMC3    C1 8839   3.426   3.750  11.732  0.3628  0.2322  0.3590
  593TMC3    C2 8840   3.425   3.787  11.865  0.1616 -0.1795 -0.1984
  593TMC3    C3 8841   3.506   3.887  11.905  0.5573  1.0026  0.2361
  593TMC3    C4 8842   3.520   3.798  11.645 -0.1894 -0.1700 -0.1630
  593TMC3    C5 8843   3.591   3.904  11.686  0.0833  0.1373  0.8069
  593TMC3    C6 8844   3.588   3.947  11.813 -0.0912  0.0659 -0.0746
  593TMC3     C 8845   3.338   3.640  11.693  0.4568 -0.5688  0.0102
  593TMC3     O 8846   3.276   3.586  11.784  0.1206 -0.0823  0.6220
  593TMC3     H 8847   3.346   3.748  11.927  1.4831 -1.9683  0.3380
  593TMC3    H1 8848   3.541   3.762  11.545  0.4741 -0.5314  0.1072
  593TMC3    H2 8849   3.664   4.017  11.844  0.3476  0.2219 -1.5417
  593TMC3    C7 8850   3.667   3.991  11.599 -0.3145 -0.2403 -0.1862
  593TMC3    C8 8851   3.453   3.966  12.012  0.2654  0.1007  0.3369
  593TMC3    O1 8852   3.767   4.042  11.642  0.2167 -0.0284 -0.3814
  593TMC3    O2 8853   3.332   3.965  12.037 -0.8769 -0.1023 -0.3946
  594MPD2     C 8854   1.920   1.706  14.143 -0.4832 -0.6854 -0.7960
  594MPD2    C1 8855   1.906   1.776  14.258  0.0488  0.5202 -0.2783
  594MPD2    C2 8856   1.984   1.889  14.294  0.0355 -0.6074  0.0403
  594MPD2    C3 8857   2.072   1.939  14.201  0.1780 -0.0191 -0.1746
  594MPD2    C4 8858   2.096   1.864  14.089  0.1743 -0.4251  0.1395
  594MPD2    C5 8859   2.015   1.750  14.056 -0.4347  0.3432  0.2428
  594MPD2     H 8860   1.977   1.942  14.388 -2.4182 -1.0253  0.0947
  594MPD2    H1 8861   2.165   1.901  14.014  0.4938  0.1534  0.7197
  594MPD2    H2 8862   1.848   1.626  14.128  1.7460 -2.9411  0.4756
  594MPD2    H3 8863   2.034   1.694  13.965  0.1447  0.9578 -0.0227
  594MPD2     N 8864   2.133   2.065  14.225  0.1846 -0.2397 -0.2265
  594MPD2    H5 8865   2.133   2.094  14.323  1.1812  0.2276 -0.3633
  594MPD2    N1 8866   1.804   1.728  14.344 -0.0074  0.0123  0.0060
  594MPD2    H7 8867   1.736   1.673  14.292 -1.3408  1.8270 -0.1847
  595TMC3    C1 8868   2.329   2.487  14.143 -0.0310 -0.5444 -0.2323
  595TMC3    C2 8869   2.317   2.353  14.118  0.1337  0.1267 -1.0684
  595TMC3    C3 8870   2.225   2.279  14.189  0.3610 -0.7354 -0.0936
  595TMC3    C4 8871   2.254   2.549  14.234  0.2835  1.1823  0.4217
  595TMC3    C5 8872   2.169   2.469  14.310 -0.2398  0.0716 -0.7462
  595TMC3    C6 8873   2.141   2.333  14.289 -0.3942 -0.3498  0.9475
  595TMC3     C 8874   2.471   2.525  14.145 -0.0636  0.0568 -0.1038
  595TMC3     O 8875   2.543   2.442  14.189  0.1570  0.3376  0.0176
  595TMC3     H 8876   2.379   2.305  14.044  0.2915 -0.6722 -0.4206
  595TMC3    H1 8877   2.276   2.650  14.264 -0.1202  1.5945 -0.6679
  595TMC3    H2 8878   2.070   2.277  14.348  0.1383  1.0769  2.9274
  595TMC3    C7 8879   2.154   2.487  14.451  0.5561  0.0779 -0.2832
  595TMC3    C8 8880   2.204   2.147  14.134 -0.1778 -0.6172  0.0557
  595TMC3    O1 8881   2.118   2.392  14.523 -0.0572 -0.1275  0.1433
  595TMC3    O2 8882   2.211   2.147  14.015  0.1837 -0.0873 -0.0694
  596MPD2     C 8883   1.164   0.361  16.654 -0.0017  0.0555 -0.4158
  596MPD2    C1 8884   1.115   0.469  16.571 -0.5260  0.3839 -0.1590
  596MPD2    C2 8885   1.088   0.439  16.443 -0.2996 -0.3102 -0.6444
  596MPD2    C3 8886   1.120   0.317  16.382  0.5263 -0.2214  0.5322
  596MPD2    C4 8887   1.180   0.216  16.456 -1.0888  0.0180 -0.4287
  596MPD2    C5 8888   1.195   0.235  16.595 -0.0560 -0.5062  1.0085
  596MPD2     H 8889   1.059   0.521  16.378 -0.7215  1.2400  1.4937
  596MPD2    H1 8890   1.212   0.118  16.423  2.4094  2.0833 -3.1262
  596MPD2    H2 8891   1.178   0.366  16.761  0.2494  0.3315 -0.4633
  596MPD2    H3 8892   1.231   0.162  16.667  2.9442  0.9567  0.9844
  596MPD2     N 8893   1.077   0.284  16.249 -0.3106 -0.3432 -0.8055
  596MPD2    H5 8894   1.095   0.191  16.212 -1.4083 -0.4642 -1.0413
  596MPD2    N1 8895   1.080   0.595  16.613 -0.1747 -1.0730 -0.2584
  596MPD2    H7 8896   1.056   0.662  16.541  2.5429  1.7625  1.4529
  597TMC3    C1 8897   0.994   0.763  16.742  0.0215 -0.1537  0.2558
  597TMC3    C2 8898   1.052   0.864  16.666 -0.0279  0.3807 -0.1335
  597TMC3    C3 8899   1.018   0.992  16.693 -0.3836 -0.6621  0.8482
  597TMC3    C4 8900   0.897   0.787  16.833 -1.0131  0.0303  0.2594
  597TMC3    C5 8901   0.862   0.918  16.846 -0.1441  0.0782 -0.7838
  597TMC3    C6 8902   0.912   1.025  16.774 -0.5431 -0.4136 -0.4052
  597TMC3     C 8903   1.040   0.624  16.742 -0.4296 -0.6475  0.0336
  597TMC3     O 8904   1.045   0.556  16.846 -0.7731  0.7739 -0.4521
  597TMC3     H 8905   1.141   0.840  16.608 -1.3880 -0.1208 -2.0108
  597TMC3    H1 8906   0.854   0.710  16.895  0.3527 -0.4937  0.5580
  597TMC3    H2 8907   0.877   1.127  16.786 -2.1705 -1.1488  1.0464
  597TMC3    C7 8908   0.743   0.938  16.926 -0.1579 -0.1396  0.6948
  597TMC3    C8 8909   1.064   1.095  16.608  0.6075 -0.6149  0.0053
  597TMC3    O1 8910   0.736   0.861  17.020  0.0235  0.2276  0.2414
  597TMC3    O2 8911   1.072   1.208  16.653 -0.3881 -0.3216  0.0342
  598TMC3    C1 8912   3.941   1.946  15.409 -0.4211  0.5239  0.4131
  598TMC3    C2 8913   3.840   1.854  15.373 -0.4561  0.1220  0.2013
  598TMC3    C3 8914   3.757   1.883  15.268 -0.2065 -0.0230  0.2097
  598TMC3    C4 8915   3.939   2.073  15.359 -0.1789  0.0294 -0.2909
  598TMC3    C5 8916   3.845   2.099  15.257  0.1453  0.5549  0.0642
  598TMC3    C6 8917   3.759   2.003  15.209  0.6066 -0.1251 -0.0556
  598TMC3     C 8918   4.047   1.909  15.504  0.2956  0.1923 -0.4059
  598TMC3     O 8919   4.093   2.001  15.562 -0.5741 -0.3045  0.0757
  598TMC3     H 8920   3.827   1.759  15.424  3.3013 -1.0029 -0.9340
  598TMC3    H1 8921   4.003   2.154  15.391 -1.4274  0.1573  1.8575
  598TMC3    H2 8922   3.682   2.022  15.135  1.2381 -0.0718 -0.7032
  598TMC3    C7 8923   3.837   2.233  15.205  0.2435 -0.0108  0.0702
  598TMC3    C8 8924   3.624   1.848  15.289 -0.7536  0.0278  0.1577
  598TMC3    O1 8925   3.893   2.322  15.271  0.5358  0.5788 -0.3911
  598TMC3    O2 8926   3.560   1.932  15.352 -0.0884  0.1568 -0.0289
  599MPD2     C 8927   3.733   4.112  15.660  0.4154  0.3164 -0.2692
  599MPD2    C1 8928   3.828   4.101  15.758  0.4674 -0.0764 -0.1575
  599MPD2    C2 8929   3.799   4.152  15.884  0.3235 -0.0470  0.5535
  599MPD2    C3 8930   3.692   4.230  15.905  1.0322 -0.1910 -0.0981
  599MPD2    C4 8931   3.596   4.244  15.808  0.2684  0.2619  0.4965
  599MPD2    C5 8932   3.617   4.192  15.685 -0.1748  0.1865 -0.0829
  599MPD2     H 8933   3.863   4.119  15.964  3.7003  1.9881 -1.3114
  599MPD2    H1 8934   3.512   4.308  15.833  0.3725  0.8717 -0.6640
  599MPD2    H2 8935   3.742   4.073  15.559 -1.5587  0.1197 -0.3607
  599MPD2    H3 8936   3.543   4.203  15.607  0.1949  0.8254 -0.3402
  599MPD2     N 8937   3.675   4.276  16.034 -0.1374  0.0685 -0.0406
  599MPD2    H5 8938   3.750   4.254  16.099  2.1069  3.2829 -1.5574
  599MPD2    N1 8939   3.946   4.018  15.746 -0.4291  0.1253 -0.1573
  599MPD2    H7 8940   3.955   3.960  15.663  1.7862 -0.6227  0.6072
  600TMC3    C1 8941   3.615   4.418  16.211 -0.7309 -0.1261  0.0361
  600TMC3    C2 8942   3.616   4.332  16.319  0.1688 -0.7487  0.8318
  600TMC3    C3 8943   3.634   4.392  16.439  0.0606  0.0641  0.1115
  600TMC3    C4 8944   3.644   4.551  16.218 -0.0448  0.3410  0.2780
  600TMC3    C5 8945   3.657   4.607  16.342  0.4761  0.7912  0.3408
  600TMC3    C6 8946   3.648   4.533  16.456  1.0411  0.0721 -1.2185
  600TMC3     C 8947   3.577   4.366  16.079 -0.2358  0.6643  0.9612
  600TMC3     O 8948   3.489   4.426  16.018 -0.0361 -0.8170 -0.0578
  600TMC3     H 8949   3.608   4.224  16.312  0.8818 -0.7146 -0.5050
  600TMC3    H1 8950   3.618   4.603  16.127  1.7458 -0.0964 -0.4882
  600TMC3    H2 8951   3.656   4.574  16.556  0.6594 -1.3279 -0.6111
  600TMC3    C7 8952   3.647   0.008  16.359  0.3420 -0.0680  0.5765
  600TMC3    C8 8953   3.656   4.318  16.555  0.1241 -0.1179 -0.0290
  600TMC3    O1 8954   3.605   0.057  16.464 -0.2886 -0.0490  0.1696
  600TMC3    O2 8955   3.749   4.351  16.628  0.0794 -0.0101 -0.4343
  601MPD2     C 8956   1.153   2.730   0.517  0.0429  0.2894 -0.8342
  601MPD2    C1 8957   1.111   2.682   0.394 -0.0245 -0.0116  0.1034
  601MPD2    C2 8958   1.054   2.559   0.393  0.6104  0.4795 -0.4290
  601MPD2    C3 8959   1.031   2.489   0.506  0.3044  0.0942  0.0060
  601MPD2    C4 8960   1.078   2.538   0.629  0.4036  0.3815 -0.1029
  601MPD2    C5 8961   1.131   2.661   0.633 -0.1797  0.2377  0.0713
  601MPD2     H 8962   1.000   2.541   0.301  0.9507 -0.2497 -0.4821
  601MPD2    H1 8963   1.044   2.482   0.715 -1.7530 -0.6807 -1.6663
  601MPD2    H2 8964   1.176   2.833   0.541  0.2240 -0.3993  1.9376
  601MPD2    H3 8965   1.151   2.711   0.727 -1.4417  1.0262 -0.0715
  601MPD2     N 8966   0.953   2.370   0.510  1.1041  0.4885 -0.1255
  601MPD2    H5 8967   0.926   2.324   0.597  1.4223 -0.0783 -0.3295
  601MPD2    N1 8968   1.106   2.754   0.271 -0.1664 -0.2688  0.0319
  601MPD2    H7 8969   1.067   2.705   0.191 -0.6850  0.0519  0.0887
  602TMC3    C1 8970   1.141   2.927   0.124 -0.2264 -0.5820  0.9344
  602TMC3    C2 8971   1.124   3.060   0.108  0.2912 -0.3737 -1.2764
  602TMC3    C3 8972   1.087   3.106  17.736 -0.3188  0.2019  0.3446
  602TMC3    C4 8973   1.111   2.837   0.029  0.5536 -0.1102 -0.1456
  602TMC3    C5 8974   1.089   2.892  17.652 -0.1503  0.0160 -0.1690
  602TMC3    C6 8975   1.077   3.029  17.624 -0.6825  0.3750  0.2294
  602TMC3     C 8976   1.152   2.878   0.257 -0.2024 -0.1086 -0.3063
  602TMC3     O 8977   1.195   2.952   0.344 -0.1974  0.0936  0.0258
  602TMC3     H 8978   1.147   3.133   0.184  2.2344 -0.2681 -1.9798
  602TMC3    H1 8979   1.123   2.730   0.038  0.0847 -0.0854  0.7221
  602TMC3    H2 8980   1.065   3.069  17.523  0.5456  0.0382 -0.0429
  602TMC3    C7 8981   1.055   2.803  17.543  0.0924  0.2896  0.1409
  602TMC3    C8 8982   1.020   3.237  17.732  0.2445  0.7000  0.0335
  602TMC3    O1 8983   1.102   2.689  17.540 -0.4211  0.0533  0.0075
  602TMC3    O2 8984   1.031   3.295   0.091  0.3861  0.1712 -0.2419
  603TMC3    C1 8985   3.713   3.030  11.300  0.0071 -1.1224 -0.6284
  603TMC3    C2 8986   3.705   3.016  11.438 -0.1444  0.3290 -0.1034
  603TMC3    C3 8987   3.765   3.115  11.515 -0.4356 -0.5570 -0.0012
  603TMC3    C4 8988   3.764   3.144  11.242  0.5144  0.0448  0.1425
  603TMC3    C5 8989   3.836   3.233  11.320 -0.7566 -0.0730 -0.2311
  603TMC3    C6 8990   3.832   3.222  11.456  0.0166 -0.3167 -0.4823
  603TMC3     C 8991   3.631   2.942  11.218  0.8511 -0.1735 -0.0024
  603TMC3     O 8992   3.610   2.988  11.110  0.8685 -0.1782 -0.5396
  603TMC3     H 8993   3.660   2.939  11.499  0.5220 -1.2585 -1.6257
  603TMC3    H1 8994   3.758   3.158  11.134 -2.1087 -1.2668  0.1092
  603TMC3    H2 8995   3.892   3.287  11.519 -0.1288 -0.8163  0.1751
  603TMC3    C7 8996   3.926   3.337  11.272  0.1308 -0.0106 -0.6008
  603TMC3    C8 8997   3.776   3.085  11.658 -0.1070  0.1553 -0.0084
  603TMC3    O1 8998   4.020   3.369  11.342 -0.1709  0.3136  0.1609
  603TMC3    O2 8999   3.751   2.977  11.698 -0.7367  0.3730  0.0349
  604MPD2     C 9000   0.159   1.695  16.189  0.5301 -0.3909  0.3631
  604MPD2    C1 9001   0.052   1.632  16.141  1.2517  0.6521  0.1778
  604MPD2    C2 9002   0.056   1.583  16.013  0.3110  0.1370 -0.7022
  604MPD2    C3 9003   0.167   1.609  15.932  0.3230 -0.3451 -0.0909
  604MPD2    C4 9004   0.266   1.687  15.982 -0.5548  1.1237 -0.2674
  604MPD2    C5 9005   0.268   1.725  16.109 -0.2383  0.6082  0.2942
  604MPD2     H 9006   4.712   1.519  15.980  0.6071 -0.5884 -0.0610
  604MPD2    H1 9007   0.354   1.724  15.929 -0.7700  0.0237 -1.3959
  604MPD2    H2 9008   0.147   1.744  16.285  0.9822  0.2659  0.0798
  604MPD2    H3 9009   0.352   1.780  16.149 -1.6065  3.2247 -0.4527
  604MPD2     N 9010   0.178   1.569  15.800 -0.1170 -0.2262  0.0596
  604MPD2    H5 9011   0.091   1.545  15.753  0.0236  0.6710 -0.6613
  604MPD2    N1 9012   4.677   1.636  16.214  0.3820 -0.3031  0.2610
  604MPD2    H7 9013   4.683   1.668  16.310 -2.1256 -1.8821  0.9249
  605TMC3    C1 9014   4.456   1.646  16.284 -0.0208  0.3999  0.1075
  605TMC3    C2 9015   4.513   1.642  16.412  0.5516 -0.6699  0.7748
  605TMC3    C3 9016   4.490   1.749  16.492 -0.3995  1.0688  0.1148
  605TMC3    C4 9017   4.374   1.743  16.243 -0.1904  0.2429 -0.3714
  605TMC3    C5 9018   4.328   1.830  16.335  0.5498  0.2182 -0.3894
  605TMC3    C6 9019   4.386   1.836  16.461 -0.5401 -0.3969 -0.0069
  605TMC3     C 9020   4.546   1.602  16.182  0.0269  0.1603 -0.5381
  605TMC3     O 9021   4.500   1.558  16.080 -0.3147 -0.0201  0.1183
  605TMC3     H 9022   4.593   1.571  16.432  1.2251  0.3745  1.7746
  605TMC3    H1 9023   4.336   1.738  16.142  0.9472 -0.5086 -0.7704
  605TMC3    H2 9024   4.377   1.929  16.515  2.0945 -0.2509  0.1865
  605TMC3    C7 9025   4.231   1.927  16.306  0.9756 -0.1651 -0.0562
  605TMC3    C8 9026   4.615   1.815  16.524 -0.4218  0.1951 -0.1818
  605TMC3    O1 9027   4.196   2.002  16.395  0.1185  0.1646 -0.3365
  605TMC3    O2 9028   4.712   1.778  16.462  0.4181  0.1300 -0.5475
  606TMC3    C1 9029   1.181   0.682   0.271 -0.1712  0.1490 -0.1723
  606TMC3    C2 9030   1.196   0.717   0.402  0.0365 -0.4710  0.2406
  606TMC3    C3 9031   1.121   0.647   0.502  0.3918  0.3864  0.7032
  606TMC3    C4 9032   1.094   0.584   0.236 -0.3076 -0.0783  0.5389
  606TMC3    C5 9033   1.022   0.519   0.338  0.3896 -0.5715 -1.1634
  606TMC3    C6 9034   1.048   0.535   0.477  0.7011 -0.1630  0.0973
  606TMC3     C 9035   1.280   0.715   0.178  0.6811 -0.0318 -0.0618
  606TMC3     O 9036   1.378   0.772   0.228  0.1553 -0.6214 -0.5308
  606TMC3     H 9037   1.274   0.789   0.422 -0.6013  0.5752 -1.0145
  606TMC3    H1 9038   1.074   0.547   0.136 -0.6044  0.8471  0.2517
  606TMC3    H2 9039   1.003   0.479   0.558  2.6273  0.6374  1.7168
  606TMC3    C7 9040   0.938   0.406   0.300 -0.1537  0.6459  0.1850
  606TMC3    C8 9041   1.174   0.662   0.638 -0.2210  0.6322 -0.8630
  606TMC3    O1 9042   0.938   0.375   0.180  0.0893  0.7006  0.2688
  606TMC3    O2 9043   1.161   0.571   0.720 -0.0602  0.1079  0.1950
  607MPD2     C 9044   3.081   2.995  11.869 -0.4398 -0.6004 -0.3323
  607MPD2    C1 9045   3.117   3.031  11.996 -0.2491 -0.3069 -0.4440
  607MPD2    C2 9046   3.067   2.959  12.102  0.2412 -0.1841 -0.6502
  607MPD2    C3 9047   2.989   2.850  12.089 -0.6410  0.2466  0.4076
  607MPD2    C4 9048   2.949   2.812  11.961 -0.5196  0.3831 -0.0755
  607MPD2    C5 9049   2.998   2.886  11.854 -0.1843  0.2203 -0.2157
  607MPD2     H 9050   3.099   2.997  12.199 -0.7884 -0.5277 -0.1844
  607MPD2    H1 9051   2.889   2.724  11.939 -0.8477  0.9725 -1.5307
  607MPD2    H2 9052   3.107   3.048  11.778  1.3776 -2.0176 -0.6399
  607MPD2    H3 9053   2.969   2.868  11.751  1.1383  0.5104 -0.6344
  607MPD2     N 9054   2.948   2.787  12.207  0.4528 -0.3843 -0.5703
  607MPD2    H5 9055   2.970   2.829  12.296  3.1652 -0.3055 -1.3045
  607MPD2    N1 9056   3.202   3.137  12.029  0.0300 -0.7034 -0.4866
  607MPD2    H7 9057   3.245   3.137  12.121  2.3224  0.2718 -1.5394
  608TMC3    C1 9058   3.312   3.338  12.031 -1.3447  0.1691  1.0746
  608TMC3    C2 9059   3.304   3.319  12.167 -0.7879  0.1019 -0.4733
  608TMC3    C3 9060   3.383   3.396  12.246  0.7841  0.4538  0.2898
  608TMC3    C4 9061   3.412   3.409  11.975 -0.1945  0.4875  0.4153
  608TMC3    C5 9062   3.495   3.476  12.061 -0.3372 -0.3095  0.2017
  608TMC3    C6 9063   3.481   3.474  12.199 -0.1495  0.2050  0.3176
  608TMC3     C 9064   3.234   3.244  11.954 -0.1576  0.2803  0.4049
  608TMC3     O 9065   3.196   3.273  11.841 -0.3870 -0.6950  0.0058
  608TMC3     H 9066   3.220   3.278  12.222 -0.3924 -2.6873 -1.9253
  608TMC3    H1 9067   3.421   3.402  11.867  0.3739 -1.2338  0.5778
  608TMC3    H2 9068   3.530   3.546  12.263  1.2941  0.3823 -0.9770
  608TMC3    C7 9069   3.612   3.533  11.999  0.3636 -0.0832  0.9781
  608TMC3    C8 9070   3.370   3.392  12.390 -0.2730 -0.4726 -0.4474
  608TMC3    O1 9071   3.611   3.520  11.876 -0.4819 -0.1925 -0.1489
  608TMC3    O2 9072   3.387   3.493  12.454 -0.1113  0.1545  0.0538
  609TMC3    C1 9073   2.446   3.154   9.381 -0.4250  0.5275 -0.3478
  609TMC3    C2 9074   2.533   3.239   9.311  0.0904 -0.2547 -0.1475
  609TMC3    C3 9075   2.650   3.181   9.262  0.5618 -0.1600  0.5186
  609TMC3    C4 9076   2.482   3.028   9.418 -0.3025 -0.2071 -0.2106
  609TMC3    C5 9077   2.601   2.982   9.363 -0.5178  0.7468 -0.2431
  609TMC3    C6 9078   2.684   3.049   9.277 -1.1981 -0.7463  0.6983
  609TMC3     C 9079   2.328   3.207   9.444 -0.1636  0.6386  0.6816
  609TMC3     O 9080   2.247   3.118   9.475 -0.3624  0.2009 -0.1941
  609TMC3     H 9081   2.503   3.342   9.296 -1.1454 -0.6473 -0.3249
  609TMC3    H1 9082   2.413   2.967   9.475 -0.8404 -0.0591 -0.6949
  609TMC3    H2 9083   2.782   3.015   9.243 -1.7545 -0.3583 -1.2906
  609TMC3    C7 9084   2.652   2.867   9.442  0.0514 -0.4331  0.2515
  609TMC3    C8 9085   2.762   3.273   9.213 -0.0677 -0.3783 -0.7197
  609TMC3    O1 9086   2.599   2.848   9.550  0.3738 -0.1937  0.2335
  609TMC3    O2 9087   2.836   3.220   9.132  0.0894 -0.0819 -0.5498
  610TMC3    C1 9088   3.520   2.801  12.990  0.2556 -0.1984  1.1756
  610TMC3    C2 9089   3.514   2.861  12.869  0.7604 -0.0257  0.2015
  610TMC3    C3 9090   3.480   2.778  12.763 -0.6511  0.4122  0.1414
  610TMC3    C4 9091   3.525   2.665  13.003  0.2526  0.6994 -0.2824
  610TMC3    C5 9092   3.515   2.587  12.894 -0.3803  0.1764 -0.5229
  610TMC3    C6 9093   3.486   2.644  12.770 -0.3764  0.2175 -0.1367
  610TMC3     C 9094   3.435   2.860  13.087 -0.4202 -0.5644 -0.6296
  610TMC3     O 9095   3.383   2.779  13.163 -0.6605  0.3342  0.1765
  610TMC3     H 9096   3.499   2.968  12.859  0.0992 -0.1582 -0.2270
  610TMC3    H1 9097   3.542   2.614  13.097  1.6237  3.2338  0.8381
  610TMC3    H2 9098   3.480   2.578  12.683 -1.3588  0.0894  0.0278
  610TMC3    C7 9099   3.602   2.474  12.905 -0.6932  0.2296 -0.0060
  610TMC3    C8 9100   3.501   2.829  12.626 -0.2079  0.1593 -0.4416
  610TMC3    O1 9101   3.673   2.459  13.007  0.1817 -0.1681 -0.0257
  610TMC3    O2 9102   3.582   2.918  12.601 -0.2957 -0.2110 -0.3436
  611MPD2     C 9103   3.409   3.086  10.327  0.8023  0.1983 -0.3277
  611MPD2    C1 9104   3.324   3.195  10.362 -0.6232  0.7560 -0.5226
  611MPD2    C2 9105   3.374   3.327  10.382 -0.1860 -0.1355 -0.0657
  611MPD2    C3 9106   3.511   3.343  10.365  0.3611  0.3959  0.3354
  611MPD2    C4 9107   3.595   3.242  10.318 -0.8949  0.8985  0.2879
  611MPD2    C5 9108   3.537   3.121  10.293  0.4266 -0.4452 -0.8332
  611MPD2     H 9109   3.311   3.405  10.420 -0.8740 -0.5825 -0.2874
  611MPD2    H1 9110   3.703   3.245  10.310 -0.9403  0.6070 -0.4166
  611MPD2    H2 9111   3.380   2.983  10.316  0.0785  0.4057 -0.3529
  611MPD2    H3 9112   3.602   3.036  10.274 -1.8777 -2.5763  0.9028
  611MPD2     N 9113   3.560   3.479  10.396  0.0695  0.1421 -0.0296
  611MPD2    H5 9114   3.660   3.491  10.380  0.2324  0.3676  1.2020
  611MPD2    N1 9115   3.181   3.161  10.368  0.3007 -0.5232 -0.1626
  611MPD2    H7 9116   3.154   3.063  10.367 -1.6991  0.0232 -0.7971
  612TMC3    C1 9117   3.577   3.699  10.448 -0.3229 -0.4713  0.0308
  612TMC3    C2 9118   3.677   3.678  10.542 -0.5018  1.0422  0.1358
  612TMC3    C3 9119   3.722   3.789  10.611 -0.3865 -0.5788 -0.2096
  612TMC3    C4 9120   3.526   3.827  10.423 -0.1305 -0.1780  0.2641
  612TMC3    C5 9121   3.579   3.937  10.501  0.6143  1.2087 -0.0091
  612TMC3    C6 9122   3.686   3.919  10.582 -0.3279  0.3555  0.2861
  612TMC3     C 9123   3.488   3.592  10.416  0.0986 -0.1786 -0.2229
  612TMC3     O 9124   3.366   3.611  10.411 -0.1418 -0.0833 -0.7896
  612TMC3     H 9125   3.715   3.581  10.571 -1.6982  1.1314  2.0133
  612TMC3    H1 9126   3.433   3.843  10.369 -0.7738  0.3440  1.5326
  612TMC3    H2 9127   3.729   4.002  10.636 -0.0932 -0.1042  0.8064
  612TMC3    C7 9128   3.523   4.075  10.504  0.0790 -0.1354  0.2455
  612TMC3    C8 9129   3.833   3.772  10.700 -0.1216 -0.3137  0.1715
  612TMC3    O1 9130   3.585   4.153  10.583 -0.2705  0.0317  0.2677
  612TMC3    O2 9131   3.918   3.859  10.709 -0.3583 -0.6384 -0.4023
  613MPD2     C 9132   2.038   0.120  16.772 -0.4472 -0.2209  0.0757
  613MPD2    C1 9133   2.011   0.197  16.660 -0.0362 -0.1710 -0.5461
  613MPD2    C2 9134   1.883   0.198  16.603  0.2908 -0.6584  0.5075
  613MPD2    C3 9135   1.788   0.110  16.653 -0.2030 -0.6897 -0.0551
  613MPD2    C4 9136   1.816   0.033  16.766  0.7686  0.4386  0.2090
  613MPD2    C5 9137   1.938   0.036  16.819 -0.3601  0.9490 -1.0660
  613MPD2     H 9138   1.867   0.252  16.510  0.1170 -0.9863  0.3496
  613MPD2    H1 9139   1.741   4.712  16.817  1.5868 -0.0324  0.8771
  613MPD2    H2 9140   2.135   0.106  16.819 -0.4402 -1.0569 -0.1813
  613MPD2    H3 9141   1.963   4.704  16.898 -1.4119  1.3856 -0.3472
  613MPD2     N 9142   1.661   0.099  16.595 -0.0043 -0.5817  0.3728
  613MPD2    H5 9143   1.617   0.011  16.617  0.0925 -0.8874 -0.6693
  613MPD2    N1 9144   2.120   0.256  16.596 -0.2874 -0.3033  0.8593
  613MPD2    H7 9145   2.214   0.222  16.614 -0.1757  1.1847  3.1740
  614TMC3    C1 9146   2.214   0.410  16.441  0.3938  0.2844 -0.4260
  614TMC3    C2 9147   2.261   0.301  16.373  0.1555  0.3855 -0.2263
  614TMC3    C3 9148   2.257   0.303  16.236 -0.1726  0.1232 -0.0906
  614TMC3    C4 9149   2.184   0.526  16.377 -0.1015  0.3389 -0.0498
  614TMC3    C5 9150   2.188   0.531  16.241 -0.5121  1.3320 -0.9658
  614TMC3    C6 9151   2.228   0.417  16.168  0.2844  0.0692 -0.6872
  614TMC3     C 9152   2.102   0.373  16.528 -0.5095 -0.1767  0.2412
  614TMC3     O 9153   2.005   0.449  16.528  0.4320  0.6337  0.6868
  614TMC3     H 9154   2.283   0.205  16.418  0.5077 -0.4143 -2.1066
  614TMC3    H1 9155   2.135   0.605  16.435  0.5212  0.2591  0.5851
  614TMC3    H2 9156   2.225   0.416  16.059  2.4221 -0.4464 -0.7575
  614TMC3    C7 9157   2.112   0.635  16.169 -1.1254  0.4512 -0.5927
  614TMC3    C8 9158   2.187   0.197  16.178  0.2698  0.4068  0.1258
  614TMC3    O1 9159   2.083   0.729  16.239 -0.0788 -0.4916  0.1438
  614TMC3    O2 9160   2.088   0.232  16.112 -0.0699 -0.1502 -0.1501
  615MPD2     C 9161   1.528   1.689  15.412 -0.1526 -0.7950 -1.1077
  615MPD2    C1 9162   1.424   1.774  15.427  0.0404  0.2819 -0.1215
  615MPD2    C2 9163   1.326   1.785  15.330  0.0270 -0.1201 -0.4296
  615MPD2    C3 9164   1.345   1.725  15.211  0.3308 -0.2663 -0.8695
  615MPD2    C4 9165   1.452   1.643  15.194  0.0506 -0.0500  0.9855
  615MPD2    C5 9166   1.543   1.622  15.292 -0.1300  0.0494  0.9053
  615MPD2     H 9167   1.244   1.856  15.335 -1.0023 -1.4150  1.0575
  615MPD2    H1 9168   1.456   1.592  15.098  0.9241  0.1743  0.8999
  615MPD2    H2 9169   1.603   1.674  15.489  0.3919 -0.9527 -1.6765
  615MPD2    H3 9170   1.629   1.557  15.278  1.9968  2.6461  2.0446
  615MPD2     N 9171   1.259   1.734  15.096 -0.1161  0.9632 -0.2149
  615MPD2    H5 9172   1.306   1.702  15.012 -2.0362  0.2375 -1.0172
  615MPD2    N1 9173   1.416   1.872  15.534  0.3078  0.0600  0.1199
  615MPD2    H7 9174   1.348   1.944  15.511  0.7329  0.7879  1.1358
  616TMC3    C1 9175   1.454   1.985  15.731 -0.2673  0.0680  0.1750
  616TMC3    C2 9176   1.528   2.005  15.849 -0.0697 -0.2703 -0.0765
  616TMC3    C3 9177   1.481   2.086  15.949 -0.6234 -0.0616 -0.0122
  616TMC3    C4 9178   1.327   2.046  15.722 -0.3527 -0.3194  0.0780
  616TMC3    C5 9179   1.279   2.118  15.830  0.2202 -0.3537 -0.7128
  616TMC3    C6 9180   1.350   2.133  15.944 -0.2067 -0.2913  0.4190
  616TMC3     C 9181   1.491   1.878  15.644 -0.0689  0.2132 -0.4661
  616TMC3     O 9182   1.591   1.815  15.678  0.3079  1.1069  0.1848
  616TMC3     H 9183   1.619   1.947  15.861 -0.0293  0.1366  1.5577
  616TMC3    H1 9184   1.253   2.015  15.648 -0.1414  0.6505 -0.5397
  616TMC3    H2 9185   1.309   2.186  16.030 -0.2311  0.9888 -0.3848
  616TMC3    C7 9186   1.142   2.169  15.829  0.1274 -0.8482 -0.1739
  616TMC3    C8 9187   1.535   2.059  16.079 -0.5303 -0.2936  0.5370
  616TMC3    O1 9188   1.092   2.193  15.936  0.1236  0.1886 -0.3162
  616TMC3    O2 9189   1.456   2.029  16.168 -0.2778 -0.0892 -0.7789
  617MPD2     C 9190   0.045   0.151  13.803 -0.0985  0.1721  0.2094
  617MPD2    C1 9191   0.058   0.125  13.939 -0.1589  0.5926  0.6588
  617MPD2    C2 9192   4.692   0.067  14.002 -0.5874 -0.6047 -0.0952
  617MPD2    C3 9193   4.569   0.053  13.931  0.3194  0.4328 -0.1198
  617MPD2    C4 9194   4.548   0.102  13.807  0.0741  0.0450 -0.3076
  617MPD2    C5 9195   4.656   0.144  13.740 -0.2025 -0.1187  0.1840
  617MPD2     H 9196   4.710   0.052  14.107 -3.5356  1.9811  0.7877
  617MPD2    H1 9197   4.449   0.105  13.762  0.4933  0.6883 -1.1791
  617MPD2    H2 9198   0.129   0.186  13.746  0.4655  0.9332  1.5175
  617MPD2    H3 9199   4.646   0.179  13.637  1.5736 -0.9190 -0.2645
  617MPD2     N 9200   4.453   4.737  13.994  0.5297 -0.6270  0.8253
  617MPD2    H5 9201   4.363   0.021  13.952  0.6437 -1.4705  0.1609
  617MPD2    N1 9202   0.176   0.154  14.016 -0.6665 -0.2691  0.4412
  617MPD2    H7 9203   0.191   0.131  14.113  0.3607 -0.5337  0.2135
  618TMC3    C1 9204   0.392   0.242  14.066 -0.0598  0.2111 -0.4609
  618TMC3    C2 9205   0.424   0.134  14.139  0.3202 -0.1325  0.7381
  618TMC3    C3 9206   0.556   0.128  14.183  0.1638  0.4252 -0.3439
  618TMC3    C4 9207   0.489   0.337  14.041 -0.8324 -0.3093  0.0528
  618TMC3    C5 9208   0.614   0.330  14.096 -0.0558  0.1157 -0.4794
  618TMC3    C6 9209   0.652   0.223  14.170 -0.0226 -0.2249 -0.4620
  618TMC3     C 9210   0.282   0.225  13.967  0.1945 -0.1109  0.0894
  618TMC3     O 9211   0.302   0.276  13.857  0.3063 -0.5736 -0.0097
  618TMC3     H 9212   0.357   0.048  14.144  0.5981 -0.4046 -0.1690
  618TMC3    H1 9213   0.467   0.425  13.981 -2.3271 -1.7222 -1.4750
  618TMC3    H2 9214   0.754   0.226  14.206 -0.7761  0.2291  1.6490
  618TMC3    C7 9215   0.708   0.419  14.032 -0.6646  0.0215  0.7163
  618TMC3    C8 9216   0.597   4.736  14.237 -0.0733 -0.4502 -0.7245
  618TMC3    O1 9217   0.669   0.535  14.020  0.2088 -0.0063 -0.0732
  618TMC3    O2 9218   0.513   4.655  14.268 -0.2545  0.5081  0.5936
  619MPD2     C 9219   1.300   1.189  13.486 -0.2979  0.2233  0.3039
  619MPD2    C1 9220   1.246   1.310  13.438  0.3046 -0.7177  0.2513
  619MPD2    C2 9221   1.124   1.307  13.384  0.4778  0.6093  0.1387
  619MPD2    C3 9222   1.049   1.196  13.390  0.4711 -0.1129 -0.0786
  619MPD2    C4 9223   1.103   1.081  13.441 -0.5573  0.5361  1.0335
  619MPD2    C5 9224   1.226   1.074  13.488  0.1782  0.3006 -0.0770
  619MPD2     H 9225   1.085   1.403  13.351  1.6308  0.7090 -0.9507
  619MPD2    H1 9226   1.049   0.987  13.445 -2.9696  1.8260 -1.5274
  619MPD2    H2 9227   1.398   1.177  13.530 -1.3997 -0.6706  2.4926
  619MPD2    H3 9228   1.259   0.983  13.537 -0.6382  0.3235  0.5163
  619MPD2     N 9229   0.908   1.197  13.367  0.4968  0.0104  1.1925
  619MPD2    H5 9230   0.868   1.106  13.385  0.1092  0.3190  1.9337
  619MPD2    N1 9231   1.314   1.433  13.445 -0.5745 -0.0199 -0.5787
  619MPD2    H7 9232   1.264   1.507  13.396  0.0059 -0.1873 -1.4466
  620TMC3    C1 9233   1.447   1.605  13.519  0.2752 -0.5505 -0.1068
  620TMC3    C2 9234   1.447   1.673  13.398  0.1836  0.3875  0.3217
  620TMC3    C3 9235   1.463   1.807  13.403 -0.0112  0.0851  0.6168
  620TMC3    C4 9236   1.467   1.672  13.640  0.1264  0.4341 -0.1487
  620TMC3    C5 9237   1.489   1.803  13.638  0.6374 -0.1273  0.1951
  620TMC3    C6 9238   1.494   1.873  13.520 -0.2660 -0.5424  0.4692
  620TMC3     C 9239   1.414   1.466  13.532  0.1360  0.0240  0.1686
  620TMC3     O 9240   1.462   1.395  13.620 -0.0710 -0.3457  0.1594
  620TMC3     H 9241   1.443   1.622  13.303 -0.1031 -0.3431  0.7265
  620TMC3    H1 9242   1.449   1.613  13.729 -2.0865  0.3645 -0.6368
  620TMC3    H2 9243   1.522   1.978  13.520  2.0841 -1.1781 -0.7440
  620TMC3    C7 9244   1.433   1.873  13.750 -0.3747 -0.0297  0.0447
  620TMC3    C8 9245   1.471   1.881  13.284 -0.5898  0.1405  0.4996
  620TMC3    O1 9246   1.453   1.826  13.861  0.4056 -0.0949 -0.4702
  620TMC3    O2 9247   1.564   1.959  13.287  0.3042  0.0411  1.0902
  621MPD2     C 9248   1.602   2.486   9.344 -0.3894  0.3877 -0.1966
  621MPD2    C1 9249   1.653   2.425   9.459  0.1710  0.4603 -0.1330
  621MPD2    C2 9250   1.768   2.475   9.511 -0.3366 -1.0212 -0.1092
  621MPD2    C3 9251   1.825   2.591   9.465  0.0984 -0.5033 -0.2789
  621MPD2    C4 9252   1.766   2.660   9.366 -0.7089  0.6163 -0.2400
  621MPD2    C5 9253   1.665   2.597   9.302 -0.6258 -0.0953  0.5997
  621MPD2     H 9254   1.818   2.423   9.591  2.7705  3.6034  0.9466
  621MPD2    H1 9255   1.800   2.758   9.334 -0.2599 -0.5230 -3.2488
  621MPD2    H2 9256   1.523   2.444   9.283 -3.2667  2.6327  1.9803
  621MPD2    H3 9257   1.616   2.639   9.214 -0.6927 -1.5436 -0.0697
  621MPD2     N 9258   1.935   2.638   9.539  0.5826  0.4492 -0.3897
  621MPD2    H5 9259   1.956   2.581   9.620 -2.3576  0.3509  0.2839
  621MPD2    N1 9260   1.607   2.305   9.514 -0.7404 -0.0516 -0.1383
  621MPD2    H7 9261   1.654   2.266   9.595 -0.4235 -0.7009 -0.6429
  622TMC3    C1 9262   1.504   2.097   9.523  0.3592 -0.0501  0.3375
  622TMC3    C2 9263   1.615   2.056   9.600  0.3537 -0.3288 -0.0824
  622TMC3    C3 9264   1.597   1.931   9.667  0.4116  0.2231 -0.2332
  622TMC3    C4 9265   1.386   2.033   9.520 -0.3349  0.0201 -0.8106
  622TMC3    C5 9266   1.369   1.925   9.605 -0.4738  0.0003 -0.1212
  622TMC3    C6 9267   1.481   1.871   9.666 -0.5136  0.8822  0.4937
  622TMC3     C 9268   1.520   2.221   9.457 -0.1652  0.6456  0.4630
  622TMC3     O 9269   1.439   2.244   9.363 -0.4342  0.4876  0.6343
  622TMC3     H 9270   1.717   2.090   9.593 -0.1989  0.6275 -3.3738
  622TMC3    H1 9271   1.310   2.051   9.445 -0.4648  0.9702 -0.4374
  622TMC3    H2 9272   1.473   1.788   9.735 -0.1479 -0.3801 -0.9962
  622TMC3    C7 9273   1.244   1.900   9.675 -1.3607 -0.2400 -0.3351
  622TMC3    C8 9274   1.670   1.928   9.796  0.7852 -0.6434 -0.0818
  622TMC3    O1 9275   1.237   1.797   9.743  0.2426  0.8430  0.1362
  622TMC3    O2 9276   1.695   1.816   9.834  0.1464 -0.2796  0.6086
  623MPD2     C 9277   0.158   1.930  15.600 -0.0107  0.2178 -0.0981
  623MPD2    C1 9278   0.111   2.035  15.671 -0.3577  0.2509 -0.5037
  623MPD2    C2 9279   0.185   2.113  15.756 -0.4790  0.5509  0.0158
  623MPD2    C3 9280   0.313   2.077  15.779 -0.7921  0.0029  0.5240
  623MPD2    C4 9281   0.358   1.962  15.720 -0.0129 -0.0631  0.1652
  623MPD2    C5 9282   0.287   1.892  15.620  0.0731 -0.0782  0.4426
  623MPD2     H 9283   0.148   2.206  15.798  2.0280  1.2522  0.6396
  623MPD2    H1 9284   0.461   1.931  15.728  0.0915 -0.4028 -2.5958
  623MPD2    H2 9285   0.105   1.869  15.529  0.6561  1.0073 -1.2786
  623MPD2    H3 9286   0.329   1.807  15.568  0.1179 -1.1722  2.2644
  623MPD2     N 9287   0.369   2.147  15.884 -0.5137 -0.1290  0.0137
  623MPD2    H5 9288   0.305   2.214  15.927  0.2267  0.8474 -0.3960
  623MPD2    N1 9289   4.714   2.065  15.643  0.3090 -0.1427 -0.0807
  623MPD2    H7 9290   4.667   1.996  15.585 -1.1165  1.5012 -0.8893
  624TMC3    C1 9291   0.619   2.094  16.268  0.8354 -0.1637  0.0590
  624TMC3    C2 9292   0.504   2.084  16.334  0.1342  0.4301  0.0273
  624TMC3    C3 9293   0.392   2.141  16.270 -0.3976  0.4989  0.1524
  624TMC3    C4 9294   0.614   2.130  16.136 -0.8140 -0.8175  0.4619
  624TMC3    C5 9295   0.498   2.157  16.067 -0.0831 -0.3231  0.2531
  624TMC3    C6 9296   0.386   2.168  16.139 -0.3644  0.0859  0.6267
  624TMC3     C 9297   0.744   2.033  16.315 -0.2502 -0.4650 -0.8126
  624TMC3     O 9298   0.848   2.097  16.310  0.1761 -0.6844  0.0553
  624TMC3     H 9299   0.496   2.054  16.438  0.2413  2.0026  0.4958
  624TMC3    H1 9300   0.711   2.132  16.088 -1.4721  2.4111 -0.7585
  624TMC3    H2 9301   0.294   2.216  16.107 -2.3297 -4.3632 -0.4548
  624TMC3    C7 9302   0.492   2.125  15.928  0.7479 -0.7786 -0.0991
  624TMC3    C8 9303   0.269   2.127  16.340  0.5031  0.2408  0.3518
  624TMC3    O1 9304   0.593   2.084  15.868 -0.0664 -0.2983 -0.2200
  624TMC3    O2 9305   0.168   2.108  16.278  0.0738 -0.0049  0.1879
  625MPD2     C 9306   1.161   3.091   0.759  0.3164 -0.2196 -0.4489
  625MPD2    C1 9307   1.196   3.227   0.753 -0.5202  0.2064 -0.4105
  625MPD2    C2 9308   1.328   3.260   0.781  1.0080 -0.2824 -0.8025
  625MPD2    C3 9309   1.424   3.162   0.781 -0.4761  0.6866 -0.1043
  625MPD2    C4 9310   1.392   3.029   0.771  0.0868  0.9565 -0.6380
  625MPD2    C5 9311   1.261   2.999   0.768  0.2444 -0.5167 -0.6740
  625MPD2     H 9312   1.359   3.363   0.795  1.6678 -0.3399 -1.8311
  625MPD2    H1 9313   1.466   2.951   0.759 -1.6729 -0.6086 -1.1933
  625MPD2    H2 9314   1.058   3.058   0.762  0.2297  0.3473  2.8679
  625MPD2    H3 9315   1.230   2.896   0.767 -1.3294 -0.0446 -0.3857
  625MPD2     N 9316   1.558   3.212   0.770 -0.6082 -0.1272 -0.4988
  625MPD2    H5 9317   1.572   3.313   0.773  0.8333 -0.3804  1.2078
  625MPD2    N1 9318   1.097   3.330   0.755  0.2622  0.3792 -0.3482
  625MPD2    H7 9319   1.127   3.426   0.767  0.0763  0.4617 -0.5467
  626TMC3    C1 9320   0.879   3.431   0.771  0.1401 -0.6110 -0.2294
  626TMC3    C2 9321   0.752   3.439   0.716 -0.2682 -0.6518  0.8470
  626TMC3    C3 9322   0.690   3.564   0.713 -0.1934  1.2742 -0.4488
  626TMC3    C4 9323   0.942   3.541   0.830  0.2812  0.2357 -0.2996
  626TMC3    C5 9324   0.874   3.659   0.826 -0.2527 -0.2796  0.5953
  626TMC3    C6 9325   0.748   3.675   0.768 -0.6230  0.2976  0.2787
  626TMC3     C 9326   0.960   3.312   0.736  0.3921 -0.3092  0.0606
  626TMC3     O 9327   0.895   3.214   0.693 -0.1221 -0.2181 -1.0017
  626TMC3     H 9328   0.710   3.356   0.661  3.7687 -1.5225 -0.9209
  626TMC3    H1 9329   1.042   3.538   0.871  0.3607 -0.4740 -0.5411
  626TMC3    H2 9330   0.690   3.766   0.770  0.7459  1.1572  1.0712
  626TMC3    C7 9331   0.939   3.766   0.891 -0.1373  0.1825 -0.1699
  626TMC3    C8 9332   0.591   3.585   0.610 -0.2343 -0.2702  0.3218
  626TMC3    O1 9333   1.061   3.771   0.882  0.6344 -0.2672  0.4745
  626TMC3    O2 9334   0.553   3.700   0.594  0.4507  0.0255 -0.1634
  627MPD2     C 9335   3.454   3.761  14.686 -0.0439 -0.0948 -0.2372
  627MPD2    C1 9336   3.523   3.692  14.784 -0.1058  0.0970 -0.7702
  627MPD2    C2 9337   3.473   3.570  14.825 -0.2062  0.0507 -0.3999
  627MPD2    C3 9338   3.371   3.511  14.758 -0.3466 -0.0614  0.2151
  627MPD2    C4 9339   3.318   3.576  14.649  1.1663  0.7069  0.1064
  627MPD2    C5 9340   3.351   3.708  14.622 -0.0778 -0.2766  0.2259
  627MPD2     H 9341   3.533   3.514  14.896 -1.3664 -0.3701  0.2517
  627MPD2    H1 9342   3.232   3.532  14.599  0.7095 -1.2717  2.6833
  627MPD2    H2 9343   3.486   3.861  14.659 -0.2093 -0.1559 -0.6624
  627MPD2    H3 9344   3.304   3.769  14.545  0.5291 -1.3407 -1.0072
  627MPD2     N 9345   3.342   3.379  14.794  0.6146 -0.4896  0.8721
  627MPD2    H5 9346   3.380   3.350  14.883  0.2136 -0.2687  1.1156
  627MPD2    N1 9347   3.650   3.722  14.841 -0.2245  0.1518 -0.2521
  627MPD2    H7 9348   3.693   3.645  14.891  2.0869  1.3790 -0.3383
  628TMC3    C1 9349   3.843   3.846  14.892  0.1152 -0.5541  0.2145
  628TMC3    C2 9350   3.872   3.766  15.002 -0.2418 -0.0357  0.5230
  628TMC3    C3 9351   4.000   3.776  15.049 -0.0969 -0.3774 -0.1004
  628TMC3    C4 9352   3.932   3.938  14.844 -0.6133 -0.1590  0.6899
  628TMC3    C5 9353   4.060   3.944  14.902  0.1770  0.3315  0.0350
  628TMC3    C6 9354   4.096   3.855  14.998  0.1996  0.4640 -0.1724
  628TMC3     C 9355   3.711   3.849  14.834 -0.5529 -0.1577  0.4654
  628TMC3     O 9356   3.685   3.935  14.754  0.0737  0.2317  0.2322
  628TMC3     H 9357   3.797   3.706  15.052  2.4518 -3.0785  0.9225
  628TMC3    H1 9358   3.906   3.999  14.758  0.5790 -0.6628 -0.0234
  628TMC3    H2 9359   4.176   3.898  15.059  0.8169  0.6776 -1.1350
  628TMC3    C7 9360   4.167   4.036  14.858 -0.0244 -0.6975 -0.4507
  628TMC3    C8 9361   4.033   3.697  15.160  0.1406 -0.0003  0.0701
  628TMC3    O1 9362   4.273   3.978  14.869 -0.7723  0.1934 -0.6725
  628TMC3    O2 9363   3.934   3.673  15.232  0.4134  0.6862  0.2090
  629MPD2     C 9364   1.920   2.030  16.426 -0.0599 -0.1962 -0.5680
  629MPD2    C1 9365   1.959   2.099  16.316 -0.7349 -0.4985  0.5703
  629MPD2    C2 9366   1.870   2.123  16.215 -0.0878  0.3233 -0.0894
  629MPD2    C3 9367   1.746   2.064  16.213  0.1281  0.5250 -0.3220
  629MPD2    C4 9368   1.713   1.978  16.315 -0.1851  0.8196 -0.0782
  629MPD2    C5 9369   1.801   1.969  16.418  1.1874  0.2673 -0.3873
  629MPD2     H 9370   1.886   2.197  16.137  0.7449  1.2723  0.9698
  629MPD2    H1 9371   1.619   1.925  16.324 -0.1781  1.1360  1.8530
  629MPD2    H2 9372   1.981   2.012  16.514 -1.0791 -1.2923 -0.0866
  629MPD2    H3 9373   1.774   1.904  16.501 -1.0938  0.8110 -0.6828
  629MPD2     N 9374   1.665   2.089  16.097 -0.2736 -0.3271 -0.1094
  629MPD2    H5 9375   1.706   2.139  16.018 -0.9635  1.1617  0.4727
  629MPD2    N1 9376   2.097   2.142  16.316 -0.1883  0.2205  0.1654
  629MPD2    H7 9377   2.147   2.129  16.404  0.4467 -0.3807 -0.2812
  630TMC3    C1 9378   2.295   2.236  16.249  0.8768 -0.0362  0.0234
  630TMC3    C2 9379   2.385   2.254  16.147 -0.2665 -0.6335 -0.0500
  630TMC3    C3 9380   2.515   2.272  16.175  0.4588 -0.2690  0.2198
  630TMC3    C4 9381   2.331   2.236  16.378  0.0522  0.4323 -0.3672
  630TMC3    C5 9382   2.457   2.271  16.406  0.4907 -0.1047  0.8090
  630TMC3    C6 9383   2.554   2.287  16.307 -0.6624  0.0480  0.2610
  630TMC3     C 9384   2.162   2.188  16.211  0.0817 -0.2166  0.2481
  630TMC3     O 9385   2.137   2.191  16.090  0.1301  0.7006  0.0392
  630TMC3     H 9386   2.345   2.235  16.048  0.5205 -0.0237 -0.4849
  630TMC3    H1 9387   2.251   2.251  16.449  0.3762 -1.2580  0.3470
  630TMC3    H2 9388   2.659   2.283  16.335 -0.3795 -1.0438 -0.9804
  630TMC3    C7 9389   2.486   2.339  16.530 -0.3630  0.1224  0.2313
  630TMC3    C8 9390   2.603   2.337  16.072 -0.1608 -0.0898  0.1762
  630TMC3    O1 9391   2.406   2.313  16.620 -0.3508  0.6451  0.6005
  630TMC3    O2 9392   2.719   2.339  16.106 -0.1426 -0.4846 -0.0107
  631MPD2     C 9393   0.393   2.248  15.102 -0.3227 -0.7482 -0.6931
  631MPD2    C1 9394   0.498   2.324  15.053 -0.3042 -0.5354  0.2078
  631MPD2    C2 9395   0.596   2.265  14.980 -0.0254  0.0137 -0.1006
  631MPD2    C3 9396   0.590   2.126  14.959  0.0809  0.6460 -0.1770
  631MPD2    C4 9397   0.486   2.047  15.005  0.0952  1.4046 -0.2980
  631MPD2    C5 9398   0.386   2.113  15.076  0.6038 -0.7081  0.3407
  631MPD2     H 9399   0.678   2.324  14.941 -0.9422  1.6242  0.4438
  631MPD2    H1 9400   0.470   1.942  14.988 -2.1716  1.6177  0.5368
  631MPD2    H2 9401   0.316   2.293  15.163  0.3254  2.8382 -2.5068
  631MPD2    H3 9402   0.312   2.048  15.122 -0.0256 -0.3960 -0.2263
  631MPD2     N 9403   0.701   2.061  14.904 -0.3648  0.0998  0.5957
  631MPD2    H5 9404   0.779   2.113  14.866  0.6028 -0.0162  2.4231
  631MPD2    N1 9405   0.491   2.461  15.090  0.6033  0.1438 -0.1563
  631MPD2    H7 9406   0.427   2.479  15.167  2.1029 -1.6494  1.5198
  632TMC3    C1 9407   0.557   2.683  15.125  1.0083 -0.5589 -0.1893
  632TMC3    C2 9408   0.535   2.671  15.261 -0.2064 -0.0679 -0.0033
  632TMC3    C3 9409   0.603   2.750  15.350  0.1597  0.5216  0.6169
  632TMC3    C4 9410   0.651   2.770  15.074  0.3843 -0.1346 -0.2829
  632TMC3    C5 9411   0.716   2.845  15.171  0.1579  1.0902 -0.2006
  632TMC3    C6 9412   0.691   2.843  15.309  0.0140  0.1223 -0.4704
  632TMC3     C 9413   0.571   2.560  15.045  0.0803  0.9859  0.7097
  632TMC3     O 9414   0.655   2.559  14.953 -0.3255  0.4889 -0.8883
  632TMC3     H 9415   0.475   2.591  15.303  1.5566 -0.5599  1.5938
  632TMC3    H1 9416   0.679   2.772  14.969  1.9412  0.1992  0.1402
  632TMC3    H2 9417   0.760   2.897  15.372 -1.0902  0.4718  0.4326
  632TMC3    C7 9418   0.852   2.866  15.139  0.7089 -0.3462  0.0685
  632TMC3    C8 9419   0.537   2.751  15.478 -0.0470  0.2345  0.0391
  632TMC3    O1 9420   0.873   2.907  15.023  0.0565 -0.2272  0.3440
  632TMC3    O2 9421   0.423   2.717  15.481 -0.6510 -0.2535 -0.5305
  633MPD2     C 9422   0.488   0.505  17.393  0.6203 -0.1162  1.2483
  633MPD2    C1 9423   0.544   0.415  17.303  0.4043 -0.2280 -0.3817
  633MPD2    C2 9424   0.571   0.286  17.347 -0.3504 -0.0563  0.0396
  633MPD2    C3 9425   0.543   0.241  17.476 -0.3667 -0.7028 -0.5806
  633MPD2    C4 9426   0.495   0.334  17.563  0.1714 -0.8633  0.2009
  633MPD2    C5 9427   0.464   0.464  17.523 -0.1858 -0.3773  0.9147
  633MPD2     H 9428   0.617   0.215  17.279  1.4341 -1.2381  2.4834
  633MPD2    H1 9429   0.459   0.316  17.664 -1.7647 -1.3693 -0.5877
  633MPD2    H2 9430   0.476   0.607  17.358 -0.3289 -0.0292  1.8105
  633MPD2    H3 9431   0.433   0.541  17.593 -1.9371  1.1131 -1.5231
  633MPD2     N 9432   0.553   0.108  17.521 -0.1430 -0.0761 -0.0132
  633MPD2    H5 9433   0.518   0.097  17.615  0.2264 -1.0082  0.0165
  633MPD2    N1 9434   0.567   0.445  17.168  0.2459  0.2553 -0.0785
  633MPD2    H7 9435   0.590   0.364  17.111  2.0935  1.0503 -0.4359
  634TMC3    C1 9436   0.576   0.549  16.961  0.4304  0.4845  0.2794
  634TMC3    C2 9437   0.645   0.440  16.915  0.1297 -0.3993 -0.5016
  634TMC3    C3 9438   0.649   0.428  16.776  0.1709  0.0087  0.5893
  634TMC3    C4 9439   0.529   0.648  16.880 -0.2764  0.5085 -0.1000
  634TMC3    C5 9440   0.552   0.637  16.749  0.0129  0.1498 -0.0548
  634TMC3    C6 9441   0.604   0.523  16.695 -0.1663  0.2088 -0.6291
  634TMC3     C 9442   0.546   0.559  17.101  0.6397  0.7319 -0.3074
  634TMC3     O 9443   0.503   0.667  17.128 -0.6450 -0.4243 -0.1395
  634TMC3     H 9444   0.689   0.369  16.983 -0.0518 -0.5226 -0.5122
  634TMC3    H1 9445   0.498   0.743  16.922 -0.0347  0.8412 -0.6707
  634TMC3    H2 9446   0.638   0.525  16.592  0.8566  1.1888 -0.2798
  634TMC3    C7 9447   0.519   0.743  16.658  0.0862 -0.2290  0.4401
  634TMC3    C8 9448   0.736   0.327  16.724 -0.2682  0.1834 -0.0124
  634TMC3    O1 9449   0.557   0.754  16.540  0.1166 -0.4182 -1.0414
  634TMC3    O2 9450   0.812   0.281  16.807  0.5301 -0.7011  0.2473
  635TMC3    C1 9451   0.647   1.575  17.302  0.4597 -0.2695  0.4355
  635TMC3    C2 9452   0.668   1.446  17.271  0.4309  0.8354  0.0365
  635TMC3    C3 9453   0.572   1.354  17.292 -0.1949 -0.3790 -0.5904
  635TMC3    C4 9454   0.534   1.617  17.359 -0.4906 -0.1750  0.4971
  635TMC3    C5 9455   0.440   1.522  17.370  0.3508  0.3031 -0.0129
  635TMC3    C6 9456   0.447   1.391  17.339  0.2726 -0.0952  0.3269
  635TMC3     C 9457   0.761   1.656  17.334  0.2057  0.7758  0.0112
  635TMC3     O 9458   0.840   1.680  17.245 -0.2543  0.3131  0.1760
  635TMC3     H 9459   0.763   1.414  17.229  1.1537  0.2826  2.0750
  635TMC3    H1 9460   0.514   1.721  17.382  0.2648  0.3095 -1.0221
  635TMC3    H2 9461   0.367   1.318  17.348  0.6908 -0.2084  3.0136
  635TMC3    C7 9462   0.313   1.569  17.402 -0.6592  0.0176  0.0293
  635TMC3    C8 9463   0.624   1.221  17.316  0.3453 -0.3833 -0.1340
  635TMC3    O1 9464   0.296   1.679  17.357  0.0466  0.4735 -0.3459
  635TMC3    O2 9465   0.737   1.193  17.273 -0.2110 -1.1019 -0.1472
  636MPD2     C 9466   1.455   0.755  15.890  0.2969  0.0956  0.0149
  636MPD2    C1 9467   1.471   0.759  16.029 -0.5499  0.0761  0.3898
  636MPD2    C2 9468   1.464   0.641  16.101 -0.3065 -0.6727  0.1928
  636MPD2    C3 9469   1.444   0.521  16.039 -0.8586 -0.0890 -0.3576
  636MPD2    C4 9470   1.441   0.520  15.901  1.1089  0.1786  0.2738
  636MPD2    C5 9471   1.441   0.635  15.824  0.0458 -0.2051  0.1206
  636MPD2     H 9472   1.477   0.652  16.208  1.4231 -2.9656  0.2084
  636MPD2    H1 9473   1.427   0.425  15.852  3.0282 -0.0069  0.0772
  636MPD2    H2 9474   1.465   0.839  15.822 -0.3554 -0.9088 -1.3094
  636MPD2    H3 9475   1.416   0.639  15.718 -0.5292 -2.1896  0.1746
  636MPD2     N 9476   1.449   0.409  16.122  0.7863  0.3697 -0.2935
  636MPD2    H5 9477   1.476   0.430  16.218 -1.2607  0.7799  0.1960
  636MPD2    N1 9478   1.507   0.880  16.093 -0.4154  0.1448 -0.5201
  636MPD2    H7 9479   1.520   0.872  16.194 -1.9630 -0.7264 -0.3860
  637TMC3    C1 9480   1.470   0.183  16.190 -0.4484 -0.1315  0.4337
  637TMC3    C2 9481   1.482   0.225  16.320 -0.6658  0.0844 -0.1026
  637TMC3    C3 9482   1.522   0.140  16.415  0.1476 -0.7138  0.4616
  637TMC3    C4 9483   1.513   0.058  16.156  1.5224  0.4316  0.0327
  637TMC3    C5 9484   1.577   4.719  16.245  0.7008  0.5994 -0.6039
  637TMC3    C6 9485   1.571   0.016  16.378 -0.0477 -0.7933 -0.1787
  637TMC3     C 9486   1.435   0.277  16.084  0.2075  0.1136 -0.2472
  637TMC3     O 9487   1.432   0.235  15.966 -0.5283 -0.3727 -0.0102
  637TMC3     H 9488   1.461   0.328  16.346  0.6639 -0.1464  1.8443
  637TMC3    H1 9489   1.516   0.034  16.050  1.5174  2.0620 -0.3368
  637TMC3    H2 9490   1.597   4.680  16.453  3.2552  2.6033  2.0181
  637TMC3    C7 9491   1.716   4.698  16.201  0.0294 -0.1731 -0.5358
  637TMC3    C8 9492   1.594   0.195  16.529 -0.0168 -0.5750 -0.2914
  637TMC3    O1 9493   1.752   0.038  16.114  0.0396  0.4023 -0.0747
  637TMC3    O2 9494   1.626   0.314  16.525 -0.2952  0.0285  0.4467
  638MPD2     C 9495   1.662   4.142  15.143 -0.0520  0.6757 -0.5096
  638MPD2    C1 9496   1.609   4.034  15.077  0.8178  0.1853  0.2788
  638MPD2    C2 9497   1.584   3.917  15.147  0.0918  0.2348  0.2792
  638MPD2    C3 9498   1.611   3.914  15.287 -0.6420  0.0852 -0.0864
  638MPD2    C4 9499   1.662   4.029  15.354  0.1879 -0.1737  0.2958
  638MPD2    C5 9500   1.689   4.138  15.275 -0.6892  0.2846 -0.1053
  638MPD2     H 9501   1.543   3.833  15.093 -1.8783  2.0484 -1.0737
  638MPD2    H1 9502   1.675   4.022  15.462 -0.7954 -2.3761  0.2680
  638MPD2    H2 9503   1.684   4.241  15.105 -1.1988  1.1671  0.1052
  638MPD2    H3 9504   1.729   4.226  15.325 -0.1841 -0.8601  1.5226
  638MPD2     N 9505   1.582   3.793  15.355  0.2829  0.2500 -0.0021
  638MPD2    H5 9506   1.540   3.731  15.286 -0.1511 -0.8771  1.2890
  638MPD2    N1 9507   1.587   4.033  14.937 -0.2609 -0.2168  0.7542
  638MPD2    H7 9508   1.572   3.941  14.896  3.9836  0.2773 -1.9110
  639TMC3    C1 9509   1.580   3.613  15.500 -0.1809  0.2473 -0.4477
  639TMC3    C2 9510   1.503   3.566  15.405  0.3873  0.2113  0.8283
  639TMC3    C3 9511   1.533   3.440  15.356 -0.6762  0.7142 -0.1315
  639TMC3    C4 9512   1.678   3.542  15.560 -0.4328 -0.4199  0.9882
  639TMC3    C5 9513   1.713   3.426  15.500 -0.0077 -0.2310 -0.3450
  639TMC3    C6 9514   1.646   3.369  15.397  0.0235 -0.6542  0.1639
  639TMC3     C 9515   1.612   3.757  15.482 -0.5456  0.2041  0.0828
  639TMC3     O 9516   1.679   3.812  15.565 -0.1574 -0.3767  0.6457
  639TMC3     H 9517   1.424   3.627  15.362 -0.3857 -0.3278  1.4901
  639TMC3    H1 9518   1.739   3.583  15.640  1.0240 -0.1299 -0.2694
  639TMC3    H2 9519   1.678   3.274  15.356  0.4064 -0.5785  0.2882
  639TMC3    C7 9520   1.823   3.338  15.540 -0.4094 -0.0502 -0.3232
  639TMC3    C8 9521   1.487   3.414  15.226  0.3306 -1.0148 -0.1347
  639TMC3    O1 9522   1.804   3.217  15.539  0.3252  0.0428 -0.1861
  639TMC3    O2 9523   1.568   3.360  15.148  0.1484 -0.2335 -0.8347
  640MPD2     C 9524   1.841   3.396  10.533  0.3226  0.0459 -0.1480
  640MPD2    C1 9525   1.903   3.490  10.448  0.0850  0.3026 -0.0611
  640MPD2    C2 9526   1.832   3.612  10.426  0.2669 -0.4004 -0.6039
  640MPD2    C3 9527   1.719   3.645  10.495 -0.0165 -0.4200 -0.4207
  640MPD2    C4 9528   1.674   3.558  10.596 -1.0114  0.5005 -0.4538
  640MPD2    C5 9529   1.730   3.433  10.598 -1.0304  0.1783 -0.3232
  640MPD2     H 9530   1.876   3.688  10.362 -1.5301  0.0842 -1.2608
  640MPD2    H1 9531   1.592   3.584  10.661  1.4170  1.6945  2.1401
  640MPD2    H2 9532   1.881   3.297  10.550 -1.1349 -0.3491  0.9874
  640MPD2    H3 9533   1.684   3.367  10.670  0.4322  0.3134  0.7452
  640MPD2     N 9534   1.644   3.762  10.471 -0.1659  0.0223  0.0755
  640MPD2    H5 9535   1.570   3.788  10.536 -0.7039 -0.1831 -0.4521
  640MPD2    N1 9536   2.016   3.450  10.386 -0.0880  0.2725 -0.3908
  640MPD2    H7 9537   2.039   3.354  10.411  0.3185 -0.0913 -2.2122
  641TMC3    C1 9538   2.173   3.429  10.210 -0.0477 -0.3270 -0.0993
  641TMC3    C2 9539   2.194   3.294  10.232 -0.2892  0.1456  0.6319
  641TMC3    C3 9540   2.253   3.219  10.130 -0.3072 -0.0882  0.2773
  641TMC3    C4 9541   2.227   3.498  10.095  0.0831 -0.5304 -0.6067
  641TMC3    C5 9542   2.289   3.414  10.007  0.3092  0.6490  0.2699
  641TMC3    C6 9543   2.293   3.277  10.017 -0.2127  0.2865 -0.1095
  641TMC3     C 9544   2.081   3.516  10.288 -0.3308  0.0263 -0.0629
  641TMC3     O 9545   2.073   3.634  10.267 -0.0192 -0.0499  0.1414
  641TMC3     H 9546   2.156   3.245  10.321 -1.2820 -0.0572  0.0933
  641TMC3    H1 9547   2.224   3.606  10.088  2.7230 -0.4707 -0.6163
  641TMC3    H2 9548   2.342   3.224   9.936 -0.2553 -2.2744  1.5441
  641TMC3    C7 9549   2.378   3.474   9.911 -0.0756  0.1615 -0.5762
  641TMC3    C8 9550   2.292   3.073  10.140 -0.3566  0.0170 -0.5027
  641TMC3    O1 9551   2.482   3.409   9.894 -0.3007 -0.4202 -0.7870
  641TMC3    O2 9552   2.369   3.032  10.051 -0.2697 -0.1429  0.3272
  642TMC3    C1 9553   3.256   3.913  12.538 -0.1957 -0.0585  0.2064
  642TMC3    C2 9554   3.394   3.898  12.534 -0.4446 -0.7931  0.1411
  642TMC3    C3 9555   3.451   3.830  12.422  0.4853  0.3711 -0.2633
  642TMC3    C4 9556   3.176   3.845  12.448  0.3220 -0.3802  0.7816
  642TMC3    C5 9557   3.230   3.781  12.344  0.0608  0.3259  0.0254
  642TMC3    C6 9558   3.367   3.774  12.323 -0.9930 -0.3486  0.1051
  642TMC3     C 9559   3.206   3.909  12.675 -0.1586 -0.3329  0.1280
  642TMC3     O 9560   3.275   3.847  12.756  0.0187 -0.5137 -0.0448
  642TMC3     H 9561   3.454   3.944  12.611  1.2429 -0.3423 -1.4281
  642TMC3    H1 9562   3.068   3.839  12.453  0.1988  1.7132  0.3147
  642TMC3    H2 9563   3.405   3.714  12.240  0.1483  0.0152  0.3653
  642TMC3    C7 9564   3.151   3.684  12.274 -0.1331 -0.1453  0.7666
  642TMC3    C8 9565   3.592   3.830  12.394  0.1788  0.7399 -0.1086
  642TMC3    O1 9566   3.181   3.644  12.159 -0.1614  0.0314 -0.4840
  642TMC3    O2 9567   3.632   3.787  12.287  0.3937 -0.3141 -0.1028
  643TMC3    C1 9568   2.831   3.182   0.601  0.0822 -0.2506 -0.2812
  643TMC3    C2 9569   2.705   3.152   0.561 -0.0305  0.3088  0.1551
  643TMC3    C3 9570   2.677   3.081   0.448 -0.3186  0.3762  0.6096
  643TMC3    C4 9571   2.930   3.141   0.517  0.5610  0.2495  0.2042
  643TMC3    C5 9572   2.897   3.071   0.404 -0.0385  0.7993 -0.0029
  643TMC3    C6 9573   2.772   3.025   0.369 -0.8532  0.4718  0.3166
  643TMC3     C 9574   2.850   3.327   0.634  0.2746 -0.8411 -0.3652
  643TMC3     O 9575   2.760   3.399   0.595 -0.1982 -0.2999 -0.0904
  643TMC3     H 9576   2.630   3.179   0.634 -0.6312  1.3250 -0.8453
  643TMC3    H1 9577   3.035   3.159   0.534  0.8479 -0.1733 -1.1342
  643TMC3    H2 9578   2.746   2.980   0.274  1.1209  1.2938 -0.5967
  643TMC3    C7 9579   2.946   3.156   0.296 -0.5382  0.2049  0.3721
  643TMC3    C8 9580   2.587   3.159   0.358 -0.7286  0.4048 -0.4314
  643TMC3    O1 9581   2.995   3.261   0.329  0.5912 -0.2009  0.1299
  643TMC3    O2 9582   2.534   3.093   0.273 -0.2625 -0.1312  0.3955
  644MPD2     C 9583   2.019   4.001  10.404  0.0908 -0.4327  0.3049
  644MPD2    C1 9584   2.083   4.059  10.297  0.1839 -0.3410  0.0364
  644MPD2    C2 9585   2.042   4.174  10.245 -0.1625  0.3880  0.3936
  644MPD2    C3 9586   1.929   4.231  10.300  0.0328 -0.8912 -0.2400
  644MPD2    C4 9587   1.864   4.179  10.410  0.3377  0.6286  0.6228
  644MPD2    C5 9588   1.906   4.059  10.454 -0.2169  0.2237  0.2783
  644MPD2     H 9589   2.092   4.223  10.162 -0.2368 -0.5783 -0.2270
  644MPD2    H1 9590   1.779   4.223  10.461  0.0007 -0.1899  0.7710
  644MPD2    H2 9591   2.049   3.909  10.452  0.4980  0.1930  1.2456
  644MPD2    H3 9592   1.847   4.016  10.535  1.4337 -0.7240  0.9776
  644MPD2     N 9593   1.885   4.346  10.230  0.1156 -0.7505  0.1551
  644MPD2    H5 9594   1.928   4.361  10.139  1.4237  0.7747  1.0208
  644MPD2    N1 9595   2.200   3.995  10.248 -0.0569  0.7298 -0.2890
  644MPD2    H7 9596   2.229   3.912  10.298 -0.9647 -0.3200 -1.4911
  645TMC3    C1 9597   1.752   4.541  10.176 -0.2683 -0.8879 -1.1738
  645TMC3    C2 9598   1.618   4.574  10.171 -0.0079  0.5371 -0.7709
  645TMC3    C3 9599   1.588   4.671  10.072 -0.4950  0.6081  0.0221
  645TMC3    C4 9600   1.849   4.591  10.095 -0.6392  0.2274  0.9198
  645TMC3    C5 9601   1.812   4.684  10.000  0.3019 -0.1770 -0.1218
  645TMC3    C6 9602   1.683   4.723   9.986  0.8169  0.2551  0.0329
  645TMC3     C 9603   1.782   4.431  10.272 -0.6172  0.1331 -0.0579
  645TMC3     O 9604   1.713   4.433  10.375  0.0246 -0.0923 -0.3428
  645TMC3     H 9605   1.548   4.524  10.237  1.6217 -1.0030 -0.1988
  645TMC3    H1 9606   1.955   4.574  10.110 -0.5755 -1.3876 -1.5088
  645TMC3    H2 9607   1.653   0.062   9.916  0.1548 -0.9573 -1.0155
  645TMC3    C7 9608   1.914   0.028   9.941  1.0802  0.2611 -0.3243
  645TMC3    C8 9609   1.453   4.696  10.039 -0.2096 -0.3365  0.3374
  645TMC3    O1 9610   2.011   0.048  10.013 -0.0792 -0.0031  0.3196
  645TMC3    O2 9611   1.436   0.072   9.997 -0.8099  0.5031  0.1783
  646MPD2     C 9612   1.809   2.707  14.507  0.2989  0.0778  0.4568
  646MPD2    C1 9613   1.740   2.752  14.616 -0.1850  0.6099  0.6016
  646MPD2    C2 9614   1.644   2.847  14.597  0.4860  0.1822 -0.7905
  646MPD2    C3 9615   1.636   2.916  14.478  0.4649 -0.7893 -0.3731
  646MPD2    C4 9616   1.707   2.865  14.368  0.0457  0.4091  0.4652
  646MPD2    C5 9617   1.800   2.763  14.383  0.7606  0.0042 -0.3315
  646MPD2     H 9618   1.569   2.872  14.672  1.3956 -2.1441  0.8908
  646MPD2    H1 9619   1.697   2.918  14.274  2.0973  0.1799  0.1113
  646MPD2    H2 9620   1.894   2.640  14.517  0.1973 -0.0966  0.1205
  646MPD2    H3 9621   1.868   2.731  14.305  0.7362 -0.7201 -0.0533
  646MPD2     N 9622   1.543   3.018  14.460  0.2246  0.3669  0.0909
  646MPD2    H5 9623   1.481   3.026  14.540  1.9035  1.2105  1.2985
  646MPD2    N1 9624   1.760   2.685  14.741 -0.2033  0.2334  0.8216
  646MPD2    H7 9625   1.823   2.605  14.739 -0.8579 -0.2565 -0.4183
  647TMC3    C1 9626   1.721   2.608  14.953  0.2159 -0.3442 -0.0537
  647TMC3    C2 9627   1.626   2.577  15.055 -0.6792  0.0587  0.6878
  647TMC3    C3 9628   1.681   2.523  15.174 -0.4528  0.5639  0.0287
  647TMC3    C4 9629   1.852   2.565  14.956 -0.4669 -0.6362 -0.3896
  647TMC3    C5 9630   1.897   2.518  15.074  0.6016  0.2974 -0.4113
  647TMC3    C6 9631   1.815   2.517  15.182  0.0498 -0.7835  0.4282
  647TMC3     C 9632   1.681   2.700  14.851  0.1103 -0.4541 -0.5455
  647TMC3     O 9633   1.603   2.791  14.885  0.4626  0.2009  0.1843
  647TMC3     H 9634   1.525   2.613  15.041 -1.0393 -0.0027  3.1957
  647TMC3    H1 9635   1.925   2.590  14.879  1.4869 -0.6447  1.4701
  647TMC3    H2 9636   1.859   2.489  15.277 -0.5276 -2.4128  0.2266
  647TMC3    C7 9637   2.007   2.422  15.079  0.0024 -0.0010  0.1068
  647TMC3    C8 9638   1.625   2.395  15.205  0.2718 -0.0273  0.0045
  647TMC3    O1 9639   2.059   2.399  15.189  0.1899 -0.0685  0.1703
  647TMC3    O2 9640   1.674   2.338  15.300  0.2290  0.4310  0.4062
  648TMC3    C1 9641   0.961   0.311  16.041  0.0193  0.4866 -0.3196
  648TMC3    C2 9642   0.965   0.176  16.008 -0.4681 -0.2589  0.0540
  648TMC3    C3 9643   0.914   0.135  15.891 -0.2748  0.0259  0.4348
  648TMC3    C4 9644   0.891   0.397  15.962 -0.7198 -0.4397  0.2686
  648TMC3    C5 9645   0.842   0.353  15.836 -0.7103 -0.2272 -0.4238
  648TMC3    C6 9646   0.853   0.217  15.801 -0.1062  0.2377 -0.1749
  648TMC3     C 9647   0.997   0.363  16.173  0.2985  0.2155 -0.2449
  648TMC3     O 9648   0.951   0.475  16.193 -0.3372  0.0051  0.3336
  648TMC3     H 9649   1.008   0.101  16.074  1.4061  3.3466  2.9541
  648TMC3    H1 9650   0.902   0.503  15.984  2.5815 -1.2194  2.3590
  648TMC3    H2 9651   0.830   0.182  15.701 -0.9546  1.7658 -0.5205
  648TMC3    C7 9652   0.785   0.452  15.736 -0.7599 -0.7531  0.8509
  648TMC3    C8 9653   0.912   4.730  15.872  0.6570 -0.2038 -0.1275
  648TMC3    O1 9654   0.787   0.416  15.618  0.3639  0.2120 -0.3520
  648TMC3    O2 9655   0.798   4.686  15.856 -0.0838  0.6249 -0.5405
  649TMC3    C1 9656   0.007   1.396  12.576 -0.2876  0.3090  0.0829
  649TMC3    C2 9657   0.127   1.448  12.633  0.1829 -0.5270  0.8454
  649TMC3    C3 9658   0.161   1.403  12.761 -0.3410  0.1410 -0.5434
  649TMC3    C4 9659   4.658   1.318  12.644  0.2291  0.1464  0.3762
  649TMC3    C5 9660   4.704   1.267  12.765  0.2990  0.2264 -0.0419
  649TMC3    C6 9661   0.083   1.308  12.818  0.1742 -0.1778  0.1796
  649TMC3     C 9662   4.725   1.412  12.439  0.1015  0.2457  0.3719
  649TMC3     O 9663   4.611   1.402  12.396  0.6405 -0.2941 -0.4310
  649TMC3     H 9664   0.189   1.520  12.580 -0.9055  0.4751  0.9143
  649TMC3    H1 9665   4.564   1.290  12.598  1.3364  0.9879 -2.3903
  649TMC3    H2 9666   0.125   1.270  12.910 -2.1355 -1.0742  0.8634
  649TMC3    C7 9667   4.603   1.203  12.851 -0.1399  0.3491  0.7714
  649TMC3    C8 9668   0.305   1.404  12.794  0.1385  0.0427 -0.0738
  649TMC3    O1 9669   4.484   1.213  12.836  0.1130  0.2239 -0.1982
  649TMC3    O2 9670   0.355   1.308  12.855  0.4089  0.3301 -0.5232
  650TMC3    C1 9671   2.534   3.042  12.858 -0.1703 -0.4655 -0.0171
  650TMC3    C2 9672   2.481   3.158  12.909  0.4438 -0.6356  0.4071
  650TMC3    C3 9673   2.348   3.183  12.888 -0.0401  0.0858 -0.4362
  650TMC3    C4 9674   2.459   2.942  12.804  0.4060  0.0779  0.6838
  650TMC3    C5 9675   2.321   2.965  12.788 -0.1793 -0.1839 -0.5728
  650TMC3    C6 9676   2.264   3.087  12.828 -0.4077  0.2161 -0.5398
  650TMC3     C 9677   2.673   3.019  12.893  0.8183 -0.3624  0.3135
  650TMC3     O 9678   2.735   3.113  12.937  0.0607  0.1865 -0.0700
  650TMC3     H 9679   2.552   3.231  12.946 -0.8346  0.8319 -0.0333
  650TMC3    H1 9680   2.516   2.875  12.740  0.3269  2.3598 -1.7811
  650TMC3    H2 9681   2.163   3.107  12.795 -0.2935 -2.4181 -2.4895
  650TMC3    C7 9682   2.265   2.931  12.660 -0.1827 -0.5912  0.0814
  650TMC3    C8 9683   2.314   3.324  12.885  0.1461  0.0123  0.0254
  650TMC3    O1 9684   2.194   2.834  12.644 -0.3460 -0.0585  0.6878
  650TMC3    O2 9685   2.407   3.402  12.892  0.2328 -0.0681  0.9264
  651MPD2     C 9686   1.501   0.387  11.114  0.6882  0.5520 -0.5814
  651MPD2    C1 9687   1.446   0.500  11.062 -0.1953  0.9711  0.3690
  651MPD2    C2 9688   1.535   0.592  11.013  0.8214 -0.2615  0.7830
  651MPD2    C3 9689   1.671   0.576  11.008 -0.2225 -0.7888  0.1566
  651MPD2    C4 9690   1.720   0.475  11.090  0.5935 -0.0757 -0.1547
  651MPD2    C5 9691   1.634   0.381  11.137 -0.1468  0.0359  0.2322
  651MPD2     H 9692   1.488   0.672  10.958  1.3913 -0.9104 -0.6385
  651MPD2    H1 9693   1.826   0.463  11.106  0.4640 -1.6462 -0.4729
  651MPD2    H2 9694   1.445   0.299  11.145 -1.1005  1.1410 -2.1762
  651MPD2    H3 9695   1.671   0.292  11.187 -1.0166 -0.7537 -0.5046
  651MPD2     N 9696   1.746   0.659  10.927 -0.0464  0.3414 -0.1139
  651MPD2    H5 9697   1.695   0.737  10.885  0.3721  0.9390  0.4998
  651MPD2    N1 9698   1.307   0.515  11.032 -0.6187  0.3153 -0.0594
  651MPD2    H7 9699   1.279   0.610  11.010  1.8236  1.5247  2.0080
  652TMC3    C1 9700   2.112   0.768  10.644  0.3139  1.1184  0.5792
  652TMC3    C2 9701   2.058   0.681  10.738 -0.2824  0.1513  0.4107
  652TMC3    C3 9702   1.940   0.723  10.792 -0.3477  0.3338  0.3913
  652TMC3    C4 9703   2.043   0.879  10.599 -0.2319 -0.1754  0.2399
  652TMC3    C5 9704   1.932   0.919  10.669 -0.4415  0.2135 -0.0115
  652TMC3    C6 9705   1.883   0.839  10.765 -0.6054 -0.6666  0.7443
  652TMC3     C 9706   2.239   0.736  10.600 -0.4135  0.0583  0.7895
  652TMC3     O 9707   2.283   0.632  10.644 -0.4065 -0.9405  0.2754
  652TMC3     H 9708   2.106   0.590  10.771 -1.8511  0.3320  3.1839
  652TMC3    H1 9709   2.087   0.941  10.522 -1.5611  1.4230  0.7628
  652TMC3    H2 9710   1.799   0.874  10.825 -0.4217  1.7926 -0.4153
  652TMC3    C7 9711   1.857   1.037  10.626  0.1821 -0.5476 -0.3228
  652TMC3    C8 9712   1.879   0.638  10.896  0.3636 -0.6271  0.5967
  652TMC3    O1 9713   1.769   1.077  10.699 -0.0368  0.2806 -0.1058
  652TMC3    O2 9714   1.955   0.549  10.939  0.1380 -0.6261 -1.0207
  653MPD2     C 9715   0.155   0.337  17.540 -0.1690  0.1067  0.0377
  653MPD2    C1 9716   0.148   0.416  17.427 -0.8121 -0.1101  0.5875
  653MPD2    C2 9717   0.144   0.352  17.305  0.1201 -0.6882 -0.5370
  653MPD2    C3 9718   0.184   0.220  17.297  0.4061 -0.3804  0.0916
  653MPD2    C4 9719   0.208   0.148  17.409  0.1591 -0.3785  0.4072
  653MPD2    C5 9720   0.193   0.207  17.532 -0.9823  0.4827  0.8905
  653MPD2     H 9721   0.128   0.407  17.213  0.1092 -1.6022 -1.0877
  653MPD2    H1 9722   0.243   0.045  17.405 -0.2892 -0.4714 -1.4196
  653MPD2    H2 9723   0.162   0.367  17.644  0.0460 -2.6200  0.8257
  653MPD2    H3 9724   0.214   0.151  17.623 -2.3164 -1.3022  0.0862
  653MPD2     N 9725   0.178   0.156  17.173  0.4961 -0.1578 -0.0818
  653MPD2    H5 9726   0.135   0.210  17.098  0.9478 -0.1522 -0.3376
  653MPD2    N1 9727   0.114   0.556  17.430 -0.3962 -0.2774 -0.6015
  653MPD2    H7 9728   0.094   0.606  17.344 -1.7707 -0.9120 -0.6606
  654TMC3    C1 9729   0.177   4.703  17.015  0.5992  0.4973  0.1122
  654TMC3    C2 9730   0.153   0.043  16.903  0.3272  0.0245 -0.1804
  654TMC3    C3 9731   0.122   4.708  16.796 -0.0961  0.2980 -0.3742
  654TMC3    C4 9732   0.176   4.567  17.017  0.1802 -0.3262  0.4809
  654TMC3    C5 9733   0.155   4.501  16.901  0.4657 -0.2211 -0.8908
  654TMC3    C6 9734   0.121   4.573  16.792 -0.7243  1.1412  0.4177
  654TMC3     C 9735   0.221   0.032  17.143  0.2526  0.1218  0.1046
  654TMC3     O 9736   0.278   4.692  17.215 -0.0111 -0.1660  0.0066
  654TMC3     H 9737   0.155   0.151  16.904  2.4004 -0.0005 -2.2232
  654TMC3    H1 9738   0.197   4.511  17.107  0.9386  1.1999  1.2639
  654TMC3    H2 9739   0.095   4.520  16.701  0.1179  0.6086  0.4871
  654TMC3    C7 9740   0.110   4.363  16.903  0.0545  0.1469 -0.0677
  654TMC3    C8 9741   0.012   0.026  16.723 -1.0815 -0.1230  1.0865
  654TMC3    O1 9742   0.033   4.317  16.816 -0.0860  0.1550  0.2384
  654TMC3    O2 9743   4.712   0.140  16.758 -0.1547 -0.0632  0.2025
  655MPD2     C 9744   1.408   0.241  15.558  1.0798  0.0934  0.2403
  655MPD2    C1 9745   1.382   0.341  15.462  0.3527  0.8715  0.3254
  655MPD2    C2 9746   1.420   0.318  15.329 -1.1091  0.1759 -0.5771
  655MPD2    C3 9747   1.489   0.206  15.284  0.4632 -0.6752  0.7640
  655MPD2    C4 9748   1.516   0.108  15.384 -0.4053  0.5580  0.0129
  655MPD2    C5 9749   1.480   0.128  15.518 -0.0705  0.0093  0.5367
  655MPD2     H 9750   1.402   0.400  15.260  1.6847  0.4449 -0.9713
  655MPD2    H1 9751   1.562   0.014  15.353 -3.3784 -0.9981  0.3181
  655MPD2    H2 9752   1.376   0.242  15.661 -1.1316 -1.5000 -0.4054
  655MPD2    H3 9753   1.495   0.043  15.583 -1.2175  0.2581  1.1093
  655MPD2     N 9754   1.506   0.175  15.147 -0.2377 -0.4391 -0.9981
  655MPD2    H5 9755   1.524   0.078  15.125  0.4337  0.1950 -3.1494
  655MPD2    N1 9756   1.295   0.451  15.485 -0.0444  0.2637 -0.0283
  655MPD2    H7 9757   1.310   0.525  15.418  0.6938  0.3181  0.1964
  656TMC3    C1 9758   1.158   0.591  15.609  0.1498  0.5350 -0.6099
  656TMC3    C2 9759   1.142   0.627  15.744 -0.1833  0.5570 -0.3083
  656TMC3    C3 9760   1.069   0.742  15.769 -0.2564 -0.2581 -0.2922
  656TMC3    C4 9761   1.111   0.675  15.508  0.7450  0.6301  0.2399
  656TMC3    C5 9762   1.062   0.797  15.545 -1.0448 -0.6534 -0.3181
  656TMC3    C6 9763   1.030   0.828  15.675 -0.7198 -0.9813 -0.2618
  656TMC3     C 9764   1.216   0.462  15.599 -0.3193 -0.0048  0.9946
  656TMC3     O 9765   1.196   0.378  15.683 -0.1885  0.1111 -0.1356
  656TMC3     H 9766   1.183   0.564  15.822  1.0413 -1.0373 -2.2339
  656TMC3    H1 9767   1.117   0.646  15.404 -0.3965  0.8420  0.1146
  656TMC3    H2 9768   0.976   0.920  15.697  1.4638  0.4373 -0.8445
  656TMC3    C7 9769   1.029   0.879  15.427  0.3338 -0.2693 -0.0813
  656TMC3    C8 9770   1.040   0.761  15.905  0.7061  0.6541 -0.5921
  656TMC3    O1 9771   1.059   0.837  15.315 -0.1549  0.1230 -0.2511
  656TMC3    O2 9772   1.059   0.670  15.982 -0.9248 -0.6452 -0.1831
  657TMC3    C1 9773   0.200   4.703  15.432 -0.5402  0.5075 -0.2751
  657TMC3    C2 9774   0.260   0.005  15.550 -0.0104 -0.1645 -0.2438
  657TMC3    C3 9775   0.307   0.129  15.559  0.5630 -0.4471  0.0278
  657TMC3    C4 9776   0.174   0.044  15.324  0.0964  0.2537 -0.1909
  657TMC3    C5 9777   0.208   0.175  15.350 -0.3539 -0.0310 -0.2976
  657TMC3    C6 9778   0.285   0.216  15.453 -0.0514 -0.4097 -0.1818
  657TMC3     C 9779   0.163   4.560  15.415 -0.4546 -0.2628 -0.1874
  657TMC3     O 9780   0.052   4.545  15.372  0.2171 -0.0460  0.0539
  657TMC3     H 9781   0.264   4.674  15.634 -0.2836 -0.0893 -0.1711
  657TMC3    H1 9782   0.121   0.014  15.234 -0.8597  1.8036 -0.1619
  657TMC3    H2 9783   0.319   0.318  15.465  3.4577 -1.4335 -1.2725
  657TMC3    C7 9784   0.179   0.270  15.237  0.1721 -0.0238  0.7071
  657TMC3    C8 9785   0.376   0.179  15.676 -0.2641 -0.2336 -0.5430
  657TMC3    O1 9786   0.150   0.214  15.131 -0.0162  0.3324 -0.4934
  657TMC3    O2 9787   0.465   0.264  15.660 -0.4828 -0.4006 -0.1141
  658MPD2     C 9788   1.775   4.547  14.881 -0.3714 -0.4493  0.0247
  658MPD2    C1 9789   1.669   4.605  14.814  0.3503  0.0068 -0.2835
  658MPD2    C2 9790   1.694   4.724  14.753  0.7315  0.6722  0.3190
  658MPD2    C3 9791   1.819   0.050  14.763  0.4730 -0.1436 -0.2952
  658MPD2    C4 9792   1.922   0.001  14.834 -0.2558 -0.7572 -0.6443
  658MPD2    C5 9793   1.903   4.613  14.887 -0.1653 -0.2382 -0.3495
  658MPD2     H 9794   1.617   0.033  14.693  0.4618  0.1763  0.2811
  658MPD2    H1 9795   2.023   0.041  14.847  0.7294 -2.7851 -2.0456
  658MPD2    H2 9796   1.771   4.450  14.930  0.1097 -0.4886 -0.0129
  658MPD2    H3 9797   1.977   4.566  14.950 -0.6611 -0.5252  0.0158
  658MPD2     N 9798   1.831   0.166  14.689 -0.7407 -0.3626  0.7629
  658MPD2    H5 9799   1.756   0.198  14.629  0.3247  0.7156  0.0155
  658MPD2    N1 9800   1.545   4.535  14.820 -0.1375  0.1717  0.2311
  658MPD2    H7 9801   1.554   4.438  14.850 -0.8693  0.4374  1.3131
  659TMC3    C1 9802   1.388   4.718  14.800 -0.6989  0.9398  0.6195
  659TMC3    C2 9803   1.450   0.049  14.907 -0.4400  0.2268 -0.4323
  659TMC3    C3 9804   1.438   0.182  14.912 -0.3984 -0.7399  0.5620
  659TMC3    C4 9805   1.293   0.041  14.724  0.2192 -1.1267  0.0727
  659TMC3    C5 9806   1.267   0.173  14.752 -0.1916  0.1899  0.3223
  659TMC3    C6 9807   1.351   0.248  14.831  0.1065 -0.4164 -0.5055
  659TMC3     C 9808   1.413   4.572  14.789  0.1994 -0.5883  0.3090
  659TMC3     O 9809   1.318   4.501  14.759  0.0639 -1.0003 -0.3450
  659TMC3     H 9810   1.511   4.735  14.980  0.6489 -0.2282 -1.6803
  659TMC3    H1 9811   1.259   4.732  14.631  2.6218 -0.2961 -1.2251
  659TMC3    H2 9812   1.334   0.355  14.838 -2.6053 -0.8077 -1.2119
  659TMC3    C7 9813   1.127   0.214  14.761 -0.6167  0.2074 -0.0939
  659TMC3    C8 9814   1.465   0.249  15.043 -0.0063 -0.4465 -0.0558
  659TMC3    O1 9815   1.108   0.313  14.826  0.3335  0.6954 -0.7010
  659TMC3    O2 9816   1.431   0.367  15.043  0.0683  0.3921 -0.3468
  660MPD2     C 9817   4.431   4.039  12.795  0.6001 -0.8254  0.4038
  660MPD2    C1 9818   4.316   4.102  12.835  0.4147 -0.5189 -0.5284
  660MPD2    C2 9819   4.254   4.059  12.955 -0.3500 -0.4714 -0.5100
  660MPD2    C3 9820   4.313   3.961  13.041 -0.5697 -0.2642 -1.4765
  660MPD2    C4 9821   4.427   3.904  12.993 -0.2392  0.5237 -0.0619
  660MPD2    C5 9822   4.480   3.946  12.871  0.7981 -0.3708  0.0068
  660MPD2     H 9823   4.158   4.099  12.987 -0.4999 -0.4756 -0.9563
  660MPD2    H1 9824   4.469   3.831  13.061  2.1746  2.6496  0.7296
  660MPD2    H2 9825   4.481   4.067  12.703 -0.3618 -1.6321 -0.3436
  660MPD2    H3 9826   4.567   3.890  12.837  1.1497 -0.1888  0.5995
  660MPD2     N 9827   4.256   3.918  13.168  0.5299 -0.0739  0.2573
  660MPD2    H5 9828   4.304   3.841  13.213  1.7148  0.9573  0.7568
  660MPD2    N1 9829   4.253   4.199  12.751  0.0201 -0.6007  0.0568
  660MPD2    H7 9830   4.304   4.221  12.666 -1.2622  0.1373 -0.5216
  661TMC3    C1 9831   4.078   4.347  12.659  0.1905  0.0204  1.0225
  661TMC3    C2 9832   4.143   4.355  12.537  0.0054  0.5985  0.2932
  661TMC3    C3 9833   4.073   4.423  12.439  0.8906  0.7300 -0.0343
  661TMC3    C4 9834   3.946   4.385  12.670 -0.1040 -0.6860 -0.4909
  661TMC3    C5 9835   3.880   4.427  12.564 -0.1207  0.4273  0.2854
  661TMC3    C6 9836   3.944   4.462  12.450  0.0685 -0.4893  0.0473
  661TMC3     C 9837   4.133   4.266  12.768  0.0601 -0.3176 -0.3004
  661TMC3     O 9838   4.055   4.255  12.863  0.5017  0.4522  0.1962
  661TMC3     H 9839   4.241   4.312  12.515  0.2285  1.6079 -0.6854
  661TMC3    H1 9840   3.891   4.368  12.762 -1.8823 -1.0622 -1.6303
  661TMC3    H2 9841   3.894   4.512  12.367  1.5348  0.6585 -0.1490
  661TMC3    C7 9842   3.750   4.363  12.555 -0.3002  0.2181  0.6365
  661TMC3    C8 9843   4.144   4.452  12.308  0.0706  0.8532  0.0102
  661TMC3    O1 9844   3.675   4.367  12.654 -0.1978 -0.4161  0.0484
  661TMC3    O2 9845   4.246   4.391  12.285 -0.1112 -0.0769 -0.0600
  662MPD2     C 9846   4.371   3.871  17.320 -0.4794  0.4516 -0.4549
  662MPD2    C1 9847   4.399   3.779  17.413  0.4116  0.4699 -0.5293
  662MPD2    C2 9848   4.369   3.805  17.547  0.0199 -0.2135 -0.4002
  662MPD2    C3 9849   4.323   3.925  17.585  0.2145 -0.6175  0.3995
  662MPD2    C4 9850   4.289   4.022  17.491 -0.6084  0.8315  0.5694
  662MPD2    C5 9851   4.312   3.988  17.360 -0.3232 -0.0377  0.4021
  662MPD2     H 9852   4.388   3.724  17.616 -0.9045  0.2973  0.4448
  662MPD2    H1 9853   4.250   4.120  17.517  0.4329  0.6137  2.9568
  662MPD2    H2 9854   4.404   3.859  17.218 -4.0498 -4.2334 -1.0905
  662MPD2    H3 9855   4.294   4.063  17.285 -0.3992  0.9718  1.4308
  662MPD2     N 9856   4.296   3.964  17.723  0.1724 -0.4272 -0.1046
  662MPD2    H5 9857   4.261   4.058  17.739  2.7834  0.2775  1.5500
  662MPD2    N1 9858   4.479   3.668  17.380 -0.2559  0.1952 -0.3530
  662MPD2    H7 9859   4.497   3.610  17.462  0.7773  1.7039  0.4814
  663TMC3    C1 9860   4.630   3.523  17.257 -0.0727 -0.0313  0.9991
  663TMC3    C2 9861   4.699   3.499  17.375 -0.1760 -1.1792  0.1111
  663TMC3    C3 9862   0.083   3.435  17.359 -0.0643 -0.3089 -0.1926
  663TMC3    C4 9863   4.670   3.477  17.137  0.6422  0.4105 -0.2539
  663TMC3    C5 9864   0.038   3.391  17.135  0.2690 -0.3401  0.3789
  663TMC3    C6 9865   0.127   3.378  17.239 -0.8289 -0.0509 -0.0937
  663TMC3     C 9866   4.536   3.630  17.253  0.0699  0.0386  0.0362
  663TMC3     O 9867   4.507   3.676  17.145  0.9979 -0.0852 -0.3374
  663TMC3     H 9868   4.689   3.577  17.449 -1.3492  0.0745 -1.3476
  663TMC3    H1 9869   4.615   3.484  17.044  2.7472  1.8863 -1.3784
  663TMC3    H2 9870   0.206   3.305  17.220  0.2497  1.6688 -2.2797
  663TMC3    C7 9871   0.010   3.266  17.073  0.4654 -0.8397 -0.1166
  663TMC3    C8 9872   0.119   3.338  17.462  0.2162  0.4342  0.8938
  663TMC3    O1 9873   0.102   3.186  17.063 -0.1593 -0.3583 -0.5462
  663TMC3    O2 9874   0.224   3.273  17.456  0.0221 -1.3551 -0.6393
  664MPD2     C 9875   2.411   2.122   0.002 -0.5823 -0.3702 -0.7412
  664MPD2    C1 9876   2.504   2.227   0.004 -0.1374 -0.5512 -0.4091
  664MPD2    C2 9877   2.551   2.272   0.128  0.4002 -0.4175  0.3417
  664MPD2    C3 9878   2.497   2.223   0.247 -0.1707 -0.1199 -0.1686
  664MPD2    C4 9879   2.394   2.132   0.240  0.0417 -0.5248 -0.3785
  664MPD2    C5 9880   2.355   2.077   0.119  0.0187 -0.0925 -0.0784
  664MPD2     H 9881   2.617   2.357   0.143  0.4628  0.0679 -2.6580
  664MPD2    H1 9882   2.341   2.103   0.329 -0.0808 -0.0354 -0.2923
  664MPD2    H2 9883   2.369   2.089  17.657  0.8508 -1.3511 -1.0383
  664MPD2    H3 9884   2.274   2.006   0.119 -0.4812  0.4786  1.7375
  664MPD2     N 9885   2.550   2.272   0.370  0.4747  0.2821  0.2494
  664MPD2    H5 9886   2.642   2.313   0.373  1.7538 -2.5280 -0.6285
  664MPD2    N1 9887   2.542   2.309  17.639 -0.2250  0.0030 -0.7974
  664MPD2    H7 9888   2.612   2.381  17.654 -0.5723  0.5914 -1.9563
  665TMC3    C1 9889   2.558   2.327   0.602  0.0010 -0.4523  0.3904
  665TMC3    C2 9890   2.498   2.392   0.704  0.2379 -0.9544 -0.3820
  665TMC3    C3 9891   2.581   2.445   0.804 -0.0668 -0.1056 -0.5134
  665TMC3    C4 9892   2.697   2.313   0.592  0.3214 -1.6995  0.1156
  665TMC3    C5 9893   2.773   2.357   0.704 -0.3810  0.2008  0.3313
  665TMC3    C6 9894   2.714   2.433   0.802  0.1972  0.2269 -0.0167
  665TMC3     C 9895   2.485   2.267   0.492  0.3536  0.3471  0.4899
  665TMC3     O 9896   2.369   2.242   0.511  0.0767  0.1735  0.1742
  665TMC3     H 9897   2.391   2.406   0.704  0.5131  1.2210  1.0173
  665TMC3    H1 9898   2.748   2.241   0.530 -0.6425  0.3177 -3.0365
  665TMC3    H2 9899   2.769   2.470   0.888  1.6817 -0.0721 -0.8331
  665TMC3    C7 9900   2.916   2.374   0.677  0.1734  0.1007 -0.0639
  665TMC3    C8 9901   2.524   2.529   0.908  0.2508 -0.3965  0.5328
  665TMC3    O1 9902   2.948   2.337   0.566 -0.2657  0.3630  0.5432
  665TMC3    O2 9903   2.595   2.589   0.986  0.0447 -0.0974  0.5641
  666TMC3    C1 9904   2.115   2.749   9.615  0.2605 -1.1992 -0.1240
  666TMC3    C2 9905   2.176   2.630   9.654  0.3829 -0.2158  0.5663
  666TMC3    C3 9906   2.201   2.629   9.788  0.1430 -0.5391 -0.4300
  666TMC3    C4 9907   2.088   2.858   9.695 -0.3010 -0.3761  0.7308
  666TMC3    C5 9908   2.102   2.839   9.828  0.4534 -0.6008  0.0360
  666TMC3    C6 9909   2.153   2.727   9.873 -0.2753 -1.1886 -0.2784
  666TMC3     C 9910   2.024   2.736   9.503 -0.9111 -0.0816 -0.2338
  666TMC3     O 9911   2.034   2.812   9.406 -0.0056 -0.0574  0.2027
  666TMC3     H 9912   2.173   2.545   9.587 -0.1395  1.5035 -1.5955
  666TMC3    H1 9913   2.033   2.943   9.657  1.5220  0.2243 -0.6081
  666TMC3    H2 9914   2.152   2.703   9.978 -0.2990  0.1695  0.0352
  666TMC3    C7 9915   2.026   2.917   9.924 -0.6317  0.6174  0.2760
  666TMC3    C8 9916   2.224   2.494   9.840  0.7568  0.3947  0.3671
  666TMC3    O1 9917   1.986   2.852  10.022  0.2811 -0.0195 -0.2564
  666TMC3    O2 9918   2.166   2.449   9.936  0.1272 -0.0046 -0.7667
  667MPD2     C 9919   3.418   1.876  14.859  1.0310 -0.2152  0.2661
  667MPD2    C1 9920   3.321   1.893  14.958  0.1272 -0.0887  0.4251
  667MPD2    C2 9921   3.213   1.805  14.967  0.4368  0.0086  0.1540
  667MPD2    C3 9922   3.200   1.705  14.869 -0.7456 -0.0453 -0.2053
  667MPD2    C4 9923   3.304   1.680  14.781  0.2451  0.8528 -0.9054
  667MPD2    C5 9924   3.417   1.764  14.783 -0.2114  0.7522 -0.2835
  667MPD2     H 9925   3.141   1.821  15.047  0.6740  0.2595  0.3153
  667MPD2    H1 9926   3.291   1.593  14.717 -0.6331  0.0524  0.3509
  667MPD2    H2 9927   3.511   1.930  14.860  0.3691  0.9074  1.0943
  667MPD2    H3 9928   3.491   1.735  14.710  0.8104 -0.9224  1.4101
  667MPD2     N 9929   3.096   1.607  14.868  0.0713 -0.2655 -0.0695
  667MPD2    H5 9930   3.113   1.529  14.805  0.3503 -0.7130  0.5618
  667MPD2    N1 9931   3.333   1.994  15.058 -0.1172  0.4410  0.1039
  667MPD2    H7 9932   3.282   1.991  15.146  1.4518 -0.9500  0.9608
  668TMC3    C1 9933   3.398   2.198  15.169  0.7235 -0.2887  0.6738
  668TMC3    C2 9934   3.457   2.322  15.156  0.2254 -0.9044 -0.3199
  668TMC3    C3 9935   3.474   2.397  15.271  0.3025 -0.6955  0.4646
  668TMC3    C4 9936   3.357   2.143  15.290 -0.4481  0.2263  0.5126
  668TMC3    C5 9937   3.384   2.220  15.398 -0.5019  0.3960  0.1922
  668TMC3    C6 9938   3.433   2.348  15.388 -0.0464 -0.5863 -0.0663
  668TMC3     C 9939   3.408   2.106  15.050 -0.0597  0.1705  0.1501
  668TMC3     O 9940   3.475   2.139  14.951 -0.3875  0.0914 -0.5832
  668TMC3     H 9941   3.500   2.361  15.064  2.5295  0.9400  1.5531
  668TMC3    H1 9942   3.355   2.037  15.309 -0.3903 -0.1117 -1.3608
  668TMC3    H2 9943   3.455   2.398  15.482 -1.8585  0.0680 -0.0017
  668TMC3    C7 9944   3.356   2.178  15.535 -0.3438  0.3019  0.5206
  668TMC3    C8 9945   3.514   2.542  15.272 -0.9285  0.3484  0.0246
  668TMC3    O1 9946   3.419   2.239  15.623 -0.6016 -0.4699  0.1204
  668TMC3    O2 9947   3.532   2.592  15.382  0.5584 -0.6388 -0.3737
  669TMC3    C1 9948   1.462   1.667  14.645  0.2746 -0.4453  0.3564
  669TMC3    C2 9949   1.372   1.728  14.570 -0.1034  0.2834  0.8122
  669TMC3    C3 9950   1.419   1.770  14.449 -0.6910  0.1163 -0.6137
  669TMC3    C4 9951   1.596   1.663  14.625 -0.5361  0.2980  0.0259
  669TMC3    C5 9952   1.638   1.719  14.506 -0.7526  0.0799  0.4271
  669TMC3    C6 9953   1.551   1.773  14.418 -0.2927  0.8224 -0.2626
  669TMC3     C 9954   1.393   1.581  14.738  0.1085  0.5591  0.2210
  669TMC3     O 9955   1.304   1.631  14.798 -0.3908  0.2037 -0.7603
  669TMC3     H 9956   1.265   1.714  14.582 -0.0330 -1.2132 -0.2728
  669TMC3    H1 9957   1.668   1.627  14.698 -0.4173 -0.8024 -0.6356
  669TMC3    H2 9958   1.587   1.811  14.322 -0.2230  2.1305  0.2831
  669TMC3    C7 9959   1.778   1.755  14.479 -0.5804 -0.9980 -0.4459
  669TMC3    C8 9960   1.323   1.779  14.337  0.1313  0.0541 -0.3717
  669TMC3    O1 9961   1.858   1.808  14.559  0.3518 -0.1184  0.5594
  669TMC3    O2 9962   1.342   1.727  14.229 -0.0352  0.1837 -0.7240
  670MPD2     C 9963   4.635   4.427  13.717 -0.2280 -0.3459  0.0473
  670MPD2    C1 9964   4.689   4.395  13.838  0.1146  0.0180 -0.3042
  670MPD2    C2 9965   4.611   4.344  13.938  0.2742 -0.3205  0.2422
  670MPD2    C3 9966   4.477   4.341  13.922 -0.0553 -0.1584 -0.1721
  670MPD2    C4 9967   4.421   4.374  13.802  0.8878 -0.0676 -0.7033
  670MPD2    C5 9968   4.502   4.410  13.698  0.4575 -0.1735 -0.2651
  670MPD2     H 9969   4.648   4.323  14.037  0.6219  0.2236  0.2280
  670MPD2    H1 9970   4.315   4.389  13.789  1.0009  1.1988 -0.1666
  670MPD2    H2 9971   4.694   4.449  13.629 -0.8793  0.7826 -0.1071
  670MPD2    H3 9972   4.462   4.437  13.602 -2.0558 -1.6146  0.3561
  670MPD2     N 9973   4.399   4.318  14.038 -0.3669 -0.1768 -0.4268
  670MPD2    H5 9974   4.445   4.316  14.128  0.2546 -0.8255 -0.7581
  670MPD2    N1 9975   0.091   4.426  13.870 -0.0845 -0.1409 -0.6814
  670MPD2    H7 9976   0.119   4.393  13.962 -0.0666 -0.8034 -0.9251
  671TMC3    C1 9977   4.212   4.291  14.194 -0.1789  0.5794  0.2276
  671TMC3    C2 9978   4.303   4.309  14.296 -0.0231 -0.3240 -0.0992
  671TMC3    C3 9979   4.307   4.213  14.395 -0.4467  0.3899 -0.9181
  671TMC3    C4 9980   4.114   4.197  14.207  0.1728  0.0457 -0.3772
  671TMC3    C5 9981   4.107   4.122  14.317  0.0111 -0.5168 -1.1975
  671TMC3    C6 9982   4.210   4.118  14.416 -0.4790 -0.4033 -0.8482
  671TMC3     C 9983   4.267   4.290  14.050 -0.1131 -0.0909  0.0276
  671TMC3     O 9984   4.192   4.246  13.963 -0.5231  0.9503  0.0207
  671TMC3     H 9985   4.390   4.373  14.294  0.3838 -0.8136  1.3029
  671TMC3    H1 9986   4.041   4.178  14.129 -0.2406 -0.0259  0.0300
  671TMC3    H2 9987   4.224   4.036  14.486 -3.3764 -1.6551 -1.7244
  671TMC3    C7 9988   4.069   3.988  14.278 -0.7207  0.7167  0.9562
  671TMC3    C8 9989   4.439   4.169  14.410  0.1094  0.4177 -0.0114
  671TMC3    O1 9990   4.087   3.954  14.163 -0.1362 -0.2126  0.1526
  671TMC3    O2 9991   4.510   4.181  14.307  0.0679  0.2414  1.0069
  672MPD2     C 9992   0.582   0.478   0.312  0.1797 -0.3625  0.1562
  672MPD2    C1 9993   0.599   0.441   0.443  0.4411  0.4987 -0.7113
  672MPD2    C2 9994   0.665   0.533   0.525  0.3703 -0.1483 -0.2253
  672MPD2    C3 9995   0.716   0.651   0.479 -0.1057  0.2293 -0.4116
  672MPD2    C4 9996   0.686   0.690   0.353  0.3394 -0.2700  0.3297
  672MPD2    C5 9997   0.625   0.600   0.262 -0.1846  0.4704  0.6932
  672MPD2     H 9998   0.684   0.504   0.628 -0.2021 -0.1512 -0.1188
  672MPD2    H1 9999   0.735   0.779   0.316  0.7908 -1.1759 -1.2518
  672MPD2    H210000   0.528   0.411   0.246  2.1327 -2.1485  0.3522
  672MPD2    H310001   0.603   0.640   0.164  1.9026  0.3545  0.1744
  672MPD2     N10002   0.778   0.749   0.564 -0.1505 -0.7712  0.2399
  672MPD2    H510003   0.812   0.832   0.518 -1.1116  0.7443  2.2358
  672MPD2    N110004   0.547   0.321   0.505  0.1886 -0.4884 -0.6663
  672MPD2    H710005   0.578   0.302   0.600  0.5137  2.4293 -0.1750
  673TMC3    C110006   0.413   0.124   0.539  0.0451 -0.2863 -0.2659
  673TMC3    C210007   0.492   0.058   0.631  0.6754  0.1099  0.3373
  673TMC3    C310008   0.429   4.707   0.713  0.5965  0.3141  0.4201
  673TMC3    C410009   0.277   0.122   0.537  0.3778 -0.0205 -0.1017
  673TMC3    C510010   0.227   0.033   0.626  0.2721  0.2304 -0.0073
  673TMC3    C610011   0.295   4.682   0.707  0.4848  0.5562  0.2784
  673TMC3     C10012   0.469   0.221   0.446  0.1690 -0.4138 -0.4264
  673TMC3     O10013   0.415   0.217   0.337  0.0099  0.1578  0.5797
  673TMC3     H10014   0.599   0.058   0.614  0.5408  0.0991 -0.4993
  673TMC3    H110015   0.223   0.168   0.455  0.0044 -0.2661  0.0102
  673TMC3    H210016   0.237   4.623   0.777  0.9555  0.6838  0.7780
  673TMC3    C710017   0.083   0.021   0.631  0.6611 -0.5603  0.1029
  673TMC3    C810018   0.506   4.615   0.793  0.1640 -0.4846 -0.5580
  673TMC3    O110019   0.038   4.661   0.685 -0.2069  0.0207  0.4187
  673TMC3    O210020   0.461   4.503   0.819 -0.2882 -0.0415  0.2570
  674MPD2     C10021   4.696   3.656   0.064  0.0458 -0.8381 -0.2686
  674MPD2    C110022   4.685   3.643   0.202 -0.6395 -0.1601 -0.0237
  674MPD2    C210023   4.638   3.747   0.271 -0.7206  0.0516  0.1538
  674MPD2    C310024   4.637   3.878   0.218 -0.0681 -0.4388 -0.2508
  674MPD2    C410025   4.648   3.889   0.084  0.0628  0.5857 -0.2146
  674MPD2    C510026   4.668   3.781   0.005 -0.4039 -0.0835  0.1050
  674MPD2     H10027   4.609   3.743   0.375 -0.3535 -1.3384  0.2085
  674MPD2    H110028   4.618   3.979   0.032 -0.1067  1.0853  0.7528
  674MPD2    H210029   4.705   3.569  17.748 -1.6177 -0.0787 -1.5331
  674MPD2    H310030   4.650   3.785  17.647 -2.3480  2.0098  0.5175
  674MPD2     N10031   4.629   3.993   0.306 -0.2675  0.3751  0.6431
  674MPD2    H510032   4.622   3.978   0.406  1.2407 -0.8029  0.5776
  674MPD2    N110033   4.709   3.519   0.265 -0.1055  0.3177 -0.2937
  674MPD2    H710034   4.720   3.443   0.198  0.6252  0.0960  0.0813
  675TMC3    C110035   0.079   3.592   0.470  0.8632  0.5450 -0.6288
  675TMC3    C210036   0.043   3.597   0.600 -0.1374  0.6734  0.0839
  675TMC3    C310037   0.098   3.700   0.665 -0.8529 -0.5759 -0.0343
  675TMC3    C410038   0.157   3.684   0.412 -0.2338  0.7211  0.2903
  675TMC3    C510039   0.212   3.784   0.486 -0.0364 -0.0037 -0.1636
  675TMC3    C610040   0.187   3.788   0.619  0.4146 -0.0086  0.2897
  675TMC3     C10041   0.002   3.490   0.393  0.3580 -0.0630 -0.1751
  675TMC3     O10042   4.730   3.386   0.456  0.1059 -0.3461 -1.1621
  675TMC3     H10043   4.690   3.545   0.632 -0.4085  0.9960 -0.1516
  675TMC3    H110044   0.182   3.678   0.307 -2.9564 -0.9752 -0.2533
  675TMC3    H210045   0.222   3.874   0.674 -1.1295 -0.6289  2.2521
  675TMC3    C710046   0.283   3.895   0.431  0.3047  0.3745 -0.0319
  675TMC3    C810047   0.013   3.740   0.773  0.1396 -0.0339 -0.5694
  675TMC3    O110048   0.345   3.970   0.508 -0.6873  0.4468 -0.0766
  675TMC3    O210049   4.635   3.712   0.758 -0.2139  0.2897 -0.3588
  676MPD2     C10050   2.453   3.050  11.076  0.2466 -0.3818  0.5088
  676MPD2    C110051   2.403   2.974  11.181  0.0211  0.2768 -0.0698
  676MPD2    C210052   2.397   2.835  11.161 -0.1470  0.5320  0.4316
  676MPD2    C310053   2.450   2.780  11.043  1.5074  0.0032 -0.3198
  676MPD2    C410054   2.505   2.859  10.948 -0.2228 -0.5938  0.1857
  676MPD2    C510055   2.508   2.992  10.968 -0.0371  0.0056 -0.6197
  676MPD2     H10056   2.352   2.774  11.239 -0.4476  0.6005  0.3141
  676MPD2    H110057   2.545   2.817  10.856 -0.7728  0.7498 -0.6628
  676MPD2    H210058   2.452   3.158  11.066 -0.6821 -0.5851 -1.5351
  676MPD2    H310059   2.551   3.052  10.888 -1.6004  1.0974 -0.6530
  676MPD2     N10060   2.465   2.645  11.008 -0.4957 -0.0574  0.5025
  676MPD2    H510061   2.505   2.617  10.919  1.1023  1.7662  0.6439
  676MPD2    N110062   2.350   3.040  11.297  0.0442 -0.4317 -0.5015
  676MPD2    H710063   2.284   2.991  11.357  0.0875  1.0540  0.7446
  677TMC3    C110064   2.287   3.222  11.423  0.0629 -0.5406 -0.0754
  677TMC3    C210065   2.160   3.173  11.441  0.0240  0.1339 -0.3402
  677TMC3    C310066   2.097   3.198  11.562  0.2983 -0.1410  0.3267
  677TMC3    C410067   2.347   3.284  11.529 -0.5291  0.2104  0.0292
  677TMC3    C510068   2.280   3.309  11.649  0.2566  0.2097  1.1750
  677TMC3    C610069   2.155   3.261  11.666  0.0666  0.7392 -0.3739
  677TMC3     C10070   2.377   3.169  11.324 -0.0588 -0.7851 -0.2979
  677TMC3     O10071   2.464   3.242  11.284  0.2518 -0.4768  0.1563
  677TMC3     H10072   2.095   3.124  11.369 -0.5606 -0.6006  0.6991
  677TMC3    H110073   2.446   3.324  11.509 -1.1144  1.2780 -0.7361
  677TMC3    H210074   2.098   3.264  11.757  2.3085 -1.8165  1.1155
  677TMC3    C710075   2.360   3.330  11.759  0.1315  0.1227 -0.3090
  677TMC3    C810076   1.974   3.127  11.589 -0.0943 -0.2297 -0.6350
  677TMC3    O110077   2.308   3.284  11.858 -0.1382  0.1998 -0.7446
  677TMC3    O210078   1.880   3.150  11.513  0.0610  0.1660 -0.2782
  678MPD2     C10079   4.354   2.855   1.722 -0.1461  0.4313 -0.5652
  678MPD2    C110080   4.349   2.908   1.593 -0.8711 -0.0874 -0.5484
  678MPD2    C210081   4.258   2.999   1.552  0.7861 -0.4647 -0.2711
  678MPD2    C310082   4.160   3.038   1.644 -0.7606 -0.1409  0.7311
  678MPD2    C410083   4.165   2.980   1.772  0.2122  0.1190  0.4699
  678MPD2    C510084   4.256   2.887   1.810  0.2574 -0.4885 -0.5362
  678MPD2     H10085   4.265   3.035   1.450  0.4347 -0.4755 -0.2993
  678MPD2    H110086   4.086   3.001   1.843  0.3241  1.8650  0.0635
  678MPD2    H210087   4.434   2.793   1.758  0.7623  0.5697 -2.3576
  678MPD2    H310088   4.247   2.848   1.911  0.6676 -0.0629 -0.3326
  678MPD2     N10089   4.052   3.120   1.603  0.2208 -0.3629 -0.2566
  678MPD2    H510090   4.032   3.137   1.504  0.1864 -2.1031 -0.5402
  678MPD2    N110091   4.433   2.870   1.493 -0.4592  0.0630  0.1724
  678MPD2    H710092   4.419   2.917   1.404  0.8035  0.2783  0.0970
  679TMC3    C110093   4.612   2.641   1.184 -0.5848  0.1912 -0.1110
  679TMC3    C210094   4.608   2.647   1.320 -0.8864 -0.6371 -0.1319
  679TMC3    C310095   4.603   2.770   1.376  0.7219  0.4764  0.3347
  679TMC3    C410096   4.633   2.746   1.103  0.5261 -0.1590 -0.2075
  679TMC3    C510097   4.631   2.869   1.164 -0.3374 -0.3239 -0.0624
  679TMC3    C610098   4.624   2.885   1.301  0.0492  0.2648 -0.4838
  679TMC3     C10099   4.611   2.513   1.124 -0.7259  0.1543 -0.1480
  679TMC3     O10100   4.663   2.500   1.018  0.1218  0.5525 -0.2688
  679TMC3     H10101   4.580   2.564   1.383 -0.8099 -0.4731  0.1167
  679TMC3    H110102   4.614   2.737   0.997 -0.2488 -1.0247 -0.0020
  679TMC3    H210103   4.627   2.979   1.356  2.6624 -0.7755  1.1351
  679TMC3    C710104   4.644   2.984   1.076  0.7304  0.6655  0.1140
  679TMC3    C810105   4.539   2.780   1.508  0.3382 -0.5856 -0.5134
  679TMC3    O110106   4.646   2.966   0.953  0.4221 -0.6305 -0.2314
  679TMC3    O210107   4.561   2.690   1.584  0.2293  0.1402 -0.0635
  680MPD2     C10108   3.935   1.742  13.722  0.0083  0.1514 -0.0856
  680MPD2    C110109   4.043   1.687  13.663 -0.6518  0.2038 -0.1742
  680MPD2    C210110   4.167   1.715  13.715  0.1062 -0.0797  0.0679
  680MPD2    C310111   4.182   1.796  13.832  0.7046 -0.0989  0.6145
  680MPD2    C410112   4.069   1.846  13.892 -0.0815 -0.0752 -0.2570
  680MPD2    C510113   3.942   1.823  13.831 -0.5795  0.5112  0.0711
  680MPD2     H10114   4.255   1.665  13.675 -0.1212 -1.0402  0.7484
  680MPD2    H110115   4.073   1.906  13.982 -2.2059  0.2394 -0.3846
  680MPD2    H210116   3.839   1.710  13.682 -1.7487  3.1340  1.7676
  680MPD2    H310117   3.852   1.869  13.869 -1.8696  0.7490 -3.2531
  680MPD2     N10118   4.317   1.817  13.887 -0.1093 -0.2796  0.4389
  680MPD2    H510119   4.398   1.774  13.843 -0.2535 -1.4204  1.2733
  680MPD2    N110120   4.016   1.600  13.557  0.3234  0.0709  0.2869
  680MPD2    H710121   3.919   1.574  13.547 -0.0166  1.8050 -0.9773
  681TMC3    C110122   4.061   1.399  13.430 -0.0643  0.5183  0.9557
  681TMC3    C210123   3.953   1.354  13.498 -0.0965 -0.0247 -0.2134
  681TMC3    C310124   3.947   1.224  13.558 -0.5218  0.1377  0.7361
  681TMC3    C410125   4.159   1.313  13.408  0.7066  0.7912 -0.2781
  681TMC3    C510126   4.151   1.184  13.446  0.7573 -0.2324 -0.1033
  681TMC3    C610127   4.053   1.137  13.529  0.0755  0.7829 -0.8425
  681TMC3     C10128   4.107   1.530  13.486  0.4189  0.3035  0.4126
  681TMC3     O10129   4.228   1.556  13.479  0.2648 -0.0249  0.0182
  681TMC3     H10130   3.864   1.415  13.501  0.2984  0.5013  0.9079
  681TMC3    H110131   4.246   1.353  13.357  0.5155 -0.1943 -1.4005
  681TMC3    H210132   4.053   1.032  13.559  1.6776  1.0775  0.1884
  681TMC3    C710133   4.264   1.099  13.412 -0.6653 -0.6449  0.1763
  681TMC3    C810134   3.949   1.237  13.704  0.8500 -0.3036  0.2015
  681TMC3    O110135   4.277   0.995  13.469  0.4140 -0.1172  0.7540
  681TMC3    O210136   4.027   1.170  13.772 -0.7432  0.1122 -0.0128
  682MPD2     C10137   1.344   3.509  10.958  0.1445 -0.1803  0.0202
  682MPD2    C110138   1.321   3.372  10.956 -0.2313 -0.0196  0.1239
  682MPD2    C210139   1.317   3.300  11.079  0.4756  0.6282  0.3261
  682MPD2    C310140   1.321   3.368  11.204 -0.0363 -0.2562  1.3735
  682MPD2    C410141   1.355   3.504  11.200  0.4233  0.1463 -0.0571
  682MPD2    C510142   1.368   3.569  11.081 -0.6078 -0.3398  1.0352
  682MPD2     H10143   1.294   3.194  11.084  3.2368  0.0133  0.1601
  682MPD2    H110144   1.369   3.569  11.285  4.6777 -0.1434 -0.5630
  682MPD2    H210145   1.329   3.565  10.867  0.8540 -0.2389 -0.1277
  682MPD2    H310146   1.405   3.671  11.080 -1.6261  0.0110 -1.1642
  682MPD2     N10147   1.315   3.300  11.329 -0.0995  0.0307  0.3686
  682MPD2    H510148   1.340   3.357  11.409  1.0047 -0.7853  0.6085
  682MPD2    N110149   1.332   3.294  10.832 -0.2236 -0.1036  0.2227
  682MPD2    H710150   1.334   3.193  10.841 -0.0465 -0.1512 -0.3248
  683TMC3    C110151   1.288   3.194  11.700 -0.3433 -0.1629 -0.1313
  683TMC3    C210152   1.167   3.142  11.724 -0.1916 -0.0796  0.0272
  683TMC3    C310153   1.103   3.063  11.632  0.3183  0.1568  0.5098
  683TMC3    C410154   1.327   3.214  11.569  0.1035  0.2627  0.9398
  683TMC3    C510155   1.255   3.137  11.477 -0.4055  0.5046  0.4700
  683TMC3    C610156   1.146   3.054  11.502 -0.0030  0.6279  0.1141
  683TMC3     C10157   1.351   3.265  11.807  0.5750  0.2304  0.1359
  683TMC3     O10158   1.281   3.335  11.881  0.0257 -0.1079 -0.0774
  683TMC3     H10159   1.130   3.146  11.826  1.1896 -0.0446  0.5256
  683TMC3    H110160   1.407   3.284  11.549  0.3750 -0.1721  0.5275
  683TMC3    H210161   1.091   3.005  11.423 -1.9007  0.5242  1.4922
  683TMC3    C710162   1.280   3.172  11.340 -0.3141  0.0899 -0.2633
  683TMC3    C810163   0.973   3.016  11.661 -0.5365 -0.1712  0.0596
  683TMC3    O110164   1.233   3.094  11.261 -0.0874  0.2661  0.4426
  683TMC3    O210165   0.908   3.094  11.733 -0.2574 -0.5101 -0.5036
  684MPD2     C10166   4.462   2.191  16.346 -0.1587 -0.1715  0.3278
  684MPD2    C110167   4.389   2.274  16.264 -0.1790  0.1195 -0.3210
  684MPD2    C210168   4.356   2.398  16.314  0.4259 -0.2498 -0.3910
  684MPD2    C310169   4.394   2.432  16.450  0.2440 -0.2850  0.1689
  684MPD2    C410170   4.467   2.346  16.530  0.2575 -0.1269  0.1705
  684MPD2    C510171   4.494   2.222  16.477  0.1748  0.3924  1.2314
  684MPD2     H10172   4.301   2.470  16.254 -0.4183 -1.3871 -0.9721
  684MPD2    H110173   4.496   2.358  16.634 -0.8145 -0.0980  0.4682
  684MPD2    H210174   4.490   2.092  16.311  4.0594  1.8218 -1.9629
  684MPD2    H310175   4.543   2.152  16.544 -0.4188  0.6684  1.9516
  684MPD2     N10176   4.370   2.560  16.505 -0.3834  0.0408 -0.3101
  684MPD2    H510177   4.397   2.572  16.602 -4.2607  0.4166  0.6925
  684MPD2    N110178   4.364   2.245  16.131  0.1948 -0.8046 -0.2016
  684MPD2    H710179   4.321   2.318  16.076 -0.1248 -0.4151  0.5581
  685TMC3    C110180   4.396   2.138  15.920 -0.4272 -0.0493  0.3259
  685TMC3    C210181   4.299   2.228  15.873 -0.8792  0.7461  0.6432
  685TMC3    C310182   4.315   2.281  15.749  0.5204 -0.1958 -0.1055
  685TMC3    C410183   4.497   2.100  15.838  0.1652  1.0999 -0.8753
  685TMC3    C510184   4.506   2.156  15.718 -0.0699 -0.6027 -0.0697
  685TMC3    C610185   4.417   2.251  15.672 -1.4823 -0.2071 -0.4117
  685TMC3     C10186   4.417   2.133  16.060 -0.0391 -0.5333 -0.3623
  685TMC3     O10187   4.488   2.042  16.098 -0.1199  0.0973 -0.0505
  685TMC3     H10188   4.208   2.242  15.929 -1.2497  0.7584  0.0337
  685TMC3    H110189   4.588   2.061  15.883 -0.9928 -0.6273 -0.0321
  685TMC3    H210190   4.442   2.284  15.571  1.0613  1.6426  0.8316
  685TMC3    C710191   4.648   2.175  15.687 -0.5016  0.2892  0.2936
  685TMC3    C810192   4.203   2.334  15.672 -0.0607 -0.2607 -0.0313
  685TMC3    O110193   4.698   2.285  15.709  0.0506 -0.3287  0.0227
  685TMC3    O210194   4.201   2.306  15.553  0.4145 -0.0515  0.4602
  686MPD2     C10195   0.913   2.425  14.957 -0.0443  0.0095 -0.0429
  686MPD2    C110196   0.964   2.311  15.009 -0.0325  0.1154  0.2136
  686MPD2    C210197   1.030   2.228  14.924 -0.4523 -0.0918  0.1692
  686MPD2    C310198   1.052   2.263  14.791  0.2057  0.0201  0.0415
  686MPD2    C410199   0.997   2.379  14.749 -0.4554 -0.4850  1.1331
  686MPD2    C510200   0.931   2.460  14.833  0.5285 -0.3727  0.3247
  686MPD2     H10201   1.067   2.135  14.966  0.2477 -0.2089 -0.7153
  686MPD2    H110202   1.035   2.416  14.654 -1.4757 -1.1951  0.4543
  686MPD2    H210203   0.859   2.497  15.019 -3.2524 -1.5040 -1.0771
  686MPD2    H310204   0.885   2.552  14.801  0.9388 -0.8270 -1.5801
  686MPD2     N10205   1.113   2.177  14.699 -0.8843 -0.2551 -0.0139
  686MPD2    H510206   1.138   2.222  14.611  0.6418  0.5572  0.8385
  686MPD2    N110207   0.922   2.259  15.129  0.5747 -0.3736  0.3525
  686MPD2    H710208   0.857   2.324  15.172  1.1039 -0.0654  0.6937
  687TMC3    C110209   1.069   1.962  14.803  0.5516  0.2031  0.1740
  687TMC3    C210210   0.933   1.978  14.805 -0.0470  0.4136  0.5494
  687TMC3    C310211   0.870   1.910  14.902  0.0249  0.2695  0.3759
  687TMC3    C410212   1.136   1.874  14.879 -0.3696 -0.4961 -0.2228
  687TMC3    C510213   1.063   1.811  14.985  0.3894 -0.4178 -0.5482
  687TMC3    C610214   0.928   1.824  14.990  0.2381 -0.1694  0.3722
  687TMC3     C10215   1.148   2.043  14.711 -0.4411  0.1926  0.2814
  687TMC3     O10216   1.231   1.985  14.641 -0.8579 -0.2635  0.0311
  687TMC3     H10217   0.879   2.037  14.731  0.2034  1.4998  1.2407
  687TMC3    H110218   1.243   1.859  14.879 -0.2433  0.3542  1.8920
  687TMC3    H210219   0.875   1.769  15.067  0.4470 -2.3129 -1.0060
  687TMC3    C710220   1.123   1.770  15.108 -0.0278 -0.4313 -0.0199
  687TMC3    C810221   0.729   1.932  14.923  0.3277 -0.1344 -0.3351
  687TMC3    O110222   1.055   1.781  15.210 -0.5296 -0.4733  0.0608
  687TMC3    O210223   0.672   1.846  14.993 -0.0299  0.4235 -0.3180
  688MPD2     C10224   0.341   1.201  17.083 -0.3741 -0.2570 -0.4733
  688MPD2    C110225   0.387   1.076  17.125 -0.5115  0.5914  0.4363
  688MPD2    C210226   0.495   1.020  17.064  0.1001 -0.2822 -0.8092
  688MPD2    C310227   0.555   1.086  16.955  0.5248  0.4522 -0.5773
  688MPD2    C410228   0.509   1.203  16.917 -0.0492 -0.4595  0.3127
  688MPD2    C510229   0.400   1.265  16.976  0.0315 -0.0869  0.2507
  688MPD2     H10230   0.547   0.934  17.104 -1.1775 -1.0748 -0.8697
  688MPD2    H110231   0.555   1.261  16.838 -0.0482 -1.8428 -0.7068
  688MPD2    H210232   0.257   1.251  17.129  0.0771  1.1969 -1.2227
  688MPD2    H310233   0.371   1.362  16.937  0.6370 -1.1401 -2.8719
  688MPD2     N10234   0.663   1.038  16.884  0.0531  0.3453 -0.0476
  688MPD2    H510235   0.684   1.088  16.798  0.2981 -0.2195 -0.3133
  688MPD2    N110236   0.327   1.000  17.228  0.6552 -0.3183 -0.1956
  688MPD2    H710237   0.377   0.918  17.260 -0.1134 -0.6986  0.0096
  689TMC3    C110238   0.196   0.961  17.421 -0.6436  0.0295 -0.0252
  689TMC3    C210239   0.160   1.031  17.527  0.4737  0.1984 -0.1593
  689TMC3    C310240   0.102   0.975  17.630 -0.0899 -0.3037 -0.4017
  689TMC3    C410241   0.165   0.829  17.415 -0.2074  0.0846  0.3561
  689TMC3    C510242   0.113   0.771  17.524 -0.3574 -0.2032  0.5508
  689TMC3    C610243   0.074   0.845  17.637 -0.9738  0.6967  0.1285
  689TMC3     C10244   0.220   1.038  17.306 -0.8606  0.0360  0.1959
  689TMC3     O10245   0.167   1.147  17.304  0.1198 -0.1430 -0.4238
  689TMC3     H10246   0.160   1.140  17.528 -2.5603  0.2072 -0.0214
  689TMC3    H110247   0.204   0.764  17.337 -0.9901 -1.2334  1.0681
  689TMC3    H210248   0.032   0.796  17.724  0.1940  1.9278  1.3858
  689TMC3    C710249   0.125   0.630  17.543  0.6304 -0.0781  0.0882
  689TMC3    C810250   0.116   1.061  17.748 -0.4979  0.7669  0.3186
  689TMC3    O110251   0.130   0.597  17.659  0.4210 -0.6340  0.4619
  689TMC3    O210252   0.162   1.175  17.738 -0.3526  0.1541  0.3653
  690MPD2     C10253   2.416   2.893  16.024  0.1647 -0.6146 -0.1311
  690MPD2    C110254   2.368   2.842  15.910 -0.2642 -0.5338  0.7178
  690MPD2    C210255   2.418   2.895  15.793  0.5922 -0.6618 -0.3618
  690MPD2    C310256   2.522   2.982  15.797  0.0869 -0.1105  0.4504
  690MPD2    C410257   2.571   3.018  15.917  0.6589  0.1501 -0.7103
  690MPD2    C510258   2.517   2.974  16.031 -0.1738  0.1819 -0.6967
  690MPD2     H10259   2.381   2.852  15.701 -1.7017  1.5480 -0.4865
  690MPD2    H110260   2.645   3.095  15.937  1.7367 -1.1087  0.1908
  690MPD2    H210261   2.374   2.866  16.120 -2.0554 -0.6043 -1.1050
  690MPD2    H310262   2.549   2.999  16.132  0.7595 -1.2701 -0.6292
  690MPD2     N10263   2.594   3.036  15.686 -0.5535 -0.2674  0.0877
  690MPD2    H510264   2.654   3.113  15.713 -0.7484 -0.0195 -0.1946
  690MPD2    N110265   2.271   2.736  15.903 -0.0390 -0.2019 -0.4483
  690MPD2    H710266   2.256   2.687  15.815  1.4175 -0.6646 -0.4238
  691TMC3    C110267   2.137   2.560  15.974 -0.0600  0.0880 -0.2968
  691TMC3    C210268   2.005   2.542  16.007  0.9384 -0.4580  0.1065
  691TMC3    C310269   1.941   2.439  15.946  0.1645  0.1840 -0.0922
  691TMC3    C410270   2.202   2.478  15.886 -0.5908 -0.5713 -0.1583
  691TMC3    C510271   2.134   2.369  15.834  0.1898 -0.5725 -0.1170
  691TMC3    C610272   2.003   2.350  15.865 -0.3181 -0.2740  0.1070
  691TMC3     C10273   2.195   2.690  16.003 -0.7112 -0.0681  0.3853
  691TMC3     O10274   2.157   2.746  16.105 -0.1448  0.3048  0.0632
  691TMC3     H10275   1.967   2.600  16.090  2.6879  1.3025 -0.3318
  691TMC3    H110276   2.305   2.500  15.860 -0.2359 -0.0860  1.6450
  691TMC3    H210277   1.940   2.272  15.825 -0.4292  0.3181 -0.8802
  691TMC3    C710278   2.217   2.258  15.792 -0.2661 -0.0385 -0.0794
  691TMC3    C810279   1.796   2.423  15.970 -0.3715 -0.3958  0.0345
  691TMC3    O110280   2.334   2.260  15.827 -0.5404 -0.3497  0.3484
  691TMC3    O210281   1.749   2.308  15.953  0.9247 -0.1626 -0.0513
  692TMC3    C110282   4.144   3.911  15.811 -0.2079  0.0338 -0.1119
  692TMC3    C210283   4.266   3.943  15.854 -0.1676  0.2185  0.1954
  692TMC3    C310284   4.331   3.865  15.947  0.9700  0.4891 -0.2120
  692TMC3    C410285   4.088   3.789  15.834  0.5118 -1.3951  0.0839
  692TMC3    C510286   4.158   3.703  15.915  0.2737 -0.7051 -1.0014
  692TMC3    C610287   4.276   3.732  15.981 -0.0874  0.1734  0.1912
  692TMC3     C10288   4.051   4.018  15.831 -0.2553 -0.6388 -0.4707
  692TMC3     O10289   4.097   4.104  15.905 -0.0587  0.1029  0.3774
  692TMC3     H10290   4.298   4.045  15.839  1.7963 -0.2545  1.2063
  692TMC3    H110291   3.990   3.759  15.800 -0.2213  0.7733  0.3154
  692TMC3    H210292   4.343   3.657  16.021 -1.0012 -0.1685  1.1088
  692TMC3    C710293   4.125   3.560  15.892  0.8619  0.3295  0.8052
  692TMC3    C810294   4.370   3.929  16.075  0.4564  0.5253  0.0041
  692TMC3    O110295   4.052   3.542  15.798 -0.2616 -0.3144 -0.1651
  692TMC3    O210296   4.442   3.863  16.152 -0.1857  0.3795  0.2883
  693MPD2     C10297   3.529   2.327  11.050  0.0103 -0.3270 -0.1404
  693MPD2    C110298   3.516   2.206  11.109 -0.4388 -0.0975 -0.3762
  693MPD2    C210299   3.627   2.135  11.148 -0.0133  0.4328  0.1590
  693MPD2    C310300   3.757   2.191  11.134  0.8888  0.6664 -0.1978
  693MPD2    C410301   3.767   2.320  11.089  0.0834  0.0178  0.0315
  693MPD2    C510302   3.651   2.385  11.046 -0.4600 -0.2102 -0.7697
  693MPD2     H10303   3.608   2.037  11.191 -1.0469 -0.5283 -2.5195
  693MPD2    H110304   3.860   2.376  11.087 -1.0445  1.9090  0.7164
  693MPD2    H210305   3.459   2.396  11.004  1.5551  1.0674 -0.4161
  693MPD2    H310306   3.668   2.483  11.004  1.3211 -0.6081 -1.0142
  693MPD2     N10307   3.873   2.122  11.173 -0.8355  0.4169  0.2832
  693MPD2    H510308   3.962   2.168  11.160 -0.7411  0.9381  2.7170
  693MPD2    N110309   3.387   2.141  11.114 -0.3817  0.7008 -0.6066
  693MPD2    H710310   3.369   2.064  11.177 -0.1153  0.2727 -1.0529
  694TMC3    C110311   3.167   2.093  11.053  0.3889 -0.1999  0.4297
  694TMC3    C210312   3.113   2.036  10.945  0.4031  0.8307 -0.6320
  694TMC3    C310313   3.034   1.922  10.963 -0.4249  0.5319 -0.0484
  694TMC3    C410314   3.134   2.058  11.180  0.2460  0.0152 -0.2270
  694TMC3    C510315   3.043   1.954  11.190 -0.5240  0.2659 -0.2858
  694TMC3    C610316   3.001   1.874  11.086  0.2458  0.0721  0.6083
  694TMC3     C10317   3.278   2.186  11.039  0.5051 -0.4766 -0.0720
  694TMC3     O10318   3.280   2.256  10.935 -0.4767  0.0818 -0.2214
  694TMC3     H10319   3.125   2.080  10.846  0.9066  0.7847 -0.5900
  694TMC3    H110320   3.159   2.131  11.256 -1.2940 -0.8470  1.1057
  694TMC3    H210321   2.937   1.787  11.092 -0.7160  0.7094 -0.3180
  694TMC3    C710322   2.978   1.956  11.323  0.4601  1.0009 -1.1596
  694TMC3    C810323   2.977   1.848  10.849  0.0855 -0.5253 -0.1629
  694TMC3    O110324   2.983   2.065  11.387 -0.6652 -0.4214  0.8272
  694TMC3    O210325   2.954   1.729  10.872 -0.6857  0.7488  0.2829
  695MPD2     C10326   4.686   3.733  13.732  0.2429 -0.2260 -0.3480
  695MPD2    C110327   4.655   3.715  13.867 -0.2165 -0.7141 -0.1259
  695MPD2    C210328   4.528   3.738  13.915 -0.2805  0.1305 -0.1102
  695MPD2    C310329   4.426   3.780  13.831 -0.3145  1.1358  0.9275
  695MPD2    C410330   4.451   3.797  13.698  0.0478  0.0117  0.0706
  695MPD2    C510331   4.584   3.778  13.649  0.4926 -0.5095  0.6581
  695MPD2     H10332   4.500   3.715  14.017 -1.3864 -0.5720 -0.5740
  695MPD2    H110333   4.375   3.825  13.627  0.0392 -0.4007 -0.0871
  695MPD2    H210334   0.049   3.731  13.694 -0.7374 -0.9729 -2.8722
  695MPD2    H310335   4.613   3.798  13.546 -0.6879  1.3750  0.6930
  695MPD2     N10336   4.288   3.765  13.870  0.7741  0.2953  0.2613
  695MPD2    H510337   4.269   3.724  13.961  2.5506 -0.1831  0.4156
  695MPD2    N110338   0.013   3.672  13.961 -0.2271 -0.9434  0.0032
  695MPD2    H710339   4.711   3.665  14.054  2.0831 -1.6594  0.9459
  696TMC3    C110340   4.060   3.795  13.882 -0.2677  0.9061  0.2804
  696TMC3    C210341   4.032   3.669  13.918 -0.1765 -0.6754  0.4180
  696TMC3    C310342   3.905   3.646  13.960  0.2378 -0.3184  0.1980
  696TMC3    C410343   3.964   3.896  13.879 -0.1111  0.6396 -0.5982
  696TMC3    C510344   3.847   3.871  13.941 -0.3791 -0.5141 -0.4454
  696TMC3    C610345   3.816   3.744  13.973  0.3397 -0.5439 -0.2977
  696TMC3     C10346   4.186   3.833  13.819 -0.0125  0.1127  0.3801
  696TMC3     O10347   4.186   3.914  13.727  0.1370  0.2963 -0.2418
  696TMC3     H10348   4.101   3.587  13.900 -0.6084 -0.7127 -1.0124
  696TMC3    H110349   3.997   3.991  13.836 -0.1566  1.5301  1.3294
  696TMC3    H210350   3.717   3.717  14.007  0.7934 -1.2153  0.4801
  696TMC3    C710351   3.759   3.971  14.000  0.3408 -0.6474 -0.3334
  696TMC3    C810352   3.877   3.513  14.014 -0.7231  0.5124 -0.2625
  696TMC3    O110353   3.677   3.944  14.087 -0.5918  0.2163 -0.5789
  696TMC3    O210354   3.879   3.424  13.931  0.4751 -0.9184 -0.0491
  697MPD2     C10355   4.153   0.894  15.540  0.4095  0.4902  0.3384
  697MPD2    C110356   4.117   0.824  15.426 -0.5354 -0.4014  0.5208
  697MPD2    C210357   4.094   0.890  15.309  0.3826 -0.9500 -0.2916
  697MPD2    C310358   4.096   1.029  15.298 -0.0546  0.2254 -0.6893
  697MPD2    C410359   4.141   1.095  15.410  0.4143 -0.1575  0.1286
  697MPD2    C510360   4.163   1.029  15.529 -0.3726 -0.2590 -0.0537
  697MPD2     H10361   4.056   0.836  15.223  1.0624 -0.2243 -1.0451
  697MPD2    H110362   4.157   1.203  15.405  1.5951 -0.2815  1.1162
  697MPD2    H210363   4.191   0.854  15.634 -0.6362 -0.8760  0.1759
  697MPD2    H310364   4.195   1.095  15.609 -1.1820  0.5878 -0.4207
  697MPD2     N10365   4.052   1.096  15.182  0.0476  0.0777  0.2619
  697MPD2    H510366   4.015   1.037  15.109  1.5197  0.8783 -1.1334
  697MPD2    N110367   4.102   0.685  15.426 -0.1440 -0.0585 -0.0894
  697MPD2    H710368   4.074   0.644  15.337  3.6514 -0.2819 -1.1704
  698TMC3    C110369   3.970   1.275  15.041  0.5015  0.8225 -0.1731
  698TMC3    C210370   3.910   1.399  15.043  0.0667  0.2253 -0.5172
  698TMC3    C310371   3.810   1.416  14.948 -0.3402  0.8348 -0.3757
  698TMC3    C410372   3.957   1.186  14.941  0.1860  0.0927 -0.1970
  698TMC3    C510373   3.847   1.200  14.857 -0.3211  0.8282  0.1122
  698TMC3    C610374   3.772   1.316  14.860  0.7464  0.2564 -0.4838
  698TMC3     C10375   4.034   1.235  15.169  0.9323  0.6075  0.1583
  698TMC3     O10376   4.038   1.318  15.259  0.5889  0.3873 -0.8776
  698TMC3     H10377   3.921   1.461  15.132  2.9107  0.3339 -0.9633
  698TMC3    H110378   4.018   1.096  14.939 -0.9778 -0.6725 -1.5777
  698TMC3    H210379   3.684   1.325  14.798 -0.0823 -1.9832  0.3535
  698TMC3    C710380   3.852   1.140  14.724  0.7381  0.7350 -0.0929
  698TMC3    C810381   3.788   1.554  14.897  0.7766  0.5927  0.3019
  698TMC3    O110382   3.752   1.104  14.669 -0.0561  0.1955 -0.1757
  698TMC3    O210383   3.743   1.562  14.782  0.2159 -0.1214  0.2851
  699TMC3    C110384   4.090   3.899  13.349 -0.9662  0.7098  0.1180
  699TMC3    C210385   4.137   3.774  13.385 -0.1044 -0.0952  0.1208
  699TMC3    C310386   4.073   3.702  13.485  0.2119  1.1226 -0.3981
  699TMC3    C410387   3.976   3.942  13.409  0.1424  0.2519 -0.0455
  699TMC3    C510388   3.915   3.876  13.514 -0.1239  0.2022 -0.4486
  699TMC3    C610389   3.961   3.742  13.553 -0.7992  0.6615 -0.2437
  699TMC3     C10390   4.141   3.968  13.230  0.2284 -0.4476 -0.0817
  699TMC3     O10391   4.094   4.081  13.210  0.3264 -0.4322 -0.3159
  699TMC3     H10392   4.227   3.736  13.338  0.1037 -1.4297  1.6105
  699TMC3    H110393   3.941   4.032  13.359 -2.3799 -0.9851 -0.5008
  699TMC3    H210394   3.913   3.691  13.635 -0.4627 -0.2801 -0.6261
  699TMC3    C710395   3.795   3.933  13.577  0.1558 -0.0014 -0.0333
  699TMC3    C810396   4.128   3.583  13.542  0.2120  0.4842 -0.4923
  699TMC3    O110397   3.725   3.861  13.646 -0.2723  0.1649 -0.1296
  699TMC3    O210398   4.043   3.504  13.590  0.1643 -0.6939 -0.6599
  700TMC3    C110399   3.647   1.377  16.997  0.0315  0.0688  0.8079
  700TMC3    C210400   3.727   1.271  16.969  0.4235  0.1171 -0.3202
  700TMC3    C310401   3.788   1.212  17.075  0.2914 -0.2670 -0.0756
  700TMC3    C410402   3.639   1.434  17.121  0.1543  0.6010  0.2310
  700TMC3    C510403   3.710   1.375  17.220  0.2412 -0.7533  0.2550
  700TMC3    C610404   3.789   1.266  17.201  0.4887 -0.1753  0.1720
  700TMC3     C10405   3.570   1.416  16.882 -0.2703  0.3366 -0.7684
  700TMC3     O10406   3.562   1.345  16.781 -0.0325 -0.6914 -0.6573
  700TMC3     H10407   3.732   1.222  16.872  0.6929  1.5948 -1.0600
  700TMC3    H110408   3.568   1.513  17.141  0.2923  1.4426 -2.6279
  700TMC3    H210409   3.841   1.219  17.284 -1.6431  0.7256  2.0453
  700TMC3    C710410   3.744   1.461  17.320 -0.2046  0.3358  0.3757
  700TMC3    C810411   3.867   1.096  17.054 -0.1562  0.4584 -0.6746
  700TMC3    O110412   3.655   1.533  17.369 -0.0833 -0.2049  0.0035
  700TMC3    O210413   3.920   1.096  16.945 -0.2960 -0.2721 -0.8136
  701TMC3    C110414   3.323   0.057  15.498 -0.1750 -0.6287 -0.1203
  701TMC3    C210415   3.333   4.727  15.379 -0.2860 -0.1340 -0.1418
  701TMC3    C310416   3.431   0.025  15.291 -0.2034  0.2777  0.0360
  701TMC3    C410417   3.421   0.144  15.537  0.6069  0.0988  0.7758
  701TMC3    C510418   3.516   0.183  15.446 -0.7786  0.0984  0.4839
  701TMC3    C610419   3.519   0.124  15.324  0.0715  0.9382 -0.5312
  701TMC3     C10420   3.241   4.727  15.601 -0.1664 -0.3604 -0.3962
  701TMC3     O10421   3.221   4.608  15.591 -0.1388 -0.8552  0.1318
  701TMC3     H10422   3.253   4.656  15.364 -0.7688 -0.1122  2.4137
  701TMC3    H110423   3.416   0.189  15.635  2.6256 -1.6197  1.6579
  701TMC3    H210424   3.602   0.152  15.261  1.2587 -1.0815  0.1415
  701TMC3    C710425   3.591   0.310  15.467  0.0215  0.1230  0.0538
  701TMC3    C810426   3.403   0.028  15.149  0.0213  0.1886  0.4220
  701TMC3    O110427   3.616   0.366  15.360  0.5956  0.4400  0.9671
  701TMC3    O210428   3.457   0.124  15.092 -0.0943 -0.5230 -0.0187
  702MPD2     C10429   2.754   2.403  10.472  0.3602 -0.5857  0.4866
  702MPD2    C110430   2.705   2.469  10.579 -0.8660 -0.3475  0.2609
  702MPD2    C210431   2.733   2.601  10.586  0.1625  0.1568 -0.1129
  702MPD2    C310432   2.812   2.670  10.496  0.5587  0.1891  0.8350
  702MPD2    C410433   2.853   2.599  10.392  0.4939  0.6128 -0.2035
  702MPD2    C510434   2.827   2.464  10.378 -0.2854 -0.3401  0.3268
  702MPD2     H10435   2.703   2.637  10.684  0.1733  1.6514 -0.6537
  702MPD2    H110436   2.912   2.644  10.313  0.4972 -0.0506 -0.5827
  702MPD2    H210437   2.745   2.295  10.465  0.6700 -0.6044  0.4038
  702MPD2    H310438   2.873   2.393  10.310  2.2129  0.7693  0.8635
  702MPD2     N10439   2.840   2.808  10.508 -0.3955  0.6463 -0.3326
  702MPD2    H510440   2.882   2.858  10.430  1.2220 -0.8517 -0.4291
  702MPD2    N110441   2.639   2.412  10.693 -0.4364 -0.2457  0.3516
  702MPD2    H710442   2.610   2.485  10.758  0.0532 -0.1981  0.5129
  703TMC3    C110443   2.853   3.027  10.588  0.4525 -0.8363  0.7175
  703TMC3    C210444   2.759   3.112  10.640 -0.5528 -0.1757  0.3509
  703TMC3    C310445   2.779   3.245  10.614  0.2094  0.2697  1.2675
  703TMC3    C410446   2.947   3.059  10.492  0.4736  0.2967  0.7515
  703TMC3    C510447   2.958   3.193  10.463 -0.2607  0.5747  0.2194
  703TMC3    C610448   2.875   3.288  10.523 -0.6759  0.2180  0.2014
  703TMC3     C10449   2.825   2.889  10.617 -0.9566 -0.3376  0.5994
  703TMC3     O10450   2.773   2.868  10.725 -0.2035 -0.2591  0.0642
  703TMC3     H10451   2.692   3.091  10.723 -0.3134  0.1105  0.6201
  703TMC3    H110452   3.026   2.987  10.475 -0.2967 -0.1252 -1.1116
  703TMC3    H210453   2.876   3.391  10.489  0.1558  0.4769  1.0096
  703TMC3    C710454   3.086   3.245  10.414 -0.1575 -0.3705 -0.1709
  703TMC3    C810455   2.683   3.345  10.645 -0.5771  0.2248 -0.7392
  703TMC3    O110456   3.087   3.366  10.394  0.0734  0.1907 -0.9278
  703TMC3    O210457   2.705   3.462  10.613  0.2242 -0.8951  0.3107
  704TMC3    C110458   0.486   0.494  12.833  1.1103  0.0661  0.0340
  704TMC3    C210459   0.618   0.511  12.804 -0.3934 -0.0865 -0.0956
  704TMC3    C310460   0.711   0.523  12.906 -0.3705  0.9793 -0.3509
  704TMC3    C410461   0.448   0.458  12.956  0.0501 -0.0713 -0.0705
  704TMC3    C510462   0.546   0.444  13.049  0.0781 -0.4594  0.3714
  704TMC3    C610463   0.678   0.485  13.029  0.0122  0.0641  0.9156
  704TMC3     C10464   0.393   0.533  12.729  0.1873  0.2343  0.3270
  704TMC3     O10465   0.284   0.564  12.777 -0.6704  0.3822  0.7903
  704TMC3     H10466   0.639   0.554  12.707  1.2912 -0.2798  0.1763
  704TMC3    H110467   0.344   0.434  12.977  0.3023  1.6054  3.1748
  704TMC3    H210468   0.751   0.456  13.104 -0.3472 -0.3313  1.1199
  704TMC3    C710469   0.523   0.363  13.172 -0.7590 -0.4944  0.2713
  704TMC3    C810470   0.845   0.513  12.874  0.7329 -0.1340  1.1449
  704TMC3    O110471   0.618   0.370  13.251  0.6484  0.1859  0.5019
  704TMC3    O210472   0.927   0.577  12.940  0.0423  0.0720 -0.0670
  705MPD2     C10473   4.473   3.347  16.705 -0.0032 -0.0129  0.0780
  705MPD2    C110474   4.474   3.473  16.656  0.2237  0.4319 -0.4657
  705MPD2    C210475   4.406   3.572  16.722 -0.0690  0.1092  0.8710
  705MPD2    C310476   4.323   3.535  16.832  0.0662  0.2359  0.9302
  705MPD2    C410477   4.310   3.403  16.856 -0.1627 -0.0609  0.0611
  705MPD2    C510478   4.381   3.306  16.792 -0.1356  0.4807 -0.5897
  705MPD2     H10479   4.417   3.675  16.690 -1.3419 -0.1759 -0.5070
  705MPD2    H110480   4.231   3.377  16.926 -0.0272  0.3246  0.3583
  705MPD2    H210481   4.542   3.277  16.659  0.2429  0.0997  0.2794
  705MPD2    H310482   4.381   3.207  16.836 -2.7045  1.3976  1.5122
  705MPD2     N10483   4.255   3.617  16.916 -0.1024  0.7453 -0.4852
  705MPD2    H510484   4.198   3.576  16.988 -1.4553 -0.2234 -2.1226
  705MPD2    N110485   4.549   3.525  16.540 -0.2018 -0.5117  0.0158
  705MPD2    H710486   4.531   3.618  16.503  4.8573 -0.2825 -2.0058
  706TMC3    C110487   0.097   3.475  16.170  0.3373 -0.1287  0.1655
  706TMC3    C210488   0.097   3.601  16.140 -0.6813  0.1911 -0.1051
  706TMC3    C310489   0.043   3.681  16.237  0.6409  0.2337  0.2223
  706TMC3    C410490   0.039   3.421  16.283 -0.5923 -0.1352 -0.4563
  706TMC3    C510491   4.709   3.508  16.366  0.1831  0.1770 -0.0863
  706TMC3    C610492   4.709   3.643  16.347 -0.2985  0.2188  0.8748
  706TMC3     C10493   0.189   3.381  16.102 -0.0177 -0.0887 -0.4001
  706TMC3     O10494   0.254   3.303  16.167 -0.2714  0.4243  0.1204
  706TMC3     H10495   0.134   3.642  16.047 -2.6932 -0.6150 -1.2453
  706TMC3    H110496   0.057   3.316  16.301 -0.3906 -0.0878 -0.3816
  706TMC3    H210497   4.659   3.709  16.417  0.8745 -0.3506  2.2538
  706TMC3    C710498   4.647   3.446  16.480 -0.0919 -0.4804 -0.2436
  706TMC3    C810499   0.049   3.825  16.213 -0.4454 -0.5789 -0.6083
  706TMC3    O110500   4.701   3.344  16.527 -0.0541 -0.1175 -0.0100
  706TMC3    O210501   0.065   3.862  16.095 -0.8211  0.1841 -0.1788
  707TMC3    C110502   1.439   3.197   1.573  0.3494  0.2092 -0.0174
  707TMC3    C210503   1.513   3.253   1.676 -0.6873 -0.0323  0.2824
  707TMC3    C310504   1.464   3.366   1.729  1.2423 -0.5002 -0.2204
  707TMC3    C410505   1.330   3.255   1.522  0.3372  0.1136 -0.5127
  707TMC3    C510506   1.281   3.371   1.583  0.4700 -0.1652  0.3494
  707TMC3    C610507   1.353   3.426   1.683  0.6106  0.0881 -0.1049
  707TMC3     C10508   1.523   3.139   1.473 -0.4367 -0.1124 -0.8985
  707TMC3     O10509   1.640   3.139   1.496 -0.2784 -0.7255  0.0638
  707TMC3     H10510   1.586   3.190   1.725 -2.2752 -1.6134  0.6230
  707TMC3    H110511   1.270   3.225   1.437 -0.5519 -0.9504  0.4977
  707TMC3    H210512   1.316   3.504   1.749  1.4017 -0.3680  0.8930
  707TMC3    C710513   1.149   3.427   1.557  0.2361  0.2482 -0.1413
  707TMC3    C810514   1.582   3.447   1.770 -0.2334 -0.2890  0.3112
  707TMC3    O110515   1.126   3.539   1.593 -0.4052 -0.6808  0.0091
  707TMC3    O210516   1.552   3.523   1.856 -0.2153  0.4380  0.3778
  708MPD2     C10517   2.771   1.220  14.288 -0.2081  0.1137 -0.1850
  708MPD2    C110518   2.763   1.357  14.250 -0.0293  0.2339 -0.7241
  708MPD2    C210519   2.698   1.450  14.332 -0.2790  0.0674  0.0012
  708MPD2    C310520   2.644   1.408  14.453 -0.2743  0.1793 -0.3314
  708MPD2    C410521   2.652   1.278  14.493 -0.0972 -0.3118 -0.4675
  708MPD2    C510522   2.720   1.192  14.410 -0.3158  0.7168  0.1347
  708MPD2     H10523   2.690   1.553  14.299 -1.0336  0.5881  1.8250
  708MPD2    H110524   2.595   1.249  14.581  0.7216  0.3084  0.2712
  708MPD2    H210525   2.800   1.140  14.221 -0.0605 -0.0774  0.1094
  708MPD2    H310526   2.718   1.086  14.431  3.6789  0.3383 -1.2300
  708MPD2     N10527   2.570   1.503  14.520  0.1930 -0.4355  0.5317
  708MPD2    H510528   2.587   1.596  14.483 -1.6649 -0.5608 -0.6326
  708MPD2    N110529   2.816   1.386  14.121  0.2944 -0.6753 -0.6137
  708MPD2    H710530   2.839   1.307  14.060 -0.9362 -1.7284  0.2940
  709TMC3    C110531   2.890   1.505  13.929 -0.4865  0.1365  0.6870
  709TMC3    C210532   2.965   1.617  13.898  0.0948  0.3025 -0.3955
  709TMC3    C310533   2.913   1.702  13.802  0.3075 -0.1887  0.2315
  709TMC3    C410534   2.776   1.469  13.867 -0.3993  0.2650 -0.3716
  709TMC3    C510535   2.720   1.569  13.785  1.0245 -0.2861  0.7378
  709TMC3    C610536   2.799   1.678  13.750  0.2382 -0.2023 -0.3954
  709TMC3     C10537   2.840   1.507  14.069 -0.3111 -1.0619 -0.6850
  709TMC3     O10538   2.833   1.622  14.111  0.0043  0.3951  0.7452
  709TMC3     H10539   3.050   1.647  13.958  1.4686  0.6437 -2.4872
  709TMC3    H110540   2.717   1.390  13.912  0.6365  0.6442  1.6416
  709TMC3    H210541   2.759   1.751  13.681 -1.7713 -0.4091  0.5481
  709TMC3    C710542   2.588   1.605  13.837 -0.0843  0.0296  0.1710
  709TMC3    C810543   2.972   1.837  13.784  0.1560 -0.0525  0.9000
  709TMC3    O110544   2.571   1.722  13.868  0.4253  0.3532  0.3691
  709TMC3    O210545   3.023   1.893  13.878 -0.5206  0.5722 -0.5405
  710TMC3    C110546   4.247   3.502   0.435 -0.0923 -0.0157 -0.1121
  710TMC3    C210547   4.300   3.454   0.322 -0.1880  0.6987  0.7528
  710TMC3    C310548   4.387   3.345   0.328  0.1760 -0.3788  0.3897
  710TMC3    C410549   4.289   3.460   0.557  0.0682  0.3142  0.6339
  710TMC3    C510550   4.379   3.361   0.560  0.7635  0.7307  0.5848
  710TMC3    C610551   4.430   3.304   0.446 -0.4622 -0.4759  0.0676
  710TMC3     C10552   4.121   3.582   0.426 -0.3553  0.2156  0.1218
  710TMC3     O10553   4.056   3.567   0.323 -1.2127  0.5794  0.5358
  710TMC3     H10554   4.271   3.502   0.229 -1.9962  0.4942  1.2075
  710TMC3    H110555   4.239   3.494   0.648 -2.5779 -3.2664  0.5080
  710TMC3    H210556   4.515   3.239   0.463  1.9526  2.0433 -2.3173
  710TMC3    C710557   4.418   3.302   0.684 -0.2587 -0.6283  0.5125
  710TMC3    C810558   4.449   3.303   0.209 -0.7135 -0.2399 -0.3221
  710TMC3    O110559   4.448   3.182   0.683  0.0102 -0.2464 -0.4425
  710TMC3    O210560   4.404   3.358   0.106 -0.4958 -0.2206  0.0222
  711TMC3    C110561   3.796   4.618  14.931  0.4978  0.7501 -0.0256
  711TMC3    C210562   3.804   4.684  15.052  0.0413  0.2895  0.2101
  711TMC3    C310563   3.924   4.705  15.108  0.2974  0.0616  0.5804
  711TMC3    C410564   3.905   4.563  14.872  1.2235  0.1493 -0.2535
  711TMC3    C510565   4.025   4.575  14.936 -0.3745  0.9024  0.9901
  711TMC3    C610566   4.034   4.660  15.046 -0.5591 -0.6097 -0.4955
  711TMC3     C10567   3.687   4.527  14.927 -0.6963 -0.6289 -0.4140
  711TMC3     O10568   3.678   4.443  14.836 -0.0893 -0.6625  0.0390
  711TMC3     H10569   3.717   4.731  15.097  1.3206  2.0418  0.8754
  711TMC3    H110570   3.893   4.516  14.776 -0.5588 -0.3119  0.1939
  711TMC3    H210571   4.129   4.658  15.097  0.4393 -1.0011 -2.3541
  711TMC3    C710572   4.067   4.448  14.990  0.7777 -0.0665 -0.0230
  711TMC3    C810573   3.916   4.641  15.237  0.6071  0.4086  0.1254
  711TMC3    O110574   4.172   4.436  15.052 -0.7426 -0.3594  0.2728
  711TMC3    O210575   3.802   4.605  15.275 -0.3664  0.0968  0.4951
  712MPD2     C10576   0.443   0.739  13.857 -0.7979  0.7199  0.3728
  712MPD2    C110577   0.355   0.767  13.755 -0.1218  0.0519 -0.2548
  712MPD2    C210578   0.382   0.875  13.675 -0.3512  0.3172 -1.0436
  712MPD2    C310579   0.492   0.956  13.695  0.2347 -0.8577 -0.2272
  712MPD2    C410580   0.575   0.928  13.799 -0.3408  0.0918 -0.5567
  712MPD2    C510581   0.554   0.821  13.880  0.3598 -0.1176  0.0045
  712MPD2     H10582   0.320   0.888  13.587  0.2638  1.7228 -1.2587
  712MPD2    H110583   0.664   0.980  13.830  0.4656 -0.8460 -1.3042
  712MPD2    H210584   0.429   0.653  13.921 -2.5319  0.7575  0.0475
  712MPD2    H310585   0.629   0.792  13.953 -0.7342  0.8711  1.5254
  712MPD2     N10586   0.527   1.062  13.617  0.6251  0.1597 -0.6015
  712MPD2    H510587   0.619   1.102  13.634  0.1221  1.0179  0.0636
  712MPD2    N110588   0.242   0.687  13.729 -0.1531  0.5744 -0.0443
  712MPD2    H710589   0.195   0.705  13.641  0.0841  0.1078 -0.2669
  713TMC3    C110590   0.500   1.228  13.450 -0.0014  0.3619  0.2615
  713TMC3    C210591   0.635   1.217  13.427 -0.9649 -0.2917 -0.0672
  713TMC3    C310592   0.690   1.281  13.320 -0.3218  0.5952 -0.2801
  713TMC3    C410593   0.418   1.306  13.364  0.2828 -0.4965 -0.6305
  713TMC3    C510594   0.482   1.375  13.261  0.3783  0.8518  0.6286
  713TMC3    C610595   0.619   1.369  13.242  0.4817 -0.4954 -0.0571
  713TMC3     C10596   0.436   1.135  13.536 -0.4072  0.2652  0.7691
  713TMC3     O10597   0.313   1.120  13.524  0.3766  0.2686  0.4772
  713TMC3     H10598   0.698   1.148  13.482 -1.4748 -1.0982 -0.5035
  713TMC3    H110599   0.314   1.319  13.391  0.4617 -0.6501  0.1475
  713TMC3    H210600   0.669   1.428  13.166  2.6118 -0.7706  1.1353
  713TMC3    C710601   0.417   1.490  13.216 -0.4391  0.2759 -0.7638
  713TMC3    C810602   0.835   1.305  13.310  0.1890  0.0336 -0.4795
  713TMC3    O110603   0.489   1.582  13.185 -0.0748 -0.1823 -0.1121
  713TMC3    O210604   0.867   1.424  13.295 -0.0085  0.2895 -0.7386
  714MPD2     C10605   2.680   0.007   0.942  0.5119 -0.0083  0.0343
  714MPD2    C110606   2.729   4.616   0.975  0.2873  0.5939 -0.1462
  714MPD2    C210607   2.644   4.510   0.969 -0.1689  0.7771 -0.2851
  714MPD2    C310608   2.514   4.526   0.924  0.2392 -0.0383 -0.5759
  714MPD2    C410609   2.472   4.650   0.875  0.2027 -0.3409  0.0040
  714MPD2    C510610   2.559   0.017   0.882 -0.3536 -0.1365 -0.3026
  714MPD2     H10611   2.674   4.414   1.009  0.3483  2.4119  3.2044
  714MPD2    H110612   2.379   4.668   0.822  1.4574 -1.5320 -2.5808
  714MPD2    H210613   2.738   0.099   0.942 -0.3140  0.5173 -1.1073
  714MPD2    H310614   2.512   0.109   0.849  1.8921  0.0285 -2.9932
  714MPD2     N10615   2.419   4.414   0.938 -0.6990 -0.1574 -0.1914
  714MPD2    H510616   2.452   4.326   0.979 -0.5756  0.3161  0.7338
  714MPD2    N110617   2.868   4.601   1.014 -0.5486 -0.4833  0.3202
  714MPD2    H710618   2.928   4.682   1.001 -0.0009 -0.6196  2.0732
  715TMC3    C110619   3.067   4.498   1.078 -0.2020  0.1987  0.0931
  715TMC3    C210620   3.137   4.388   1.067 -0.1344 -0.4000 -0.7702
  715TMC3    C310621   3.263   4.401   1.103 -0.6552 -0.2790 -0.2818
  715TMC3    C410622   3.107   4.626   1.127  0.4134  0.2905 -0.1787
  715TMC3    C510623   3.244   4.634   1.153 -0.2116  0.1549 -0.3000
  715TMC3    C610624   3.316   4.519   1.139 -0.0323 -0.3902  0.5565
  715TMC3     C10625   2.922   4.481   1.046  0.6770 -0.1917  0.5324
  715TMC3     O10626   2.877   4.366   1.052  0.1786  0.0147 -0.6357
  715TMC3     H10627   3.101   4.292   1.033  1.1119 -0.6284 -1.4627
  715TMC3    H110628   3.042   4.713   1.124 -1.2213 -0.8714  1.7338
  715TMC3    H210629   3.424   4.521   1.143 -0.1098  0.2508  2.2796
  715TMC3    C710630   3.305   0.015   1.217 -0.0661  0.0966 -0.3055
  715TMC3    C810631   3.345   4.271   1.095 -0.4969  0.4920  0.4732
  715TMC3    O110632   3.427   0.005   1.219  0.1425 -0.4372  0.4420
  715TMC3    O210633   3.291   4.172   1.050 -0.2722  0.0887 -0.2705
  716MPD2     C10634   2.196   2.832  10.383  0.3728  0.1867 -0.6032
  716MPD2    C110635   2.258   2.872  10.270  0.1858 -0.5471 -0.3190
  716MPD2    C210636   2.339   2.786  10.196  1.0379 -0.2654  0.3341
  716MPD2    C310637   2.366   2.659  10.247  0.4831 -0.4943 -0.8732
  716MPD2    C410638   2.296   2.616  10.358 -0.0690 -0.0382 -0.2588
  716MPD2    C510639   2.207   2.696  10.413  0.4191  0.7281 -0.1731
  716MPD2     H10640   2.394   2.815  10.107 -1.6718 -1.5524 -1.7427
  716MPD2    H110641   2.296   2.512  10.389  0.3235  0.1387  0.3308
  716MPD2    H210642   2.131   2.899  10.438 -0.4827 -1.0679 -0.0716
  716MPD2    H310643   2.146   2.653  10.492 -1.8708  1.0263 -1.7646
  716MPD2     N10644   2.462   2.575  10.179 -0.5020 -1.1205  0.2945
  716MPD2    H510645   2.505   2.610  10.094 -1.3701 -0.5761  0.0889
  716MPD2    N110646   2.240   3.008  10.243 -0.7027 -0.1854  0.0509
  716MPD2    H710647   2.177   3.063  10.301  0.0557 -1.2284  1.8507
  717TMC3    C110648   2.616   2.405  10.136 -0.0319 -0.8576  0.2519
  717TMC3    C210649   2.648   2.480  10.025 -0.1181 -0.5193  0.3308
  717TMC3    C310650   2.711   2.411   9.921 -0.7386  0.1974  0.6872
  717TMC3    C410651   2.629   2.271  10.140  0.2344  0.4601  0.0591
  717TMC3    C510652   2.699   2.211  10.042 -0.1928  0.2424  0.5692
  717TMC3    C610653   2.740   2.281   9.931 -0.3632 -0.2804 -0.1158
  717TMC3     C10654   2.515   2.460  10.227  0.1548 -0.2320 -0.2807
  717TMC3     O10655   2.473   2.391  10.318  0.1710  0.1372 -0.4456
  717TMC3     H10656   2.640   2.588  10.016 -0.8407 -0.5852  0.2438
  717TMC3    H110657   2.601   2.211  10.226  0.2171  1.3424  0.6718
  717TMC3    H210658   2.790   2.235   9.846  0.9760 -1.5751  1.3705
  717TMC3    C710659   2.728   2.070  10.047  0.7885 -0.9059 -0.2636
  717TMC3    C810660   2.743   2.499   9.814  0.4543 -0.4287 -0.1660
  717TMC3    O110661   2.658   1.997  10.118 -0.3409 -0.2126  0.5640
  717TMC3    O210662   2.694   2.609   9.817 -0.4417  0.2634 -0.0343
  718MPD2     C10663   1.924   1.249  13.079  0.4894 -0.7298 -0.5106
  718MPD2    C110664   1.807   1.173  13.052 -0.0136 -0.5062  0.0232
  718MPD2    C210665   1.803   1.047  13.109 -0.1537 -0.1614  0.3313
  718MPD2    C310666   1.917   0.997  13.169 -0.1400  0.6643 -0.3202
  718MPD2    C410667   2.023   1.078  13.194 -0.8592 -0.3257 -0.4781
  718MPD2    C510668   2.023   1.208  13.167 -0.1434 -0.4580 -0.1985
  718MPD2     H10669   1.717   0.981  13.107  1.1085 -1.8496  1.5431
  718MPD2    H110670   2.105   1.043  13.257 -2.1496 -0.2667  1.2526
  718MPD2    H210671   1.928   1.351  13.044 -4.1844 -0.9697 -1.8072
  718MPD2    H310672   2.113   1.263  13.193 -0.9297  1.0857 -0.7086
  718MPD2     N10673   1.917   0.861  13.210  0.3593  0.6439  0.4408
  718MPD2    H510674   1.831   0.807  13.207  1.1211 -0.4240 -2.8208
  718MPD2    N110675   1.691   1.216  12.989 -0.6474  0.2389  0.2814
  718MPD2    H710676   1.627   1.141  12.964  0.1564 -0.4403  0.2509
  719TMC3    C110677   1.565   1.342  12.849  0.2067  0.3801 -0.6777
  719TMC3    C210678   1.512   1.218  12.826  0.1686 -0.7113 -0.5811
  719TMC3    C310679   1.552   1.150  12.721  0.4530 -0.7101 -0.3695
  719TMC3    C410680   1.610   1.417  12.747  0.4170  0.1490 -0.2619
  719TMC3    C510681   1.634   1.354  12.624  0.1822 -0.5285  0.1399
  719TMC3    C610682   1.611   1.218  12.615 -0.2846  0.0157 -0.6609
  719TMC3     C10683   1.665   1.340  12.948  0.1971 -0.5066 -0.2977
  719TMC3     O10684   1.736   1.442  12.961 -0.1859 -0.5131 -0.2074
  719TMC3     H10685   1.451   1.173  12.903 -0.5063 -0.1820 -0.8151
  719TMC3    H110686   1.668   1.506  12.769 -1.5222  0.7496  2.3274
  719TMC3    H210687   1.659   1.154  12.542 -2.9257 -1.1852 -1.3581
  719TMC3    C710688   1.725   1.413  12.534  0.2915 -0.0873 -0.2151
  719TMC3    C810689   1.592   1.014  12.748  0.3983 -0.1271 -0.0089
  719TMC3    O110690   1.784   1.336  12.458 -0.3537 -0.0752  0.0763
  719TMC3    O210691   1.570   0.986  12.864  0.9023 -0.2467  0.5698
  720MPD2     C10692   0.574   2.825  14.398  0.2250 -0.3055  0.1354
  720MPD2    C110693   0.667   2.831  14.293  1.1181  0.5667  0.6278
  720MPD2    C210694   0.800   2.811  14.326 -0.3011  0.2101 -0.1198
  720MPD2    C310695   0.847   2.790  14.454  0.0666 -0.5334 -0.8609
  720MPD2    C410696   0.751   2.793  14.552 -0.3513  0.1173 -0.2117
  720MPD2    C510697   0.617   2.798  14.518  0.2874  0.2950 -1.1639
  720MPD2     H10698   0.870   2.804  14.244 -0.6501  1.0177 -0.4958
  720MPD2    H110699   0.777   2.790  14.657  0.1360 -2.3963 -0.4158
  720MPD2    H210700   0.468   2.842  14.389  0.0788 -2.0099 -1.2697
  720MPD2    H310701   0.546   2.808  14.599  0.1054  1.4876 -1.4801
  720MPD2     N10702   0.978   2.760  14.495 -0.7684 -0.4611  0.5274
  720MPD2    H510703   0.989   2.754  14.595 -0.8632  0.2283  0.5825
  720MPD2    N110704   0.629   2.849  14.157 -0.5273  0.1048  0.0244
  720MPD2    H710705   0.702   2.881  14.094  0.7261 -1.8081  0.5263
  721TMC3    C110706   1.196   2.679  14.477 -0.3705  0.3435  0.7763
  721TMC3    C210707   1.195   2.635  14.606 -0.3948  0.3707 -1.4085
  721TMC3    C310708   1.304   2.580  14.664 -0.2765 -0.4911  0.1765
  721TMC3    C410709   1.317   2.675  14.417 -0.3505  0.1706 -0.3090
  721TMC3    C510710   1.419   2.600  14.466  0.0282 -0.0343  0.2438
  721TMC3    C610711   1.409   2.546  14.592 -0.5175 -0.3948  0.6846
  721TMC3     C10712   1.087   2.742  14.408  0.2689 -0.3015 -0.2599
  721TMC3     O10713   1.094   2.757  14.284  0.1095  0.9942  0.2617
  721TMC3     H10714   1.109   2.654  14.669  1.8152  0.4113  1.5816
  721TMC3    H110715   1.321   2.715  14.316  1.3263 -0.4127 -0.4795
  721TMC3    H210716   1.506   2.518  14.632 -0.6476 -1.4776  0.2300
  721TMC3    C710717   1.522   2.556  14.374  0.1291  0.5167  0.5654
  721TMC3    C810718   1.323   2.568  14.811  0.2868  0.2507  0.1754
  721TMC3    O110719   1.531   2.607  14.266 -0.4115  0.8150 -0.2164
  721TMC3    O210720   1.421   2.517  14.856 -0.0972 -0.2153  0.0490
  722MPD2     C10721   3.916   1.261  13.157  0.4051  0.9321  0.4688
  722MPD2    C110722   3.900   1.380  13.091 -0.8911  0.3850 -0.4986
  722MPD2    C210723   3.775   1.433  13.074  0.3565 -0.6057  0.7233
  722MPD2    C310724   3.660   1.362  13.117 -0.7160  0.0701 -0.8478
  722MPD2    C410725   3.683   1.255  13.188  0.5483 -0.3417  0.1243
  722MPD2    C510726   3.808   1.193  13.196  0.3202  0.7625 -0.6157
  722MPD2     H10727   3.760   1.533  13.033 -0.6614 -1.3160 -0.6038
  722MPD2    H110728   3.606   1.195  13.236  1.5520  0.3497  2.6228
  722MPD2    H210729   4.013   1.217  13.174  1.2465  1.8431 -2.0002
  722MPD2    H310730   3.821   1.094  13.238  0.9550  0.9116 -0.4533
  722MPD2     N10731   3.526   1.414  13.075  0.1676  0.2727  0.0566
  722MPD2    H510732   3.529   1.499  13.020  0.4645 -0.7582 -1.5464
  722MPD2    N110733   4.007   1.467  13.041  0.2038  0.2849  0.2900
  722MPD2    H710734   3.987   1.559  13.003 -0.0724 -1.1467 -3.0550
  723TMC3    C110735   3.292   1.416  13.012 -0.2276  0.4093 -0.5093
  723TMC3    C210736   3.190   1.329  12.968  0.4077  0.0619 -0.5246
  723TMC3    C310737   3.105   1.376  12.872 -0.2263  0.0079  0.1981
  723TMC3    C410738   3.322   1.532  12.947  0.7775 -0.0006  0.3695
  723TMC3    C510739   3.221   1.574  12.860 -0.0457 -0.5929 -0.2219
  723TMC3    C610740   3.113   1.499  12.823  0.0792 -0.2084 -0.0836
  723TMC3     C10741   3.401   1.347  13.079  0.5238 -0.3229 -0.4161
  723TMC3     O10742   3.382   1.242  13.142  0.1463 -0.5248  0.4645
  723TMC3     H10743   3.176   1.234  13.019  1.2185  0.1169 -0.2038
  723TMC3    H110744   3.408   1.593  12.969 -0.0734  0.7894  1.4939
  723TMC3    H210745   3.038   1.525  12.748 -0.6676  0.8220  1.0311
  723TMC3    C710746   3.223   1.716  12.814  0.0465 -0.2469 -0.6006
  723TMC3    C810747   3.052   1.276  12.785 -0.1824  0.0156 -0.4938
  723TMC3    O110748   3.161   1.727  12.711  0.0843  0.0541  0.4790
  723TMC3    O210749   2.968   1.308  12.702 -0.1025 -0.4441 -0.7060
  724TMC3    C110750   4.345   4.650  11.013  0.6620 -0.2561  0.2607
  724TMC3    C210751   4.311   4.677  10.881  0.5597 -0.7035  0.1155
  724TMC3    C310752   4.309   0.074  10.844 -0.6405 -0.2029 -0.1548
  724TMC3    C410753   4.375   0.011  11.102 -0.0737  0.0988 -0.7890
  724TMC3    C510754   4.373   0.138  11.059  1.0957  0.4578 -0.2742
  724TMC3    C610755   4.339   0.175  10.931  0.8572 -0.0511 -0.3310
  724TMC3     C10756   4.316   4.522  11.071 -0.0974  0.4838  0.3543
  724TMC3     O10757   4.355   4.490  11.182  0.5398 -0.5414 -0.4761
  724TMC3     H10758   4.333   4.602  10.805 -2.6254 -1.8152  0.2768
  724TMC3    H110759   4.410   4.719  11.200  1.4884  1.8171 -0.8176
  724TMC3    H210760   4.319   0.277  10.900 -2.8076 -0.9264 -0.8501
  724TMC3    C710761   4.441   0.241  11.144  0.1682 -0.0932 -1.1447
  724TMC3    C810762   4.322   0.097  10.703  0.4426  0.1255 -0.4764
  724TMC3    O110763   4.437   0.349  11.092 -0.5308  0.4426  0.6356
  724TMC3    O210764   4.237   0.059  10.618 -0.2126  0.1319  0.2727
  725TMC3    C110765   1.207   3.063  12.771 -0.6107 -0.2566  0.2388
  725TMC3    C210766   1.099   3.134  12.743  0.0301  0.0602  0.3939
  725TMC3    C310767   1.027   3.096  12.632 -0.2389  0.0483  0.0417
  725TMC3    C410768   1.238   2.949  12.699 -0.0718 -0.7443 -0.1191
  725TMC3    C510769   1.155   2.910  12.599 -0.0819 -0.5093  0.2230
  725TMC3    C610770   1.052   2.985  12.557  0.4917  0.4204 -0.2420
  725TMC3     C10771   1.278   3.097  12.895  0.5362  0.2240 -0.0894
  725TMC3     O10772   1.232   3.183  12.967  0.0230  0.4316  0.9136
  725TMC3     H10773   1.082   3.224  12.801  0.0011  1.3057 -1.5175
  725TMC3    H110774   1.306   2.874  12.738  2.0255  0.9784 -0.4488
  725TMC3    H210775   0.990   2.971  12.469  0.5126  0.1634 -0.2157
  725TMC3    C710776   1.207   2.803  12.517 -0.1576 -0.3202  0.2020
  725TMC3    C810777   0.951   3.195  12.559  0.1309  0.2402  0.4727
  725TMC3    O110778   1.322   2.761  12.535 -0.1520  0.5641  0.0206
  725TMC3    O210779   0.955   3.198  12.436 -0.6460 -0.4589  0.2989
  726MPD2     C10780   3.585   0.313  10.763  0.3094 -0.2878  0.1943
  726MPD2    C110781   3.491   0.303  10.659  0.4457 -0.0266 -1.4560
  726MPD2    C210782   3.398   0.198  10.676  0.0804 -0.1947 -0.3659
  726MPD2    C310783   3.406   0.110  10.780  0.3906  0.1887  0.1893
  726MPD2    C410784   3.507   0.121  10.879  0.5392 -0.4560 -0.2146
  726MPD2    C510785   3.590   0.227  10.873 -0.0052  0.5599  0.3241
  726MPD2     H10786   3.321   0.183  10.601 -1.0949 -1.5653  1.1234
  726MPD2    H110787   3.515   0.059  10.968 -2.6764 -0.2151  0.2476
  726MPD2    H210788   3.646   0.402  10.770 -1.5327  1.1841 -2.4074
  726MPD2    H310789   3.668   0.231  10.949 -1.9350  2.4615  2.1901
  726MPD2     N10790   3.304   0.017  10.798  0.9467 -0.3131  0.5679
  726MPD2    H510791   3.293   4.711  10.889 -0.2812 -0.8762  0.1441
  726MPD2    N110792   3.475   0.398  10.553  0.5096 -0.0318 -0.0573
  726MPD2    H710793   3.402   0.380  10.484 -0.4071 -2.3090  1.5003
  727TMC3    C110794   3.506   0.596  10.420 -0.1005  0.2930 -0.3109
  727TMC3    C210795   3.586   0.710  10.407 -0.0583 -1.2080  0.6192
  727TMC3    C310796   3.515   0.817  10.369 -0.1627  0.0468  0.0175
  727TMC3    C410797   3.375   0.591  10.383 -0.0452 -0.3860 -0.4424
  727TMC3    C510798   3.316   0.708  10.350  0.0780  0.6623 -0.5841
  727TMC3    C610799   3.384   0.821  10.334  0.2044  0.0249  0.1563
  727TMC3     C10800   3.549   0.510  10.532 -0.1247  0.3717 -0.0812
  727TMC3     O10801   3.646   0.558  10.595  0.0358 -0.8595 -0.6491
  727TMC3     H10802   3.690   0.707  10.437  0.3922 -2.7287 -1.0733
  727TMC3    H110803   3.311   0.512  10.421 -3.1990  1.7987 -1.2272
  727TMC3    H210804   3.336   0.913  10.303 -0.6171  0.0593  1.4918
  727TMC3    C710805   3.193   0.698  10.278 -0.4184  0.3459 -0.5892
  727TMC3    C810806   3.587   0.939  10.399  0.7365 -0.1455  0.4739
  727TMC3    O110807   3.143   0.806  10.233 -0.4251  0.4485 -0.7296
  727TMC3    O210808   3.710   0.924  10.393  0.2278  0.2725 -0.7154
  728TMC3    C110809   2.690   3.069  15.484 -0.3058 -0.3953  0.3100
  728TMC3    C210810   2.798   3.124  15.548 -0.4653  1.0291  1.0732
  728TMC3    C310811   2.905   3.143  15.472 -0.1935 -0.0563 -0.9852
  728TMC3    C410812   2.687   3.049  15.349  0.8282 -0.0910 -0.7674
  728TMC3    C510813   2.792   3.086  15.276 -0.9143  0.7395 -0.0972
  728TMC3    C610814   2.905   3.128  15.334 -0.0065 -0.0417  0.2903
  728TMC3     C10815   2.581   3.005  15.556 -0.3969 -0.3085  0.1893
  728TMC3     O10816   2.507   2.933  15.492 -0.7755  0.0077 -0.5289
  728TMC3     H10817   2.818   3.141  15.653  0.9246  1.2955  0.7718
  728TMC3    H110818   2.596   3.025  15.295  1.0101  0.8541 -1.5007
  728TMC3    H210819   2.997   3.153  15.282  0.6044 -0.5167  1.1287
  728TMC3    C710820   2.790   3.102  15.126 -0.1408 -0.1946  0.3936
  728TMC3    C810821   3.025   3.181  15.545  0.3728  0.2017  0.8438
  728TMC3    O110822   2.712   3.033  15.064 -0.1455  0.0704  0.4564
  728TMC3    O210823   3.011   3.252  15.643 -0.3799  0.3702  0.5601
  729MPD2     C10824   0.905   4.000  17.096  0.0303  0.4519 -0.2490
  729MPD2    C110825   0.912   4.132  17.061  0.3694 -0.6283  0.1762
  729MPD2    C210826   0.870   4.230  17.149  0.4697 -0.6397  0.4041
  729MPD2    C310827   0.821   4.197  17.274 -0.0802 -0.0444 -0.7345
  729MPD2    C410828   0.815   4.069  17.310 -0.3082 -0.4314  0.1329
  729MPD2    C510829   0.857   3.972  17.219  0.8695  0.5925 -0.7791
  729MPD2     H10830   0.869   4.333  17.116  1.1530 -0.5840  0.5493
  729MPD2    H110831   0.769   4.025  17.398 -2.1881  0.6505 -0.3077
  729MPD2    H210832   0.922   3.922  17.022 -1.8984  1.1055 -1.3794
  729MPD2    H310833   0.842   3.868  17.246  1.3972  0.8034  0.3322
  729MPD2     N10834   0.776   4.308  17.347 -0.0786 -0.2732  0.2052
  729MPD2    H510835   0.794   4.397  17.303  1.4234 -0.4407  0.4793
  729MPD2    N110836   0.970   4.165  16.935  0.2273 -0.0055  0.1875
  729MPD2    H710837   1.000   4.080  16.888  1.1918  1.1568 -1.2931
  730TMC3    C110838   0.688   4.403  17.546  0.1384 -0.3604  0.0117
  730TMC3    C210839   0.701   4.417  17.681  0.1096 -0.3640 -0.2148
  730TMC3    C310840   0.660   4.530  17.744 -0.6836  0.5216  0.0369
  730TMC3    C410841   0.641   4.507  17.472  0.7098  0.2397  0.2308
  730TMC3    C510842   0.613   4.621  17.539 -0.3879  1.0645 -0.3163
  730TMC3    C610843   0.617   4.639  17.675 -0.1775  0.0137  0.8381
  730TMC3     C10844   0.739   4.290  17.484  0.6320  0.5395  0.3403
  730TMC3     O10845   0.745   4.191  17.556 -0.0168  0.1735  0.0000
  730TMC3     H10846   0.752   4.346  17.747 -0.1083  0.1290  0.4782
  730TMC3    H110847   0.606   4.501  17.369  3.8703 -2.4144 -0.6739
  730TMC3    H210848   0.608   4.734  17.727  1.7125  1.0091 -0.6616
  730TMC3    C710849   0.611   0.003  17.455 -0.3579  0.0350 -0.6713
  730TMC3    C810850   0.714   4.542   0.127 -0.2119  0.4135  1.0940
  730TMC3    O110851   0.666   0.003  17.346 -0.3997  0.2382 -0.1170
  730TMC3    O210852   0.700   4.455   0.213  0.3776 -0.5670 -0.3151
  731MPD2     C10853   0.603   3.169  12.428  0.4534 -0.0931  0.5121
  731MPD2    C110854   0.642   3.046  12.378  0.0044  0.0481  0.3768
  731MPD2    C210855   0.579   2.930  12.424  0.5472 -0.4395 -0.3433
  731MPD2    C310856   0.491   2.938  12.527  0.0638  0.1513  0.7594
  731MPD2    C410857   0.458   3.058  12.585 -0.5085 -0.1374  0.5614
  731MPD2    C510858   0.519   3.171  12.534 -0.6180 -0.2384  0.5925
  731MPD2     H10859   0.614   2.839  12.376 -1.1476 -1.9722  1.3339
  731MPD2    H110860   0.399   3.059  12.676 -0.8087  0.5496  0.3514
  731MPD2    H210861   0.646   3.265  12.405  2.4990 -1.2105 -0.2965
  731MPD2    H310862   0.494   3.267  12.577  1.2100  0.3343  0.3369
  731MPD2     N10863   0.434   2.826  12.596  0.9718  0.7159 -0.2578
  731MPD2    H510864   0.375   2.850  12.675  1.0351  0.6074 -0.1774
  731MPD2    N110865   0.729   3.047  12.272  0.0119  0.4129  0.1643
  731MPD2    H710866   0.774   3.135  12.246  0.7589  0.2091  0.7540
  732TMC3    C110867   0.858   2.952  12.086 -0.1116  1.1554 -0.3032
  732TMC3    C210868   0.847   2.875  11.981 -0.1704 -0.5971  0.1736
  732TMC3    C310869   0.951   2.808  11.931 -0.2032  0.2191  0.3777
  732TMC3    C410870   0.985   2.988  12.128  0.8600  0.2058  0.4400
  732TMC3    C510871   1.097   2.936  12.075 -0.3898  0.1925 -0.2760
  732TMC3    C610872   1.083   2.835  11.976  0.2889 -1.0869 -0.2476
  732TMC3     C10873   0.745   2.943  12.183  0.4844  0.4160 -0.0115
  732TMC3     O10874   0.662   2.856  12.150  0.2088 -0.5616 -0.2266
  732TMC3     H10875   0.750   2.869  11.932  0.8308  3.0297 -2.2811
  732TMC3    H110876   0.999   3.051  12.216  0.9443  2.1933 -1.0103
  732TMC3    H210877   1.171   2.806  11.920  1.3347  0.0216  0.8068
  732TMC3    C710878   1.225   2.983  12.128 -0.8282  0.4893  0.0128
  732TMC3    C810879   0.939   2.676  11.875  0.3309 -0.0910  0.1837
  732TMC3    O110880   1.229   3.074  12.208 -0.0092 -0.0430  0.0930
  732TMC3    O210881   1.036   2.618  11.822 -0.0568 -0.4876  0.0966
  733TMC3    C110882   1.800   0.507  13.258 -0.1922 -0.3351  0.0116
  733TMC3    C210883   1.873   0.607  13.304 -0.5386  0.3731 -0.1990
  733TMC3    C310884   1.987   0.638  13.236  0.1335 -0.0877  0.4259
  733TMC3    C410885   1.835   0.425  13.150  1.1673  0.7439 -0.8694
  733TMC3    C510886   1.947   0.458  13.086 -1.0351  0.3184 -0.2532
  733TMC3    C610887   2.024   0.561  13.123  0.3704  0.5525  0.2406
  733TMC3     C10888   1.662   0.554  13.243 -0.5870 -0.0678  0.1218
  733TMC3     O10889   1.639   0.672  13.218  0.7994  0.2971  0.4349
  733TMC3     H10890   1.845   0.675  13.384  1.1980  0.4862  0.3154
  733TMC3    H110891   1.757   0.368  13.101  0.2987  0.7339  0.5144
  733TMC3    H210892   2.109   0.590  13.062  1.0978  0.4645  1.2021
  733TMC3    C710893   1.923   0.466  12.945  0.0428 -0.2123 -0.6173
  733TMC3    C810894   2.026   0.779  13.227  0.6641 -0.7587  0.1356
  733TMC3    O110895   1.910   0.368  12.877 -0.1291 -0.2567 -0.0414
  733TMC3    O210896   2.144   0.806  13.222 -0.1525 -0.4805 -0.5597
  734MPD2     C10897   3.157   3.127  12.768 -0.3999  0.7359  0.4043
  734MPD2    C110898   3.158   3.043  12.650 -0.1093  0.0413  0.2349
  734MPD2    C210899   3.235   3.089  12.543 -0.5770  1.0379  0.3555
  734MPD2    C310900   3.282   3.217  12.542  0.3656 -0.3975  0.0137
  734MPD2    C410901   3.268   3.299  12.655 -0.3829  0.6518  0.8900
  734MPD2    C510902   3.216   3.247  12.767  0.6109  0.6445 -0.3667
  734MPD2     H10903   3.243   3.022  12.458  3.3737 -0.2314  1.7443
  734MPD2    H110904   3.301   3.402  12.644 -0.1804  0.8559  3.2860
  734MPD2    H210905   3.098   3.104  12.856  1.8018  0.5548  1.8493
  734MPD2    H310906   3.225   3.303  12.859  1.3029 -2.2527  1.3137
  734MPD2     N10907   3.342   3.264  12.424 -0.6001  0.7755  0.0336
  734MPD2    H510908   3.362   3.187  12.361 -0.7135 -0.4563  1.5263
  734MPD2    N110909   3.078   2.930  12.647 -0.1603 -0.4395 -0.3635
  734MPD2    H710910   3.051   2.884  12.734 -0.4399  0.2737 -0.0641
  735TMC3    C110911   2.932   2.769  12.539 -0.3000 -0.2732  0.1691
  735TMC3    C210912   2.851   2.748  12.428  0.1460  0.1502 -0.3615
  735TMC3    C310913   2.863   2.634  12.355 -0.2192  0.0951 -0.0276
  735TMC3    C410914   3.011   2.670  12.579 -0.1618  0.1253  0.2443
  735TMC3    C510915   3.028   2.556  12.510  0.9190 -0.1292  0.3354
  735TMC3    C610916   2.951   2.530  12.396 -0.2349  0.2276  0.5106
  735TMC3     C10917   3.012   2.891  12.531  0.4128 -0.4056  0.8670
  735TMC3     O10918   3.022   2.947  12.424 -0.0955  0.0620 -0.7078
  735TMC3     H10919   2.789   2.829  12.391  0.8481  0.8735  0.0439
  735TMC3    H110920   3.079   2.689  12.661  1.9790 -2.4604 -0.9197
  735TMC3    H210921   2.970   2.445  12.331 -0.3837  0.3390  0.3198
  735TMC3    C710922   3.161   2.489  12.525 -0.6643 -0.8700 -0.5175
  735TMC3    C810923   2.886   2.663  12.213  0.0690  0.0997  0.5006
  735TMC3    O110924   3.252   2.549  12.583 -0.4805 -0.0075  0.0296
  735TMC3    O210925   2.875   2.568  12.134  0.1606 -0.1021 -0.7187
  736MPD2     C10926   3.290   2.172  12.400 -0.5998 -0.0382  0.1181
  736MPD2    C110927   3.299   2.306  12.436 -0.5954 -0.0544  0.7826
  736MPD2    C210928   3.413   2.377  12.408  0.0282 -0.1702  0.9328
  736MPD2    C310929   3.523   2.306  12.364  0.9608 -0.6803  0.2185
  736MPD2    C410930   3.513   2.176  12.336 -0.3742 -0.1224 -0.6080
  736MPD2    C510931   3.395   2.105  12.346  0.0704 -0.0123  0.2444
  736MPD2     H10932   3.423   2.482  12.433 -0.5841  0.3554 -1.0375
  736MPD2    H110933   3.596   2.114  12.303  1.4410  1.2760  1.3101
  736MPD2    H210934   3.195   2.122  12.417  0.0616 -1.5037 -0.4549
  736MPD2    H310935   3.379   2.003  12.314  0.1402  0.1943 -0.4388
  736MPD2     N10936   3.653   2.363  12.350 -0.1944 -0.1021 -0.0716
  736MPD2    H510937   3.727   2.314  12.300  0.6801  1.2036 -0.0643
  736MPD2    N110938   3.173   2.364  12.470 -0.3424  0.0721  0.1895
  736MPD2    H710939   3.089   2.309  12.453 -1.2962  1.5951 -0.0617
  737TMC3    C110940   3.816   2.531  12.379 -0.2053 -0.3250  0.8063
  737TMC3    C210941   3.796   2.672  12.369 -0.0765 -0.8704  0.2092
  737TMC3    C310942   3.878   2.735  12.283 -0.5034  0.4428 -0.5355
  737TMC3    C410943   3.902   2.467  12.301 -0.3338  0.2473  0.3533
  737TMC3    C510944   3.974   2.534  12.208 -0.0524 -0.0815 -0.2711
  737TMC3    C610945   3.970   2.669  12.202 -0.4107  0.4255  0.1274
  737TMC3     C10946   3.689   2.474  12.427  0.3586 -0.1397  0.6600
  737TMC3     O10947   3.628   2.541  12.504  0.1721  0.2303  0.0064
  737TMC3     H10948   3.718   2.732  12.413  1.3689 -0.3067  2.0320
  737TMC3    H110949   3.919   2.361  12.318  0.7847  0.5293  1.0170
  737TMC3    H210950   4.011   2.724  12.118 -3.6014  1.6574 -0.6035
  737TMC3    C710951   4.036   2.449  12.112  0.6918 -0.6609 -0.2078
  737TMC3    C810952   3.854   2.880  12.265  0.2364 -0.2085  0.0915
  737TMC3    O110953   3.996   2.333  12.113  0.1858 -0.3997 -0.3367
  737TMC3    O210954   3.825   2.939  12.370 -0.1389 -0.5250  0.7261
  738MPD2     C10955   3.763   1.833  14.817  0.2104 -0.3061 -0.2189
  738MPD2    C110956   3.851   1.789  14.916 -0.4468  0.3020 -1.0149
  738MPD2    C210957   3.942   1.880  14.969 -0.1389 -0.3202 -0.3388
  738MPD2    C310958   3.956   2.009  14.912  0.2361 -0.8915  0.3575
  738MPD2    C410959   3.874   2.041  14.812  0.2056  1.1409  0.2504
  738MPD2    C510960   3.772   1.961  14.776 -0.7466 -0.9642  0.0003
  738MPD2     H10961   4.019   1.849  15.039  0.1511 -0.2720 -0.6403
  738MPD2    H110962   3.894   2.139  14.771  2.0711  0.1365 -1.2558
  738MPD2    H210963   3.680   1.776  14.777  0.3946 -0.0818 -0.9172
  738MPD2    H310964   3.703   1.989  14.697 -2.1436 -1.2708  1.1068
  738MPD2     N10965   4.052   2.105  14.945 -0.4215 -0.1460  0.0089
  738MPD2    H510966   4.047   2.192  14.893  1.1435 -0.0943 -0.0461
  738MPD2    N110967   3.853   1.651  14.963 -0.7198  0.3200  0.3847
  738MPD2    H710968   3.902   1.631  15.050 -0.8167 -1.2132  0.0801
  739TMC3    C110969   4.253   2.190  15.024 -0.4377 -1.1163 -1.0325
  739TMC3    C210970   4.309   2.200  14.900 -0.1813 -0.1159 -0.6164
  739TMC3    C310971   4.424   2.271  14.888 -0.6342  0.2983  0.3344
  739TMC3    C410972   4.317   2.235  15.136  0.3133  0.3506  0.2258
  739TMC3    C510973   4.430   2.316  15.113  0.3181 -0.0592 -0.1083
  739TMC3    C610974   4.491   2.328  14.990  0.0101 -0.4049  0.9369
  739TMC3     C10975   4.133   2.107  15.050 -0.1996 -0.2563  0.4616
  739TMC3     O10976   4.141   2.032  15.144  0.4589 -0.9550 -0.4896
  739TMC3     H10977   4.259   2.163  14.811  0.5727  2.7140 -2.2118
  739TMC3    H110978   4.261   2.242  15.228  1.0436  4.1735  0.3569
  739TMC3    H210979   4.585   2.383  14.991 -0.1989 -0.1300  3.8810
  739TMC3    C710980   4.481   2.378  15.231 -0.6978  0.7424  0.5010
  739TMC3    C810981   4.492   2.256  14.762  0.1558  0.7293 -0.2449
  739TMC3    O110982   4.434   2.348  15.342 -0.0255 -0.1194 -0.1439
  739TMC3    O210983   4.447   2.171  14.690 -0.1679  0.4346 -0.1022
  740TMC3    C110984   0.091   3.317  14.457  0.1352 -0.1865  0.1921
  740TMC3    C210985   0.125   3.208  14.542  0.0658 -0.3938  0.0771
  740TMC3    C310986   0.207   3.106  14.493 -0.0445  0.1870  0.7365
  740TMC3    C410987   0.145   3.321  14.332 -0.0153 -0.9947 -0.3274
  740TMC3    C510988   0.214   3.206  14.282  0.2591  0.2906 -0.7464
  740TMC3    C610989   0.244   3.098  14.365  0.0657 -0.7537  0.1546
  740TMC3     C10990   0.005   3.427  14.505 -0.1168 -0.3959 -0.5944
  740TMC3     O10991   4.726   3.528  14.438  0.3809 -0.2531  0.5650
  740TMC3     H10992   0.100   3.213  14.647  0.2086  1.6577  0.0152
  740TMC3    H110993   0.130   3.402  14.261 -3.6800 -1.8222 -0.4690
  740TMC3    H210994   0.289   3.006  14.328  1.4629 -1.0688  2.6476
  740TMC3    C710995   0.301   3.232  14.166 -0.3970  0.6031 -0.2273
  740TMC3    C810996   0.239   2.999  14.591 -0.7867  0.3150 -0.2280
  740TMC3    O110997   0.252   3.295  14.074  0.7220 -0.3288 -0.0656
  740TMC3    O210998   0.303   2.905  14.545  0.0434  0.2381  0.0554
  741TMC3    C110999   4.468   2.350  14.284  0.6585  0.4519 -0.8058
  741TMC3    C211000   4.379   2.251  14.296  0.0664 -0.3393 -0.5263
  741TMC3    C311001   4.300   2.257  14.411 -0.4161 -0.3251 -0.5011
  741TMC3    C411002   4.491   2.446  14.370  0.2879 -0.4094 -0.2675
  741TMC3    C511003   4.396   2.463  14.471  0.1730  0.1751 -0.0232
  741TMC3    C611004   4.305   2.367  14.499 -0.6038  0.5024 -0.3095
  741TMC3     C11005   4.528   2.372  14.152  0.6408 -0.0414 -0.3201
  741TMC3     O11006   4.632   2.432  14.155 -0.4030  0.0494  0.6365
  741TMC3     H11007   4.367   2.168  14.227  0.7559 -1.2423  0.4368
  741TMC3    H111008   4.562   2.527  14.353 -1.7623  1.1511 -1.3113
  741TMC3    H211009   4.241   2.375  14.586 -1.9037 -0.7119 -1.1500
  741TMC3    C711010   4.430   2.570  14.560 -0.9307  0.5186 -0.1676
  741TMC3    C811011   4.172   2.183  14.421  0.6669  0.4081  0.5571
  741TMC3    O111012   4.531   2.629  14.544 -0.1901 -0.3447 -0.1354
  741TMC3    O211013   4.095   2.222  14.510  0.1447  0.1095 -0.2567
  742TMC3    C111014   4.514   0.712  15.680  0.1688  0.0749  0.1700
  742TMC3    C211015   4.434   0.711  15.568  0.1394 -0.0920 -0.5980
  742TMC3    C311016   4.492   0.759  15.456  0.2309 -0.8576  0.1131
  742TMC3    C411017   4.622   0.796  15.684 -0.3500 -0.1475 -0.4930
  742TMC3    C511018   4.674   0.852  15.570  0.3001  0.1071  0.0932
  742TMC3    C611019   4.611   0.821  15.450  0.2258 -0.3113 -0.3012
  742TMC3     C11020   4.492   0.635  15.802 -0.5223 -0.3745  0.6435
  742TMC3     O11021   4.583   0.628  15.882  0.4568 -0.1866 -0.3720
  742TMC3     H11022   4.355   0.638  15.551  0.5462 -0.9829  1.2714
  742TMC3    H111023   4.686   0.804  15.771  1.3134 -1.9151 -1.5386
  742TMC3    H211024   4.655   0.832  15.352 -0.6236  0.2019 -0.6262
  742TMC3    C711025   0.079   0.875  15.562 -0.2925 -0.0253  0.4581
  742TMC3    C811026   4.428   0.734  15.331 -0.7009 -0.3996  0.1634
  742TMC3    O111027   0.145   0.796  15.629  0.2834  0.1132  0.2718
  742TMC3    O211028   4.371   0.627  15.316 -0.7879  0.0018 -0.0645
  743MPD2     C11029   2.717   3.147   2.033  0.5190 -0.1639  0.0950
  743MPD2    C111030   2.705   3.047   1.933  1.0635 -0.7158  0.0468
  743MPD2    C211031   2.786   2.932   1.944 -0.0516  0.9564 -0.8745
  743MPD2    C311032   2.874   2.920   2.052  0.2353  0.1123  0.2906
  743MPD2    C411033   2.872   3.014   2.152 -0.3546  0.7557 -0.9397
  743MPD2    C511034   2.805   3.130   2.134 -0.3321  0.3153 -0.3424
  743MPD2     H11035   2.778   2.846   1.880 -0.0566  0.9746 -0.8984
  743MPD2    H111036   2.947   3.009   2.230  2.1174  1.8479 -3.2549
  743MPD2    H211037   2.653   3.234   2.030  1.7497  0.8153  2.6362
  743MPD2    H311038   2.816   3.204   2.212  2.0927 -0.4882  0.0624
  743MPD2     N11039   2.942   2.796   2.064 -0.4002  0.8085  0.1160
  743MPD2    H511040   2.954   2.745   1.977 -0.2481 -1.2999  1.3819
  743MPD2    N111041   2.608   3.063   1.829  0.3702 -0.0333 -0.5486
  743MPD2    H711042   2.540   3.139   1.830  0.3148 -0.0680 -1.9668
  744TMC3    C111043   2.474   2.998   1.638  0.4142  0.0958  0.1701
  744TMC3    C211044   2.380   3.093   1.663 -0.6469  0.3082  0.3583
  744TMC3    C311045   2.284   3.115   1.566 -0.0711  0.4346 -0.1786
  744TMC3    C411046   2.458   2.919   1.528 -0.0547 -0.4263  0.0550
  744TMC3    C511047   2.362   2.940   1.439  0.7502 -0.1601  0.0763
  744TMC3    C611048   2.268   3.038   1.459  0.0146  0.5136 -0.2414
  744TMC3     C11049   2.595   2.981   1.717  0.4387 -0.2940 -0.2347
  744TMC3     O11050   2.664   2.887   1.684  0.4157 -0.0863  0.1299
  744TMC3     H11051   2.394   3.149   1.755  0.3737 -2.7863  2.0744
  744TMC3    H111052   2.514   2.827   1.514  3.9543  1.9154  0.5375
  744TMC3    H211053   2.206   3.064   1.374 -2.3975  0.8377  1.6364
  744TMC3    C711054   2.365   2.860   1.321  0.1948 -0.2540 -0.5979
  744TMC3    C811055   2.165   3.191   1.599 -0.1113  0.3800 -0.4354
  744TMC3    O111056   2.473   2.812   1.289 -1.2426  0.2866 -0.2581
  744TMC3    O211057   2.076   3.164   1.520  0.5178  0.0889  1.1161
  745TMC3    C111058   0.107   0.512  13.717 -0.7293  0.2635  0.0801
  745TMC3    C211059   4.716   0.538  13.754  0.0408 -0.3538 -0.3605
  745TMC3    C311060   4.622   0.554  13.655 -0.4346  0.2426  0.9848
  745TMC3    C411061   0.154   0.518  13.589 -0.2144 -0.0961 -0.2918
  745TMC3    C511062   0.056   0.536  13.493 -0.2392  0.8813  0.0586
  745TMC3    C611063   4.658   0.544  13.523 -0.6365 -0.0280  0.2186
  745TMC3     C11064   0.194   0.587  13.812  0.8165 -0.6086 -0.8925
  745TMC3     O11065   0.192   0.575  13.935  0.2811 -0.4302 -0.1958
  745TMC3     H11066   4.694   0.548  13.860  0.2475  0.9018 -0.4407
  745TMC3    H111067   0.259   0.501  13.566 -0.2340 -1.6903  0.7352
  745TMC3    H211068   4.588   0.588  13.453  0.7231 -1.2899 -1.9195
  745TMC3    C711069   0.095   0.562  13.354 -0.1664 -1.0110  0.3086
  745TMC3    C811070   4.544   0.677  13.689 -0.1661  0.4387 -0.0351
  745TMC3    O111071   0.001   0.566  13.276  0.2771 -0.3450 -0.1902
  745TMC3    O211072   4.439   0.695  13.632  0.3666 -0.0397 -0.1456
  746TMC3    C111073   2.430   2.412  11.023 -0.6235  0.0367 -0.3542
  746TMC3    C211074   2.532   2.384  10.928 -0.4210 -0.0925 -0.5706
  746TMC3    C311075   2.522   2.277  10.844  0.1996  0.8459  0.3818
  746TMC3    C411076   2.324   2.328  11.043 -0.4452 -0.2170 -0.3123
  746TMC3    C511077   2.322   2.214  10.957  0.4932  0.6723  0.4871
  746TMC3    C611078   2.414   2.190  10.858 -0.1052 -0.3255 -0.1988
  746TMC3     C11079   2.414   2.541  11.086  0.3758  0.2720 -0.6739
  746TMC3     O11080   2.358   2.542  11.194 -0.1529 -0.2553  0.1508
  746TMC3     H11081   2.626   2.436  10.919  0.4388 -0.9951  3.3115
  746TMC3    H111082   2.240   2.356  11.105  0.5536  0.4546  0.7438
  746TMC3    H211083   2.399   2.116  10.780 -0.4363  1.5381 -1.9167
  746TMC3    C711084   2.201   2.134  10.953  0.6124  0.2183 -0.3377
  746TMC3    C811085   2.600   2.281  10.719 -0.6124 -0.0293  0.6441
  746TMC3    O111086   2.190   2.065  10.854  0.4463 -0.6698 -0.2287
  746TMC3    O211087   2.611   2.183  10.649  0.0597  0.6243  0.9926
  747TMC3    C111088   4.523   2.894  11.292 -0.1242 -0.0653  0.5597
  747TMC3    C211089   4.434   2.795  11.321  0.5446  0.2322  0.1702
  747TMC3    C311090   4.418   2.761  11.455  0.2498  0.5256 -0.1265
  747TMC3    C411091   4.603   2.955  11.385  0.4513 -1.0129  0.0585
  747TMC3    C511092   4.590   2.907  11.510 -0.1530  1.1338  0.1268
  747TMC3    C611093   4.509   2.805  11.544 -0.1017  0.1060  0.2015
  747TMC3     C11094   4.527   2.962  11.165 -0.7403 -0.5170 -0.9913
  747TMC3     O11095   4.569   3.076  11.154  0.4930  0.3505  0.1930
  747TMC3     H11096   4.359   2.770  11.247 -0.3177  1.1023  0.7422
  747TMC3    H111097   4.668   3.037  11.357  1.8105 -1.9867  0.3921
  747TMC3    H211098   4.509   2.772  11.647 -1.9313  2.3755  0.9270
  747TMC3    C711099   4.694   2.927  11.607  0.1872  0.2472  0.6574
  747TMC3    C811100   4.340   2.647  11.486 -0.3427  0.5646  0.5272
  747TMC3    O111101   4.665   2.925  11.725  0.6133 -0.4467  0.3508
  747TMC3    O211102   4.301   2.580  11.390 -0.2189  0.1656 -0.9299
  748MPD2     C11103   2.445   3.755   1.693  0.5028 -0.1277 -0.6787
  748MPD2    C111104   2.356   3.733   1.593  0.6457  0.3580  0.2455
  748MPD2    C211105   2.407   3.726   1.462  0.0772 -0.1640 -0.0451
  748MPD2    C311106   2.537   3.751   1.430  0.4209  0.1225 -0.3152
  748MPD2    C411107   2.626   3.774   1.535 -0.2411  0.2636  0.1349
  748MPD2    C511108   2.581   3.768   1.670  0.0156 -0.4264 -0.0390
  748MPD2     H11109   2.344   3.710   1.375  2.4183  1.1678 -1.9588
  748MPD2    H111110   2.733   3.779   1.518 -0.7274  3.7637 -1.7426
  748MPD2    H211111   2.408   3.742   1.794  3.6243  0.6661  0.5665
  748MPD2    H311112   2.649   3.774   1.754  0.3654 -5.2990 -0.0251
  748MPD2     N11113   2.588   3.753   1.298 -0.5853 -0.2643  0.1114
  748MPD2    H511114   2.686   3.776   1.287 -0.6484 -0.1439 -0.1968
  748MPD2    N111115   2.219   3.719   1.626  0.4832  0.0585  0.3790
  748MPD2    H711116   2.200   3.749   1.721 -1.5304  1.9586 -0.6081
  749TMC3    C111117   2.598   3.794   1.063 -0.3256  0.2131 -0.2375
  749TMC3    C211118   2.728   3.757   1.058 -0.2523 -0.0975  0.1557
  749TMC3    C311119   2.813   3.822   0.970 -1.0267  0.2667 -0.1885
  749TMC3    C411120   2.547   3.889   0.984 -0.3694 -1.0009  0.4706
  749TMC3    C511121   2.635   3.957   0.898 -0.3630  0.4184  0.3355
  749TMC3    C611122   2.770   3.926   0.891 -0.0158 -0.1894 -0.4206
  749TMC3     C11123   2.517   3.760   1.179  0.2507  0.2444  0.1051
  749TMC3     O11124   2.398   3.750   1.165  0.6529 -0.7740 -0.3195
  749TMC3     H11125   2.775   3.690   1.129 -2.1175 -1.1186  0.4333
  749TMC3    H111126   2.442   3.912   0.997 -0.2284 -0.9300  1.4916
  749TMC3    H211127   2.831   3.970   0.813  0.4284  0.8578  0.5223
  749TMC3    C711128   2.586   4.032   0.788  0.3323  0.1789 -0.5935
  749TMC3    C811129   2.958   3.826   0.984 -0.1307 -0.2105 -0.1349
  749TMC3    O111130   2.668   4.113   0.740  0.3558  0.2038 -0.2283
  749TMC3    O211131   3.023   3.928   0.957  0.2308  0.4847  0.0282
  750MPD2     C11132   2.633   4.371  11.548  0.1404  0.7474 -0.1365
  750MPD2    C111133   2.532   4.312  11.619 -0.1360 -0.0377  0.0014
  750MPD2    C211134   2.491   4.187  11.586 -0.2361 -0.5473 -0.0578
  750MPD2    C311135   2.546   4.118  11.482  0.0022  0.3838  0.4760
  750MPD2    C411136   2.648   4.175  11.420 -0.1451  0.2224  0.7130
  750MPD2    C511137   2.692   4.300  11.449  0.3823  0.3384 -0.1748
  750MPD2     H11138   2.404   4.145  11.634  0.6700 -1.2871  0.9160
  750MPD2    H111139   2.706   4.115  11.350  0.3555 -1.9518  3.0152
  750MPD2    H211140   2.658   4.474  11.567  1.7627  0.5889 -1.4099
  750MPD2    H311141   2.770   4.350  11.392  0.8999  0.2044  0.4250
  750MPD2     N11142   2.506   3.990  11.440 -0.2518 -0.2535  0.4619
  750MPD2    H511143   2.549   3.956  11.354 -0.0941  1.2626 -0.0574
  750MPD2    N111144   2.469   4.381  11.724 -0.2952 -0.4836 -0.9451
  750MPD2    H711145   2.499   4.477  11.733 -1.6110 -0.1949  0.2867
  751TMC3    C111146   2.433   3.774  11.457 -0.0537 -0.5072 -0.6904
  751TMC3    C211147   2.318   3.701  11.468  0.3469 -0.3193 -0.1623
  751TMC3    C311148   2.287   3.611  11.367 -0.1243  0.3194  0.0086
  751TMC3    C411149   2.538   3.732  11.375 -0.3388  0.0001 -0.8388
  751TMC3    C511150   2.517   3.623  11.290 -0.5019 -0.5633  0.0863
  751TMC3    C611151   2.389   3.569  11.283 -0.1311  0.3521 -0.2463
  751TMC3     C11152   2.429   3.905  11.514  0.1389 -0.2525  0.2540
  751TMC3     O11153   2.346   3.928  11.600 -0.6487 -0.1722 -0.1729
  751TMC3     H11154   2.236   3.732  11.531  0.7863 -0.8624  0.6775
  751TMC3    H111155   2.638   3.771  11.382 -0.0480 -1.0433  0.8610
  751TMC3    H211156   2.360   3.491  11.213  1.4443  1.9062 -2.6103
  751TMC3    C711157   2.622   3.585  11.203  0.0851  0.4131 -0.2369
  751TMC3    C811158   2.151   3.596  11.325 -0.4849  0.6821  0.4973
  751TMC3    O111159   2.708   3.664  11.170 -0.1728  0.4402  0.3929
  751TMC3    O211160   2.127   3.560  11.207 -0.4638  0.1701 -0.5173
  752TMC3    C111161   1.713   3.599  17.093  0.1034  0.6743 -0.0721
  752TMC3    C211162   1.670   3.475  17.136 -0.9445  0.0508  0.0852
  752TMC3    C311163   1.586   3.471  17.249 -0.0737  0.6172  0.3998
  752TMC3    C411164   1.695   3.709  17.173 -0.0329 -0.2456 -0.7259
  752TMC3    C511165   1.623   3.697  17.292  1.1325 -0.0269 -0.3702
  752TMC3    C611166   1.567   3.584  17.329  0.0231 -0.1062 -0.1461
  752TMC3     C11167   1.694   3.633  16.952  0.3170  0.3650  0.1017
  752TMC3     O11168   1.695   3.538  16.877  0.3868 -0.8360 -0.9360
  752TMC3     H11169   1.656   3.409  17.051 -0.9318 -1.4100  1.2205
  752TMC3    H111170   1.748   3.797  17.141  1.4169 -0.9285 -0.2003
  752TMC3    H211171   1.499   3.582  17.414  0.8346  1.1760  0.5344
  752TMC3    C711172   1.541   3.811  17.289  0.0634 -0.4398  0.3367
  752TMC3    C811173   1.545   3.342  17.310  0.0058  0.6197  0.4262
  752TMC3    O111174   1.542   3.874  17.180  0.0964  0.5524 -0.2726
  752TMC3    O211175   1.475   3.345  17.410  0.3640 -0.2197  0.1950
  753TMC3    C111176   3.201   0.253  13.243  0.0365 -0.2643 -0.2917
  753TMC3    C211177   3.264   0.289  13.358 -0.3006 -0.1465 -0.1163
  753TMC3    C311178   3.348   0.194  13.404 -0.7823 -0.0312 -0.5834
  753TMC3    C411179   3.212   0.132  13.180 -0.3429  0.1884 -0.5139
  753TMC3    C511180   3.285   0.036  13.246 -0.0651 -0.2334 -0.1662
  753TMC3    C611181   3.353   0.065  13.360  0.3867 -0.3065 -0.3140
  753TMC3     C11182   3.111   0.344  13.172 -0.2968  0.3788 -0.4621
  753TMC3     O11183   3.066   0.319  13.063 -0.0740  0.2015  0.0288
  753TMC3     H11184   3.227   0.374  13.416 -0.3843 -0.7016  0.6507
  753TMC3    H111185   3.175   0.109  13.081  0.1671 -0.8976 -0.4499
  753TMC3    H211186   3.417   4.724  13.398 -1.3900 -0.9040  1.4598
  753TMC3    C711187   3.272   4.630  13.213  0.7996  0.5925  0.7859
  753TMC3    C811188   3.414   0.215  13.538 -0.1235  0.0456  0.0385
  753TMC3    O111189   3.352   4.555  13.270 -0.3305  0.3027  0.6944
  753TMC3    O211190   3.464   0.118  13.588 -0.5720 -1.1148  0.1511
  754MPD2     C11191   2.428   3.919  13.281 -0.3809 -0.6739 -0.2586
  754MPD2    C111192   2.409   3.782  13.265 -0.2550 -0.4108 -1.5159
  754MPD2    C211193   2.288   3.740  13.208  0.5539  0.0871  0.4250
  754MPD2    C311194   2.186   3.837  13.207 -0.1684 -0.0693  0.5304
  754MPD2    C411195   2.208   3.970  13.216  0.1097 -0.2474 -0.3697
  754MPD2    C511196   2.334   4.005  13.248 -0.8419  0.0668  0.1185
  754MPD2     H11197   2.265   3.635  13.198  1.6431 -0.1061 -0.0252
  754MPD2    H111198   2.134   4.046  13.192 -1.5837 -1.1608  1.8490
  754MPD2    H211199   2.524   3.962  13.307 -0.4576 -0.5184 -0.2335
  754MPD2    H311200   2.370   4.107  13.241  3.6859 -1.4348  1.1508
  754MPD2     N11201   2.044   3.810  13.195  0.2086 -0.3703 -0.7528
  754MPD2    H511202   1.979   3.888  13.187 -2.1136 -2.2080  0.1606
  754MPD2    N111203   2.514   3.703  13.305  0.1974 -0.0221  0.6494
  754MPD2    H711204   2.602   3.749  13.325  0.5843 -0.6432  0.3890
  755MPD2     C11205   1.186   4.187  13.497 -0.7744 -0.2099  0.0308
  755MPD2    C111206   1.311   4.185  13.552 -0.3510 -0.4196 -0.0706
  755MPD2    C211207   1.406   4.092  13.513  0.3661  0.1771  0.6503
  755MPD2    C311208   1.373   4.003  13.412 -0.7657  0.2958 -0.9107
  755MPD2    C411209   1.243   4.006  13.358 -0.3395 -0.1404 -0.5680
  755MPD2    C511210   1.154   4.099  13.405  0.2457 -0.9771 -0.3046
  755MPD2     H11211   1.501   4.084  13.564 -0.5518 -0.8214  2.2119
  755MPD2    H111212   1.206   3.928  13.292  0.9060 -2.0884  1.0542
  755MPD2    H211213   1.104   4.251  13.528 -1.1221 -0.9394  0.6142
  755MPD2    H311214   1.048   4.082  13.389 -0.2970  2.5868 -0.5426
  755MPD2     N11215   1.461   3.911  13.346  0.0927  0.5574  0.3871
  755MPD2    H511216   1.426   3.853  13.271  1.2914 -1.2103  1.1852
  755MPD2    N111217   1.341   4.266  13.663  0.3856  0.4002  0.5925
  755MPD2    H711218   1.432   4.257  13.707  1.6222  0.9156 -1.8786
  756MPD2     C11219   2.409   0.281   9.989  0.0828 -0.0833  0.1774
  756MPD2    C111220   2.285   0.248  10.049  0.1086 -0.3746 -1.2368
  756MPD2    C211221   2.181   0.338  10.055  0.4644 -0.1845  0.0312
  756MPD2    C311222   2.190   0.466  10.008  0.6787  0.3689 -0.7246
  756MPD2    C411223   2.310   0.499   9.956  0.1078 -0.4067 -0.5677
  756MPD2    C511224   2.415   0.410   9.949  0.2835  0.3577 -0.0338
  756MPD2     H11225   2.087   0.304  10.096  0.3705 -0.0310 -0.0567
  756MPD2    H111226   2.334   0.598   9.920 -2.4606 -0.2912 -1.9646
  756MPD2    H211227   2.494   0.213   9.988  0.6393  0.6141  0.5181
  756MPD2    H311228   2.510   0.450   9.914  0.6968  0.9615  1.7648
  756MPD2     N11229   2.085   0.555  10.020  0.1056 -0.5638 -0.3725
  756MPD2    H511230   1.995   0.510  10.036 -1.4492  2.5155 -0.4846
  756MPD2    N111231   2.265   0.120  10.107 -0.0330  0.6469  0.0489
  756MPD2    H711232   2.171   0.085  10.120 -0.4783  1.2608 -1.4429
  757MPD2     C11233   1.312   0.403  10.362 -0.1022 -0.2634  0.0989
  757MPD2    C111234   1.423   0.328  10.343  0.4160  1.1236  0.4328
  757MPD2    C211235   1.522   0.383  10.256 -0.1593 -0.1777  0.4002
  757MPD2    C311236   1.507   0.507  10.198 -0.2112  0.0592  0.6725
  757MPD2    C411237   1.397   0.581  10.223  0.0976  0.3537  0.0442
  757MPD2    C511238   1.295   0.526  10.303 -0.1370  0.0062  0.1571
  757MPD2     H11239   1.617   0.332  10.239 -0.5804 -1.2954  1.3803
  757MPD2    H111240   1.384   0.679  10.178 -2.0137 -0.3312 -0.8568
  757MPD2    H211241   1.233   0.364  10.426  0.3905  0.3064  1.0419
  757MPD2    H311242   1.216   0.595  10.332  0.0470  0.6107 -0.7656
  757MPD2     N11243   1.612   0.563  10.114 -0.0538  0.0734  0.0832
  757MPD2    H511244   1.700   0.512  10.110 -0.5473 -0.7038 -0.8197
  757MPD2    N111245   1.434   0.208  10.415  0.1503  0.3742  0.0086
  757MPD2    H711246   1.360   0.179  10.477 -0.5463  2.2776  0.0631
  758MPD2     C11247   1.813   4.261  16.575  0.2017  0.6693  0.2364
  758MPD2    C111248   1.891   4.161  16.627 -0.6874 -0.4436 -0.1092
  758MPD2    C211249   1.953   4.189  16.750 -0.0342  0.7591  0.4656
  758MPD2    C311250   1.927   4.310  16.812 -0.0565  0.2111  0.7331
  758MPD2    C411251   1.862   4.412  16.756  0.4028  0.1960 -0.8815
  758MPD2    C511252   1.806   4.385  16.635  0.0579 -0.0328 -0.1997
  758MPD2     H11253   2.005   4.112  16.804 -0.1585  2.4270  2.9450
  758MPD2    H111254   1.864   4.515  16.788  0.6685 -0.3225  0.7869
  758MPD2    H211255   1.755   4.237  16.486 -0.3676  0.4038  0.6813
  758MPD2    H311256   1.765   4.467  16.577 -1.3257 -1.9115 -1.8423
  758MPD2     N11257   1.981   4.345  16.935 -0.3008  0.1476 -0.0625
  758MPD2    H511258   1.972   4.443  16.960  0.2702 -0.1563  1.2948
  758MPD2    N111259   1.920   4.040  16.565 -0.0881  0.6363  0.0696
  758MPD2    H711260   1.976   3.975  16.620 -0.7307  0.7332  0.8274
  759MPD2     C11261   1.137   2.985  10.356  0.2028  0.6536 -0.3973
  759MPD2    C111262   1.204   2.886  10.288 -0.4456  0.1028 -0.5898
  759MPD2    C211263   1.301   2.920  10.195  0.3034  0.4198  0.3029
  759MPD2    C311264   1.329   3.049  10.162  0.1011 -0.3210 -0.6108
  759MPD2    C411265   1.271   3.151  10.235 -0.0466  0.4892  0.3594
  759MPD2    C511266   1.175   3.114  10.334 -0.4752  0.5661 -0.2815
  759MPD2     H11267   1.365   2.850  10.143  2.8723  2.0223  1.3273
  759MPD2    H111268   1.294   3.257  10.230 -2.1634  0.9801  1.1430
  759MPD2    H211269   1.059   2.952  10.423  2.4956 -0.1005  1.9053
  759MPD2    H311270   1.119   3.190  10.387 -1.4599 -0.2900 -0.0920
  759MPD2     N11271   1.416   3.067  10.055 -0.8795  0.3898 -0.0490
  759MPD2    H511272   1.454   2.979  10.022  0.1450  0.6133  0.5174
  759MPD2    N111273   1.180   2.745  10.314  0.4128 -0.6883 -0.8204
  759MPD2    H711274   1.245   2.694  10.256  2.5725  0.9176  0.1858
  760MPD2     C11275   0.359   4.359  11.816 -0.5849  0.0175 -0.4648
  760MPD2    C111276   0.496   4.364  11.799  0.3777 -0.7290  0.1279
  760MPD2    C211277   0.568   4.253  11.824  0.7490 -0.6061 -0.3780
  760MPD2    C311278   0.510   4.136  11.871  0.1967  0.1035 -0.3795
  760MPD2    C411279   0.377   4.134  11.893  0.3639  0.5593  0.2870
  760MPD2    C511280   0.303   4.243  11.869  0.5341 -0.3757  0.0482
  760MPD2     H11281   0.675   4.261  11.813  0.6050 -2.1248 -2.8737
  760MPD2    H111282   0.327   4.050  11.939  0.2459 -0.6976 -2.1303
  760MPD2    H211283   0.294   4.445  11.805  0.2705  0.7898  0.5028
  760MPD2    H311284   0.198   4.233  11.892 -0.0665  0.9212 -2.1356
  760MPD2     N11285   0.582   4.022  11.913 -0.3247 -0.2012 -0.4291
  760MPD2    H511286   0.533   3.939  11.944  2.0041 -1.2645  0.4394
  760MPD2    N111287   0.569   4.483  11.784  0.1658 -0.3288 -0.1784
  760MPD2    H711288   0.670   4.479  11.786  0.2383  1.3036 -0.6199
  761MPD2     C11289   1.688   3.439  11.406  0.1559  0.1352  0.9703
  761MPD2    C111290   1.738   3.492  11.293  0.6182 -0.1530 -1.0800
  761MPD2    C211291   1.862   3.541  11.303  0.0238 -0.4796 -0.2227
  761MPD2    C311292   1.933   3.542  11.427 -0.7358  0.1284  0.5993
  761MPD2    C411293   1.872   3.494  11.545 -0.7774  0.3352  0.7598
  761MPD2    C511294   1.744   3.451  11.526  0.3367  0.2027 -0.0787
  761MPD2     H11295   1.916   3.577  11.217 -0.6045 -1.0921 -0.8669
  761MPD2    H111296   1.913   3.499  11.645  3.5502  1.7130 -1.1114
  761MPD2    H211297   1.594   3.386  11.406  0.5373 -0.5437 -0.4977
  761MPD2    H311298   1.692   3.411  11.612  0.1978 -0.4952 -0.4891
  761MPD2     N11299   2.069   3.578  11.434  0.6752  0.4406 -0.4135
  761MPD2    H511300   2.096   3.596  11.531  0.9907 -2.3183  0.0038
  761MPD2    N111301   1.679   3.459  11.168  0.2538 -0.5058  0.3883
  761MPD2    H711302   1.608   3.387  11.167  1.1603 -1.3809 -0.4944
  762MPD2     C11303   2.297   3.544  10.917  0.3618  0.6335 -0.5486
  762MPD2    C111304   2.263   3.417  10.884 -0.3904  0.9831  0.7446
  762MPD2    C211305   2.353   3.337  10.814 -0.2021 -0.2632 -0.1765
  762MPD2    C311306   2.479   3.387  10.775  0.1775  0.2356  0.4498
  762MPD2    C411307   2.509   3.517  10.819  0.3031  0.2860  0.2378
  762MPD2    C511308   2.416   3.596  10.888 -0.6210  0.2538 -0.1050
  762MPD2     H11309   2.324   3.238  10.782  0.8999 -0.3846 -0.7963
  762MPD2    H111310   2.600   3.562  10.781  0.6012 -1.0457 -0.6242
  762MPD2    H211311   2.216   3.614  10.930 -0.8072 -0.2362 -3.1568
  762MPD2    H311312   2.438   3.700  10.905  1.3128 -0.1575 -0.0493
  762MPD2     N11313   2.569   3.301  10.703 -0.3945 -0.9974  0.0661
  762MPD2    H511314   2.550   3.202  10.694 -0.6782 -0.9609  0.2472
  762MPD2    N111315   2.133   3.375  10.921  0.4169 -0.2100 -0.0327
  762MPD2    H711316   2.086   3.436  10.987 -1.0050 -0.5174 -0.7705
  763MPD2     C11317   3.998   3.717  16.395  0.2194 -0.2002  0.1755
  763MPD2    C111318   3.924   3.787  16.300 -1.0081  0.2822 -0.1013
  763MPD2    C211319   3.917   3.926  16.304 -0.0482  0.7277 -0.9780
  763MPD2    C311320   3.993   3.994  16.399 -0.0534  0.3841 -0.0046
  763MPD2    C411321   4.076   3.927  16.488 -0.0854 -0.7412  0.3226
  763MPD2    C511322   4.066   3.791  16.494  0.5577 -0.1209 -0.1186
  763MPD2     H11323   3.846   3.974  16.238  0.5132  1.0758 -1.3175
  763MPD2    H111324   4.135   3.975  16.565  1.3096 -1.4841 -0.2926
  763MPD2    H211325   4.011   3.610  16.391 -0.6167 -0.3281  0.8173
  763MPD2    H311326   4.123   3.740  16.571  0.4888  0.5711  0.3919
  763MPD2     N11327   3.994   4.139  16.412  0.0761 -0.4890  0.1928
  763MPD2    H511328   4.052   4.171  16.489  0.7257  0.8671 -0.8620
  763MPD2    N111329   3.853   3.726  16.192 -0.3108 -0.5202 -0.1952
  763MPD2    H711330   3.798   3.776  16.123  0.3910  1.7333  0.8780
  764MPD2     C11331   1.888   0.613   0.249  0.4616 -0.7265 -0.2152
  764MPD2    C111332   1.787   0.531   0.282 -0.9041  0.1477 -0.5278
  764MPD2    C211333   1.770   0.492   0.415 -0.1719 -0.5600 -0.7752
  764MPD2    C311334   1.861   0.539   0.504 -0.3030 -0.7789 -0.1872
  764MPD2    C411335   1.972   0.604   0.464 -0.5708  0.1769 -0.5498
  764MPD2    C511336   1.978   0.653   0.338 -0.0201  0.7338 -0.0003
  764MPD2     H11337   1.683   0.437   0.448  0.6591  0.0099  2.3182
  764MPD2    H111338   2.050   0.642   0.530 -1.7052  1.9049 -0.2205
  764MPD2    H211339   1.910   0.638   0.146 -0.4190 -0.9390 -0.4594
  764MPD2    H311340   2.064   0.708   0.300  1.9358 -0.8885  2.0059
  764MPD2     N11341   1.846   0.505   0.638 -0.0294 -0.6239  0.8903
  764MPD2    H511342   1.768   0.444   0.663 -1.1430  1.3588  2.2630
  764MPD2    N111343   1.706   0.475   0.178  0.4708 -0.2477 -0.3189
  764MPD2    H711344   1.743   0.482   0.084  0.8750  2.0883  0.0026
  765MPD2     C11345   1.335   2.642  16.014 -0.2164  0.0928  0.0448
  765MPD2    C111346   1.432   2.741  16.015 -0.4870 -0.2194 -0.7297
  765MPD2    C211347   1.560   2.702  15.992 -0.4882  0.5630  0.1590
  765MPD2    C311348   1.602   2.570  15.990 -0.9098 -0.2367  0.3734
  765MPD2    C411349   1.503   2.472  16.012 -0.1127  0.3553 -0.2670
  765MPD2    C511350   1.369   2.511  16.014 -0.5383 -0.1724  0.0877
  765MPD2     H11351   1.640   2.774  15.982 -1.7468  1.7718 -1.1277
  765MPD2    H111352   1.530   2.368  16.026 -0.7027  0.0604 -1.3161
  765MPD2    H211353   1.231   2.670  16.022 -0.6405 -0.5529 -3.6032
  765MPD2    H311354   1.287   2.442  16.025 -1.0747  0.6065  0.9722
  765MPD2     N11355   1.738   2.544  15.979 -0.3492  0.4263 -0.2703
  765MPD2    H511356   1.793   2.628  15.963 -1.4600  1.8351  3.2759
  765MPD2    N111357   1.388   2.872  16.027 -0.3997 -0.5180 -0.4844
  765MPD2    H711358   1.290   2.888  16.050  0.0020  2.5600 -0.8758
  766MPD2     C11359   1.145   3.125  15.435  0.2027 -0.1094  0.8991
  766MPD2    C111360   1.276   3.144  15.481  0.4501 -0.8314 -0.0120
  766MPD2    C211361   1.383   3.138  15.392  0.0073  0.6743 -0.2096
  766MPD2    C311362   1.360   3.095  15.261 -0.1857 -0.8618  0.0663
  766MPD2    C411363   1.233   3.076  15.215  0.0295 -0.0598 -0.5109
  766MPD2    C511364   1.125   3.086  15.301  1.2505 -0.1893  0.1402
  766MPD2     H11365   1.484   3.159  15.426  0.9220 -0.7828 -2.0372
  766MPD2    H111366   1.213   3.048  15.113 -1.9299 -1.6008  0.2877
  766MPD2    H211367   1.061   3.117  15.503  0.3045 -1.4457  0.8641
  766MPD2    H311368   1.025   3.070  15.262  1.5029 -0.4461 -0.4069
  766MPD2     N11369   1.467   3.077  15.167  0.1012 -0.1586  0.1991
  766MPD2    H511370   1.445   3.054  15.071  2.7310 -1.3584 -0.1153
  766MPD2    N111371   1.301   3.191  15.615  0.6350  0.3972 -0.3535
  766MPD2    H711372   1.399   3.212  15.630  0.1840  3.5446 -1.6560
  767MPD2     C11373   1.146   3.460  15.107  0.1401 -0.6683 -0.3036
  767MPD2    C111374   1.278   3.432  15.095  0.1600 -0.1280  0.2679
  767MPD2    C211375   1.329   3.386  14.972 -0.1670 -0.2099 -0.1153
  767MPD2    C311376   1.251   3.387  14.862  0.1550  0.7756 -0.2275
  767MPD2    C411377   1.120   3.393  14.879 -0.0891 -0.1467 -0.4345
  767MPD2    C511378   1.066   3.435  14.998 -0.2998  0.0384 -0.0932
  767MPD2     H11379   1.436   3.367  14.960 -0.1772 -0.5407  0.2923
  767MPD2    H111380   1.061   3.376  14.790 -1.0326 -0.6448  0.2901
  767MPD2    H211381   1.105   3.501  15.198  2.8832 -0.5809  0.8824
  767MPD2    H311382   0.961   3.463  14.996 -0.5099 -0.7683 -0.2423
  767MPD2     N11383   1.312   3.383  14.736 -0.0216 -1.0719 -0.1464
  767MPD2    H511384   1.412   3.364  14.733  0.1546 -0.1405 -0.2194
  767MPD2    N111385   1.357   3.448  15.209 -0.0604  0.3533 -0.0450
  767MPD2    H711386   1.297   3.476  15.286  0.8519 -0.7903  1.0711
  768MPD2     C11387   2.200   2.113  10.365 -0.5746 -0.6462  0.0013
  768MPD2    C111388   2.136   2.039  10.465  0.5824 -0.0421 -0.4316
  768MPD2    C211389   2.221   1.971  10.556  0.5827 -0.8456  0.1581
  768MPD2    C311390   2.358   1.973  10.541  0.2795  0.2446 -0.2128
  768MPD2    C411391   2.418   2.044  10.439  0.1241  0.2531 -0.9049
  768MPD2    C511392   2.339   2.109  10.352 -0.8223 -0.5897 -0.0462
  768MPD2     H11393   2.165   1.928  10.638  1.1187 -1.4610  0.2081
  768MPD2    H111394   2.525   2.037  10.421  0.2399  0.8558 -0.4297
  768MPD2    H211395   2.147   2.160  10.283  0.3212  0.9002  0.3094
  768MPD2    H311396   2.385   2.157  10.267  0.0191 -0.3559  0.5341
  768MPD2     N11397   2.446   1.913  10.640  0.4881 -0.5323  0.2743
  768MPD2    H511398   2.545   1.935  10.640  0.9289 -2.5541  1.1775
  768MPD2    N111399   1.995   2.032  10.473 -0.2366  0.3986  0.3790
  768MPD2    H711400   1.961   1.980  10.553  0.6491 -2.1816 -0.8932
  769MPD2     C11401   3.145   4.617  14.718  0.1790 -0.3496 -0.1440
  769MPD2    C111402   3.090   4.540  14.827 -0.2488 -0.4002 -0.6881
  769MPD2    C211403   3.142   4.566  14.954  0.3384  0.2469 -0.2523
  769MPD2    C311404   3.242   4.664  14.978 -0.0316  0.2424  0.0452
  769MPD2    C411405   3.308   4.714  14.868  0.8959  0.1834 -0.1342
  769MPD2    C511406   3.262   4.694  14.740  0.8790  0.4326  0.6401
  769MPD2     H11407   3.104   4.525  15.047 -1.7395  1.0466 -0.7355
  769MPD2    H111408   3.393   0.044  14.879  0.0935  1.3256 -1.0805
  769MPD2    H211409   3.103   4.599  14.620 -2.4085 -0.2022  0.9551
  769MPD2    H311410   3.304   0.009  14.655  0.7894 -1.3101 -0.4720
  769MPD2     N11411   3.297   4.684  15.111 -0.0891 -0.1735  0.1792
  769MPD2    H511412   3.246   4.652  15.193  0.0799  3.9078  1.8811
  769MPD2    N111413   2.981   4.462  14.792  0.2770  0.2739 -0.2897
  769MPD2    H711414   2.945   4.483  14.700 -0.2034  0.7772  0.0084
  770MPD2     C11415   2.690   3.540  15.057  0.4297 -0.0590 -0.4164
  770MPD2    C111416   2.750   3.637  15.129 -0.5178 -0.3482 -0.0784
  770MPD2    C211417   2.756   3.759  15.070 -0.4623  0.6092 -0.1083
  770MPD2    C311418   2.714   3.786  14.941 -0.1457  0.0560  0.0034
  770MPD2    C411419   2.666   3.680  14.869  0.4008  0.4654  0.3644
  770MPD2    C511420   2.647   3.560  14.926  0.6915  0.0309  0.3225
  770MPD2     H11421   2.781   3.841  15.137 -2.6772  1.2793 -0.1019
  770MPD2    H111422   2.644   3.693  14.764 -0.5821 -0.3897  0.4681
  770MPD2    H211423   2.703   3.442  15.100 -3.5348 -0.4955 -0.2091
  770MPD2    H311424   2.612   3.475  14.869  2.2307 -0.8481  0.6798
  770MPD2     N11425   2.723   3.919  14.892  0.0178  1.0740  0.4599
  770MPD2    H511426   2.761   3.982  14.962 -2.0121  2.0602  0.6808
  770MPD2    N111427   2.790   3.613  15.261  0.2198  0.3011  0.2106
  770MPD2    H711428   2.763   3.521  15.293  1.0042  0.7389  2.0987
  771MPD2     C11429   4.018   2.509  13.801  0.5703  0.4911 -0.4750
  771MPD2    C111430   3.927   2.617  13.796  0.3965  0.0585  0.1239
  771MPD2    C211431   3.806   2.599  13.731 -0.5238  0.0803  0.4225
  771MPD2    C311432   3.773   2.476  13.675 -0.0955 -1.0669  0.6361
  771MPD2    C411433   3.864   2.371  13.684  0.5877  0.3732  0.1364
  771MPD2    C511434   3.985   2.389  13.743 -0.4921  0.3795  0.5230
  771MPD2     H11435   3.730   2.676  13.733 -0.6033  0.1010 -3.9969
  771MPD2    H111436   3.840   2.271  13.650  1.1340  0.1057  0.5287
  771MPD2    H211437   4.112   2.511  13.855  0.4969  0.5319 -0.3491
  771MPD2    H311438   4.053   2.306  13.755 -0.4123  0.3835  0.0849
  771MPD2     N11439   3.650   2.464  13.609 -0.2442  0.0901 -0.3078
  771MPD2    H511440   3.573   2.525  13.634  0.9604  1.1360  0.7893
  771MPD2    N111441   3.948   2.741  13.858  0.1683 -0.0214 -0.2121
  771MPD2    H711442   3.867   2.799  13.875 -1.5427 -2.0750 -1.3831
  772MPD2     C11443   3.535   3.184  14.266  0.2631 -0.1615  0.6229
  772MPD2    C111444   3.559   3.090  14.167 -0.2910  0.3906 -0.5839
  772MPD2    C211445   3.447   3.011  14.126  0.1403 -0.5312 -0.5343
  772MPD2    C311446   3.317   3.049  14.171  0.1778  0.4990  0.4299
  772MPD2    C411447   3.302   3.153  14.264  0.0060  0.2912  0.4809
  772MPD2    C511448   3.410   3.203  14.320 -0.0280  0.1632  0.4931
  772MPD2     H11449   3.469   2.928  14.060  1.0216 -0.5523 -0.2123
  772MPD2    H111450   3.212   3.175  14.321  1.4755 -0.2557  3.0113
  772MPD2    H211451   3.616   3.232  14.320 -0.3018  1.0462  0.3912
  772MPD2    H311452   3.392   3.276  14.399 -1.0594  0.3568  0.0761
  772MPD2     N11453   3.204   2.991  14.117 -0.5331 -0.0146 -0.0090
  772MPD2    H511454   3.116   3.027  14.154 -1.4133 -0.6992 -1.4436
  772MPD2    N111455   3.687   3.061  14.121 -0.6614 -0.0710  0.3911
  772MPD2    H711456   3.694   2.983  14.055 -1.6562 -0.7468  1.0853
  773MPD2     C11457   3.014   4.042   0.439  0.1512  0.0684 -0.4778
  773MPD2    C111458   2.940   3.950   0.365  0.7060 -0.1008 -0.1613
  773MPD2    C211459   3.001   3.829   0.339 -0.0567 -0.4344  0.3833
  773MPD2    C311460   3.135   3.811   0.375  0.4073 -0.0159 -0.2735
  773MPD2    C411461   3.210   3.911   0.431 -0.6430 -1.2123  0.0239
  773MPD2    C511462   3.145   4.027   0.454  0.6822  0.1357 -0.3914
  773MPD2     H11463   2.942   3.748   0.295 -0.2495 -0.2688  0.3355
  773MPD2    H111464   3.314   3.905   0.459 -0.4141 -1.1823 -0.8187
  773MPD2    H211465   2.959   4.128   0.475  0.3258  0.3124 -0.7986
  773MPD2    H311466   3.202   4.100   0.509  0.8727  0.3224 -0.8411
  773MPD2     N11467   3.193   3.689   0.344 -0.4033 -0.1127  0.1810
  773MPD2    H511468   3.133   3.627   0.289  1.6003 -1.7407 -0.1603
  773MPD2    N111469   2.801   3.963   0.346  1.1413 -0.5724 -0.2677
  773MPD2    H711470   2.747   3.878   0.328 -1.3950  0.8327  0.6642
  774MPD2     C11471   2.033   2.714  13.173 -0.4159  0.9012 -0.1647
  774MPD2    C111472   2.007   2.741  13.312 -0.3468  0.0009  0.6121
  774MPD2    C211473   2.054   2.860  13.360 -0.4981 -0.0889  0.1854
  774MPD2    C311474   2.107   2.964  13.286  0.3432 -0.5886 -0.0391
  774MPD2    C411475   2.114   2.935  13.150 -0.2937 -1.0787 -0.3138
  774MPD2    C511476   2.067   2.820  13.098 -0.0292  0.0085 -0.6480
  774MPD2     H11477   2.054   2.879  13.467  0.6157  5.6380 -0.8147
  774MPD2    H111478   2.160   3.000  13.076 -1.3921  2.1496  1.8455
  774MPD2    H211479   2.013   2.619  13.124 -1.5142  0.3122  1.4346
  774MPD2    H311480   2.069   2.820  12.990  1.7705 -0.4005 -0.6207
  774MPD2     N11481   2.168   3.076  13.347 -0.1410  0.1257  0.3157
  774MPD2    H511482   2.150   3.090  13.446  0.0953  1.8588  0.1183
  774MPD2    N111483   1.966   2.633  13.395  0.1510 -0.0755 -0.1933
  774MPD2    H711484   1.972   2.535  13.366  2.4931  0.5178 -1.6851
  775MPD2     C11485   3.528   4.612  15.734  0.1115  0.4453 -0.2408
  775MPD2    C111486   3.556   4.716  15.812  0.0251 -0.6127 -0.0711
  775MPD2    C211487   3.663   0.054  15.772  0.4815 -0.3851 -0.0090
  775MPD2    C311488   3.745   0.019  15.669 -0.0592 -0.7333 -0.1607
  775MPD2    C411489   3.710   4.641  15.590 -0.3074 -0.1370  0.0169
  775MPD2    C511490   3.601   4.570  15.627  0.0612  0.6051  0.4676
  775MPD2     H11491   3.698   0.130  15.840  2.3131 -0.3027 -1.0300
  775MPD2    H111492   3.775   4.615  15.507 -0.2724 -2.7186  0.8483
  775MPD2    H211493   3.439   4.551  15.749 -0.2968  1.0662 -0.1287
  775MPD2    H311494   3.570   4.489  15.562  2.2059  2.4986 -2.9050
  775MPD2     N11495   3.863   0.093  15.634  0.5667 -0.4340  0.6575
  775MPD2    H511496   3.896   0.066  15.541 -1.5857 -0.5229 -0.0948
  775MPD2    N111497   3.466   0.019  15.910 -0.2840  0.1625  0.6667
  775MPD2    H711498   3.400   4.684  15.937 -1.0541 -0.1228 -1.9886
  776MPD2     C11499   1.926   0.179  11.621  0.1380  0.2497 -0.4746
  776MPD2    C111500   2.058   0.177  11.664  0.3510  0.2110 -0.9300
  776MPD2    C211501   2.142   0.272  11.620  0.2709 -0.1983  0.2291
  776MPD2    C311502   2.104   0.365  11.523 -0.2184  0.1346 -0.4445
  776MPD2    C411503   1.970   0.368  11.486  0.2653  0.1374 -0.6624
  776MPD2    C511504   1.882   0.274  11.541  0.9222  0.0913  0.7847
  776MPD2     H11505   2.244   0.258  11.653  0.3656  1.0057  0.4654
  776MPD2    H111506   1.944   0.435  11.405  1.1930 -1.7535 -2.5340
  776MPD2    H211507   1.859   0.097  11.642 -0.3246  0.8292  0.3061
  776MPD2    H311508   1.778   0.277  11.510  1.4107  0.2774 -0.8434
  776MPD2     N11509   2.193   0.442  11.447 -0.1071 -0.3377  0.5375
  776MPD2    H511510   2.159   0.482  11.360  1.6419  1.7372  0.8200
  776MPD2    N111511   2.098   0.080  11.756 -0.3094  0.2917  0.2372
  776MPD2    H711512   2.020   0.017  11.773  0.5801 -1.0198 -0.5148
  777MPD2     C11513   3.349   2.642   0.720  0.1140 -0.2743 -0.0532
  777MPD2    C111514   3.270   2.666   0.836  0.3010 -0.3336  0.1402
  777MPD2    C211515   3.162   2.585   0.866  0.0792 -0.1878  0.3445
  777MPD2    C311516   3.114   2.493   0.773 -0.0517  0.0624  0.1510
  777MPD2    C411517   3.186   2.475   0.657  0.3795  0.9688  0.0975
  777MPD2    C511518   3.304   2.547   0.630 -0.3527 -0.4015  0.4904
  777MPD2     H11519   3.095   2.598   0.950  2.7590 -0.7350  2.5508
  777MPD2    H111520   3.161   2.400   0.582  1.3440 -0.5276  1.2708
  777MPD2    H211521   3.440   2.696   0.698 -0.2638  0.9120  1.3324
  777MPD2    H311522   3.353   2.516   0.539  3.5288  5.0819  0.6933
  777MPD2     N11523   2.985   2.434   0.782 -0.5104  0.8189 -0.2219
  777MPD2    H511524   2.931   2.455   0.865 -0.7940  0.8676 -0.4199
  777MPD2    N111525   3.314   2.767   0.927  0.6336 -0.4732  0.3121
  777MPD2    H711526   3.369   2.844   0.890 -0.4662 -0.0208 -0.3951
  778MPD2     C11527   3.564   2.830  15.235 -0.5334 -0.2085 -0.1900
  778MPD2    C111528   3.554   2.741  15.128  0.2073 -0.4234  0.7907
  778MPD2    C211529   3.563   2.791  14.997  0.2835  0.2600  0.3868
  778MPD2    C311530   3.576   2.929  14.968  0.1570 -0.2293  0.9270
  778MPD2    C411531   3.582   3.013  15.076  0.2717  0.5037  0.1557
  778MPD2    C511532   3.565   2.962  15.204  0.2154  0.3933  1.2503
  778MPD2     H11533   3.588   2.724  14.915  2.1901  1.5183 -0.0544
  778MPD2    H111534   3.589   3.120  15.065  0.6682  0.2291 -2.0814
  778MPD2    H211535   3.546   2.816  15.341 -1.7839  0.3963 -0.3329
  778MPD2    H311536   3.572   3.035  15.284  1.1086  2.0702 -0.3556
  778MPD2     N11537   3.599   2.972  14.833  0.5049 -0.0594  0.2620
  778MPD2    H511538   3.607   2.900  14.761  1.9305 -0.0019  0.3486
  778MPD2    N111539   3.532   2.603  15.148 -0.2594 -0.5093 -0.7236
  778MPD2    H711540   3.510   2.544  15.069  2.9814 -3.0561  0.2855
  779MPD2     C11541   3.241   1.268  14.249 -0.0607  0.7388 -0.6211
  779MPD2    C111542   3.352   1.337  14.208  0.5641  0.1312 -0.2208
  779MPD2    C211543   3.373   1.473  14.239  0.7254  0.6936  0.1318
  779MPD2    C311544   3.282   1.539  14.316 -0.3177  0.1207  0.1990
  779MPD2    C411545   3.172   1.469  14.362  0.3206 -0.0941  0.3484
  779MPD2    C511546   3.149   1.335  14.323 -0.3891  0.4436 -0.2478
  779MPD2     H11547   3.456   1.528  14.199  0.3271  1.5578  0.4887
  779MPD2    H111548   3.098   1.507  14.431  1.4616  0.3611  1.3203
  779MPD2    H211549   3.232   1.160  14.241 -1.7176  0.9077 -0.8511
  779MPD2    H311550   3.062   1.285  14.363  0.1736 -1.4105 -1.3122
  779MPD2     N11551   3.308   1.676  14.354 -0.5900 -0.0241  0.4956
  779MPD2    H511552   3.400   1.712  14.331 -1.3745  1.2455 -0.6702
  779MPD2    N111553   3.446   1.273  14.123 -0.2388  0.1164  0.1897
  779MPD2    H711554   3.538   1.315  14.131  0.2718 -0.8907 -0.3944
  780MPD2     C11555   3.361   1.918   1.100  0.3234  0.1563  0.0225
  780MPD2    C111556   3.335   1.867   0.979 -0.0626 -0.4386  0.3395
  780MPD2    C211557   3.420   1.887   0.871 -0.3449 -0.0156 -0.0773
  780MPD2    C311558   3.546   1.941   0.886  0.4814  0.0564 -0.0757
  780MPD2    C411559   3.570   1.990   1.012 -0.1322  0.6536 -0.1157
  780MPD2    C511560   3.480   1.980   1.120 -0.2743  0.1624 -0.3520
  780MPD2     H11561   3.400   1.845   0.774  1.0646  1.3101 -0.9400
  780MPD2    H111562   3.663   2.042   1.031 -0.1472 -0.2511  2.3960
  780MPD2    H211563   3.299   1.908   1.188  1.5200 -1.4289  0.6949
  780MPD2    H311564   3.517   2.018   1.214  0.3827  0.3505 -0.6869
  780MPD2     N11565   3.643   1.940   0.784  0.3418  0.3759  0.2957
  780MPD2    H511566   3.611   1.898   0.697  0.7541  2.1727 -0.7242
  780MPD2    N111567   3.214   1.788   0.973  0.5488  0.0555 -0.1519
  780MPD2    H711568   3.171   1.754   1.058  0.6417  0.9248  0.2398
  781MPD2     C11569   4.443   3.242  12.537  0.3248  0.6354  0.6283
  781MPD2    C111570   4.533   3.141  12.565  0.0600 -0.1214 -0.1421
  781MPD2    C211571   4.650   3.142  12.492 -0.2496  1.0123 -0.2706
  781MPD2    C311572   4.675   3.233  12.387  0.5810  0.3635  0.2683
  781MPD2    C411573   4.588   3.339  12.371  0.3949  0.4286 -0.0849
  781MPD2    C511574   4.474   3.342  12.445 -0.2046 -0.0013 -0.4595
  781MPD2     H11575   4.717   3.061  12.518 -0.9039  0.1853 -1.1815
  781MPD2    H111576   4.617   3.430  12.320 -0.1228  1.4746  1.4545
  781MPD2    H211577   4.354   3.244  12.599  0.0154  0.3923  0.1924
  781MPD2    H311578   4.402   3.421  12.426 -0.8588 -0.2738  0.9317
  781MPD2     N11579   0.059   3.234  12.320 -0.3243 -0.0834  0.3475
  781MPD2    H511580   0.061   3.307  12.250  1.5681  0.1750  0.6883
  781MPD2    N111581   4.504   3.038  12.658 -0.2946 -0.2696  0.3244
  781MPD2    H711582   4.577   2.968  12.660  0.3105  0.3769  0.7870
  782MPD2     C11583   2.981   3.954  10.317  0.0169  0.3411 -0.3898
  782MPD2    C111584   3.025   3.950  10.446 -0.1631 -0.3492 -0.3325
  782MPD2    C211585   3.014   4.063  10.519  0.2122  0.1491 -0.0751
  782MPD2    C311586   2.962   4.183  10.469  0.6560  0.5132 -0.0735
  782MPD2    C411587   2.918   4.188  10.333 -0.7640 -0.0330  0.3134
  782MPD2    C511588   2.935   4.075  10.257 -0.7643  0.3667  0.1875
  782MPD2     H11589   3.062   4.072  10.616 -0.1460  0.4012  0.0798
  782MPD2    H111590   2.883   4.285  10.299 -1.2161 -0.9551 -1.8382
  782MPD2    H211591   2.981   3.865  10.256  2.1646  0.7441 -0.9807
  782MPD2    H311592   2.905   4.072  10.153  1.0770 -2.3968 -0.2572
  782MPD2     N11593   2.960   4.304  10.546 -0.4373  0.1819 -0.3673
  782MPD2    H511594   2.945   4.394  10.501 -1.3617  0.4782  0.5243
  782MPD2    N111595   3.083   3.836  10.508 -0.3921 -0.5650  0.5135
  782MPD2    H711596   3.065   3.743  10.472  1.3978  0.2224 -2.3800
  783MPD2     C11597   2.736   3.254  11.111 -0.6846 -0.3746  0.5030
  783MPD2    C111598   2.724   3.386  11.097  0.1862 -0.1602  0.1988
  783MPD2    C211599   2.808   3.453  11.005  0.2376  0.1650  0.1565
  783MPD2    C311600   2.898   3.376  10.929 -0.1623  0.2939 -0.3264
  783MPD2    C411601   2.897   3.240  10.942  0.0134 -0.3269 -0.0353
  783MPD2    C511602   2.810   3.180  11.028  0.0696  0.2029  0.2011
  783MPD2     H11603   2.802   3.555  10.969 -1.8471  0.0166  0.0739
  783MPD2    H111604   2.974   3.183  10.891 -0.1502 -0.1954 -0.4299
  783MPD2    H211605   2.678   3.201  11.186 -1.7572  1.6869  1.1462
  783MPD2    H311606   2.814   3.072  11.030 -1.3578  0.1462 -0.4005
  783MPD2     N11607   2.987   3.448  10.850  0.1280  0.5457 -0.1639
  783MPD2    H511608   2.996   3.548  10.859  2.8393  0.4539 -1.7052
  783MPD2    N111609   2.623   3.450  11.172  0.0722 -0.0231  0.0098
  783MPD2    H711610   2.564   3.383  11.221  1.6306 -0.5460  1.1971
  784MPD2     C11611   0.939   4.475   1.022  0.1746 -0.4535 -0.4775
  784MPD2    C111612   0.921   4.614   1.032 -1.0573 -0.5755 -0.0312
  784MPD2    C211613   0.824   4.682   0.956  0.5778 -0.0915 -0.4739
  784MPD2    C311614   0.730   4.602   0.893  0.4084  0.5466  0.6428
  784MPD2    C411615   0.746   4.461   0.893 -0.5140 -0.3554  0.0228
  784MPD2    C511616   0.850   4.403   0.956 -0.1472 -0.9788 -0.3984
  784MPD2     H11617   0.823   0.053   0.956  0.8812 -0.0917  2.6764
  784MPD2    H111618   0.677   4.391   0.848  0.1564 -0.5250 -0.7656
  784MPD2    H211619   1.020   4.422   1.071  0.4593  0.4608  0.0339
  784MPD2    H311620   0.869   4.296   0.950 -2.5011 -1.4714  0.8269
  784MPD2     N11621   0.626   4.669   0.829  0.1981 -0.0081  0.4445
  784MPD2    H511622   0.635   0.032   0.817 -2.5841  0.2415  0.4587
  784MPD2    N111623   1.001   4.693   1.120 -0.4375  0.6574 -0.1171
  784MPD2    H711624   0.998   0.055   1.098 -1.0570  0.6068 -0.2541
  785MPD2     C11625   0.761   2.560  10.803 -0.0348  0.8717  0.0640
  785MPD2    C111626   0.679   2.641  10.873 -0.0724 -0.0586  0.4378
  785MPD2    C211627   0.543   2.626  10.849 -0.5297  0.4404 -0.1821
  785MPD2    C311628   0.489   2.551  10.746 -0.0433 -0.0056 -0.2343
  785MPD2    C411629   0.579   2.468  10.677  0.6469 -0.5469  0.4753
  785MPD2    C511630   0.715   2.473  10.711  0.2871 -0.1340  0.3420
  785MPD2     H11631   0.477   2.694  10.902  0.6027  1.5201 -0.1546
  785MPD2    H111632   0.541   2.412  10.593  1.4052 -1.7088  0.9072
  785MPD2    H211633   0.868   2.557  10.818  0.2935  2.8121 -1.8447
  785MPD2    H311634   0.782   2.400  10.666 -0.0616 -1.1270  1.4412
  785MPD2     N11635   0.353   2.570  10.715 -0.7378  0.7313 -0.2563
  785MPD2    H511636   0.298   2.633  10.773 -1.3399 -2.9319  3.1316
  785MPD2    N111637   0.725   2.734  10.974  0.2312  0.4530 -0.0996
  785MPD2    H711638   0.655   2.780  11.031  0.3461  1.4496 -0.7505
  786MPD2     C11639   4.367   0.829  14.824 -0.4285 -0.1375  0.2744
  786MPD2    C111640   4.371   0.706  14.891  0.1115 -0.0515 -0.3021
  786MPD2    C211641   4.411   0.700  15.026 -1.0860 -0.7287  0.5091
  786MPD2    C311642   4.426   0.816  15.101  0.0831  0.4249  0.1540
  786MPD2    C411643   4.417   0.934  15.027  0.5518  0.0477  0.1982
  786MPD2    C511644   4.382   0.939  14.895  0.1108 -1.0843 -0.0782
  786MPD2     H11645   4.425   0.605  15.075 -0.8831  0.8216  3.4292
  786MPD2    H111646   4.435   1.029  15.075 -0.5237 -0.0094  0.7250
  786MPD2    H211647   4.360   0.852  14.718 -0.8920 -2.3165 -0.1694
  786MPD2    H311648   4.389   1.035  14.846 -1.3908 -0.5968  0.6760
  786MPD2     N11649   4.458   0.822  15.234  0.3582  0.1305  0.0774
  786MPD2    H511650   4.490   0.910  15.272  1.5797 -0.5979  0.7422
  786MPD2    N111651   4.355   0.585  14.815  0.1037  0.2389  0.0209
  786MPD2    H711652   4.397   0.497  14.844 -2.4135 -0.6707  0.8848
  787MPD2     C11653   4.628   0.068  14.942  0.2389  0.0256 -0.7747
  787MPD2    C111654   4.634   0.064  14.806 -0.8351 -0.3873  0.4664
  787MPD2    C211655   4.682   4.693  14.739  0.0928 -0.4050 -0.0529
  787MPD2    C311656   4.715   4.579  14.804  0.6295  0.2163  0.0465
  787MPD2    C411657   4.701   4.578  14.940  0.6185 -0.0107 -0.2817
  787MPD2    C511658   4.659   4.688  15.014  0.1838 -0.6150 -0.4323
  787MPD2     H11659   4.691   4.697  14.631 -1.2786  1.1040 -0.1241
  787MPD2    H111660   4.723   4.487  14.996  1.0592 -0.6416 -1.4894
  787MPD2    H211661   4.598   0.160  14.990  0.4202 -1.5006  2.2659
  787MPD2    H311662   4.638   4.678  15.119  0.5128  1.0250 -0.2156
  787MPD2     N11663   0.015   4.470  14.724  0.0452  0.1546 -0.3070
  787MPD2    H511664   0.020   4.491  14.625  2.2162  0.5518 -0.1176
  787MPD2    N111665   4.567   0.168  14.741  0.6566 -0.3324 -0.0552
  787MPD2    H711666   4.554   0.254  14.794 -0.6737  0.7619 -2.1951
  788MPD2     C11667   1.866   3.698   1.166  0.2022  0.8882  0.3687
  788MPD2    C111668   1.770   3.648   1.081 -0.9814  0.3857 -0.3590
  788MPD2    C211669   1.664   3.736   1.057  0.4415 -0.2939 -0.2409
  788MPD2    C311670   1.655   3.863   1.105 -0.7039  0.5368 -0.1790
  788MPD2    C411671   1.742   3.895   1.212 -0.4339 -0.3189 -0.1063
  788MPD2    C511672   1.840   3.809   1.238  0.3152 -0.1782 -0.1103
  788MPD2     H11673   1.602   3.698   0.976 -1.9292 -1.7364  2.2642
  788MPD2    H111674   1.726   3.986   1.270 -0.0103 -1.0338  1.1228
  788MPD2    H211675   1.964   3.656   1.188 -1.2810 -3.2896 -0.9189
  788MPD2    H311676   1.913   3.830   1.315  0.5997 -1.5104 -0.0218
  788MPD2     N11677   1.557   3.957   1.055  0.1271  0.3956 -0.1988
  788MPD2    H511678   1.565   4.050   1.095  0.0681  0.8551 -1.2494
  788MPD2    N111679   1.786   3.538   0.996 -0.5445  0.2724  0.4133
  788MPD2    H711680   1.712   3.513   0.930  0.3452  0.2987 -0.5913
  789MPD2     C11681   1.746   3.486  16.270 -0.2960  0.2679 -0.2159
  789MPD2    C111682   1.687   3.388  16.345 -0.5834  0.1425  1.0633
  789MPD2    C211683   1.579   3.421  16.428  0.1033 -0.6371  0.3022
  789MPD2    C311684   1.536   3.550  16.420 -0.1712 -0.4166  0.2255
  789MPD2    C411685   1.586   3.643  16.326  0.1171  0.8439  0.0847
  789MPD2    C511686   1.692   3.610  16.251 -0.0674 -0.0397 -0.7032
  789MPD2     H11687   1.542   3.353  16.504  0.1702  0.9907  1.7893
  789MPD2    H111688   1.548   3.744  16.316  0.3094  0.7414 -1.6498
  789MPD2    H211689   1.827   3.462  16.202  1.2189 -3.5260  2.9641
  789MPD2    H311690   1.746   3.682  16.191 -1.0705  0.1300 -1.4047
  789MPD2     N11691   1.443   3.594  16.516 -0.3799 -0.9960 -0.3462
  789MPD2    H511692   1.413   3.690  16.502  1.8424 -0.3085 -0.4134
  789MPD2    N111693   1.730   3.248  16.357 -0.0124 -0.1394 -0.4559
  789MPD2    H711694   1.695   3.186  16.429  0.8462 -0.4221 -0.2763
  790MPD2     C11695   2.488   0.450  13.623 -0.4338  0.1271 -0.1907
  790MPD2    C111696   2.558   0.332  13.612  0.2544  0.7615  0.1796
  790MPD2    C211697   2.524   0.246  13.504 -0.0352  0.0827  0.6539
  790MPD2    C311698   2.442   0.294  13.404  0.1283 -0.4283 -0.1257
  790MPD2    C411699   2.391   0.427  13.407 -0.2316 -0.5728  0.0726
  790MPD2    C511700   2.405   0.495  13.524 -0.2311 -0.4531 -0.5856
  790MPD2     H11701   2.573   0.149  13.500 -0.5882 -0.0382 -3.1654
  790MPD2    H111702   2.324   0.461  13.328 -0.4443  0.3395  0.6438
  790MPD2    H211703   2.487   0.506  13.715  0.7905 -1.6042  0.8754
  790MPD2    H311704   2.363   0.592  13.550  2.0517  0.5462 -0.5419
  790MPD2     N11705   2.416   0.216  13.294  0.1201  0.0396  0.6154
  790MPD2    H511706   2.462   0.127  13.280 -0.8242 -0.8076  2.9337
  790MPD2    N111707   2.634   0.299  13.723 -0.2601  0.8160  0.3118
  790MPD2    H711708   2.635   0.363  13.802 -1.3845  0.1642  0.8517
  791MPD2     C11709   1.748   0.066  12.799 -0.5719  0.1593  0.0926
  791MPD2    C111710   1.835   4.696  12.846  0.3400  0.2526  0.7185
  791MPD2    C211711   1.788   4.565  12.842 -0.4057 -0.1790  0.0872
  791MPD2    C311712   1.668   4.544  12.777  0.1416 -0.3593 -0.0488
  791MPD2    C411713   1.599   4.644  12.717 -0.2629 -0.0632 -0.1146
  791MPD2    C511714   1.627   0.030  12.744  0.3457  0.8407  0.6598
  791MPD2     H11715   1.845   4.483  12.884 -0.1720 -0.6150 -1.0878
  791MPD2    H111716   1.508   4.627  12.659  1.0264 -3.1317 -1.2124
  791MPD2    H211717   1.774   0.170  12.816  1.0079  0.2166 -2.7017
  791MPD2    H311718   1.554   0.105  12.717  0.1859  0.8690  1.1859
  791MPD2     N11719   1.615   4.406  12.772 -0.8858  0.1339  0.6941
  791MPD2    H511720   1.674   4.324  12.787 -0.4385  0.6260  1.6545
  791MPD2    N111721   1.959   4.734  12.906 -0.4099 -0.4288 -0.5486
  791MPD2    H711722   1.987   0.093  12.895  0.3533 -0.7317 -1.1858
  792MPD2     C11723   2.775   0.319  11.507 -0.9454  0.1879 -0.3347
  792MPD2    C111724   2.720   0.323  11.386  0.2801  0.7751  0.6200
  792MPD2    C211725   2.598   0.256  11.356  0.3960  0.1966  0.0577
  792MPD2    C311726   2.534   0.185  11.458 -0.5690  0.1511  0.2914
  792MPD2    C411727   2.593   0.192  11.584  0.0513  0.3120  0.2326
  792MPD2    C511728   2.712   0.261  11.612  0.3969 -0.0061  0.0089
  792MPD2     H11729   2.562   0.255  11.254  0.0240  2.2569  0.1755
  792MPD2    H111730   2.550   0.136  11.667 -0.1842  0.7632  0.4146
  792MPD2    H211731   2.859   0.385  11.528 -0.9485 -0.8098  2.9540
  792MPD2    H311732   2.755   0.275  11.710  2.4466 -1.0527 -0.7476
  792MPD2     N11733   2.401   0.128  11.449 -0.2311 -0.7446 -0.1151
  792MPD2    H511734   2.358   0.094  11.534 -1.2054 -0.5059 -0.5189
  792MPD2    N111735   2.784   0.398  11.282  0.4772 -0.8028  1.5917
  792MPD2    H711736   2.874   0.437  11.307  0.5292 -0.2924  0.6331
  793MPD2     C11737   1.843   0.023  10.657  0.3203 -0.1892  0.1736
  793MPD2    C111738   1.962   4.690  10.686 -0.1788  0.2541  0.5674
  793MPD2    C211739   1.994   4.681  10.816 -0.1292  0.5386  0.0168
  793MPD2    C311740   1.908   4.724  10.921  0.0791 -0.3604  0.3145
  793MPD2    C411741   1.790   0.050  10.880 -0.2415  0.3510 -0.2950
  793MPD2    C511742   1.766   0.078  10.754  0.3381  0.0169  0.2417
  793MPD2     H11743   2.084   4.626  10.838 -0.3463  0.0718 -0.2599
  793MPD2    H111744   1.726   0.089  10.959 -0.2086  2.0327 -1.0922
  793MPD2    H211745   1.822   0.042  10.553  0.6018  0.0625  0.1647
  793MPD2    H311746   1.679   0.133  10.721  0.0444 -0.5410  0.0925
  793MPD2     N11747   1.964   4.720  11.054  0.3222 -0.7433  0.1220
  793MPD2    H511748   2.062   4.696  11.060  0.8320  1.0530 -0.8615
  793MPD2    N111749   2.057   4.645  10.589 -0.0237  0.0646  0.1653
  793MPD2    H711750   2.143   4.616  10.634 -1.1594  0.5774  2.6654
  794MPD2     C11751   2.154   4.524   0.140 -0.2451  1.0917  0.0757
  794MPD2    C111752   2.275   4.483   0.088  0.5526  0.0204  0.5430
  794MPD2    C211753   2.324   4.558  17.736 -0.1489 -0.0447  1.2192
  794MPD2    C311754   2.254   4.665  17.685 -0.2887  0.5208  0.5390
  794MPD2    C411755   2.138   4.710  17.748 -0.4521 -0.1652 -0.1179
  794MPD2    C511756   2.091   4.635   0.099  0.0619 -0.5121  0.3182
  794MPD2     H11757   2.419   4.535  17.688  0.2182  0.6608  1.6128
  794MPD2    H111758   2.080   0.058  17.714 -1.8167 -0.2974  1.8770
  794MPD2    H211759   2.101   4.472   0.219 -0.0472  0.0558 -0.4792
  794MPD2    H311760   1.996   4.666   0.141  0.3543  1.2458 -0.3342
  794MPD2     N11761   2.283   4.727  17.560 -0.9137 -0.3177 -0.0974
  794MPD2    H511762   2.215   0.059  17.531 -0.7209 -0.2287 -0.3414
  794MPD2    N111763   2.350   4.369   0.133 -0.3200 -0.5573 -0.1373
  794MPD2    H711764   2.439   4.350   0.089 -0.8123 -1.5750 -0.6969
  795MPD2     C11765   0.032   1.745  13.024  0.3273 -0.5674 -0.0724
  795MPD2    C111766   4.731   1.614  13.042 -0.0121  0.1877 -0.1186
  795MPD2    C211767   0.074   1.533  13.116  0.2226  0.0783  0.0656
  795MPD2    C311768   0.201   1.577  13.144  0.6759  0.1426 -0.2834
  795MPD2    C411769   0.239   1.701  13.117 -0.6129 -0.0015  0.4423
  795MPD2    C511770   0.156   1.788  13.061 -0.8976  0.0326 -0.0686
  795MPD2     H11771   0.054   1.427  13.115 -0.2118  0.1446  1.3679
  795MPD2    H111772   0.340   1.742  13.110 -0.2568 -1.1176 -0.9476
  795MPD2    H211773   4.708   1.816  12.969  1.1402 -0.4824 -0.8719
  795MPD2    H311774   0.186   1.890  13.041  0.6433  0.0932  2.5455
  795MPD2     N11775   0.284   1.481  13.205 -0.4045  0.4092 -0.1487
  795MPD2    H511776   0.259   1.383  13.209 -0.1768  0.3693  0.2275
  795MPD2    N111777   4.610   1.563  12.996  0.0284 -0.3437 -0.5376
  795MPD2    H711778   4.574   1.480  13.041  0.1293 -0.8501 -1.3859
  796MPD2     C11779   4.117   3.062  16.015  0.0782 -0.1532 -0.2169
  796MPD2    C111780   4.172   3.125  16.120  0.1928  0.0512 -0.2598
  796MPD2    C211781   4.172   3.270  16.119  0.2505  0.2827  0.0636
  796MPD2    C311782   4.132   3.344  16.003  0.7469  0.0658 -0.0602
  796MPD2    C411783   4.094   3.265  15.897 -0.2240 -1.1579  0.1015
  796MPD2    C511784   4.082   3.131  15.898 -0.4864  0.1503  0.1369
  796MPD2     H11785   4.207   3.328  16.204 -0.8895  0.6596  0.2796
  796MPD2    H111786   4.085   3.304  15.797 -2.4318 -1.1028  0.3238
  796MPD2    H211787   4.117   2.953  16.019  0.8342 -0.2069 -1.3641
  796MPD2    H311788   4.040   3.076  15.815 -0.2566 -0.1173  0.1967
  796MPD2     N11789   4.164   3.481  15.996 -0.4685  0.0053 -0.4886
  796MPD2    H511790   4.215   3.518  16.076 -1.2101  0.2440 -0.1236
  796MPD2    N111791   4.202   3.052  16.234 -0.1119  0.2785  0.7645
  796MPD2    H711792   4.193   2.951  16.239 -1.5330  0.4187  0.9691
  797MPD2     C11793   0.890   2.635  17.362 -1.1981  0.2973  0.2968
  797MPD2    C111794   0.844   2.749  17.421 -0.2615 -0.2622 -0.3562
  797MPD2    C211795   0.720   2.794  17.385 -0.1113 -0.0950 -0.3086
  797MPD2    C311796   0.644   2.723  17.287 -0.2482 -0.7234  0.2707
  797MPD2    C411797   0.699   2.607  17.217  0.2772  0.2697 -0.5240
  797MPD2    C511798   0.825   2.571  17.257  0.8151  0.6679 -0.4550
  797MPD2     H11799   0.681   2.881  17.437 -0.0142  0.4463 -1.1565
  797MPD2    H111800   0.644   2.560  17.137 -0.0232  0.5629 -0.4930
  797MPD2    H211801   0.980   2.583  17.391 -1.0294 -1.3489 -3.1693
  797MPD2    H311802   0.875   2.484  17.217  1.1873  2.3389 -3.6469
  797MPD2     N11803   0.523   2.782  17.239  0.4755 -0.7269 -0.0704
  797MPD2    H511804   0.497   2.766  17.142  1.1440  1.0395 -0.5492
  797MPD2    N111805   0.927   2.837  17.504  0.3214 -0.3297 -1.2882
  797MPD2    H711806   0.879   2.893  17.573 -1.8570 -2.3989 -1.1217
  798MPD2     C11807   0.530   3.340  17.648 -0.2132  0.4710  0.9450
  798MPD2    C111808   0.590   3.319  17.526  1.1556  0.1197  0.3681
  798MPD2    C211809   0.727   3.290  17.519 -0.6460 -0.2641  0.1730
  798MPD2    C311810   0.804   3.290  17.632  0.0926  0.2954  0.5643
  798MPD2    C411811   0.740   3.320   0.002  0.2442 -0.1621 -0.4620
  798MPD2    C511812   0.612   3.342   0.008  0.1295 -0.0977  0.1968
  798MPD2     H11813   0.776   3.266  17.426  1.8481  2.6681  0.7420
  798MPD2    H111814   0.797   3.311   0.094  1.4114 -0.6270 -1.2334
  798MPD2    H211815   0.427   3.370  17.658  0.0692  2.0122 -0.6586
  798MPD2    H311816   0.567   3.372   0.102  0.4177 -0.7387  0.5393
  798MPD2     N11817   0.936   3.243  17.627 -0.3845  0.5487 -0.6619
  798MPD2    H511818   0.964   3.218  17.532  0.8740  2.4766 -0.8211
  798MPD2    N111819   0.497   3.279  17.432  0.1387  0.2946  0.6601
  798MPD2    H711820   0.400   3.274  17.459 -0.2860 -0.4214 -0.9399
  799MPD2     C11821   4.343   4.265  14.826 -0.2253  0.9303 -0.4538
  799MPD2    C111822   4.219   4.249  14.757  0.0836 -0.4930  0.4810
  799MPD2    C211823   4.186   4.349  14.666  0.6584 -0.4955 -0.4319
  799MPD2    C311824   4.272   4.459  14.646  0.3541 -0.3017 -0.3010
  799MPD2    C411825   4.388   4.469  14.716 -0.1367  0.8344 -0.1241
  799MPD2    C511826   4.417   4.376  14.806  0.3720  0.5767  0.7515
  799MPD2     H11827   4.093   4.342  14.610  1.8878  2.1529 -2.8038
  799MPD2    H111828   4.457   4.549  14.688  0.5473  0.6472  1.0620
  799MPD2    H211829   4.379   4.190  14.896  3.5660  0.6352 -2.7155
  799MPD2    H311830   4.509   4.396  14.859 -0.4338 -0.6706  2.6161
  799MPD2     N11831   4.256   4.563  14.544 -0.5826 -0.6291 -0.0100
  799MPD2    H511832   4.328   4.633  14.530  0.1574 -0.9620  2.0588
  799MPD2    N111833   4.131   4.141  14.776  0.5578  0.2683  0.0417
  799MPD2    H711834   4.033   4.155  14.750  0.6736 -0.4667 -0.8061
  800MPD2     C11835   4.569   1.180  13.794 -0.7352  0.0306  0.2031
  800MPD2    C111836   4.690   1.121  13.832  0.8722  0.8934 -0.3505
  800MPD2    C211837   4.700   0.983  13.830 -0.3466 -0.0281  0.6132
  800MPD2    C311838   4.597   0.908  13.779  0.8827  1.6053  0.5182
  800MPD2    C411839   4.474   0.963  13.747 -0.4144 -0.0171 -0.1141
  800MPD2    C511840   4.471   1.100  13.745  0.2105  0.0384 -0.0123
  800MPD2     H11841   0.051   0.929  13.860 -0.5561 -1.1643 -0.8215
  800MPD2    H111842   4.390   0.905  13.713  0.0094 -2.1067  2.3721
  800MPD2    H211843   4.555   1.288  13.792  0.0414  0.1148 -0.8115
  800MPD2    H311844   4.380   1.151  13.716  0.6282  0.2274 -0.9896
  800MPD2     N11845   4.622   0.765  13.762 -0.8455  0.4942 -0.7002
  800MPD2    H511846   4.716   0.734  13.784 -1.1160  1.0989  1.2964
  800MPD2    N111847   0.057   1.207  13.885  0.6405 -0.2805 -0.1021
  800MPD2    H711848   0.033   1.305  13.887  0.3782 -0.3418 -0.1661
  801MPD2     C11849   0.165   1.706  14.401  0.1064  0.1554  0.5053
  801MPD2    C111850   0.096   1.613  14.326 -0.3745  0.2821  0.3893
  801MPD2    C211851   4.699   1.597  14.344  0.4875  0.2705 -0.3438
  801MPD2    C311852   4.625   1.682  14.425 -0.3714 -0.2985 -0.1529
  801MPD2    C411853   4.694   1.783  14.488 -0.2655 -0.6077  0.6058
  801MPD2    C511854   0.097   1.788  14.476  0.2892 -0.6564  0.0924
  801MPD2     H11855   4.656   1.518  14.283 -0.9309  0.7293  0.0472
  801MPD2    H111856   4.645   1.853  14.554 -0.4206  1.3211 -1.5470
  801MPD2    H211857   0.272   1.727  14.398  0.0375  0.2658 -1.6462
  801MPD2    H311858   0.161   1.853  14.534  1.5981 -1.0392 -0.9320
  801MPD2     N11859   4.485   1.665  14.451 -0.0404 -0.2286  0.0474
  801MPD2    H511860   4.435   1.722  14.519  0.9037 -0.1510  0.6797
  801MPD2    N111861   0.152   1.542  14.223 -0.0888  0.3518  0.2555
  801MPD2    H711862   0.101   1.462  14.189 -1.8901  0.0286  3.7132
  802MPD2     C11863   4.046   2.086  17.057 -0.2703 -0.2227  0.9448
  802MPD2    C111864   4.125   2.027  17.150 -0.6471 -0.4206 -0.2168
  802MPD2    C211865   4.136   1.891  17.158  0.0877 -0.3587 -0.8418
  802MPD2    C311866   4.066   1.808  17.064  0.8032 -0.1892  0.4339
  802MPD2    C411867   3.985   1.877  16.974  0.4071  0.9459 -0.2774
  802MPD2    C511868   3.972   2.009  16.969  0.3950 -0.3858  0.6104
  802MPD2     H11869   4.205   1.844  17.226  0.2703 -0.7935 -1.3304
  802MPD2    H111870   3.929   1.818  16.902  2.8575 -1.9317  0.1583
  802MPD2    H211871   4.059   2.192  17.040  2.5554 -0.3620  2.1556
  802MPD2    H311872   3.913   2.069  16.901  0.5621 -0.7993  0.1030
  802MPD2     N11873   4.072   1.666  17.072  0.6429 -0.4466 -0.3637
  802MPD2    H511874   4.139   1.622  17.135  0.2139 -1.7194 -0.8120
  802MPD2    N111875   4.199   2.097  17.247  0.4906 -0.6849 -0.3572
  802MPD2    H711876   4.247   2.045  17.320  0.9800 -1.2760 -1.1094
  803MPD2     C11877   0.535   4.504  12.387 -0.1584 -0.2453  0.2754
  803MPD2    C111878   0.633   4.451  12.469  0.3452 -0.1105  0.0461
  803MPD2    C211879   0.591   4.400  12.592 -0.4108  0.0087 -0.4718
  803MPD2    C311880   0.458   4.398  12.624  0.4885 -0.6130 -0.0321
  803MPD2    C411881   0.371   4.455  12.543  0.4410  0.1064 -0.0075
  803MPD2    C511882   0.405   4.509  12.424  0.3064 -0.2939 -0.2867
  803MPD2     H11883   0.669   4.363  12.658 -1.2946 -0.7558  0.1455
  803MPD2    H111884   0.267   4.465  12.572  0.8305 -0.8770  1.7632
  803MPD2    H211885   0.567   4.562  12.300 -1.2745  0.1300  0.1232
  803MPD2    H311886   0.329   4.576  12.386 -0.3788 -0.4662  0.7824
  803MPD2     N11887   0.402   4.344  12.744  0.0174  0.1099 -0.0562
  803MPD2    H511888   0.301   4.350  12.752  0.1027 -0.4370  1.3393
  803MPD2    N111889   0.777   4.459  12.447 -0.1417  0.3794 -0.1378
  803MPD2    H711890   0.842   4.424  12.515 -0.8283  1.2214  0.9461
  804MPD2     C11891   0.018   1.470  16.877 -0.4447 -0.9953  0.0894
  804MPD2    C111892   0.028   1.450  17.011  0.6021  0.0794 -0.4826
  804MPD2    C211893   0.094   1.548  17.090  0.6334  0.2081 -0.2372
  804MPD2    C311894   0.151   1.660  17.037 -0.1229 -0.0175  0.3557
  804MPD2    C411895   0.129   1.684  16.902  0.0158  0.6910  0.1778
  804MPD2    C511896   0.066   1.586  16.827  0.9722 -0.4691 -0.2126
  804MPD2     H11897   0.103   1.524  17.195 -0.6554 -0.0031 -0.1816
  804MPD2    H111898   0.149   1.778  16.853  0.6973  1.5424  2.1072
  804MPD2    H211899   4.712   1.400  16.807  2.9400 -1.4913 -1.5312
  804MPD2    H311900   0.048   1.605  16.722  0.8407 -2.0682 -0.4789
  804MPD2     N11901   0.244   1.737  17.101 -0.2085  0.5492  0.9746
  804MPD2    H511902   0.250   1.727  17.202 -1.8403  2.0558  1.2263
  804MPD2    N111903   4.731   1.324  17.075 -0.0767 -0.2165  0.3820
  804MPD2    H711904   0.020   1.303  17.170 -0.0632 -1.3192  0.1380
  805MPD2     C11905   3.975   4.426  15.421 -0.1005  0.0745 -0.3365
  805MPD2    C111906   4.054   4.538  15.403  0.2328 -0.2170  0.0725
  805MPD2    C211907   4.169   4.553  15.476  0.3617  0.2128 -0.2597
  805MPD2    C311908   4.215   4.447  15.553  0.3274 -0.3250  0.3764
  805MPD2    C411909   4.141   4.338  15.567  0.9674 -0.7119 -1.2604
  805MPD2    C511910   4.022   4.327  15.501  0.2492  0.3272  0.5523
  805MPD2     H11911   4.233   4.640  15.477  0.2828  0.2685 -0.0192
  805MPD2    H111912   4.166   4.256  15.632  0.6120  0.7561  0.7105
  805MPD2    H211913   3.887   4.399  15.363 -0.3235  0.6272 -0.2625
  805MPD2    H311914   3.970   4.232  15.507 -1.5676  1.3604  0.8649
  805MPD2     N11915   4.325   4.465  15.632  0.5959  0.2016  0.2561
  805MPD2    H511916   4.356   4.561  15.641 -0.3612  0.5949 -0.6377
  805MPD2    N111917   4.033   4.633  15.303  0.6765  0.7633  0.2387
  805MPD2    H711918   4.111   4.679  15.257 -0.3734  0.8802 -1.4093
  806MPD2     C11919   4.693   3.940   1.253 -0.2737 -0.8196 -0.3173
  806MPD2    C111920   0.087   3.949   1.213  0.3617 -0.2305  0.4222
  806MPD2    C211921   0.129   3.906   1.089  0.1950 -0.6094 -0.0854
  806MPD2    C311922   0.033   3.849   1.002  0.1732 -0.7060 -0.3304
  806MPD2    C411923   4.642   3.819   1.048  0.4855  0.0654  0.4743
  806MPD2    C511924   4.606   3.873   1.167  0.3915  0.2390  0.1949
  806MPD2     H11925   0.231   3.916   1.053  0.4063  0.5425  0.8317
  806MPD2    H111926   4.572   3.763   0.986 -0.1900  1.0834  0.3218
  806MPD2    H211927   4.655   3.997   1.337  0.0472  1.1988 -1.5220
  806MPD2    H311928   4.504   3.866   1.201 -0.1523  2.6869 -0.8892
  806MPD2     N11929   0.079   3.809   0.870  0.4606  0.2445 -0.2388
  806MPD2    H511930   0.176   3.832   0.849  0.8189 -2.3309 -1.3804
  806MPD2    N111931   0.173   4.014   1.308  0.3614  0.2637 -0.2893
  806MPD2    H711932   0.143   4.044   1.400  0.0064 -0.0587 -0.2996
  807MPD2     C11933   0.546   3.732   1.882  0.4786 -0.6752  0.1491
  807MPD2    C111934   0.448   3.734   1.786 -0.4112 -0.0687  0.4053
  807MPD2    C211935   0.388   3.614   1.741  0.1941  0.2816 -0.1941
  807MPD2    C311936   0.417   3.496   1.811 -0.0382 -0.0316 -0.3193
  807MPD2    C411937   0.517   3.497   1.906 -0.5053 -0.3420 -0.3020
  807MPD2    C511938   0.586   3.615   1.938 -0.0588 -0.0469  0.2138
  807MPD2     H11939   0.312   3.615   1.664 -0.3298  0.7540  0.3231
  807MPD2    H111940   0.540   3.401   1.952  2.2755  1.1246  1.3494
  807MPD2    H211941   0.602   3.822   1.903 -0.0879 -0.2779 -0.0540
  807MPD2    H311942   0.674   3.621   2.001 -0.6045  0.7143  0.9162
  807MPD2     N11943   0.349   3.379   1.765  0.1177 -0.1901 -0.2932
  807MPD2    H511944   0.274   3.385   1.697  0.6154  0.8452 -0.7618
  807MPD2    N111945   0.413   3.856   1.714 -0.3025 -0.6343 -0.1180
  807MPD2    H711946   0.338   3.849   1.646 -1.4545 -1.9135  1.2807
  808MPD2     C11947   4.515   1.390  10.383  0.5728  0.7491  0.0930
  808MPD2    C111948   4.596   1.385  10.496  0.5151  0.6721 -0.6530
  808MPD2    C211949   4.641   1.504  10.550 -0.4484  0.5020  0.4886
  808MPD2    C311950   4.624   1.621  10.479  0.4473  0.0708 -0.1572
  808MPD2    C411951   4.538   1.630  10.369 -0.8967 -0.1444  0.3553
  808MPD2    C511952   4.494   1.508  10.322 -0.5699 -0.1182  0.5450
  808MPD2     H11953   4.682   1.509  10.650 -0.5324 -2.2710  0.6526
  808MPD2    H111954   4.512   1.723  10.321  0.5865 -0.6896 -1.5155
  808MPD2    H211955   4.462   1.301  10.351  0.4642  0.7388  0.3032
  808MPD2    H311956   4.431   1.516  10.234 -1.0776 -0.7214  0.8552
  808MPD2     N11957   4.683   1.742  10.518  0.1323  0.5120  0.5477
  808MPD2    H511958   4.666   1.820  10.456 -1.3221 -0.0309  0.2639
  808MPD2    N111959   4.627   1.263  10.568 -0.0060  0.4643 -0.0698
  808MPD2    H711960   4.671   1.277  10.659 -1.6199  1.2874  0.5801
  809MPD2     C11961   0.084   2.424   9.964 -0.6300 -0.9239 -0.0847
  809MPD2    C111962   0.202   2.420  10.041  0.6015 -0.1026 -0.1124
  809MPD2    C211963   0.198   2.363  10.168 -0.0528 -0.1597 -0.8835
  809MPD2    C311964   0.088   2.296  10.209 -0.0384  0.3382  0.8349
  809MPD2    C411965   4.716   2.279  10.128  0.4791  0.5520 -0.1406
  809MPD2    C511966   4.714   2.353  10.006 -0.3934  0.2618 -0.0466
  809MPD2     H11967   0.290   2.374  10.224 -1.1169 -0.3177  0.8890
  809MPD2    H111968   4.625   2.226  10.156  1.4443 -1.2484 -0.4425
  809MPD2    H211969   0.076   2.472   9.867 -2.0436 -0.8596  0.0638
  809MPD2    H311970   4.628   2.345   9.940  1.5915 -2.5030 -2.3100
  809MPD2     N11971   0.097   2.248  10.340 -0.3139 -0.1736  0.3509
  809MPD2    H511972   0.185   2.250  10.392 -1.9012  1.5336  2.9535
  809MPD2    N111973   0.327   2.467   9.984 -0.5102 -0.6925  0.5551
  809MPD2    H711974   0.408   2.447  10.041  0.3574  0.1838 -0.3512
  810MPD2     C11975   4.323   0.606  11.277  0.8742  0.1709 -0.1876
  810MPD2    C111976   4.209   0.620  11.192  0.5436 -0.1083 -0.2325
  810MPD2    C211977   4.172   0.747  11.152  0.3779  0.4322 -0.2662
  810MPD2    C311978   4.252   0.858  11.181  0.8757  0.9746 -0.0933
  810MPD2    C411979   4.360   0.846  11.261 -0.1417  0.2138 -0.5727
  810MPD2    C511980   4.392   0.722  11.309  0.8509 -0.2518 -0.5375
  810MPD2     H11981   4.085   0.763  11.090  0.7633 -1.5381 -1.3089
  810MPD2    H111982   4.427   0.925  11.290 -1.2953  0.0640  2.5426
  810MPD2    H211983   4.366   0.513  11.314 -0.8991 -0.2753  0.7179
  810MPD2    H311984   4.476   0.732  11.377 -0.1278 -0.9081  0.7725
  810MPD2     N11985   4.220   0.991  11.146  0.6470  0.8136 -0.4758
  810MPD2    H511986   4.286   1.064  11.171  2.2726 -0.8391  0.0497
  810MPD2    N111987   4.141   0.504  11.148  0.5501  0.4745 -0.1603
  810MPD2    H711988   4.164   0.420  11.201  1.0299 -0.6027 -2.0516
  811MPD2     C11989   3.696   0.054  10.486  0.5142  0.1568 -0.0918
  811MPD2    C111990   3.794   0.144  10.517 -0.4426  0.0292  0.4793
  811MPD2    C211991   3.819   0.245  10.427 -0.5931  0.4855  0.3049
  811MPD2    C311992   3.751   0.259  10.311 -0.6788  0.7663 -0.4074
  811MPD2    C411993   3.647   0.170  10.288 -0.3312  0.6196 -0.6583
  811MPD2    C511994   3.626   0.062  10.372 -0.1573 -0.4155 -0.3629
  811MPD2     H11995   3.888   0.325  10.448 -0.5047  0.3464  0.5359
  811MPD2    H111996   3.588   0.180  10.198 -1.8547  1.0236  0.3910
  811MPD2    H211997   3.667   4.716  10.558 -0.0675  0.9685  0.5208
  811MPD2    H311998   3.533   0.008  10.360  0.3587 -1.4661  0.4258
  811MPD2     N11999   3.779   0.381  10.241 -0.9208 -0.3578  0.2273
  811MPD2    H512000   3.866   0.425  10.269 -1.5178 -0.0003  1.4915
  811MPD2    N112001   3.873   0.138  10.637  0.6828  0.5255 -0.9671
  811MPD2    H712002   3.829   0.073  10.701  0.5353  0.5695 -1.0243
  812MPD2     C12003   2.952   4.675  12.211  0.5721 -0.8006  0.3475
  812MPD2    C112004   3.052   0.024  12.249 -0.0288 -0.1986 -0.4095
  812MPD2    C212005   3.135   4.713  12.351  0.7566  0.2798 -0.0427
  812MPD2    C312006   3.114   4.591  12.416 -0.1297  0.9689  0.0486
  812MPD2    C412007   3.009   4.508  12.379  0.2855 -0.3015  0.4660
  812MPD2    C512008   2.929   4.551  12.277 -0.0489 -0.0141 -0.1559
  812MPD2     H12009   3.220   0.037  12.375  0.0202  0.3735  2.2962
  812MPD2    H112010   2.979   4.416  12.427 -3.0463  0.5329 -0.0003
  812MPD2    H212011   2.877   4.718  12.145  0.7797 -0.4815  0.3232
  812MPD2    H312012   2.849   4.481  12.253 -0.9605  0.1666  2.2776
  812MPD2     N12013   3.178   4.562  12.541 -0.1847 -0.4583  0.5831
  812MPD2    H512014   3.225   4.641  12.583  0.5865 -0.0978 -0.9509
  812MPD2    N112015   3.064   0.151  12.175  0.3089 -0.3007 -0.2501
  812MPD2    H712016   2.998   0.162  12.099  1.5756  1.4462 -1.1029
  813MPD2     C12017   2.652   1.783  12.718 -0.4186 -0.4139 -0.1851
  813MPD2    C112018   2.650   1.876  12.825  0.3058  0.0768 -0.4151
  813MPD2    C212019   2.546   1.869  12.915 -0.4293 -0.2980  0.8297
  813MPD2    C312020   2.443   1.776  12.897 -0.0750 -0.6604  0.3148
  813MPD2    C412021   2.445   1.684  12.794  0.0419 -0.1581 -0.5377
  813MPD2    C512022   2.552   1.694  12.706 -0.2419  0.1172  0.3318
  813MPD2     H12023   2.537   1.943  12.994  0.2395  0.7092 -0.0341
  813MPD2    H112024   2.379   1.602  12.771 -1.3483  1.1307 -1.1175
  813MPD2    H212025   2.730   1.781  12.642  2.0238  3.3749  2.2719
  813MPD2    H312026   2.561   1.623  12.625 -1.2751  0.5063 -0.1276
  813MPD2     N12027   2.334   1.769  12.987 -0.0562 -0.3296  0.3678
  813MPD2    H512028   2.314   1.854  13.039  0.2537 -0.5580  0.8647
  813MPD2    N112029   2.763   1.957  12.857  0.0203 -0.9330 -0.0867
  813MPD2    H712030   2.752   2.013  12.941  0.0699 -2.3814  0.8841
  814MPD2     C12031   2.903   3.241  12.292  0.8667  0.1435  0.3272
  814MPD2    C112032   2.916   3.325  12.190  0.1425 -0.6933  0.7981
  814MPD2    C212033   2.981   3.448  12.214 -0.6741  0.3060  0.3370
  814MPD2    C312034   3.018   3.486  12.343 -0.1147  0.0396  0.2555
  814MPD2    C412035   2.985   3.400  12.443  0.1537  0.1979  0.1001
  814MPD2    C512036   2.945   3.273  12.420 -0.1138 -0.0629 -0.1314
  814MPD2     H12037   2.996   3.509  12.125  1.4975 -0.8933 -0.1201
  814MPD2    H112038   3.018   3.427  12.543  0.7826  0.6130 -0.2129
  814MPD2    H212039   2.881   3.138  12.269  0.8748  0.5450 -1.4329
  814MPD2    H312040   2.929   3.204  12.503  1.9062 -0.3226  0.0315
  814MPD2     N12041   3.076   3.610  12.363  0.7386  0.1818  0.8519
  814MPD2    H512042   3.098   3.635  12.459  2.2440 -0.4717  0.6812
  814MPD2    N112043   2.871   3.297  12.054 -0.2529  0.0640 -0.5904
  814MPD2    H712044   2.913   3.349  11.978  1.6078  0.1127  0.4845
  815MPD2     C12045   2.917   1.102  12.100 -0.4223 -0.0569  0.2776
  815MPD2    C112046   2.901   1.168  11.981 -0.2949  0.1931  0.0113
  815MPD2    C212047   2.778   1.225  11.954 -0.1770 -0.2624 -0.1192
  815MPD2    C312048   2.678   1.233  12.046 -0.6511  0.2039  0.5707
  815MPD2    C412049   2.701   1.172  12.170 -0.1086  0.7316  0.9089
  815MPD2    C512050   2.816   1.109  12.191  0.1535 -0.2697  0.0099
  815MPD2     H12051   2.769   1.265  11.854 -2.1965  0.9746  0.5693
  815MPD2    H112052   2.630   1.155  12.250 -0.3128 -1.3540  0.2936
  815MPD2    H212053   3.002   1.041  12.128 -3.7868 -4.7232  0.3399
  815MPD2    H312054   2.834   1.058  12.286 -0.8932  0.1622  0.4482
  815MPD2     N12055   2.555   1.295  12.011 -0.1585  0.0884  0.4358
  815MPD2    H512056   2.554   1.348  11.924  0.7077  1.0968  1.0434
  815MPD2    N112057   3.000   1.155  11.884  0.2796  1.0396  0.2567
  815MPD2    H712058   3.093   1.143  11.921  1.5355  3.9279 -1.9626
  816MPD2     C12059   3.915   0.801  17.262 -0.0470 -0.6402 -0.2482
  816MPD2    C112060   3.913   0.881  17.150 -0.2732 -0.5053 -0.1258
  816MPD2    C212061   3.957   0.827  17.034 -0.6111  0.7598  0.0459
  816MPD2    C312062   3.993   0.695  17.023  0.4042 -0.1837  0.2343
  816MPD2    C412063   3.997   0.611  17.130  0.2775 -0.2746 -0.1758
  816MPD2    C512064   3.943   0.667  17.251  0.1130 -0.3973  0.6080
  816MPD2     H12065   3.966   0.885  16.944  2.5534  1.4027  0.7584
  816MPD2    H112066   4.038   0.511  17.140  0.7326 -0.1844 -1.1329
  816MPD2    H212067   3.880   0.838  17.357 -1.7119  1.0248 -1.5245
  816MPD2    H312068   3.934   0.597  17.334  0.9979 -1.0270  0.1764
  816MPD2     N12069   4.031   0.652  16.894  0.4265 -0.0014 -0.2079
  816MPD2    H512070   4.033   0.714  16.814 -1.5413  0.4055  0.0700
  816MPD2    N112071   3.858   1.008  17.156 -0.0324  0.7020 -0.2037
  816MPD2    H712072   3.820   1.032  17.247  2.6090  2.5839  0.4139
  817MPD2     C12073   2.611   3.138  10.314  0.0059 -0.1341 -0.2343
  817MPD2    C112074   2.677   3.188  10.207 -0.2851  0.2500 -0.2094
  817MPD2    C212075   2.668   3.319  10.170 -0.3898 -0.4379  0.3978
  817MPD2    C312076   2.598   3.406  10.246  0.0272  0.3209  0.0177
  817MPD2    C412077   2.526   3.354  10.347 -0.5576 -0.2531  0.3291
  817MPD2    C512078   2.535   3.225  10.385 -0.0170  0.8717 -0.3798
  817MPD2     H12079   2.723   3.354  10.083 -0.8355  0.3733  0.4450
  817MPD2    H112080   2.456   3.411  10.407 -2.3757 -0.6840 -1.3811
  817MPD2    H212081   2.604   3.034  10.342  1.3919 -0.2773 -0.4181
  817MPD2    H312082   2.468   3.185  10.460 -0.4233 -0.2503 -1.3431
  817MPD2     N12083   2.593   3.542  10.205 -0.0588 -0.1538  0.5529
  817MPD2    H512084   2.652   3.565  10.126 -0.3895  1.2187  0.7119
  817MPD2    N112085   2.758   3.116  10.125 -0.2876  0.2127 -0.2898
  817MPD2    H712086   2.812   3.165  10.054 -0.5997  0.3113 -0.4552
  818MPD2     C12087   1.815   3.358  10.097  0.3023 -0.0093  0.1379
  818MPD2    C112088   1.797   3.223  10.136  0.9663  1.0489 -0.4007
  818MPD2    C212089   1.863   3.122  10.068  0.0173 -0.4007 -0.1143
  818MPD2    C312090   1.948   3.151   9.960 -0.1488  0.0483 -0.1084
  818MPD2    C412091   1.971   3.284   9.923  0.4805  0.1146  0.3962
  818MPD2    C512092   1.907   3.381   9.995  0.6356  0.0084  0.0843
  818MPD2     H12093   1.838   3.022  10.099 -2.1365 -0.0486 -0.6687
  818MPD2    H112094   2.044   3.313   9.848 -1.7304  0.5673 -1.5836
  818MPD2    H212095   1.765   3.441  10.145 -0.3406 -0.8961  1.0166
  818MPD2    H312096   1.922   3.485   9.967 -0.8832  0.8050  2.2078
  818MPD2     N12097   2.023   3.051   9.891  0.1297  0.3590  0.0467
  818MPD2    H512098   2.082   3.081   9.814  3.3142  1.6409  2.9981
  818MPD2    N112099   1.707   3.181  10.239 -1.0277 -0.1443  1.0838
  818MPD2    H712100   1.679   3.084  10.249  0.5353 -0.8822 -1.7271
  819MPD2     C12101   0.060   4.305  15.671 -0.3329 -0.3447  0.2521
  819MPD2    C112102   0.011   4.183  15.711  0.1794  0.8252 -0.8984
  819MPD2    C212103   0.066   4.140  15.833  0.2639  0.3631  0.6033
  819MPD2    C312104   0.165   4.208  15.893 -0.0595  0.0165  0.6750
  819MPD2    C412105   0.226   4.317  15.833 -0.2714  0.1789  0.7521
  819MPD2    C512106   0.171   4.370  15.721  0.0459  0.3393  0.6007
  819MPD2     H12107   0.048   4.038  15.865  2.0462 -0.1814 -0.1633
  819MPD2    H112108   0.307   4.372  15.881  0.5325 -0.4979  0.1595
  819MPD2    H212109   4.733   4.352  15.598 -1.0079  1.2229  1.8412
  819MPD2    H312110   0.216   4.465  15.693  0.2131  0.3652  0.9640
  819MPD2     N12111   0.221   4.140  15.997  0.1657 -0.3245  0.9856
  819MPD2    H512112   0.178   4.049  16.010 -1.9283  0.3848 -0.9990
  819MPD2    N112113   4.635   4.124  15.648  0.1522  0.1112  0.3371
  819MPD2    H712114   4.612   4.158  15.555  1.8774  3.2855  1.0798
  820MPD2     C12115   3.816   4.203  15.087 -0.2201 -0.4516 -0.1294
  820MPD2    C112116   3.946   4.247  15.075  0.1641  0.1510 -0.0965
  820MPD2    C212117   4.042   4.199  15.163 -0.2016  0.5097  0.3668
  820MPD2    C312118   4.011   4.090  15.242  0.3848 -0.2326 -0.0041
  820MPD2    C412119   3.885   4.035  15.239 -0.3060 -0.0534  0.0054
  820MPD2    C512120   3.788   4.101  15.176 -0.0074  0.0475  0.1467
  820MPD2     H12121   4.141   4.242  15.161  0.4581 -1.0143 -0.0933
  820MPD2    H112122   3.860   3.943  15.290  1.8329 -0.8315 -0.3343
  820MPD2    H212123   3.746   4.247  15.017  0.6790  3.4066  1.3635
  820MPD2    H312124   3.682   4.080  15.185  0.3250 -2.1049 -1.0614
  820MPD2     N12125   4.099   4.035  15.331 -0.7533 -0.0864  0.4427
  820MPD2    H512126   4.065   3.953  15.381  1.0217 -1.0655  0.0580
  820MPD2    N112127   3.961   4.366  14.997  0.4847  0.0294 -0.6291
  820MPD2    H712128   3.876   4.393  14.949 -1.5388 -2.5178  1.4714
  821MPD2     C12129   0.197   0.710  13.120  0.4239  0.1753  0.1214
  821MPD2    C112130   0.278   0.665  13.225  0.1408  0.2729 -0.4818
  821MPD2    C212131   0.411   0.700  13.227 -0.3835 -0.2154 -0.2501
  821MPD2    C312132   0.465   0.771  13.114 -0.3378  0.9256 -0.3341
  821MPD2    C412133   0.390   0.795  12.998 -0.0248  0.7649 -0.2886
  821MPD2    C512134   0.257   0.767  13.008  0.3954  0.7471 -0.1961
  821MPD2     H12135   0.461   0.667  13.318  1.8539  1.2621 -0.9329
  821MPD2    H112136   0.439   0.852  12.920 -1.0774  1.7199 -0.2585
  821MPD2    H212137   0.089   0.700  13.115  0.3947  0.7261 -0.3314
  821MPD2    H312138   0.192   0.795  12.925 -2.0529  2.2317  2.2270
  821MPD2     N12139   0.600   0.816  13.101 -0.0809  0.1926  0.0032
  821MPD2    H512140   0.632   0.862  13.016 -1.2665  2.5316  0.8332
  821MPD2    N112141   0.226   0.600  13.341 -0.6692 -0.3609 -0.0615
  821MPD2    H712142   0.295   0.584  13.414 -0.0621  1.2424 -0.2962
  822MPD2     C12143   0.744   0.706  15.593  0.6128 -0.0437 -0.0022
  822MPD2    C112144   0.708   0.685  15.721  0.6525  0.1354  0.5159
  822MPD2    C212145   0.639   0.775  15.798  0.0004  0.1182 -0.1941
  822MPD2    C312146   0.592   0.894  15.736  0.2260 -0.3278 -0.4447
  822MPD2    C412147   0.634   0.926  15.609 -0.5462 -0.1744  0.8581
  822MPD2    C512148   0.705   0.828  15.538  0.3597 -0.3665  0.2417
  822MPD2     H12149   0.611   0.753  15.900  1.5588 -1.3703 -0.0770
  822MPD2    H112150   0.613   1.017  15.555  1.4501  0.5171  1.2610
  822MPD2    H212151   0.783   0.627  15.530  1.1377  1.2289 -1.2813
  822MPD2    H312152   0.718   0.849  15.432 -2.0908  2.2790  0.4578
  822MPD2     N12153   0.544   1.000  15.822  0.1313  0.1345  0.2518
  822MPD2    H512154   0.538   0.978  15.921  0.7151  1.5730  0.6014
  822MPD2    N112155   0.735   0.567  15.793 -0.3457 -0.6547 -0.1150
  822MPD2    H712156   0.716   0.573  15.893  0.3137 -0.6560  0.0084
  823MPD2     C12157   0.241   1.168  16.591  0.5836 -0.5105 -0.2959
  823MPD2    C112158   0.310   1.096  16.498 -0.1889 -0.0388  0.1652
  823MPD2    C212159   0.362   0.974  16.537 -0.3264 -0.4296 -0.3253
  823MPD2    C312160   0.357   0.937  16.672 -1.2438 -0.4339 -0.1956
  823MPD2    C412161   0.287   1.013  16.766 -0.0581 -0.9209  0.8291
  823MPD2    C512162   0.224   1.131  16.720 -0.1484 -0.6312  0.2142
  823MPD2     H12163   0.421   0.914  16.467  1.0184  2.2959 -1.5470
  823MPD2    H112164   0.288   0.980  16.869  1.9954 -2.9638  0.1587
  823MPD2    H212165   0.201   1.264  16.560  2.1574  0.4102  0.5112
  823MPD2    H312166   0.170   1.196  16.788 -1.1785 -1.1179 -0.1290
  823MPD2     N12167   0.430   0.827  16.721  0.9913  0.0155  0.2495
  823MPD2    H512168   0.419   0.808  16.820 -1.2230  2.5267  0.4709
  823MPD2    N112169   0.315   1.146  16.367  0.0136 -0.1903 -0.8756
  823MPD2    H712170   0.286   1.242  16.357 -1.9695 -0.8476 -1.5906
  824MPD2     C12171   0.980   4.437  15.933  0.2678 -0.1789  0.6009
  824MPD2    C112172   1.069   4.536  15.895  0.5938 -0.2679 -0.1154
  824MPD2    C212173   1.199   4.495  15.869  0.0662  0.5313 -0.7048
  824MPD2    C312174   1.232   4.363  15.872  0.1051 -0.3441  0.0930
  824MPD2    C412175   1.147   4.267  15.928  0.6986  0.4345  0.5063
  824MPD2    C512176   1.013   4.305  15.953 -0.0426 -0.2322  0.2313
  824MPD2     H12177   1.265   4.575  15.838 -0.0359  1.6932  2.0058
  824MPD2    H112178   1.179   4.164  15.941  1.0052  0.4608 -0.0532
  824MPD2    H212179   0.878   4.466  15.955 -0.0391 -0.7920 -0.0166
  824MPD2    H312180   0.950   4.220  15.975 -1.4731  1.0534  1.0745
  824MPD2     N12181   1.362   4.325  15.823 -0.3773  0.2100 -0.2199
  824MPD2    H512182   1.423   4.402  15.796  2.2457 -1.7921  0.0413
  824MPD2    N112183   1.041   4.674  15.881 -0.1254 -0.0756  0.3946
  824MPD2    H712184   1.116   0.002  15.861  1.4047 -2.2338 -0.8828
  825MPD2     C12185   2.028   4.427  15.296 -0.4056  0.0160  0.2420
  825MPD2    C112186   1.943   4.474  15.399  0.4182  1.0836  0.5435
  825MPD2    C212187   1.918   4.611  15.401  0.2412 -1.0653  0.1573
  825MPD2    C312188   1.959   4.695  15.302  0.3543 -0.2056  0.1603
  825MPD2    C412189   2.033   4.640  15.198  1.0615  0.5458 -0.0362
  825MPD2    C512190   2.077   4.514  15.206 -0.4131 -0.0205 -0.5132
  825MPD2     H12191   1.852   4.657  15.474  1.2169 -1.0789  1.0589
  825MPD2    H112192   2.074   4.703  15.120  0.1911  0.1243 -0.8368
  825MPD2    H212193   2.066   4.326  15.293 -0.6796 -0.0993  0.6684
  825MPD2    H312194   2.142   4.474  15.129  0.0028 -1.2417  0.4667
  825MPD2     N12195   1.928   0.093  15.294  0.4326  0.6952 -0.2223
  825MPD2    H512196   1.954   0.155  15.218  1.5969 -1.0017 -1.2230
  825MPD2    N112197   1.891   4.384  15.499  0.4008  0.1631 -0.1888
  825MPD2    H712198   1.932   4.291  15.498 -1.3347 -0.5877 -0.8005
  826MPD2     C12199   1.456   4.481  13.433 -0.0081 -0.4337  0.2591
  826MPD2    C112200   1.548   4.561  13.500  0.2440 -0.5224  0.0084
  826MPD2    C212201   1.501   4.674  13.567 -0.4223  0.6245 -0.1456
  826MPD2    C312202   1.370   4.716  13.553  0.9769 -0.5675  0.2701
  826MPD2    C412203   1.290   4.644  13.472 -0.1312 -0.2576  0.4338
  826MPD2    C512204   1.330   4.532  13.410 -0.4797 -0.1300  0.2841
  826MPD2     H12205   1.562   4.718  13.645  2.6403 -1.3395 -1.4405
  826MPD2    H112206   1.187   4.672  13.455  0.1848  0.8997  0.3943
  826MPD2    H212207   1.477   4.381  13.398  1.0710  0.8731 -2.8105
  826MPD2    H312208   1.258   4.468  13.362 -0.1376 -0.0451 -0.3469
  826MPD2     N12209   1.322   0.096  13.616 -0.6336 -0.3585 -0.2200
  826MPD2    H512210   1.234   0.135  13.584  0.0688  0.7698 -0.8027
  826MPD2    N112211   1.682   4.513  13.512  0.7834 -0.0869  0.2073
  826MPD2    H712212   1.688   4.415  13.488 -2.0410 -0.1215 -0.3921
  827MPD2     C12213   2.492   1.570   9.959 -0.0936  0.5808 -0.5310
  827MPD2    C112214   2.397   1.505  10.024 -0.6137  0.3750 -0.3471
  827MPD2    C212215   2.272   1.485   9.958 -0.5964  0.3808 -0.7673
  827MPD2    C312216   2.229   1.561   9.851 -0.1235  0.8730  0.7420
  827MPD2    C412217   2.320   1.653   9.800  0.5234 -0.3922  0.1894
  827MPD2    C512218   2.452   1.639   9.847 -0.1851  0.7051  0.6586
  827MPD2     H12219   2.207   1.410  10.001  0.6210 -0.9415 -1.2337
  827MPD2    H112220   2.309   1.720   9.715 -0.8915 -0.8306  0.0233
  827MPD2    H212221   2.591   1.574  10.001 -0.7933  1.9236  0.9849
  827MPD2    H312222   2.523   1.707   9.800 -0.3287  0.5132  0.1606
  827MPD2     N12223   2.096   1.546   9.807  0.1254 -0.0143 -0.0528
  827MPD2    H512224   2.038   1.473   9.847 -0.5367 -0.1278 -1.2046
  827MPD2    N112225   2.434   1.423  10.128 -0.2866  0.3437 -0.0795
  827MPD2    H712226   2.534   1.413  10.145 -0.0674  0.5735 -1.2207
  828MPD2     C12227   0.910   0.863  12.709  0.2892 -0.1469 -0.7457
  828MPD2    C112228   0.879   0.953  12.612 -0.2805 -0.1444  0.9808
  828MPD2    C212229   0.968   1.046  12.577  0.3690  0.0134 -0.1128
  828MPD2    C312230   1.100   1.050  12.623 -0.9155  0.3123  0.4262
  828MPD2    C412231   1.126   0.952  12.717 -0.0566 -0.2810  0.0916
  828MPD2    C512232   1.035   0.863  12.764  0.2046  0.5425  0.6878
  828MPD2     H12233   0.947   1.113  12.494  0.2389 -0.8953 -0.8103
  828MPD2    H112234   1.228   0.930  12.748 -1.0178 -1.7746  2.1837
  828MPD2    H212235   0.847   0.789  12.756 -1.1094  0.8755 -1.0117
  828MPD2    H312236   1.054   0.785  12.837 -2.5823  0.0663  0.8987
  828MPD2     N12237   1.204   1.133  12.581  0.0733 -0.2303  0.3336
  828MPD2    H512238   1.295   1.103  12.614  1.2790  0.4393 -2.3703
  828MPD2    N112239   0.761   0.951  12.539 -0.0291 -0.1004  0.0704
  828MPD2    H712240   0.746   1.022  12.468  1.4432  0.0452 -0.0960
  829MPD2     C12241   0.752   1.228  11.768  0.0786 -0.1341  0.5983
  829MPD2    C112242   0.612   1.240  11.793  0.9487  0.3473 -0.8616
  829MPD2    C212243   0.559   1.190  11.911  0.7486  0.5770  0.1630
  829MPD2    C312244   0.642   1.141  12.007  0.3892  0.1384  0.3858
  829MPD2    C412245   0.779   1.135  11.980  0.3339 -0.1297  0.3241
  829MPD2    C512246   0.835   1.186  11.865 -0.3294  0.0756  0.6294
  829MPD2     H12247   0.452   1.190  11.927  0.7501 -0.6178  0.2080
  829MPD2    H112248   0.848   1.101  12.056 -0.9689  0.3605  1.7181
  829MPD2    H212249   0.800   1.267  11.680 -1.1897  0.2945  0.0931
  829MPD2    H312250   0.943   1.185  11.855 -0.5466 -0.4529 -1.8560
  829MPD2     N12251   0.606   1.082  12.128  0.2491 -0.0368  0.0717
  829MPD2    H512252   0.679   1.085  12.198 -1.7510  1.3210  2.0891
  829MPD2    N112253   0.534   1.291  11.690  0.4783  0.0114  0.2475
  829MPD2    H712254   0.582   1.332  11.611  2.3937 -2.7574 -0.0373
  830MPD2     C12255   0.923   3.846  16.130  0.1072  0.2303  0.2595
  830MPD2    C112256   0.815   3.883  16.053  0.1483 -0.1167  0.7804
  830MPD2    C212257   0.829   3.937  15.926 -0.2192  0.0689 -0.1359
  830MPD2    C312258   0.953   3.958  15.875 -0.5574 -0.1147  0.2938
  830MPD2    C412259   1.061   3.912  15.949  0.3821 -0.1147  0.7744
  830MPD2    C512260   1.042   3.861  16.073  0.1842 -0.2599  0.4042
  830MPD2     H12261   0.740   3.965  15.872 -1.2854 -0.4838  1.3183
  830MPD2    H112262   1.158   3.920  15.901 -1.3776  1.2701 -2.5019
  830MPD2    H212263   0.906   3.788  16.219 -3.8391 -1.8334 -1.8517
  830MPD2    H312264   1.130   3.823  16.125  0.8201 -0.4703 -0.8139
  830MPD2     N12265   0.978   4.005  15.741 -0.3969 -0.4437  0.2683
  830MPD2    H512266   1.075   4.027  15.722 -0.9282  0.0501 -1.7995
  830MPD2    N112267   0.691   3.851  16.114 -0.5805  0.4477  0.0474
  830MPD2    H712268   0.694   3.826  16.212  0.4732  1.5816  0.3151
  831MPD2     C12269   0.892   1.061  16.044  0.1123 -1.1880 -0.7612
  831MPD2    C112270   0.905   0.929  16.026  0.0916  0.0527 -0.8204
  831MPD2    C212271   0.820   0.841  16.086  0.3987  0.3900  0.5408
  831MPD2    C312272   0.715   0.887  16.164 -0.0533 -0.4545 -0.4128
  831MPD2    C412273   0.707   1.023  16.200 -0.5972  0.8274  0.2767
  831MPD2    C512274   0.796   1.101  16.138 -0.1578 -0.3889 -0.5919
  831MPD2     H12275   0.830   0.738  16.053  2.7743  0.5202  0.8840
  831MPD2    H112276   0.626   1.071  16.253  0.3801  2.3168  0.4135
  831MPD2    H212277   0.956   1.135  15.997 -0.4032  0.4544  1.1655
  831MPD2    H312278   0.783   1.207  16.161  3.5592  0.2876 -1.7111
  831MPD2     N12279   0.599   0.812  16.196 -0.1211  0.5265  0.4585
  831MPD2    H512280   0.525   0.869  16.234  0.6855  0.9206  1.4213
  831MPD2    N112281   0.989   0.888  15.930  0.5373  0.6627 -0.1557
  831MPD2    H712282   1.023   0.964  15.873  2.5591  1.1996  1.7593
  832MPD2     C12283   3.883   2.423  17.204 -0.1132  0.0057 -0.5251
  832MPD2    C112284   3.786   2.511  17.168 -0.1953 -0.1084  0.4561
  832MPD2    C212285   3.668   2.466  17.114  0.3276 -0.7838 -0.9816
  832MPD2    C312286   3.650   2.330  17.091 -0.4644 -0.1527 -0.2774
  832MPD2    C412287   3.740   2.238  17.150 -0.0645  1.0529 -0.1728
  832MPD2    C512288   3.859   2.289  17.189  0.7160  0.5900 -0.3988
  832MPD2     H12289   3.599   2.536  17.069  1.8468  0.6547 -1.0495
  832MPD2    H112290   3.728   2.131  17.148 -0.6121  1.1289 -1.1919
  832MPD2    H212291   3.976   2.452  17.252 -1.0544  1.1224  0.6190
  832MPD2    H312292   3.934   2.223  17.232  0.6151  0.3135 -0.6440
  832MPD2     N12293   3.544   2.275  17.017 -0.5313 -0.7170  0.1470
  832MPD2    H512294   3.522   2.178  17.034 -2.0757 -0.4975 -0.6654
  832MPD2    N112295   3.831   2.646  17.178 -0.7690  0.5228 -0.0972
  832MPD2    H712296   3.932   2.649  17.169 -0.8498 -0.7274 -1.4900
  833MPD2     C12297   1.031   3.576  12.934 -0.5119 -0.2116  0.2166
  833MPD2    C112298   1.010   3.669  12.835 -0.4065  0.7741  0.3480
  833MPD2    C212299   1.115   3.707  12.757  0.0124 -0.0212 -0.4988
  833MPD2    C312300   1.245   3.658  12.782 -1.0897  0.0855  0.6296
  833MPD2    C412301   1.265   3.566  12.879  0.9736  0.6383 -0.2946
  833MPD2    C512302   1.158   3.532  12.963  0.2740 -0.3660  0.6109
  833MPD2     H12303   1.110   3.781  12.678  0.0649  0.9834  0.4432
  833MPD2    H112304   1.365   3.532  12.905  1.0295  2.0590  1.3269
  833MPD2    H212305   0.955   3.557  13.009  1.5585 -3.0005  1.6226
  833MPD2    H312306   1.185   3.465  13.043  1.1998 -1.1262 -0.3301
  833MPD2     N12307   1.352   3.700  12.694 -0.2668 -0.4306 -0.4624
  833MPD2    H512308   1.327   3.758  12.615  0.8482  2.1766  1.1165
  833MPD2    N112309   0.894   3.752  12.834 -0.1196 -0.0826 -0.1378
  833MPD2    H712310   0.816   3.728  12.895  1.1812 -1.8124  0.8279
  834MPD2     C12311   1.711   3.298  11.866  0.0895 -0.1672 -0.1136
  834MPD2    C112312   1.581   3.318  11.898  0.5057  0.3166  0.1934
  834MPD2    C212313   1.541   3.401  12.007 -0.6854 -0.3405  0.0027
  834MPD2    C312314   1.643   3.455  12.082 -0.2759 -0.4360  0.2627
  834MPD2    C412315   1.767   3.410  12.073 -0.5514 -0.8808 -0.0669
  834MPD2    C512316   1.805   3.339  11.963  0.4786 -0.6827  0.1697
  834MPD2     H12317   1.443   3.443  12.023  0.3102  2.1184 -0.2788
  834MPD2    H112318   1.843   3.430  12.148 -1.6732  1.1154  0.5343
  834MPD2    H212319   1.738   3.234  11.783 -1.4503 -0.1828 -0.6068
  834MPD2    H312320   1.902   3.294  11.948  0.4062 -0.4111 -1.0728
  834MPD2     N12321   1.606   3.550  12.186 -0.8830  0.3732  0.0193
  834MPD2    H512322   1.508   3.575  12.196 -1.1792 -0.6084 -0.4037
  834MPD2    N112323   1.487   3.261  11.802  0.7072  0.4504 -0.6253
  834MPD2    H712324   1.520   3.200  11.727 -0.7945  0.1690 -1.0559
  835MPD2     C12325   1.498   1.548  10.912  0.3393  0.5968 -0.6284
  835MPD2    C112326   1.399   1.553  11.009  0.3446  0.6348  0.2479
  835MPD2    C212327   1.436   1.582  11.134  0.3697  0.0958  0.3785
  835MPD2    C312328   1.570   1.606  11.170  0.6380  0.2745  0.0388
  835MPD2    C412329   1.668   1.589  11.080 -0.2995 -0.0323 -0.1695
  835MPD2    C512330   1.630   1.551  10.953 -0.5267  0.0740  0.2521
  835MPD2     H12331   1.355   1.597  11.205 -0.9700  2.2976 -1.6484
  835MPD2    H112332   1.772   1.607  11.104 -0.0297  0.0490 -1.3814
  835MPD2    H212333   1.467   1.521  10.812  0.5849  0.7467 -0.7437
  835MPD2    H312334   1.706   1.543  10.876  0.5112 -0.2806  1.3061
  835MPD2     N12335   1.613   1.631  11.305 -0.3129  0.4403 -0.5623
  835MPD2    H512336   1.712   1.643  11.325 -0.8853  1.2084  1.7516
  835MPD2    N112337   1.268   1.518  10.988 -1.1815  0.6041 -0.0596
  835MPD2    H712338   1.206   1.500  11.066 -1.7519  2.3433 -0.1093
  836MPD2     C12339   1.095   1.524  11.672 -0.0554 -0.5629 -0.4433
  836MPD2    C112340   1.180   1.555  11.773 -0.0527 -0.3237  0.1551
  836MPD2    C212341   1.134   1.569  11.901 -0.5171 -0.1846  0.4368
  836MPD2    C312342   0.992   1.549  11.914  0.2307  0.5680 -0.6309
  836MPD2    C412343   0.909   1.519  11.804 -0.7113  0.4508 -0.2104
  836MPD2    C512344   0.966   1.506  11.687 -0.0744  0.7222 -0.2687
  836MPD2     H12345   1.190   1.606  11.986 -0.9691 -0.9043  1.0349
  836MPD2    H112346   0.806   1.491  11.821 -0.9706 -0.0471 -2.6033
  836MPD2    H212347   1.133   1.513  11.571  0.1484  2.1235 -0.6649
  836MPD2    H312348   0.904   1.459  11.612  2.5484  0.4163 -2.2570
  836MPD2     N12349   0.931   1.566  12.040 -0.2974  0.0378 -0.1613
  836MPD2    H512350   0.832   1.545  12.039  0.0149 -1.4461  0.1917
  836MPD2    N112351   1.314   1.571  11.744  0.0415  0.5322 -0.8309
  836MPD2    H712352   1.341   1.590  11.648 -0.4883  1.1459 -0.8549
  837MPD2     C12353   4.165   1.068  10.243 -0.3383  0.4560 -0.6421
  837MPD2    C112354   4.039   1.052  10.295 -0.5980 -0.4067  0.3080
  837MPD2    C212355   3.984   1.154  10.369  0.0073  0.4216 -0.4850
  837MPD2    C312356   4.048   1.270  10.387 -0.4203  1.2669  0.2269
  837MPD2    C412357   4.183   1.285  10.350 -0.4898 -0.0451  0.4854
  837MPD2    C512358   4.230   1.187  10.271 -0.1353  0.1679  0.5094
  837MPD2     H12359   3.881   1.153  10.403  0.5797  1.9743  1.2694
  837MPD2    H112360   4.239   1.377  10.354 -0.2389 -0.2597  1.9619
  837MPD2    H212361   4.226   0.990  10.199  0.3306 -0.6124  2.2171
  837MPD2    H312362   4.330   1.207  10.235 -0.6060 -0.8457 -1.3335
  837MPD2     N12363   3.982   1.382  10.449 -0.5026 -0.2450  0.4790
  837MPD2    H512364   3.891   1.368  10.493 -0.8205  0.9538  0.1933
  837MPD2    N112365   3.955   0.941  10.271  0.9484 -0.4849  0.8639
  837MPD2    H712366   3.857   0.949  10.292  1.0376 -2.6574  2.0862
  838MPD2     C12367   2.506   4.405  12.210 -0.6182 -0.5584 -0.4396
  838MPD2    C112368   2.547   4.268  12.207 -0.4553  0.4684 -0.6349
  838MPD2    C212369   2.476   4.173  12.281  0.0478  0.1944  0.1750
  838MPD2    C312370   2.366   4.208  12.358 -0.8111 -0.2159 -0.4062
  838MPD2    C412371   2.323   4.340  12.354 -0.4676 -0.9661  0.5974
  838MPD2    C512372   2.396   4.440  12.293  0.1076 -0.4618 -0.2506
  838MPD2     H12373   2.494   4.066  12.271  1.4787  0.4458  0.1043
  838MPD2    H112374   2.244   4.379  12.417  1.4384 -0.9921  3.0089
  838MPD2    H212375   2.568   4.482  12.167  0.3699 -0.3915  1.2985
  838MPD2    H312376   2.351   4.539  12.295 -1.0238 -0.9525 -1.2024
  838MPD2     N12377   2.288   4.114  12.438  0.0171  0.1856 -0.5517
  838MPD2    H512378   2.198   4.145  12.472 -0.2244 -0.4838 -0.5782
  838MPD2    N112379   2.640   4.218  12.113  0.0045  0.7014 -0.1042
  838MPD2    H712380   2.654   4.118  12.120  0.9930  0.8139 -0.4048
  839MPD2     C12381   2.525   3.442  11.967 -0.9301 -0.4326 -0.0517
  839MPD2    C112382   2.524   3.483  11.837 -0.1514  0.1857  0.4986
  839MPD2    C212383   2.584   3.602  11.802 -0.7119  0.3492  0.2390
  839MPD2    C312384   2.651   3.677  11.898  0.2312 -0.4159 -0.4794
  839MPD2    C412385   2.656   3.634  12.028 -0.4955  0.3454  0.5974
  839MPD2    C512386   2.597   3.511  12.060  0.1990  0.0987 -0.3977
  839MPD2     H12387   2.575   3.643  11.702  4.8292 -0.3590 -0.5488
  839MPD2    H112388   2.702   3.697  12.104  1.7500 -0.6494  0.0504
  839MPD2    H212389   2.468   3.359  12.007  0.6745  0.0463  3.1605
  839MPD2    H312390   2.595   3.486  12.166  3.6671 -2.3051 -0.8748
  839MPD2     N12391   2.692   3.814  11.880  0.2432 -0.0608 -0.5565
  839MPD2    H512392   2.702   3.870  11.964 -2.5201 -0.9015  0.3290
  839MPD2    N112393   2.445   3.427  11.739  0.1000  0.2252  0.4163
  839MPD2    H712394   2.469   3.457  11.645 -0.7091  1.3204  0.5595
  840MPD2     C12395   2.735   1.831  10.399  0.3081 -0.0108 -0.6206
  840MPD2    C112396   2.733   1.742  10.502 -0.0549  0.0274 -0.1350
  840MPD2    C212397   2.817   1.772  10.610 -0.2890 -0.1059 -0.2217
  840MPD2    C312398   2.877   1.891  10.623  0.1156  0.4892  0.3303
  840MPD2    C412399   2.867   1.988  10.526 -0.1896  0.0612  0.0243
  840MPD2    C512400   2.803   1.949  10.415 -0.3709 -0.9081 -0.0068
  840MPD2     H12401   2.820   1.699  10.690 -0.6263 -0.9554 -0.9956
  840MPD2    H112402   2.899   2.091  10.535 -0.4324  0.2805 -1.5436
  840MPD2    H212403   2.687   1.797  10.308  1.6688 -0.0551 -1.3253
  840MPD2    H312404   2.806   2.017  10.331 -2.2065 -1.5188 -0.5616
  840MPD2     N12405   2.951   1.925  10.739 -0.9523  0.6196  0.0372
  840MPD2    H512406   2.976   2.024  10.748  0.4677  0.2751 -0.0903
  840MPD2    N112407   2.665   1.619  10.480 -0.0300  0.1094  0.3698
  840MPD2    H712408   2.609   1.614  10.395  0.4662 -0.4293  0.0698
  841MPD2     C12409   2.254   1.036  15.266  0.5795  0.4333  0.0468
  841MPD2    C112410   2.309   0.976  15.152  0.6342 -0.2724  0.5096
  841MPD2    C212411   2.398   1.042  15.075 -1.0286  0.1915 -0.6425
  841MPD2    C312412   2.433   1.170  15.111  1.1526  0.7424 -0.1585
  841MPD2    C412413   2.374   1.235  15.213 -0.4217  0.1748 -0.0192
  841MPD2    C512414   2.288   1.170  15.289  0.3931 -0.0404  0.1576
  841MPD2     H12415   2.448   0.987  14.996 -0.1059 -0.0973  0.1392
  841MPD2    H112416   2.410   1.334  15.238  0.1600  0.3583 -1.5587
  841MPD2    H212417   2.177   0.988  15.325 -0.4305  0.8593 -0.9295
  841MPD2    H312418   2.242   1.232  15.365  0.3334 -1.0129  0.9139
  841MPD2     N12419   2.547   1.218  15.042  0.2594  0.1236  0.4109
  841MPD2    H512420   2.598   1.148  14.989 -0.4257  0.3280 -0.5000
  841MPD2    N112421   2.280   0.837  15.113  0.2282 -0.1087 -0.3861
  841MPD2    H712422   2.333   0.809  15.031  0.5549 -0.0629 -0.1903
  842MPD2     C12423   2.761   2.559  16.603  0.1731  0.3188  0.4898
  842MPD2    C112424   2.664   2.470  16.635  0.6515  0.3589 -0.7058
  842MPD2    C212425   2.634   2.460  16.771  0.6941 -0.0737  0.4256
  842MPD2    C312426   2.702   2.526  16.875 -0.9228 -0.1014  0.6443
  842MPD2    C412427   2.800   2.619  16.836  0.3600  0.5184  0.3116
  842MPD2    C512428   2.818   2.633  16.698  0.5375 -0.3748  0.1000
  842MPD2     H12429   2.553   2.392  16.794  0.1625  1.0894  2.0249
  842MPD2    H112430   2.866   2.665  16.910  0.7901 -2.2334  1.6482
  842MPD2    H212431   2.768   2.587  16.499  0.1458  0.8451  0.6290
  842MPD2    H312432   2.892   2.704  16.662  1.0003 -0.2921  1.2333
  842MPD2     N12433   2.649   2.515  17.005 -0.6895 -0.2417 -0.3018
  842MPD2    H512434   2.678   2.581  17.076  0.0667  1.3522 -2.1095
  842MPD2    N112435   2.595   2.412  16.525  0.2918  0.5610  0.3379
  842MPD2    H712436   2.634   2.441  16.436 -0.6680  0.6913 -0.0274
  843MPD2     C12437   0.703   2.634   0.541  0.1980  0.5870  0.2742
  843MPD2    C112438   0.724   2.686   0.412  0.0690 -0.2292 -0.5772
  843MPD2    C212439   0.787   2.808   0.382  0.6448 -0.3279 -0.1925
  843MPD2    C312440   0.811   2.887   0.494 -0.4374 -0.3000  0.2049
  843MPD2    C412441   0.797   2.835   0.623 -0.7241  0.6019 -0.0232
  843MPD2    C512442   0.743   2.709   0.647 -0.1376  0.2850  0.0525
  843MPD2     H12443   0.799   2.835   0.278 -0.1711 -0.1062 -0.2302
  843MPD2    H112444   0.826   2.897   0.707 -0.6532  1.4173 -0.6519
  843MPD2    H212445   0.650   2.542   0.562  1.2536 -0.1945 -0.5096
  843MPD2    H312446   0.738   2.673   0.749 -2.9484 -2.4966 -1.0771
  843MPD2     N12447   0.869   3.014   0.484  0.3555 -0.1395 -0.3491
  843MPD2    H512448   0.911   3.059   0.565  1.0523  0.8450 -1.2633
  843MPD2    N112449   0.680   2.595   0.307 -0.2705  0.2811  0.0959
  843MPD2    H712450   0.622   2.514   0.326  1.0620 -0.0988  2.5051
  844MPD2     C12451   3.663   1.761  16.563  0.3248  0.1029  0.6304
  844MPD2    C112452   3.747   1.767  16.461  0.1271 -0.2597 -0.3941
  844MPD2    C212453   3.837   1.872  16.457 -0.7703 -0.4063 -0.4674
  844MPD2    C312454   3.836   1.977  16.549 -0.3780  0.1611 -0.1396
  844MPD2    C412455   3.741   1.967  16.653  0.4485  0.4138 -0.2512
  844MPD2    C512456   3.659   1.851  16.657 -0.1587 -0.4959 -0.6107
  844MPD2     H12457   3.914   1.867  16.382 -0.5032  0.3896 -0.2514
  844MPD2    H112458   3.726   2.030  16.740  0.7464  0.3723 -0.1714
  844MPD2    H212459   3.586   1.685  16.563  0.9965 -0.5790  0.5360
  844MPD2    H312460   3.588   1.844  16.739  2.2988 -0.7356  1.5072
  844MPD2     N12461   3.939   2.077  16.551  0.1337  0.6357 -0.1345
  844MPD2    H512462   4.011   2.078  16.479  2.0068  5.0293  1.8183
  844MPD2    N112463   3.747   1.667  16.360  0.1707 -0.5113 -0.9342
  844MPD2    H712464   3.814   1.685  16.287  0.2636  0.2175 -0.6791
  845MPD2     C12465   4.005   3.029  16.807  0.2677  0.3505 -0.5652
  845MPD2    C112466   3.897   2.944  16.825  1.0979 -0.3719 -0.0610
  845MPD2    C212467   3.927   2.807  16.827  0.1831  0.1730 -0.6964
  845MPD2    C312468   4.056   2.754  16.824 -0.1699 -0.3739 -0.0200
  845MPD2    C412469   4.159   2.847  16.824 -0.0898 -0.1396 -0.2455
  845MPD2    C512470   4.133   2.983  16.809  0.4441 -0.7066  0.4885
  845MPD2     H12471   3.853   2.728  16.822 -0.6181  0.8367  1.0381
  845MPD2    H112472   4.264   2.820  16.831 -0.6096 -2.1303 -0.1747
  845MPD2    H212473   3.995   3.136  16.795 -2.1776  0.3312  1.2783
  845MPD2    H312474   4.212   3.057  16.802 -1.4983  1.2995  0.0686
  845MPD2     N12475   4.075   2.616  16.827  0.2215  0.2016  0.5169
  845MPD2    H512476   3.991   2.560  16.815  0.9880 -1.0843  1.0808
  845MPD2    N112477   3.763   2.998  16.831 -0.0263  0.2742  0.7100
  845MPD2    H712478   3.761   3.099  16.819 -2.6991  0.2173  0.7220
  846MPD2     C12479   0.749   3.215  13.918  0.3446  0.4051  0.1200
  846MPD2    C112480   0.621   3.213  13.865  0.0166  0.3854 -0.3075
  846MPD2    C212481   0.511   3.194  13.948  0.2953  0.7097 -0.0883
  846MPD2    C312482   0.530   3.195  14.088  0.6004  0.1474  0.5877
  846MPD2    C412483   0.656   3.195  14.142  0.2853  0.9356 -0.3995
  846MPD2    C512484   0.762   3.210  14.053  0.3214 -0.4397  0.2480
  846MPD2     H12485   0.418   3.168  13.898  0.1293 -2.5794  1.9618
  846MPD2    H112486   0.675   3.184  14.248 -2.0254 -0.1286 -0.0849
  846MPD2    H212487   0.837   3.221  13.854  1.0485 -2.9887  0.7511
  846MPD2    H312488   0.862   3.211  14.094  0.4275  0.2251 -0.0270
  846MPD2     N12489   0.424   3.183  14.185 -0.2198  0.6555  0.0418
  846MPD2    H512490   0.443   3.176  14.284  2.8797  0.7498 -0.5442
  846MPD2    N112491   0.619   3.208  13.724  0.4513 -0.0636  0.7076
  846MPD2    H712492   0.704   3.209  13.669  1.1598  1.9366  1.8609
  847MPD2     C12493   0.656   4.015  14.926 -0.4941 -0.7566  0.2135
  847MPD2    C112494   0.710   4.139  14.958 -0.1135 -0.0523  0.2542
  847MPD2    C212495   0.844   4.154  14.995 -0.6789 -0.0509  0.1148
  847MPD2    C312496   0.925   4.041  14.985 -0.1196  0.6083  0.9040
  847MPD2    C412497   0.869   3.915  14.953  0.1042  0.3546 -0.1008
  847MPD2    C512498   0.736   3.905  14.917  0.4402  0.0041  0.3539
  847MPD2     H12499   0.875   4.258  14.997 -1.0089  0.0717 -1.4271
  847MPD2    H112500   0.926   3.824  14.964  0.2001  0.0299 -3.2582
  847MPD2    H212501   0.552   4.003  14.897 -0.6828  1.2475  0.0760
  847MPD2    H312502   0.699   3.803  14.909  0.3486  0.1035 -0.5107
  847MPD2     N12503   1.064   4.048  15.001  0.2461 -0.0944 -0.1889
  847MPD2    H512504   1.116   3.961  14.996 -0.1009 -0.4502  2.4195
  847MPD2    N112505   0.626   4.255  14.965  0.3682 -0.0324 -0.1232
  847MPD2    H712506   0.664   4.338  15.007  2.4437  0.2952 -2.6066
  848MPD2     C12507   3.138   2.189  16.326  0.2741  0.2920  0.0216
  848MPD2    C112508   3.172   2.309  16.386  0.5513  0.3238  0.1753
  848MPD2    C212509   3.192   2.423  16.311  0.4213 -0.0907 -0.2329
  848MPD2    C312510   3.180   2.420  16.173 -0.0760  0.1984 -0.3432
  848MPD2    C412511   3.132   2.299  16.121 -0.1749 -0.7260  0.5367
  848MPD2    C512512   3.129   2.188  16.195  0.0211  0.1831  1.1004
  848MPD2     H12513   3.220   2.517  16.358 -3.1242  1.2987 -0.9158
  848MPD2    H112514   3.126   2.290  16.013  1.0258  1.2682  0.3036
  848MPD2    H212515   3.118   2.098  16.383  3.2095  0.7193  1.7457
  848MPD2    H312516   3.102   2.094  16.149 -0.0868  0.1991  1.1325
  848MPD2     N12517   3.207   2.527  16.078  0.2668 -0.1331  0.1365
  848MPD2    H512518   3.197   2.494  15.983 -0.8445  1.9068 -0.4667
  848MPD2    N112519   3.167   2.323  16.523 -0.5134  0.2115  0.8661
  848MPD2    H712520   3.178   2.417  16.559  0.4875 -0.1256  1.4545
  849MPD2     C12521   2.284   1.424  13.933  0.0180 -0.6668 -0.0075
  849MPD2    C112522   2.392   1.510  13.947 -0.0008  0.2768  0.2558
  849MPD2    C212523   2.412   1.581  14.066 -0.0836 -0.3840  0.1269
  849MPD2    C312524   2.321   1.575  14.165 -0.8266 -0.6768  0.8763
  849MPD2    C412525   2.201   1.499  14.145  0.0521  0.4368  0.9823
  849MPD2    C512526   2.184   1.424  14.032  0.6744 -0.3960 -0.5756
  849MPD2     H12527   2.501   1.641  14.082  0.1236 -0.6272 -0.1181
  849MPD2    H112528   2.129   1.491  14.225 -1.8396  1.2329 -0.6427
  849MPD2    H212529   2.269   1.351  13.854 -1.0676 -2.0173  1.4568
  849MPD2    H312530   2.091   1.368  14.024  0.5279  0.0910 -2.4203
  849MPD2     N12531   2.326   1.635  14.287  0.6160  0.0234 -0.8201
  849MPD2    H512532   2.249   1.607  14.347  1.1296 -3.1407 -1.6039
  849MPD2    N112533   2.500   1.498  13.853 -0.8137  0.5527  0.2255
  849MPD2    H712534   2.512   1.406  13.811 -1.9233  0.4858  0.0584
  850MPD2     C12535   0.625   0.167  14.682  0.0226 -0.4913  0.1620
  850MPD2    C112536   0.692   0.240  14.783  0.4407  0.1089 -0.4935
  850MPD2    C212537   0.827   0.231  14.783 -0.1097  0.0969 -0.1523
  850MPD2    C312538   0.895   0.172  14.674 -0.2628  0.0737  0.8919
  850MPD2    C412539   0.829   0.116  14.569 -0.3616  0.4475  0.1363
  850MPD2    C512540   0.695   0.109  14.580 -0.2544 -0.6893  0.2803
  850MPD2     H12541   0.879   0.281  14.864  1.8283 -1.7114 -0.2814
  850MPD2    H112542   0.882   0.070  14.486 -1.4010  1.9200 -1.3564
  850MPD2    H212543   0.517   0.160  14.679 -0.1931  2.5024  1.4269
  850MPD2    H312544   0.648   0.058  14.497  0.1247 -3.4357  1.7505
  850MPD2     N12545   1.036   0.153  14.674 -0.7643  0.0165 -0.0092
  850MPD2    H512546   1.077   0.110  14.592 -0.4499  1.6381 -0.7018
  850MPD2    N112547   0.617   0.293  14.885 -0.1678  0.5886  0.5561
  850MPD2    H712548   0.516   0.285  14.885 -0.0414 -0.9273  1.4851
  851MPD2     C12549   0.960   0.190  15.454  0.2750 -0.0843  0.8165
  851MPD2    C112550   0.847   0.123  15.415  0.3654 -0.3343 -0.1869
  851MPD2    C212551   0.844   4.722  15.397  0.5618  0.2045 -0.0593
  851MPD2    C312552   0.954   4.646  15.443  0.1399  0.2878  1.1016
  851MPD2    C412553   1.067   4.709  15.490 -0.4663  0.2987 -0.0617
  851MPD2    C512554   1.073   0.111  15.492  0.1022 -0.4050  0.3662
  851MPD2     H12555   0.762   4.662  15.359 -0.0664  1.0530 -0.0471
  851MPD2    H112556   1.150   4.646  15.521 -0.2855  1.1874  1.3015
  851MPD2    H212557   0.969   0.298  15.462 -0.3696  0.2283 -2.4395
  851MPD2    H312558   1.152   0.158  15.550 -0.0036  0.8680 -0.5262
  851MPD2     N12559   0.943   4.510  15.443  0.4580 -0.3511  0.1340
  851MPD2    H512560   0.864   4.469  15.394  0.3683 -0.4039  0.3241
  851MPD2    N112561   0.736   0.207  15.385  0.2259  0.7133  0.7544
  851MPD2    H712562   0.750   0.308  15.387 -0.3697  0.7803  1.5819
  852MPD2     C12563   0.310   3.121  10.186  0.7318 -1.3039  0.7552
  852MPD2    C112564   0.327   3.124  10.320 -0.3145 -0.7429  0.4479
  852MPD2    C212565   0.387   3.236  10.375  0.4956  0.2994 -0.3025
  852MPD2    C312566   0.441   3.335  10.304 -0.0506  0.0771 -0.1847
  852MPD2    C412567   0.437   3.328  10.166  0.0449  0.1232 -0.0255
  852MPD2    C512568   0.372   3.218  10.113 -0.1539 -0.0136  0.5295
  852MPD2     H12569   0.402   3.239  10.482 -2.9491 -3.3720  0.2757
  852MPD2    H112570   0.474   3.408  10.103 -0.7450  0.9076  0.5040
  852MPD2    H212571   0.265   3.041  10.128  0.5598  0.3884 -1.4182
  852MPD2    H312572   0.371   3.210  10.005 -0.4521  0.2515  0.5092
  852MPD2     N12573   0.489   3.442  10.382  0.0327  0.5118 -0.4981
  852MPD2    H512574   0.504   3.424  10.481  0.4066 -2.3759 -1.0671
  852MPD2    N112575   0.284   3.017  10.408 -0.2106  0.0170  0.3475
  852MPD2    H712576   0.314   3.022  10.505 -2.2699 -1.6752  1.0671
  853MPD2     C12577   2.324   2.475  12.382  0.0332  0.4062  0.1327
  853MPD2    C112578   2.207   2.535  12.323  0.0553 -0.7389  0.5468
  853MPD2    C212579   2.185   2.534  12.188 -0.3482 -0.1381 -0.8742
  853MPD2    C312580   2.291   2.496  12.110  0.2621  0.2080 -0.5331
  853MPD2    C412581   2.407   2.457  12.167  0.7065  0.3244 -0.2477
  853MPD2    C512582   2.420   2.436  12.296  0.4764 -0.0710 -0.2694
  853MPD2     H12583   2.096   2.572  12.140 -1.5294 -1.9378 -0.0892
  853MPD2    H112584   2.486   2.438  12.095  0.0108 -1.4714 -0.5378
  853MPD2    H212585   2.319   2.452  12.488  1.0612 -1.8071 -0.3023
  853MPD2    H312586   2.519   2.412  12.334 -1.4105 -3.4908  2.3537
  853MPD2     N12587   2.293   2.509  11.973  0.3004 -0.1298 -0.0674
  853MPD2    H512588   2.377   2.474  11.929  0.7596 -0.6096  1.2051
  853MPD2    N112589   2.115   2.566  12.425 -0.0459 -0.3540 -0.7288
  853MPD2    H712590   2.142   2.549  12.521 -0.2011 -0.9110 -0.7820
  854MPD2     C12591   3.623   2.188  12.676 -0.3917  0.6143 -0.7956
  854MPD2    C112592   3.675   2.281  12.770 -0.6068 -0.6268 -0.2584
  854MPD2    C212593   3.798   2.265  12.824 -0.1335 -0.0973 -0.6262
  854MPD2    C312594   3.878   2.154  12.788  0.3212 -0.5872  0.1294
  854MPD2    C412595   3.823   2.059  12.702  0.0677  0.3217  1.1483
  854MPD2    C512596   3.697   2.075  12.650  0.6163  0.5738  0.9492
  854MPD2     H12597   3.839   2.342  12.888 -1.4020  0.6735 -0.7444
  854MPD2    H112598   3.870   1.962  12.690 -0.5012  0.5854 -3.0594
  854MPD2    H212599   3.527   2.208  12.631 -1.6850 -0.5697  1.4527
  854MPD2    H312600   3.644   2.002  12.590 -0.6023  0.9376  1.5755
  854MPD2     N12601   4.008   2.122  12.836 -0.1576 -0.0899  0.3592
  854MPD2    H512602   4.045   2.032  12.807  0.1324 -0.0844  0.7215
  854MPD2    N112603   3.591   2.389  12.798  0.0509  0.4341 -0.1445
  854MPD2    H712604   3.533   2.421  12.721 -2.7775  0.1574  1.9166
  855MPD2     C12605   0.145   2.086  13.531  0.0959  0.0435 -0.0991
  855MPD2    C112606   0.009   2.094  13.564 -0.3654 -0.0082  0.7475
  855MPD2    C212607   4.653   2.122  13.466  0.1587  0.0538  0.2320
  855MPD2    C312608   4.690   2.136  13.332  0.3591 -0.4137  0.0149
  855MPD2    C412609   0.088   2.122  13.299  0.0321 -0.2088 -0.4361
  855MPD2    C512610   0.179   2.090  13.402 -0.2162 -0.4316 -1.4620
  855MPD2     H12611   4.549   2.132  13.496 -0.1076 -1.0338 -0.3294
  855MPD2    H112612   0.125   2.159  13.205  0.0543 -0.8690 -0.6915
  855MPD2    H212613   0.220   2.068  13.607  0.2795  3.3481  0.4934
  855MPD2    H312614   0.280   2.093  13.362  0.4579  2.4616  0.4252
  855MPD2     N12615   4.604   2.152  13.227 -0.3190 -0.2433 -0.0711
  855MPD2    H512616   4.644   2.169  13.135 -0.2441  2.5653  0.4760
  855MPD2    N112617   4.696   2.080  13.693  0.0113  0.2954  0.8434
  855MPD2    H712618   4.595   2.086  13.702 -0.0434  1.3589 -0.4388
  856MPD2     C12619   2.025   2.823  14.117 -0.1327 -0.1821 -0.2290
  856MPD2    C112620   2.039   2.953  14.085 -0.2786  0.1336  0.0885
  856MPD2    C212621   1.982   3.000  13.967 -0.0556 -0.0981 -0.6585
  856MPD2    C312622   1.903   2.928  13.890 -0.4450 -0.2802  0.0121
  856MPD2    C412623   1.878   2.803  13.931 -0.1744 -0.0129  0.0477
  856MPD2    C512624   1.944   2.746  14.040 -0.5174 -0.6402  0.6107
  856MPD2     H12625   2.007   3.102  13.938 -2.0900  0.3021 -1.0077
  856MPD2    H112626   1.808   2.742  13.876 -1.8199  0.0886  2.0301
  856MPD2    H212627   2.079   2.768  14.194 -0.8393  1.4260  1.4257
  856MPD2    H312628   1.948   2.646  14.081  0.2125 -0.2918  1.3919
  856MPD2     N12629   1.831   2.972  13.778 -0.4639 -0.8586  0.1241
  856MPD2    H512630   1.773   2.905  13.729 -0.3465 -2.0881  1.6873
  856MPD2    N112631   2.127   3.034  14.151 -0.4230  0.5584 -0.1216
  856MPD2    H712632   2.133   3.129  14.115 -0.9496  0.3500 -0.7504
  857MPD2     C12633   2.986   0.796  12.623 -0.8756  0.3962  0.0170
  857MPD2    C112634   3.085   0.793  12.723  0.3940 -0.3304 -0.8913
  857MPD2    C212635   3.127   0.917  12.781  0.1800 -0.1306  0.1091
  857MPD2    C312636   3.065   1.032  12.739  0.2966 -0.3716  0.0602
  857MPD2    C412637   2.972   1.033  12.637  0.3567 -0.6601 -0.4896
  857MPD2    C512638   2.932   0.919  12.574  0.0902  0.3410  0.0297
  857MPD2     H12639   3.208   0.937  12.850 -0.0170 -1.2103  0.6423
  857MPD2    H112640   2.924   1.119  12.594 -0.6299 -1.1584 -0.3840
  857MPD2    H212641   2.947   0.704  12.581 -1.6719 -0.3770  2.4414
  857MPD2    H312642   2.858   0.927  12.496  1.4842  0.5883 -1.2544
  857MPD2     N12643   3.111   1.151  12.802 -0.0069  0.3671  0.1865
  857MPD2    H512644   3.185   1.144  12.871 -0.9888  1.8503  1.4284
  857MPD2    N112645   3.150   0.672  12.763  0.3981 -0.4401  0.5022
  857MPD2    H712646   3.107   0.594  12.715  0.7532 -0.0876 -0.3863
  858MPD2     C12647   4.363   4.413  16.796  0.1086  0.2711 -0.1678
  858MPD2    C112648   4.277   4.519  16.761  0.2737  0.5933  0.9188
  858MPD2    C212649   4.297   4.642  16.822  0.2453 -0.0927  0.3202
  858MPD2    C312650   4.400   4.653  16.914 -0.1467 -0.0604 -0.2715
  858MPD2    C412651   4.478   4.545  16.946  0.5392  0.2148 -0.4127
  858MPD2    C512652   4.472   4.427  16.881 -0.3668 -0.4923 -0.3695
  858MPD2     H12653   4.244   4.733  16.797  0.9919 -0.5392 -2.9640
  858MPD2    H112654   4.568   4.557  17.006 -0.2267 -1.4115  1.0785
  858MPD2    H212655   4.346   4.319  16.744  1.0585 -0.5245  0.9537
  858MPD2    H312656   4.536   4.341  16.898  0.5324  0.0303 -1.1164
  858MPD2     N12657   4.430   0.037  16.980 -0.1224  0.0949 -0.2468
  858MPD2    H512658   4.486   0.025  17.064 -0.0777 -0.3659 -0.3409
  858MPD2    N112659   4.183   4.495  16.664  0.7333  0.1628 -0.2283
  858MPD2    H712660   4.178   4.402  16.626 -0.4492  0.5563 -1.0236
  859MPD2     C12661   2.254   1.434  15.559 -0.1596  0.2048 -0.2844
  859MPD2    C112662   2.392   1.431  15.541 -0.0942 -0.5045 -0.8712
  859MPD2    C212663   2.466   1.334  15.601  0.2561  0.7505  0.0772
  859MPD2    C312664   2.408   1.240  15.686 -0.0743 -1.2520 -0.2408
  859MPD2    C412665   2.270   1.258  15.712 -0.4243 -0.3470 -0.0975
  859MPD2    C512666   2.196   1.352  15.652  0.3987  0.3290 -0.3793
  859MPD2     H12667   2.570   1.327  15.571  0.2460  0.8261  0.0260
  859MPD2    H112668   2.231   1.186  15.784 -2.2544  1.5838  0.8288
  859MPD2    H212669   2.194   1.510  15.510 -2.9533 -1.9956 -0.2927
  859MPD2    H312670   2.089   1.364  15.667  0.3527  1.6151 -1.7826
  859MPD2     N12671   2.478   1.136  15.752 -0.3093 -0.3739  0.1194
  859MPD2    H512672   2.438   1.087  15.832 -2.9753  1.9721  0.2080
  859MPD2    N112673   2.443   1.533  15.455 -0.1221 -0.0093 -0.2050
  859MPD2    H712674   2.376   1.590  15.404 -0.4397  0.7831  1.1219
  860MPD2     C12675   0.796   2.437  11.773  0.2245  0.4956  0.5063
  860MPD2    C112676   0.752   2.519  11.872  0.3546 -0.3516 -0.2766
  860MPD2    C212677   0.629   2.502  11.922 -0.4354 -1.0900 -0.2590
  860MPD2    C312678   0.539   2.405  11.876  0.4964  0.2722  0.5353
  860MPD2    C412679   0.574   2.331  11.771 -0.3915  0.2563  0.4740
  860MPD2    C512680   0.697   2.354  11.727 -0.1771 -0.0437 -0.3286
  860MPD2     H12681   0.610   2.555  12.015  2.0113  1.4681 -1.2310
  860MPD2    H112682   0.509   2.255  11.728  1.0731 -0.7341  0.0125
  860MPD2    H212683   0.895   2.439  11.730 -0.0109 -1.7026 -0.1481
  860MPD2    H312684   0.731   2.295  11.642  0.2815  0.7845 -0.7196
  860MPD2     N12685   0.412   2.404  11.935 -0.0813 -0.4361 -0.5126
  860MPD2    H512686   0.390   2.474  12.005 -0.2663  1.1481 -2.1600
  860MPD2    N112687   0.818   2.631  11.916  0.1586 -0.1749 -0.4767
  860MPD2    H712688   0.770   2.691  11.982 -0.8501  0.0152 -1.3774
  861MPD2     C12689   3.779   0.365  11.339  0.1437 -0.2200  0.3673
  861MPD2    C112690   3.808   0.497  11.310  0.3171  0.2779 -0.3213
  861MPD2    C212691   3.744   0.551  11.202 -0.2345 -0.3562  0.3972
  861MPD2    C312692   3.643   0.486  11.132  0.1032  0.0943  0.0670
  861MPD2    C412693   3.610   0.355  11.168  0.6553  0.0988  0.5553
  861MPD2    C512694   3.684   0.297  11.268  0.1360  0.2765  0.0208
  861MPD2     H12695   3.763   0.657  11.185 -0.5173 -0.3331  0.2233
  861MPD2    H112696   3.526   0.299  11.129  0.1000  1.0747  0.3498
  861MPD2    H212697   3.832   0.305  11.413  0.6300 -2.2608 -1.6178
  861MPD2    H312698   3.669   0.196  11.306 -2.0402  0.5294 -0.1591
  861MPD2     N12699   3.553   0.553  11.046 -0.0167 -0.1587  0.0204
  861MPD2    H512700   3.462   0.511  11.034 -0.7349  1.4630 -0.2290
  861MPD2    N112701   3.892   0.579  11.384 -0.2491 -0.5986 -0.3653
  861MPD2    H712702   3.903   0.675  11.352  0.6412 -1.2725 -2.1078
  862MPD2     C12703   3.008   0.402  10.627  0.0758 -0.6092 -0.2946
  862MPD2    C112704   3.089   0.401  10.741 -0.0864 -0.1691  0.2517
  862MPD2    C212705   3.062   0.313  10.840 -0.0144  0.1466  0.1293
  862MPD2    C312706   2.952   0.236  10.835 -0.5447 -0.4502 -0.5293
  862MPD2    C412707   2.871   0.235  10.722 -0.4872  0.6936 -0.0907
  862MPD2    C512708   2.901   0.317  10.621  0.3456 -0.2603  0.2530
  862MPD2     H12709   3.133   0.297  10.921  1.4294 -0.7106 -1.2849
  862MPD2    H112710   2.783   0.171  10.721 -0.2161  0.3117  1.1083
  862MPD2    H212711   3.022   0.469  10.543 -1.0108 -0.9126 -0.7119
  862MPD2    H312712   2.838   0.316  10.533  1.4593  1.3521 -0.5656
  862MPD2     N12713   2.914   0.156  10.947  0.5584  0.0635  0.0840
  862MPD2    H512714   2.824   0.110  10.935  0.4228  0.1919  0.6146
  862MPD2    N112715   3.204   0.483  10.756  0.4066 -0.5743 -0.3436
  862MPD2    H712716   3.255   0.473  10.843 -2.5407  0.4170  1.4942
  863MPD2     C12717   2.209   3.847  17.490 -0.0521 -0.6942  0.1461
  863MPD2    C112718   2.277   3.963  17.501 -0.5794  0.2231  0.4127
  863MPD2    C212719   2.380   3.972  17.591 -0.0310 -0.6165 -0.0226
  863MPD2    C312720   2.431   3.857  17.644  0.6786  0.8242  0.1666
  863MPD2    C412721   2.357   3.741  17.642  1.5878 -0.5848 -0.6897
  863MPD2    C512722   2.243   3.735  17.563  0.3325 -0.9780  0.3579
  863MPD2     H12723   2.416   4.072  17.613 -0.3136 -0.5252  0.0228
  863MPD2    H112724   2.385   3.656  17.704  0.3879 -0.5541 -0.1071
  863MPD2    H212725   2.130   3.832  17.418 -0.4413 -1.9462  0.8232
  863MPD2    H312726   2.185   3.645  17.543 -1.5515  1.0876 -3.4876
  863MPD2     N12727   2.563   3.848  17.697  0.2009 -0.0345 -0.7189
  863MPD2    H512728   2.598   3.757  17.725  0.9441  0.6282  0.5222
  863MPD2    N112729   2.227   4.074  17.432 -0.8668 -0.2837 -0.2201
  863MPD2    H712730   2.157   4.043  17.365 -0.3193  0.3660 -1.0922
  864MPD2     C12731   3.203   0.589  17.247 -0.4828 -0.1768  0.2792
  864MPD2    C112732   3.278   0.501  17.179  0.5777  0.0199  0.1637
  864MPD2    C212733   3.307   0.522  17.042 -0.6884  0.3179 -0.5133
  864MPD2    C312734   3.275   0.648  16.994  0.4964  0.0134 -0.0380
  864MPD2    C412735   3.218   0.748  17.071 -0.0864 -0.0442  0.8221
  864MPD2    C512736   3.182   0.718  17.194  0.1894  0.3359  0.7861
  864MPD2     H12737   3.351   0.449  16.974 -0.0931 -1.7617  2.0976
  864MPD2    H112738   3.203   0.845  17.026 -1.7305 -0.7542 -0.1735
  864MPD2    H212739   3.182   0.577  17.353  2.5859 -2.6406  0.5893
  864MPD2    H312740   3.143   0.801  17.252 -0.5702  1.2633 -1.0628
  864MPD2     N12741   3.315   0.694  16.869 -0.1408 -0.4224 -0.7018
  864MPD2    H512742   3.270   0.783  16.852 -0.6610 -0.7170 -0.8718
  864MPD2    N112743   3.294   0.380  17.242 -0.1464  0.1388 -0.2823
  864MPD2    H712744   3.227   0.367  17.317  1.2807  1.7876  1.3061
  865MPD2     C12745   2.976   0.520  16.512  0.3875 -0.3180 -0.2349
  865MPD2    C112746   3.094   0.538  16.445  0.6376  0.7521 -0.2128
  865MPD2    C212747   3.132   0.668  16.418 -0.3022  0.0465  0.1031
  865MPD2    C312748   3.068   0.771  16.473 -0.0013  0.5872 -0.1039
  865MPD2    C412749   2.951   0.746  16.554  0.5439 -0.1090  0.2704
  865MPD2    C512750   2.905   0.620  16.569 -0.9825 -0.0467 -0.4918
  865MPD2     H12751   3.219   0.687  16.356 -1.1696  2.3901 -0.4239
  865MPD2    H112752   2.891   0.820  16.605  2.6786  0.7512  1.5340
  865MPD2    H212753   2.944   0.417  16.518 -1.0129  0.0876 -0.7101
  865MPD2    H312754   2.810   0.607  16.620 -0.7304  0.4104  0.1042
  865MPD2     N12755   3.115   0.901  16.456  0.2592 -0.0902 -0.4720
  865MPD2    H512756   3.042   0.971  16.453 -0.1541 -0.4228  2.0196
  865MPD2    N112757   3.164   0.424  16.389  0.4062  0.4634  0.8167
  865MPD2    H712758   3.122   0.332  16.398  3.5186 -1.1124 -0.5912
  866MPD2     C12759   4.487   1.229  11.367 -0.4014 -0.4382  0.0500
  866MPD2    C112760   4.458   1.331  11.286  0.3560 -0.7180  0.0229
  866MPD2    C212761   4.321   1.362  11.263  0.2402 -0.2218  0.5694
  866MPD2    C312762   4.221   1.281  11.328  0.0124 -0.0183 -0.0062
  866MPD2    C412763   4.259   1.191  11.422 -0.6443  0.1163  0.5948
  866MPD2    C512764   4.394   1.160  11.441  0.8175 -0.2461  0.5979
  866MPD2     H12765   4.294   1.442  11.196 -0.8714  0.5540  1.9430
  866MPD2    H112766   4.181   1.140  11.477 -2.0356  1.0246 -0.5473
  866MPD2    H212767   4.593   1.215  11.386  0.2295  0.8445 -2.6409
  866MPD2    H312768   4.428   1.088  11.514  3.5719  0.0389 -0.3628
  866MPD2     N12769   4.085   1.311  11.313  0.4388  0.1016  0.0614
  866MPD2    H512770   4.020   1.280  11.385  0.1281 -0.5152 -0.4804
  866MPD2    N112771   4.560   1.394  11.218 -0.3776  0.0678  0.3604
  866MPD2    H712772   4.647   1.341  11.212  0.2705  1.0018  1.4516
  867MPD2     C12773   1.833   0.308  16.994 -0.4641  0.0199  0.2891
  867MPD2    C112774   1.901   0.313  17.117 -0.3665  0.3091 -0.3287
  867MPD2    C212775   1.826   0.339  17.225  0.0890  0.3311 -0.1031
  867MPD2    C312776   1.689   0.373  17.221 -0.2935 -1.1274 -0.2651
  867MPD2    C412777   1.623   0.367  17.102 -0.0513 -0.5994 -0.2353
  867MPD2    C512778   1.695   0.325  16.987  0.9186 -0.3194  0.1049
  867MPD2     H12779   1.873   0.346  17.323 -1.1209 -1.4336  0.5928
  867MPD2    H112780   1.515   0.376  17.091  0.3846  2.1516 -2.3366
  867MPD2    H212781   1.887   0.283  16.904  0.0654 -0.3666  0.7145
  867MPD2    H312782   1.641   0.308  16.895  2.5988  2.2859 -1.3494
  867MPD2     N12783   1.612   0.384  17.345  0.4057  0.6162 -0.0514
  867MPD2    H512784   1.512   0.381  17.332  0.7492  2.7176 -3.1128
  867MPD2    N112785   2.035   0.271  17.125  0.2781 -0.1068 -0.0703
  867MPD2    H712786   2.085   0.259  17.038 -0.5200  0.3743 -0.5957
  868MPD2     C12787   3.728   4.291  13.630 -0.1605  0.2556  0.0306
  868MPD2    C112788   3.698   4.156  13.632  0.6412  0.8866  0.2816
  868MPD2    C212789   3.594   4.106  13.708 -0.5913  0.2453  0.4413
  868MPD2    C312790   3.512   4.196  13.772  0.0034  0.5100 -0.6152
  868MPD2    C412791   3.535   4.333  13.762  0.0726 -0.5159  0.5108
  868MPD2    C512792   3.644   4.375  13.696 -0.1443 -0.2521 -0.9461
  868MPD2     H12793   3.567   4.001  13.716 -0.3675  0.1268 -0.4496
  868MPD2    H112794   3.472   4.407  13.811  0.0009  1.6047 -2.7762
  868MPD2    H212795   3.820   4.330  13.586  1.7359 -2.7650  1.2690
  868MPD2    H312796   3.676   4.477  13.711 -2.8388  0.4024  0.4976
  868MPD2     N12797   3.396   4.142  13.840 -0.4260  0.3466  0.3672
  868MPD2    H512798   3.389   4.042  13.827  1.6678 -0.1023  2.6594
  868MPD2    N112799   3.791   4.067  13.559 -0.0356  0.7604  0.1032
  868MPD2    H712800   3.865   4.106  13.502  1.2708  0.1204  1.3872
  869MPD2     C12801   4.315   1.248   0.431  0.6295  0.0857 -0.6522
  869MPD2    C112802   4.233   1.360   0.418  0.5322  0.0642  0.0425
  869MPD2    C212803   4.290   1.479   0.438  0.6697  0.3271  0.3707
  869MPD2    C312804   4.428   1.495   0.437 -0.5604  0.1651 -0.3633
  869MPD2    C412805   4.509   1.385   0.417  0.1546 -0.1392  0.3550
  869MPD2    C512806   4.454   1.261   0.409  0.0513 -0.0545 -1.4849
  869MPD2     H12807   4.228   1.569   0.441 -0.0644 -0.1562 -0.4965
  869MPD2    H112808   4.614   1.388   0.392  0.7297  2.0131  3.0079
  869MPD2    H212809   4.282   1.146   0.449  0.2083  0.1665 -0.9937
  869MPD2    H312810   4.515   1.173   0.390 -0.0510 -0.5582  0.5050
  869MPD2     N12811   4.489   1.617   0.449 -0.2651 -0.9660  0.5108
  869MPD2    H512812   4.585   1.617   0.416 -0.7524 -0.5867 -0.9229
  869MPD2    N112813   4.097   1.346   0.400 -0.1668  0.4683 -0.1352
  869MPD2    H712814   4.046   1.434   0.398  1.4301  1.3685 -1.6024
  870MPD2     C12815   4.369   1.613   1.392  0.2113  0.0117 -0.7320
  870MPD2    C112816   4.372   1.555   1.263 -0.9383  0.1624 -0.6138
  870MPD2    C212817   4.248   1.515   1.212 -0.7914 -0.2037 -0.7387
  870MPD2    C312818   4.134   1.512   1.286  0.1819  0.0865 -0.4506
  870MPD2    C412819   4.136   1.579   1.410 -0.0344  0.4519 -0.9081
  870MPD2    C512820   4.256   1.621   1.461  0.3192 -0.4121  0.2459
  870MPD2     H12821   4.259   1.444   1.131  2.8166 -1.7025  1.0224
  870MPD2    H112822   4.045   1.594   1.467 -1.3515 -2.0608 -2.3472
  870MPD2    H212823   4.457   1.649   1.445 -0.5463 -0.3080  0.7650
  870MPD2    H312824   4.256   1.664   1.560 -1.1648  0.1175  0.0138
  870MPD2     N12825   4.022   1.435   1.242  0.3055  0.0255 -0.1558
  870MPD2    H512826   4.046   1.367   1.171  2.3333 -0.0325  0.5993
  870MPD2    N112827   4.501   1.520   1.211  0.4961  0.3756  0.8029
  870MPD2    H712828   4.578   1.540   1.274  1.9454  0.9151 -1.1349
  871MPD2     C12829   0.730   0.169  16.384 -0.2017 -0.3830 -1.0607
  871MPD2    C112830   0.772   0.189  16.518 -0.2999 -0.2781 -0.3651
  871MPD2    C212831   0.861   0.102  16.565  0.2443 -0.0986  0.0629
  871MPD2    C312832   0.913   4.732  16.492  0.5364  0.0428 -0.0378
  871MPD2    C412833   0.870   4.714  16.363  0.0655  0.1200 -0.1799
  871MPD2    C512834   0.786   0.071  16.307 -1.5683  0.4615 -0.5101
  871MPD2     H12835   0.879   0.095  16.671 -2.1444  0.5399  0.4977
  871MPD2    H112836   0.906   4.633  16.300  1.4394  1.0070 -0.5330
  871MPD2    H212837   0.658   0.234  16.336  0.6409 -0.1531 -2.0046
  871MPD2    H312838   0.768   0.071  16.200 -1.1533  0.4037 -0.5808
  871MPD2     N12839   0.996   4.636  16.554  0.5488  0.4599 -0.3288
  871MPD2    H512840   1.020   4.635  16.652 -1.0497  2.5880  0.0832
  871MPD2    N112841   0.711   0.294  16.594  0.3017  0.9911 -0.9594
  871MPD2    H712842   0.625   0.338  16.560 -0.2929 -0.2876 -1.1061
  872MPD2     C12843   1.794   2.169  14.186 -0.3449  0.4271 -0.3806
  872MPD2    C112844   1.796   2.299  14.139  0.3925  0.2594  0.0143
  872MPD2    C212845   1.712   2.384  14.219  0.1815 -0.4136 -0.0998
  872MPD2    C312846   1.644   2.345  14.332  0.6567 -1.0461  0.2709
  872MPD2    C412847   1.671   2.224  14.383 -0.7490 -0.6163  0.1565
  872MPD2    C512848   1.748   2.139  14.307 -0.3815 -0.5645  0.0691
  872MPD2     H12849   1.702   2.486  14.186  2.2899  0.8629  3.2341
  872MPD2    H112850   1.634   2.196  14.481  1.3103  0.5001  1.2453
  872MPD2    H212851   1.847   2.088  14.138  0.1487 -0.7905  2.2252
  872MPD2    H312852   1.762   2.044  14.359 -3.2442 -1.5132 -0.9027
  872MPD2     N12853   1.557   2.430  14.403 -0.0786  0.2393 -0.1885
  872MPD2    H512854   1.511   2.383  14.480  0.7248 -1.2772 -0.6351
  872MPD2    N112855   1.860   2.334  14.019 -0.6918 -0.0872  0.4145
  872MPD2    H712856   1.927   2.266  13.983 -1.5629 -1.2300  0.9615
  873MPD2     C12857   3.680   3.141   1.007 -0.2533 -0.1276 -0.3436
  873MPD2    C112858   3.708   3.068   1.115 -0.1152  0.7980 -0.5226
  873MPD2    C212859   3.695   2.928   1.112  0.1966 -0.2965  0.4493
  873MPD2    C312860   3.652   2.867   0.991  0.1929  0.2617 -0.8804
  873MPD2    C412861   3.642   2.944   0.874 -0.2765  0.0921 -0.5808
  873MPD2    C512862   3.645   3.079   0.887  0.0033  0.6057  0.2882
  873MPD2     H12863   3.729   2.879   1.203  0.7377  0.6749  0.7698
  873MPD2    H112864   3.607   2.901   0.781 -0.2242 -2.0197  0.3789
  873MPD2    H212865   3.679   3.250   1.006  0.6605 -0.0871  2.5519
  873MPD2    H312866   3.642   3.140   0.798 -0.1116 -0.4153 -0.4100
  873MPD2     N12867   3.617   2.735   0.984  0.5636 -0.0976 -0.6961
  873MPD2    H512868   3.589   2.699   0.894 -0.3941 -0.8191 -0.1131
  873MPD2    N112869   3.735   3.131   1.242  0.1798 -0.1964  0.3588
  873MPD2    H712870   3.781   3.070   1.309 -0.0855  0.5556  1.2234
  874MPD2     C12871   2.535   2.516  15.761  0.6786  0.2029  0.4639
  874MPD2    C112872   2.595   2.499  15.879 -0.1651 -0.0836 -0.7270
  874MPD2    C212873   2.709   2.566  15.916 -0.0954  0.0447  0.3680
  874MPD2    C312874   2.760   2.664  15.832  0.0586 -0.0228  0.3140
  874MPD2    C412875   2.706   2.682  15.708  0.2037 -0.1154 -0.0246
  874MPD2    C512876   2.593   2.607  15.674  0.3308 -0.0071  0.0157
  874MPD2     H12877   2.755   2.550  16.013 -1.4582  2.2013  1.3863
  874MPD2    H112878   2.761   2.743  15.637  0.2393 -0.8823 -0.6640
  874MPD2    H212879   2.451   2.456  15.729  1.0965 -1.5007  2.5506
  874MPD2    H312880   2.558   2.606  15.571 -2.2586 -0.6524  0.9136
  874MPD2     N12881   2.875   2.735  15.878  0.2483  0.1820 -0.2567
  874MPD2    H512882   2.918   2.695  15.960 -1.2286 -1.7119 -0.3911
  874MPD2    N112883   2.543   2.396  15.963 -0.1055  0.1932  0.0536
  874MPD2    H712884   2.456   2.353  15.933 -0.4411 -0.5494  2.0928
  875MPD2     C12885   4.092   1.031  14.294 -0.0209  0.4053 -0.0368
  875MPD2    C112886   3.958   1.060  14.319  0.0767 -0.1039 -1.0905
  875MPD2    C212887   3.922   1.099  14.449  0.4754  0.7982 -0.1733
  875MPD2    C312888   4.017   1.119  14.551  0.0866 -0.9345 -0.5092
  875MPD2    C412889   4.153   1.107  14.517  0.2137  0.3419  0.1316
  875MPD2    C512890   4.184   1.062  14.389  0.9313  1.1918 -0.8664
  875MPD2     H12891   3.816   1.121  14.451  0.6707  2.0532 -2.7387
  875MPD2    H112892   4.232   1.109  14.591 -1.4192  1.0468  1.8498
  875MPD2    H212893   4.132   1.001  14.198  1.1702 -1.3149  1.0025
  875MPD2    H312894   4.288   1.039  14.370  0.4397 -2.1064  0.4799
  875MPD2     N12895   3.981   1.154  14.681  0.1726  0.7531 -0.3897
  875MPD2    H512896   4.045   1.196  14.748  0.0798  0.2516  0.0159
  875MPD2    N112897   3.858   1.056  14.216 -0.0397  0.6764 -0.1623
  875MPD2    H712898   3.770   1.101  14.239  0.0193  1.2962 -1.0978
  876MPD2     C12899   2.828   2.028  16.272 -0.8388 -0.0410 -0.5069
  876MPD2    C112900   2.816   1.981  16.146  0.4234  0.0846 -0.1156
  876MPD2    C212901   2.833   1.843  16.126 -0.1947  0.6241  0.4016
  876MPD2    C312902   2.878   1.759  16.227 -0.2798 -0.4101 -0.3410
  876MPD2    C412903   2.892   1.802  16.355 -0.1732 -0.7570  0.8219
  876MPD2    C512904   2.863   1.941  16.374  0.6093 -0.6000 -0.5654
  876MPD2     H12905   2.840   1.801  16.027  1.5156  0.3377  0.6358
  876MPD2    H112906   2.942   1.745  16.432  0.3423 -0.5540  0.6389
  876MPD2    H212907   2.802   2.131  16.291  1.0746  0.5406 -0.9989
  876MPD2    H312908   2.888   1.976  16.474  3.6111 -0.2077 -1.4575
  876MPD2     N12909   2.900   1.624  16.203  0.4284 -0.6043  0.5709
  876MPD2    H512910   2.936   1.561  16.274  1.2221 -1.3395 -0.4790
  876MPD2    N112911   2.812   2.074  16.035 -0.3192 -0.1451  0.0398
  876MPD2    H712912   2.843   2.168  16.059  0.2079 -0.0504 -1.0200
  877MPD2     C12913   2.476   2.452  15.311 -0.5982 -0.6567  0.0282
  877MPD2    C112914   2.609   2.437  15.328 -0.2290 -0.3428  0.8083
  877MPD2    C212915   2.698   2.511  15.252 -0.6876  0.3970 -0.2393
  877MPD2    C312916   2.644   2.583  15.146 -0.8976 -0.5572 -0.3026
  877MPD2    C412917   2.513   2.583  15.120  0.0844  0.0922  0.5188
  877MPD2    C512918   2.427   2.517  15.202  0.0483  0.1581  0.4523
  877MPD2     H12919   2.805   2.504  15.267 -0.7687 -0.7451 -0.1814
  877MPD2    H112920   2.463   2.642  15.044  1.2610 -0.9482 -1.0642
  877MPD2    H212921   2.398   2.419  15.378 -0.9295  1.3181  0.5895
  877MPD2    H312922   2.324   2.536  15.173  0.5957  1.2738 -0.7721
  877MPD2     N12923   2.734   2.660  15.057 -0.5254 -0.1130  0.5559
  877MPD2    H512924   2.693   2.702  14.974  1.0208 -0.4716 -0.3766
  877MPD2    N112925   2.664   2.365  15.435 -0.6087 -0.3825 -0.4245
  877MPD2    H712926   2.764   2.375  15.443 -0.4448  0.4688 -3.6341
  878MPD2     C12927   3.053   2.258  13.499 -0.9309  0.1607 -0.1018
  878MPD2    C112928   3.031   2.149  13.415 -0.5068  0.1345 -0.3340
  878MPD2    C212929   3.005   2.021  13.466  0.3218 -0.5818 -0.5112
  878MPD2    C312930   2.994   2.007  13.602  0.4692 -0.5830  0.0537
  878MPD2    C412931   3.033   2.113  13.683  0.5387 -0.0887 -0.3314
  878MPD2    C512932   3.052   2.235  13.629  0.5959 -0.6723 -0.0853
  878MPD2     H12933   2.992   1.936  13.400  1.4638  0.1639 -1.7012
  878MPD2    H112934   3.016   2.103  13.789  0.0775  0.7887 -0.3205
  878MPD2    H212935   3.061   2.361  13.466 -2.0168  1.0579  2.3859
  878MPD2    H312936   3.057   2.331  13.681 -2.8195 -0.7808  0.4398
  878MPD2     N12937   2.956   1.877  13.655 -0.0367  0.7170 -0.1907
  878MPD2    H512938   2.923   1.811  13.586  1.9148  0.0086 -0.4352
  878MPD2    N112939   3.044   2.177  13.274  0.3927 -0.1661 -0.1036
  878MPD2    H712940   3.058   2.274  13.249 -1.3999 -0.1553 -1.0838
  879MPD2     C12941   2.961   4.127  17.403 -0.4321  0.0408  0.0117
  879MPD2    C112942   2.989   3.996  17.405  0.4710 -0.5850 -0.8989
  879MPD2    C212943   2.888   3.899  17.400  0.6201 -0.0375 -0.2423
  879MPD2    C312944   2.761   3.933  17.367 -0.2260  0.6302 -0.3409
  879MPD2    C412945   2.734   4.064  17.345 -0.0181  0.0605 -0.1189
  879MPD2    C512946   2.833   4.160  17.364 -0.6397  0.3738 -0.0664
  879MPD2     H12947   2.924   3.797  17.402 -0.2067 -0.3013  1.8538
  879MPD2    H112948   2.631   4.094  17.325 -1.4867 -4.3253  0.7671
  879MPD2    H212949   3.038   4.202  17.410 -0.4822  0.2765 -1.9855
  879MPD2    H312950   2.796   4.262  17.357 -0.1858  0.4236 -1.6540
  879MPD2     N12951   2.653   3.838  17.344 -0.3944 -0.1796 -0.7089
  879MPD2    H512952   2.570   3.872  17.297  0.0046  0.8762 -0.6607
  879MPD2    N112953   3.121   3.964  17.436  0.5742  0.6809 -0.3773
  879MPD2    H712954   3.179   4.041  17.466  1.6940 -0.3285  0.0681
  880MPD2     C12955   4.364   0.268   0.623 -0.3487  0.4912 -0.2852
  880MPD2    C112956   4.462   0.363   0.608  0.2273 -0.4246  0.6750
  880MPD2    C212957   4.594   0.317   0.595 -0.3663  0.2787 -0.6288
  880MPD2    C312958   4.625   0.179   0.603  0.8752  0.1499  0.6789
  880MPD2    C412959   4.527   0.093   0.607 -0.6465 -0.0557 -0.7633
  880MPD2    C512960   4.397   0.137   0.614  0.2225  0.1003  0.1030
  880MPD2     H12961   4.671   0.391   0.580  2.0419 -2.1074 -0.0922
  880MPD2    H112962   4.543   4.724   0.618 -2.4331 -0.1249  1.0539
  880MPD2    H212963   4.260   0.295   0.637 -0.7557 -1.8243  1.2422
  880MPD2    H312964   4.309   0.073   0.618  1.3343 -1.3979  0.8748
  880MPD2     N12965   0.028   0.143   0.600 -0.8954 -0.7220  0.0306
  880MPD2    H512966   0.093   0.220   0.592 -1.6968 -0.2880 -2.2318
  880MPD2    N112967   4.430   0.499   0.609  0.2764 -0.4786  0.2245
  880MPD2    H712968   4.336   0.537   0.616 -0.3108 -1.9858  0.5232
  881MPD2     C12969   4.359   1.281  17.625  0.0119 -0.0178 -0.1698
  881MPD2    C112970   4.430   1.166  17.610 -0.1442 -0.0059 -0.2702
  881MPD2    C212971   4.405   1.074  17.710  0.4192  0.2640 -0.1918
  881MPD2    C312972   4.334   1.100   0.077 -0.5594  0.2084  1.0760
  881MPD2    C412973   4.283   1.225   0.099  0.7800  0.1178 -0.4673
  881MPD2    C512974   4.295   1.315  17.745  0.0086  1.0992  0.1266
  881MPD2     H12975   4.455   0.978  17.705  0.0177  0.1337 -1.7380
  881MPD2    H112976   4.217   1.247   0.182  1.8667  0.7923  0.2111
  881MPD2    H212977   4.388   1.362  17.559 -0.6403  0.5399  0.2327
  881MPD2    H312978   4.255   1.415   0.009 -0.7625  0.7937  0.1486
  881MPD2     N12979   4.327   1.017   0.189 -0.6888 -0.1557  0.0137
  881MPD2    H512980   4.270   1.049   0.267 -1.6544  0.0325 -0.7653
  881MPD2    N112981   4.501   1.134  17.484 -0.0743  0.0921 -0.2642
  881MPD2    H712982   4.513   1.215  17.424  0.9511 -1.4599 -2.1236
  882MPD2     C12983   2.733   2.909  14.357  0.5551  0.0365 -0.2195
  882MPD2    C112984   2.714   2.781  14.395  0.3492 -0.2668  0.2708
  882MPD2    C212985   2.656   2.690  14.307 -0.1356 -0.4275  0.0172
  882MPD2    C312986   2.576   2.737  14.200 -0.4061  0.2557 -0.1557
  882MPD2    C412987   2.577   2.874  14.169 -0.4193 -0.0620  0.4982
  882MPD2    C512988   2.662   2.952  14.243 -0.8066 -0.2458 -0.1759
  882MPD2     H12989   2.659   2.585  14.333 -0.7543  0.1251  2.2749
  882MPD2    H112990   2.515   2.920  14.093  1.2134  0.5211 -0.4871
  882MPD2    H212991   2.791   2.978  14.418 -0.9065 -0.0952  1.3167
  882MPD2    H312992   2.667   3.054  14.205  0.4650 -0.3320 -0.2492
  882MPD2     N12993   2.487   2.659  14.128  0.2871 -0.2011 -0.6648
  882MPD2    H512994   2.418   2.706  14.070  0.2013  0.1685 -0.2559
  882MPD2    N112995   2.764   2.727  14.519 -0.3923 -0.0033  0.1085
  882MPD2    H712996   2.744   2.629  14.540 -0.1541  0.2921  1.7474
  883MPD2     C12997   0.205   2.531  16.651  0.6314 -0.7712  0.6271
  883MPD2    C112998   0.256   2.629  16.565  0.2939 -0.0386 -0.7500
  883MPD2    C212999   0.371   2.691  16.598 -0.0302  0.4015  1.2855
  883MPD2    C313000   0.427   2.663  16.723 -0.4976 -0.0889  0.4403
  883MPD2    C413001   0.370   2.579  16.814 -0.5178 -0.2825 -0.2381
  883MPD2    C513002   0.250   2.516  16.778  0.9585 -0.0178  0.2953
  883MPD2     H13003   0.412   2.775  16.544  1.9860  1.4205  4.4154
  883MPD2    H113004   0.416   2.564  16.911  1.3245  3.3880 -0.5480
  883MPD2    H213005   0.120   2.474  16.616 -1.0003  2.1356 -0.1503
  883MPD2    H313006   0.199   2.443  16.839  0.1558  0.8230  0.6365
  883MPD2     N13007   0.553   2.716  16.741 -0.0529 -0.0262 -0.2568
  883MPD2    H513008   0.594   2.745  16.653  0.8536 -0.8960 -0.1295
  883MPD2    N113009   0.195   2.671  16.441 -0.4294  0.0308  0.0606
  883MPD2    H713010   0.253   2.720  16.373 -2.6703  0.0789 -1.8053
  884MPD2     C13011   2.305   3.254  15.609 -0.2908  0.2767 -0.8097
  884MPD2    C113012   2.293   3.388  15.601 -0.2964  0.4287  0.0455
  884MPD2    C213013   2.167   3.441  15.611  0.3019 -0.2019  1.0012
  884MPD2    C313014   2.056   3.361  15.604 -0.2431  0.8186 -0.1529
  884MPD2    C413015   2.070   3.226  15.632  0.0428  0.4726  0.3541
  884MPD2    C513016   2.196   3.174  15.637  0.2637  0.1803 -0.1616
  884MPD2     H13017   2.159   3.547  15.592  0.2328 -0.3433  0.2684
  884MPD2    H113018   1.994   3.150  15.644 -2.4185  2.5787 -1.7461
  884MPD2    H213019   2.402   3.207  15.607 -1.2113 -1.5716 -2.2114
  884MPD2    H313020   2.221   3.070  15.656  0.8235  0.8527  2.8538
  884MPD2     N13021   1.936   3.411  15.582  0.1428  0.0811 -0.2488
  884MPD2    H513022   1.940   3.512  15.568 -1.8304 -0.2759 -3.6087
  884MPD2    N113023   2.401   3.476  15.588 -0.4756  0.1794  0.3497
  884MPD2    H713024   2.381   3.575  15.591 -3.5547 -0.4529  1.9433
  885MPD2     C13025   0.355   3.347   0.465 -0.0060 -0.2486  0.8396
  885MPD2    C113026   0.447   3.453   0.465  0.3560 -0.3895 -0.0138
  885MPD2    C213027   0.465   3.531   0.350 -0.4402  0.2721  0.3504
  885MPD2    C313028   0.393   3.503   0.237  0.2600  0.0498  0.2239
  885MPD2    C413029   0.303   3.393   0.240  0.2074  0.0040  0.3153
  885MPD2    C513030   0.282   3.315   0.353 -0.0982 -0.4227  0.2539
  885MPD2     H13031   0.511   3.628   0.364  0.3059 -0.3304  2.1168
  885MPD2    H113032   0.251   3.358   0.152 -0.2357 -0.1781  0.6452
  885MPD2    H213033   0.353   3.284   0.553  2.1214 -0.0156  1.0618
  885MPD2    H313034   0.226   3.222   0.349  0.6821 -0.7348 -4.0337
  885MPD2     N13035   0.417   3.580   0.123 -0.0987  0.1230  0.2283
  885MPD2    H513036   0.495   3.644   0.115 -1.5520  1.7019 -1.3832
  885MPD2    N113037   0.522   3.467   0.581  0.2044  0.2661 -0.1320
  885MPD2    H713038   0.524   3.394   0.652 -2.0269 -1.7100 -2.1081
  886MPD2     C13039   1.528   1.954  14.942  0.3400 -0.2162  0.7179
  886MPD2    C113040   1.616   1.977  15.049 -0.5091  0.3044 -0.5634
  886MPD2    C213041   1.616   2.106  15.117  0.0222  0.0489 -0.0261
  886MPD2    C313042   1.541   2.207  15.062  0.1831  0.0902 -0.2410
  886MPD2    C413043   1.465   2.176  14.950 -0.5743 -0.1167  0.0792
  886MPD2    C513044   1.440   2.051  14.899  0.1357  0.5870 -0.5446
  886MPD2     H13045   1.684   2.130  15.198 -0.7026  0.4595  0.4734
  886MPD2    H113046   1.409   2.258  14.906 -1.2979 -0.7084 -0.0893
  886MPD2    H213047   1.516   1.860  14.890  1.3263  0.5934 -0.9660
  886MPD2    H313048   1.382   2.032  14.810 -2.1998 -1.3133  1.3614
  886MPD2     N13049   1.546   2.344  15.104 -0.3923  0.3599  0.6403
  886MPD2    H513050   1.510   2.406  15.031  0.6862 -0.6814 -0.7658
  886MPD2    N113051   1.698   1.870  15.098 -0.2926 -0.2525 -0.3107
  886MPD2    H713052   1.766   1.899  15.168 -2.0568  0.6635  1.0528
  887MPD2     C13053   2.293   1.836  15.520  0.3143 -0.3015  0.3976
  887MPD2    C113054   2.161   1.871  15.500 -0.8177 -0.6510 -0.0721
  887MPD2    C213055   2.111   1.975  15.575  0.1387 -0.4921 -0.0321
  887MPD2    C313056   2.190   2.049  15.660  0.0004 -1.1177  1.0394
  887MPD2    C413057   2.319   2.001  15.687  0.1514  0.3534  0.1595
  887MPD2    C513058   2.372   1.904  15.614 -0.1082  0.1524 -1.1445
  887MPD2     H13059   2.014   2.020  15.561 -0.0800 -1.7268 -2.4308
  887MPD2    H113060   2.377   2.054  15.761 -0.2779  0.3730  0.4851
  887MPD2    H213061   2.336   1.755  15.462 -1.6746 -0.9203 -0.2176
  887MPD2    H313062   2.473   1.868  15.629 -0.1792  1.1352  1.5692
  887MPD2     N13063   2.145   2.158  15.730 -0.0788  0.4174  0.4385
  887MPD2    H513064   2.048   2.177  15.706  0.1492  1.3519  0.2517
  887MPD2    N113065   2.079   1.812  15.404 -0.1796  0.7652  0.4996
  887MPD2    H713066   1.981   1.837  15.402 -0.4894 -0.4908 -0.1337
  888MPD2     C13067   3.721   2.333  14.871 -0.4057  0.1717  0.0890
  888MPD2    C113068   3.782   2.345  14.993  0.4271 -0.9852  0.5643
  888MPD2    C213069   3.844   2.471  15.014 -0.1004 -0.1964 -0.0525
  888MPD2    C313070   3.843   2.573  14.917 -0.0662 -0.5209  0.3121
  888MPD2    C413071   3.779   2.544  14.799 -0.5823  0.3403  0.1600
  888MPD2    C513072   3.714   2.431  14.775  0.5266 -1.1758  0.1974
  888MPD2     H13073   3.906   2.482  15.103  0.0053  1.5453 -0.3465
  888MPD2    H113074   3.778   2.613  14.716  1.0997  1.2228  0.8713
  888MPD2    H213075   3.644   2.257  14.859 -1.3945  1.0916  0.5547
  888MPD2    H313076   3.676   2.405  14.677 -0.7404 -0.8325  0.6020
  888MPD2     N13077   3.908   2.694  14.943  0.3149  0.2715  0.3525
  888MPD2    H513078   3.947   2.712  15.035  0.1138  2.4211  0.0366
  888MPD2    N113079   3.777   2.237  15.083 -0.4135  0.0484 -0.4751
  888MPD2    H713080   3.725   2.158  15.046  0.0230 -1.5604  2.3195
  889MPD2     C13081   3.276   2.002  12.753 -0.0260  0.3822  0.3616
  889MPD2    C113082   3.328   1.937  12.863 -0.0118  0.0591  0.4193
  889MPD2    C213083   3.338   2.013  12.975 -0.0673  0.0673 -0.2263
  889MPD2    C313084   3.344   2.153  12.981 -0.1256 -0.0843  0.3401
  889MPD2    C413085   3.308   2.218  12.861 -0.2569  0.0212  0.6810
  889MPD2    C513086   3.276   2.140  12.755 -0.1230 -0.1169 -0.3850
  889MPD2     H13087   3.368   1.963  13.066 -0.4378  0.7594  0.2765
  889MPD2    H113088   3.311   2.326  12.853  0.1228 -0.0970 -0.8051
  889MPD2    H213089   3.270   1.953  12.656 -1.4908  2.8146 -0.7772
  889MPD2    H313090   3.250   2.197  12.666 -2.3801 -0.8518 -0.1867
  889MPD2     N13091   3.371   2.222  13.097 -0.2899 -0.0875 -0.1738
  889MPD2    H513092   3.408   2.175  13.179  1.5731 -1.5897 -1.8858
  889MPD2    N113093   3.302   1.805  12.887 -0.0135 -0.4248 -0.1844
  889MPD2    H713094   3.338   1.777  12.977 -3.8953 -1.4717  1.0515
  890MPD2     C13095   2.882   3.368  14.698 -0.0917 -0.3136  1.1097
  890MPD2    C113096   2.942   3.434  14.807  0.3839  0.0045  0.4357
  890MPD2    C213097   2.930   3.378  14.935  0.3939 -0.2014 -0.8309
  890MPD2    C313098   2.862   3.256  14.953 -0.4776  0.5449  0.1682
  890MPD2    C413099   2.808   3.194  14.843  0.4657 -0.4958  0.2646
  890MPD2    C513100   2.811   3.253  14.720  0.0079 -0.2098 -0.1954
  890MPD2     H13101   2.967   3.430  15.023 -3.4636  1.1540 -0.0174
  890MPD2    H113102   2.753   3.101  14.850 -0.9082  0.1929 -1.3709
  890MPD2    H213103   2.896   3.407  14.598  0.5339  1.6315  1.9440
  890MPD2    H313104   2.761   3.199  14.640  0.5363 -0.3283 -0.4512
  890MPD2     N13105   2.854   3.215  15.087 -0.4528 -0.2584  0.2625
  890MPD2    H513106   2.904   3.279  15.148  0.0115 -0.7317  0.3788
  890MPD2    N113107   2.983   3.561  14.786  0.3917  0.3869  0.2031
  890MPD2    H713108   2.939   3.604  14.705 -0.8385 -0.1220  0.6024
  891MPD2     C13109   0.796   1.684  16.418  0.4462  0.4290  0.3477
  891MPD2    C113110   0.827   1.816  16.393 -0.1126  0.2729  0.1913
  891MPD2    C213111   0.966   1.846  16.400 -0.5657  0.4679 -0.1934
  891MPD2    C313112   1.055   1.750  16.439  0.2656  0.4340 -0.3510
  891MPD2    C413113   1.020   1.624  16.468 -0.6185  0.0321 -0.4267
  891MPD2    C513114   0.884   1.594  16.459 -0.8989 -0.2528 -0.2359
  891MPD2     H13115   1.009   1.939  16.363  2.5499 -1.1693 -0.6645
  891MPD2    H113116   1.083   1.552  16.520  0.9854  1.2531 -0.6909
  891MPD2    H213117   0.695   1.644  16.416  0.5744  0.0688  1.3913
  891MPD2    H313118   0.856   1.495  16.491 -0.1932 -0.3427  0.1140
  891MPD2     N13119   1.195   1.780  16.459  0.1461 -0.8727 -0.5729
  891MPD2    H513120   1.212   1.880  16.457 -1.0912 -0.6217  1.3094
  891MPD2    N113121   0.726   1.904  16.352  0.1449  0.4202  0.1285
  891MPD2    H713122   0.632   1.868  16.346  0.1093  0.4810  0.3078
  892MPD2     C13123   2.191   2.709  14.894 -0.6166 -0.1136 -0.1990
  892MPD2    C113124   2.135   2.793  14.805 -0.8785 -0.3053 -0.1715
  892MPD2    C213125   2.150   2.777  14.668 -0.0486 -0.0936  0.4082
  892MPD2    C313126   2.193   2.655  14.624 -0.1915 -0.5405  0.9269
  892MPD2    C413127   2.235   2.558  14.717  0.2986  0.1989  0.1121
  892MPD2    C513128   2.230   2.585  14.856  0.2594 -0.3135 -0.2830
  892MPD2     H13129   2.106   2.850  14.600  0.9328  0.4241  0.3266
  892MPD2    H113130   2.268   2.460  14.686 -0.1543  0.0430  0.1151
  892MPD2    H213131   2.189   2.735  14.999 -0.9189  0.0547 -0.2450
  892MPD2    H313132   2.251   2.505  14.926  0.7025 -0.8588 -1.0253
  892MPD2     N13133   2.183   2.612  14.490 -0.1709  0.4551  0.0665
  892MPD2    H513134   2.197   2.678  14.415  0.8780 -1.1099 -1.1031
  892MPD2    N113135   2.053   2.900  14.846 -1.0127 -0.3301 -0.2126
  892MPD2    H713136   2.014   2.961  14.775  3.1145  3.3357  0.6915
  893MPD2     C13137   3.548   1.998   1.518  0.1257 -0.7732 -0.0760
  893MPD2    C113138   3.676   2.049   1.538 -0.5518  0.3401 -0.5504
  893MPD2    C213139   3.688   2.163   1.620  0.0280  0.7537  0.5875
  893MPD2    C313140   3.574   2.214   1.675  0.1459 -0.7741 -0.4783
  893MPD2    C413141   3.449   2.165   1.650  0.4361  0.9801 -0.5772
  893MPD2    C513142   3.437   2.050   1.572  0.0196  1.0878  1.3867
  893MPD2     H13143   3.787   2.207   1.621  0.0815  0.6547 -0.5471
  893MPD2    H113144   3.357   2.209   1.689  0.6150  1.1604 -0.3568
  893MPD2    H213145   3.534   1.910   1.458  1.7029 -2.2263  1.6679
  893MPD2    H313146   3.337   2.014   1.550 -0.0950  1.7247  0.8717
  893MPD2     N13147   3.578   2.336   1.742 -0.7017  0.6159  0.1730
  893MPD2    H513148   3.484   2.373   1.754 -0.6820  0.5994  0.3729
  893MPD2    N113149   3.781   2.000   1.456 -0.0487  0.2098  0.1997
  893MPD2    H713150   3.768   1.910   1.410  0.2905  1.2290 -1.8869
  894MPD2     C13151   2.294   4.106   1.718 -0.6195  0.4231  0.1132
  894MPD2    C113152   2.160   4.133   1.689 -0.8915  0.1260 -1.1523
  894MPD2    C213153   2.121   4.125   1.551 -0.0049  0.6119  0.0678
  894MPD2    C313154   2.209   4.084   1.456  0.0893  0.3023 -0.1054
  894MPD2    C413155   2.338   4.051   1.499  0.4967  0.2547 -0.7310
  894MPD2    C513156   2.385   4.070   1.624  0.0147  0.7703  0.1542
  894MPD2     H13157   2.020   4.160   1.533  0.4030  1.5324 -0.4294
  894MPD2    H113158   2.416   4.021   1.428 -0.3117 -1.2314 -1.0009
  894MPD2    H213159   2.330   4.135   1.816  1.0353  0.2712 -0.4448
  894MPD2    H313160   2.489   4.053   1.649 -0.0600  0.6788  0.3958
  894MPD2     N13161   2.164   4.079   1.321 -0.7497  0.1559  0.2172
  894MPD2    H513162   2.071   4.116   1.307 -1.6475 -2.4504 -0.6732
  894MPD2    N113163   2.060   4.178   1.778  0.0698  0.0650  0.1022
  894MPD2    H713164   1.971   4.195   1.731  0.6527 -1.3279 -1.4987
  895MPD2     C13165   1.023   2.136  13.925 -0.4052  0.4073 -0.7874
  895MPD2    C113166   1.035   2.156  13.788  0.3848 -0.6871 -0.1965
  895MPD2    C213167   1.142   2.097  13.723 -0.0029  0.5091  0.1966
  895MPD2    C313168   1.241   2.026  13.784 -0.5870  0.7275  0.4958
  895MPD2    C413169   1.227   2.017  13.917  0.4383  0.7432  0.1206
  895MPD2    C513170   1.130   2.074  13.993 -0.1893  0.3967  0.0971
  895MPD2     H13171   1.138   2.097  13.614 -1.7693 -1.6975  0.2568
  895MPD2    H113172   1.300   1.962  13.975  1.4124 -0.2190 -2.0277
  895MPD2    H213173   0.935   2.171  13.978 -1.2900 -1.4477 -1.0129
  895MPD2    H313174   1.127   2.063  14.101  2.4643  3.4690  0.5080
  895MPD2     N13175   1.339   1.964  13.703  0.6029  0.3880 -0.0116
  895MPD2    H513176   1.338   1.981  13.603  0.2968 -2.6297 -0.5301
  895MPD2    N113177   0.942   2.228  13.705  0.4650 -0.1235 -0.6389
  895MPD2    H713178   0.964   2.233  13.607 -0.5643  2.1782 -0.7596
  896MPD2     C13179   3.840   0.761   1.305 -0.3927 -0.2056  0.6421
  896MPD2    C113180   3.838   0.648   1.234 -0.0556 -0.4950  0.3139
  896MPD2    C213181   3.715   0.592   1.204  0.5977 -0.0496  0.4381
  896MPD2    C313182   3.592   0.652   1.249 -0.3560 -0.3423  0.4707
  896MPD2    C413183   3.607   0.762   1.333  0.0317  0.2737  0.2636
  896MPD2    C513184   3.727   0.812   1.354 -0.2293 -0.1534 -0.0028
  896MPD2     H13185   3.702   0.506   1.140  0.7052  0.3997 -0.1795
  896MPD2    H113186   3.517   0.809   1.372  0.9785  1.9048  0.4541
  896MPD2    H213187   3.936   0.806   1.328  0.4260 -0.6144 -2.0204
  896MPD2    H313188   3.740   0.900   1.417  0.6907 -0.0852 -0.2822
  896MPD2     N13189   3.467   0.596   1.212 -0.3384  0.2339 -0.6127
  896MPD2    H513190   3.483   0.513   1.155 -3.0860 -0.3111 -0.5758
  896MPD2    N113191   3.966   0.601   1.184 -0.3044  0.4184  0.1047
  896MPD2    H713192   4.042   0.667   1.197 -0.9709  1.1541  0.2605
  897MPD2     C13193   4.342   1.891  10.503 -0.0292  0.7172 -0.1406
  897MPD2    C113194   4.356   2.005  10.581 -0.2888  0.7062  0.8515
  897MPD2    C213195   4.332   2.004  10.716  0.2326  0.0599  0.5726
  897MPD2    C313196   4.276   1.890  10.772 -1.2433 -0.5102  0.5254
  897MPD2    C413197   4.279   1.771  10.701 -0.2097  0.3371 -0.7111
  897MPD2    C513198   4.305   1.780  10.570  0.8540  0.1006  1.0290
  897MPD2     H13199   4.322   2.096  10.772 -0.4915 -1.1590  2.4676
  897MPD2    H113200   4.264   1.675  10.748  0.4369  0.7844  0.4274
  897MPD2    H213201   4.361   1.885  10.396 -0.3817 -1.6816 -0.0563
  897MPD2    H313202   4.302   1.681  10.526 -2.3461  1.1918 -1.2170
  897MPD2     N13203   4.230   1.893  10.909  0.0978  0.1058  0.0626
  897MPD2    H513204   4.217   1.976  10.964  2.4122  0.1696  0.5147
  897MPD2    N113205   4.359   2.123  10.502  0.3469 -0.4811  0.0285
  897MPD2    H713206   4.370   2.112  10.402 -0.0794 -1.9997  0.1392
  898MPD2     C13207   1.577   2.498   0.020 -0.0669 -0.2526 -0.1499
  898MPD2    C113208   1.704   2.561   0.033 -0.3684 -0.3162 -0.4715
  898MPD2    C213209   1.702   2.699   0.037 -0.0441 -0.3276 -0.4622
  898MPD2    C313210   1.597   2.782   0.025  0.2976  0.5998  0.9116
  898MPD2    C413211   1.472   2.718   0.017  0.1796  0.3660  0.1461
  898MPD2    C513212   1.467   2.582   0.011 -0.1612 -0.4098  0.0718
  898MPD2     H13213   1.799   2.746   0.044  0.8113 -1.8921 -1.6986
  898MPD2    H113214   1.380   2.770  17.742 -0.0440  0.0943  0.4426
  898MPD2    H213215   1.569   2.391   0.029 -1.0959 -0.3266 -1.8641
  898MPD2    H313216   1.373   2.529  17.741  0.1431 -1.0357  0.3108
  898MPD2     N13217   1.615   2.924   0.009 -0.0517  0.1439 -0.2718
  898MPD2    H513218   1.709   2.960   0.018  0.2482 -0.7763  0.3139
  898MPD2    N113219   1.820   2.484   0.055  0.1162  0.1029 -0.3358
  898MPD2    H713220   1.899   2.546   0.069 -0.6382  0.8560  0.5841
  899MPD2     C13221   2.840   3.348  17.568 -0.6397 -0.4653 -0.0350
  899MPD2    C113222   2.910   3.407  17.670 -0.0254 -0.0778 -0.2956
  899MPD2    C213223   2.937   3.334   0.036  0.1056 -0.7381  0.4923
  899MPD2    C313224   2.899   3.199   0.047  0.1418 -0.1388 -0.2608
  899MPD2    C413225   2.852   3.134  17.691 -0.9799 -0.1995  0.1634
  899MPD2    C513226   2.809   3.213  17.591  0.3061  0.1940  0.0040
  899MPD2     H13227   2.965   3.389   0.124  0.1631 -2.0057  1.2688
  899MPD2    H113228   2.819   3.030  17.700  0.1218 -0.5462  0.1309
  899MPD2    H213229   2.812   3.402  17.478 -0.9863  2.5811  1.9231
  899MPD2    H313230   2.776   3.163  17.501  2.5928 -0.4715 -0.4680
  899MPD2     N13231   2.911   3.116   0.166  0.6997 -0.4468  0.1722
  899MPD2    H513232   2.902   3.016   0.150  0.4809 -0.5111  0.6768
  899MPD2    N113233   2.937   3.542  17.654 -0.1054 -0.5838  0.2859
  899MPD2    H713234   2.893   3.590  17.577 -2.0693 -1.2738  0.9735
  900MPD2     C13235   2.351   4.691  12.580  0.5401 -0.0905  0.1897
  900MPD2    C113236   2.252   4.603  12.610  0.1124  0.0927  0.4310
  900MPD2    C213237   2.115   4.636  12.587 -0.3436 -0.4121 -0.2908
  900MPD2    C313238   2.083   0.021  12.531  0.1550  0.1253  0.6377
  900MPD2    C413239   2.189   0.099  12.485 -0.0346  0.4939  0.6268
  900MPD2    C513240   2.319   0.064  12.516  0.2829  0.3064  0.8243
  900MPD2     H13241   2.030   4.579  12.624 -0.3788 -0.4535 -0.4361
  900MPD2    H113242   2.181   0.201  12.449  0.1233  1.0523  2.1942
  900MPD2    H213243   2.456   4.672  12.598  1.1857  3.7753  0.4623
  900MPD2    H313244   2.394   0.132  12.477 -0.1773  0.4042  0.1173
  900MPD2     N13245   1.942   0.058  12.524  0.9433 -0.6227  0.2218
  900MPD2    H513246   1.870   4.729  12.550 -0.6184  1.2601  0.6526
  900MPD2    N113247   2.283   4.486  12.675 -0.2196 -0.1669 -0.0333
  900MPD2    H713248   2.373   4.489  12.722  0.0289  2.2418 -0.6682
  901MPD2     C13249   1.983   3.476  12.847  0.4857  0.3000 -0.3693
  901MPD2    C113250   2.118   3.473  12.861  0.3276 -0.4845 -0.1342
  901MPD2    C213251   2.185   3.594  12.882  0.3554  0.3360 -0.5524
  901MPD2    C313252   2.119   3.715  12.867 -0.3757  0.3106 -0.2470
  901MPD2    C413253   1.983   3.714  12.836  0.3937  0.2483 -0.3559
  901MPD2    C513254   1.913   3.591  12.844 -0.0070 -0.1157 -0.3883
  901MPD2     H13255   2.289   3.603  12.910 -0.2736  1.9494  1.2437
  901MPD2    H113256   1.920   3.800  12.814 -0.9023 -0.6515 -0.1984
  901MPD2    H213257   1.921   3.388  12.834  1.2026  0.1742 -2.8016
  901MPD2    H313258   1.807   3.598  12.824 -0.0312  0.3478 -0.0884
  901MPD2     N13259   2.195   3.834  12.862  0.5662  0.0363  0.4186
  901MPD2    H513260   2.296   3.831  12.851  0.4800 -1.6116  0.0542
  901MPD2    N113261   2.180   3.348  12.867 -0.1275  0.0951  0.2750
  901MPD2    H713262   2.115   3.271  12.878 -0.1132  0.0256 -0.1471
  902MPD2     C13263   1.004   2.624  12.265 -0.3409 -0.6037 -0.7602
  902MPD2    C113264   1.121   2.663  12.327  0.8307  0.4135  0.1543
  902MPD2    C213265   1.239   2.614  12.282 -0.1663 -0.7301 -0.3937
  902MPD2    C313266   1.241   2.527  12.175 -0.6053 -0.2066 -0.8238
  902MPD2    C413267   1.123   2.487  12.117 -0.1551  0.3555 -0.0414
  902MPD2    C513268   1.000   2.532  12.167  0.1741  0.1389 -0.2638
  902MPD2     H13269   1.328   2.654  12.328 -1.9885  1.8981  0.8090
  902MPD2    H113270   1.120   2.417  12.034  1.0734  1.2942 -0.8672
  902MPD2    H213271   0.908   2.664  12.294 -0.0698  0.3642 -1.2093
  902MPD2    H313272   0.906   2.502  12.122  1.6243 -4.5986 -0.1194
  902MPD2     N13273   1.350   2.459  12.132  0.7977  0.4234 -0.2688
  902MPD2    H513274   1.334   2.397  12.054  0.3037 -1.9304  1.7278
  902MPD2    N113275   1.107   2.765  12.432 -0.1546  0.1529  0.8531
  902MPD2    H713276   1.013   2.796  12.454 -1.0839 -1.4228 -0.8697
  903MPD2     C13277   1.730   2.917  12.180 -0.3472 -0.4032 -0.0779
  903MPD2    C113278   1.676   2.814  12.109 -0.1428  0.7614 -0.6585
  903MPD2    C213279   1.545   2.820  12.067 -0.1545 -0.6047  0.0232
  903MPD2    C313280   1.464   2.930  12.100  0.1276 -0.1022 -0.1218
  903MPD2    C413281   1.530   3.037  12.152  0.7344  0.3584 -0.7317
  903MPD2    C513282   1.667   3.033  12.183 -0.0273 -1.1612 -0.2712
  903MPD2     H13283   1.508   2.726  12.028 -2.5356  0.3907 -0.1580
  903MPD2    H113284   1.477   3.128  12.180  2.6328  0.2900  3.0200
  903MPD2    H213285   1.832   2.907  12.216  0.0763 -0.1933 -1.2188
  903MPD2    H313286   1.711   3.122  12.225 -0.9053 -1.0252  0.3579
  903MPD2     N13287   1.328   2.919  12.066  0.3481  0.3480 -0.3050
  903MPD2    H513288   1.303   2.845  12.001  1.3758  1.1902 -1.6342
  903MPD2    N113289   1.760   2.702  12.086 -0.1888 -0.0542 -0.0899
  903MPD2    H713290   1.827   2.673  12.157 -1.9969 -2.0296  0.7820
  904MPD2     C13291   0.935   1.055  13.745 -0.3595 -0.4306 -0.0826
  904MPD2    C113292   1.004   1.171  13.774  0.2351 -0.3079 -0.0476
  904MPD2    C213293   1.137   1.171  13.814  0.3033 -0.0101  0.1700
  904MPD2    C313294   1.209   1.056  13.823 -0.6313 -0.5765 -0.0684
  904MPD2    C413295   1.144   0.937  13.801 -0.3280 -0.0284  0.0770
  904MPD2    C513296   1.013   0.937  13.759  0.6851  0.4339 -0.6259
  904MPD2     H13297   1.190   1.263  13.831  1.5649 -0.8685  0.9112
  904MPD2    H113298   1.186   0.838  13.790  0.3744  0.0009  2.4799
  904MPD2    H213299   0.831   1.045  13.714 -1.6833  3.1633  3.0848
  904MPD2    H313300   0.960   0.843  13.745  0.4715  0.7606 -1.9891
  904MPD2     N13301   1.354   1.070  13.845 -0.0012 -0.3220  0.2543
  904MPD2    H513302   1.396   1.162  13.841 -0.9815  0.0395 -1.7023
  904MPD2    N113303   0.935   1.300  13.771 -0.3640  0.1016 -0.5707
  904MPD2    H713304   0.993   1.382  13.787 -0.8688  0.2663  0.4161
  905MPD2     C13305   0.991   1.703  13.172 -0.2341 -0.0548 -0.4382
  905MPD2    C113306   1.051   1.706  13.292 -0.0297 -0.3339  0.1149
  905MPD2    C213307   1.178   1.770  13.305  0.3092 -0.5499  1.1243
  905MPD2    C313308   1.242   1.818  13.189  0.5981 -0.0877 -0.2027
  905MPD2    C413309   1.176   1.817  13.073 -0.2331 -0.5498 -0.3573
  905MPD2    C513310   1.055   1.762  13.063 -0.0478 -0.3514  0.1977
  905MPD2     H13311   1.224   1.780  13.403 -0.1616  0.4133  1.2459
  905MPD2    H113312   1.226   1.860  12.986  0.3649  0.2767  0.3927
  905MPD2    H213313   0.895   1.653  13.167 -0.5430  0.7725 -2.8485
  905MPD2    H313314   1.010   1.747  12.965  0.1058 -0.1772  0.0997
  905MPD2     N13315   1.380   1.864  13.184  0.1905 -0.8402 -0.5318
  905MPD2    H513316   1.408   1.907  13.096  1.6292 -1.7332 -0.5175
  905MPD2    N113317   0.982   1.647  13.400  0.4447 -0.8427 -0.0045
  905MPD2    H713318   0.909   1.581  13.377  1.0578 -1.5499  0.0883
  906MPD2     C13319   2.808   1.876  11.560 -0.9153 -0.1291 -0.2855
  906MPD2    C113320   2.834   1.801  11.451  0.0166  1.0903 -1.2507
  906MPD2    C213321   2.776   1.673  11.442  0.6909 -0.1853  0.0630
  906MPD2    C313322   2.709   1.614  11.548 -0.3189 -0.1936  0.0241
  906MPD2    C413323   2.687   1.690  11.667  0.1276 -0.1279 -0.2353
  906MPD2    C513324   2.733   1.821  11.664  0.1354 -0.0968 -0.3947
  906MPD2     H13325   2.782   1.630  11.342  0.5272 -1.5399  0.6374
  906MPD2    H113326   2.646   1.647  11.757 -2.6400  1.3328 -0.8013
  906MPD2    H213327   2.844   1.977  11.574  2.2113 -1.0093 -2.0226
  906MPD2    H313328   2.713   1.887  11.748  0.2725 -1.9589  1.1121
  906MPD2     N13329   2.672   1.481  11.528 -0.1394  0.0376 -0.3706
  906MPD2    H513330   2.708   1.440  11.443 -0.9331 -0.2943 -0.5400
  906MPD2    N113331   2.903   1.844  11.338 -0.3286  0.1477 -0.1840
  906MPD2    H713332   2.925   1.769  11.273  1.0946 -1.0022  1.6193
  907MPD2     C13333   1.784   0.767  15.800  0.2871  1.0899 -0.1809
  907MPD2    C113334   1.866   0.662  15.756  0.8216  0.3802 -0.2404
  907MPD2    C213335   1.970   0.617  15.834  0.3609  0.9315  0.2423
  907MPD2    C313336   1.989   0.670  15.961  0.5110 -0.1819 -0.0952
  907MPD2    C413337   1.903   0.763  16.012  0.2991  0.5278 -0.4702
  907MPD2    C513338   1.811   0.819  15.923  0.2605  0.7437 -0.9152
  907MPD2     H13339   2.034   0.542  15.789  0.9629 -0.5497  3.5941
  907MPD2    H113340   1.916   0.807  16.110  0.8484  1.6560 -1.0417
  907MPD2    H213341   1.717   0.814  15.729  1.5471 -0.7549 -2.6080
  907MPD2    H313342   1.742   0.895  15.958  1.3046  0.7407  1.1186
  907MPD2     N13343   2.092   0.610  16.037 -0.0124  0.1260  0.2782
  907MPD2    H513344   2.130   0.526  15.994 -0.6737  1.9059 -3.7273
  907MPD2    N113345   1.849   0.593  15.632 -0.0060 -0.7664 -0.1259
  907MPD2    H713346   1.919   0.522  15.613  1.4395  0.6536 -0.1188
  908MPD2     C13347   3.847   2.390  10.024 -0.3056 -0.2961 -0.5919
  908MPD2    C113348   3.910   2.271  10.033  0.2041 -0.6078  0.4224
  908MPD2    C213349   4.040   2.264  10.058 -0.5904 -0.1836 -0.4261
  908MPD2    C313350   4.107   2.385  10.096  0.1315 -0.0872  0.0790
  908MPD2    C413351   4.045   2.506  10.095 -0.7221  0.2138  1.1629
  908MPD2    C513352   3.910   2.503  10.072  0.0480  0.0171 -0.2656
  908MPD2     H13353   4.099   2.172  10.059 -0.7811 -0.2976  0.0477
  908MPD2    H113354   4.090   2.601  10.122  0.8817 -0.0858 -0.4751
  908MPD2    H213355   3.745   2.407   9.990  0.2142 -0.4060 -2.2333
  908MPD2    H313356   3.856   2.596  10.067 -2.1869 -1.2316  0.7599
  908MPD2     N13357   4.244   2.368  10.129 -0.1541  0.2718  0.0270
  908MPD2    H513358   4.281   2.274  10.142 -1.6215 -0.5038 -1.4132
  908MPD2    N113359   3.833   2.162   9.994  0.1555 -0.2065  0.0934
  908MPD2    H713360   3.737   2.190   9.975  0.4512  0.0370 -1.0469
  909MPD2     C13361   4.708   4.141  11.629 -0.3913 -0.3133 -0.6936
  909MPD2    C113362   0.047   4.257  11.640  0.4385 -0.0387  0.9367
  909MPD2    C213363   0.024   4.348  11.745  0.3154 -0.7764 -0.7041
  909MPD2    C313364   4.665   4.311  11.836 -0.8273 -0.3560  0.5902
  909MPD2    C413365   4.592   4.193  11.821  0.4253 -0.3415 -0.1022
  909MPD2    C513366   4.615   4.108  11.716 -0.4187  0.0552 -0.3854
  909MPD2     H13367   0.081   4.440  11.752 -0.7658 -0.2499  1.0982
  909MPD2    H113368   4.528   4.153  11.899 -0.7502 -1.2487 -1.5441
  909MPD2    H213369   4.737   4.066  11.556  2.2226  0.2231 -0.2061
  909MPD2    H313370   4.570   4.010  11.728 -2.6246  1.2850  1.4183
  909MPD2     N13371   4.636   4.406  11.938 -0.5607  0.4675  0.6305
  909MPD2    H513372   4.678   4.498  11.933  1.6405 -0.5972 -0.4427
  909MPD2    N113373   0.160   4.278  11.558 -0.2243  0.3467  0.1083
  909MPD2    H713374   0.223   4.355  11.579  0.5030 -0.7689  1.9457
  910MPD2     C13375   1.361   1.717  16.070 -0.1596 -0.2319 -0.1653
  910MPD2    C113376   1.373   1.600  15.999  0.0077 -0.0913 -0.5002
  910MPD2    C213377   1.304   1.586  15.879  0.7332 -0.2349 -0.8497
  910MPD2    C313378   1.217   1.683  15.831  0.4398  0.2291 -0.4425
  910MPD2    C413379   1.201   1.800  15.910 -0.8882 -0.2320  0.2897
  910MPD2    C513380   1.279   1.816  16.020 -0.7961 -0.0274 -0.9588
  910MPD2     H13381   1.317   1.497  15.818 -0.6368 -0.7842 -0.3384
  910MPD2    H113382   1.129   1.876  15.885 -1.3581 -0.0341  2.3019
  910MPD2    H213383   1.411   1.724  16.166  0.6521 -3.3623 -0.3509
  910MPD2    H313384   1.251   1.903  16.078 -0.5121 -0.0725 -0.7529
  910MPD2     N13385   1.147   1.674  15.715  0.5460 -0.3650 -0.1256
  910MPD2    H513386   1.074   1.742  15.699  3.0452  2.2604 -0.3099
  910MPD2    N113387   1.443   1.481  16.037  0.7129 -0.9427 -0.4768
  910MPD2    H713388   1.430   1.398  15.980  1.0461 -0.3680 -1.3931
  911MPD2     C13389   4.081   1.980  15.987  0.2861 -0.0609 -0.4378
  911MPD2    C113390   4.097   2.005  16.118 -0.0762  0.0814  0.1804
  911MPD2    C213391   4.042   2.120  16.179 -1.3229 -0.1265 -0.4895
  911MPD2    C313392   3.958   2.205  16.102 -0.5434 -0.3118  0.3802
  911MPD2    C413393   3.930   2.167  15.969  0.6038  0.6430 -0.3864
  911MPD2    C513394   3.988   2.057  15.915  0.1124  0.2357  0.0150
  911MPD2     H13395   4.061   2.146  16.283  0.7231 -0.1423 -0.8644
  911MPD2    H113396   3.865   2.221  15.901 -0.1597  1.2018  0.7830
  911MPD2    H213397   4.127   1.898  15.934  0.3386 -2.0378  2.6898
  911MPD2    H313398   3.959   2.037  15.813 -1.5344  0.8073  0.3641
  911MPD2     N13399   3.872   2.310  16.147 -0.1896  0.6417  0.6075
  911MPD2    H513400   3.814   2.359  16.079 -0.2371  0.3425  0.4302
  911MPD2    N113401   4.190   1.915  16.176 -0.0018 -0.2394  0.4872
  911MPD2    H713402   4.230   1.847  16.112 -0.7709 -0.0640 -0.1753
  912MPD2     C13403   3.639   2.129  15.772  0.0541  0.0239 -0.4849
  912MPD2    C113404   3.614   2.127  15.907  0.8607 -0.0989 -0.4745
  912MPD2    C213405   3.632   2.004  15.962  0.1319 -0.0447 -0.2015
  912MPD2    C313406   3.659   1.891  15.883 -0.3044 -0.2643 -0.1531
  912MPD2    C413407   3.700   1.903  15.754 -0.6151 -0.1390  0.8061
  912MPD2    C513408   3.701   2.026  15.700  0.7549  0.0784  0.0756
  912MPD2     H13409   3.597   1.985  16.063 -0.9434  0.4273 -0.4860
  912MPD2    H113410   3.716   1.826  15.678 -1.1511 -0.6847  1.2463
  912MPD2    H213411   3.611   2.216  15.713  0.0388  0.4699  0.1778
  912MPD2    H313412   3.725   2.036  15.595 -1.3081 -0.4097 -0.4519
  912MPD2     N13413   3.654   1.768  15.949  0.1005  0.1408  0.1814
  912MPD2    H513414   3.604   1.771  16.038  0.7027  0.0238  0.5222
  912MPD2    N113415   3.553   2.234  15.968 -0.5114  0.1779  0.3619
  912MPD2    H713416   3.573   2.324  15.925  3.3466 -1.3315 -1.0668
  913MPD2     C13417   4.206   3.217  10.785 -0.5870 -0.0590 -0.3162
  913MPD2    C113418   4.234   3.324  10.861 -0.8163 -0.2928 -0.1402
  913MPD2    C213419   4.243   3.455  10.817 -0.3178  0.4547 -0.2341
  913MPD2    C313420   4.225   3.474  10.684 -0.4428  0.3263 -0.9168
  913MPD2    C413421   4.187   3.368  10.605  0.0502 -0.5493 -0.0632
  913MPD2    C513422   4.174   3.240  10.654  0.0433  0.1400  0.6213
  913MPD2     H13423   4.274   3.537  10.881 -1.6447 -0.5788  1.7377
  913MPD2    H113424   4.165   3.387  10.500 -4.4582 -0.2577  0.9602
  913MPD2    H213425   4.210   3.117  10.826  1.8994  1.1648  2.4444
  913MPD2    H313426   4.156   3.161  10.583 -1.6829  0.4338  0.7303
  913MPD2     N13427   4.248   3.601  10.622  0.7863  0.2153  0.4922
  913MPD2    H513428   4.224   3.609  10.524  2.7347  1.3662  0.1209
  913MPD2    N113429   4.270   3.294  10.992 -0.3470  0.1026  0.4943
  913MPD2    H713430   4.245   3.201  11.024 -0.5285  0.7154  2.1623
  914MPD2     C13431   1.940   3.260  12.455  0.1041  0.5491 -0.3466
  914MPD2    C113432   2.058   3.321  12.483  0.0427  0.0529  0.3287
  914MPD2    C213433   2.171   3.246  12.510 -0.7378 -0.5354  0.5115
  914MPD2    C313434   2.159   3.109  12.526 -0.0642 -0.2764  1.1513
  914MPD2    C413435   2.037   3.044  12.487  0.0066 -0.5225  0.4761
  914MPD2    C513436   1.938   3.128  12.447  0.0081  0.8983  0.2102
  914MPD2     H13437   2.263   3.297  12.536  0.3151 -0.8564 -2.5182
  914MPD2    H113438   2.028   2.937  12.475 -2.4352  0.0593 -2.7697
  914MPD2    H213439   1.855   3.325  12.440 -1.3737 -1.1295  0.7692
  914MPD2    H313440   1.843   3.083  12.419 -0.8429  3.2668 -0.6586
  914MPD2     N13441   2.275   3.045  12.577  0.0777  0.2689 -0.3312
  914MPD2    H513442   2.352   3.109  12.593  0.1895 -0.2317  1.1620
  914MPD2    N113443   2.052   3.461  12.486  0.0454  0.1802  0.1663
  914MPD2    H713444   1.963   3.507  12.469  0.6126  0.9899 -0.5432
  915MPD2     C13445   0.436   3.208  15.697  0.4641 -0.0028 -0.2468
  915MPD2    C113446   0.313   3.258  15.653  0.1155  0.0423  0.4851
  915MPD2    C213447   0.232   3.317  15.744 -0.4143 -0.0847  0.5890
  915MPD2    C313448   0.264   3.330  15.878 -0.0431  0.3753  0.2138
  915MPD2    C413449   0.391   3.283  15.916 -0.4326  0.2097 -0.4763
  915MPD2    C513450   0.481   3.224  15.823 -0.0934  0.2450  0.4095
  915MPD2     H13451   0.135   3.353  15.710 -0.1244 -1.1100 -1.3222
  915MPD2    H113452   0.422   3.296  16.019  0.6601 -0.8113 -0.6803
  915MPD2    H213453   0.502   3.162  15.624  2.0325 -0.4225  1.4340
  915MPD2    H313454   0.579   3.187  15.852 -0.2849 -0.4961  0.0964
  915MPD2     N13455   0.179   3.397  15.967 -0.0776 -0.3070 -0.5379
  915MPD2    H513456   0.101   3.454  15.935  0.1543  0.8716  1.0292
  915MPD2    N113457   0.277   3.247  15.514  0.0276 -0.6352 -0.8995
  915MPD2    H713458   0.328   3.175  15.464  3.6657  1.8542 -0.7347
  916MPD2     C13459   3.397   1.627  15.720  0.7954 -0.2836 -0.1035
  916MPD2    C113460   3.383   1.496  15.747 -0.2812 -0.1236  0.3004
  916MPD2    C213461   3.456   1.409  15.678  0.6467  0.0436  0.6234
  916MPD2    C313462   3.541   1.447  15.580 -0.4236 -0.8448 -0.5506
  916MPD2    C413463   3.555   1.584  15.555  0.7309  0.3356  0.3811
  916MPD2    C513464   3.481   1.674  15.628 -0.1374 -0.0785  0.8648
  916MPD2     H13465   3.440   1.302  15.691  1.6450 -0.2505 -0.5212
  916MPD2    H113466   3.618   1.624  15.476  2.7817  0.4363  2.1006
  916MPD2    H213467   3.351   1.706  15.779 -1.6020  0.1575 -2.5728
  916MPD2    H313468   3.499   1.779  15.605  0.4943 -0.1953  0.8329
  916MPD2     N13469   3.602   1.346  15.499 -0.0641 -0.0906 -0.7942
  916MPD2    H513470   3.579   1.250  15.523  0.1125 -0.3317 -1.5786
  916MPD2    N113471   3.304   1.456  15.859 -0.1672 -0.1481 -0.3812
  916MPD2    H713472   3.272   1.538  15.910 -1.0110 -1.1145  0.6587
  917MPD2     C13473   3.532   4.128  11.282 -0.1253 -0.3950  0.2899
  917MPD2    C113474   3.601   4.126  11.405 -0.5233  0.1625  0.1060
  917MPD2    C213475   3.634   4.241  11.475 -0.0503  0.1838  0.0780
  917MPD2    C313476   3.599   4.363  11.421 -0.6054 -0.2437 -0.3002
  917MPD2    C413477   3.538   4.368  11.296 -0.2896 -0.6956  0.3361
  917MPD2    C513478   3.507   4.249  11.233  0.4114 -0.5801  0.7101
  917MPD2     H13479   3.676   4.243  11.575 -1.3658  0.6436  0.6207
  917MPD2    H113480   3.512   4.463  11.248  0.8750 -1.0058 -0.9052
  917MPD2    H213481   3.504   4.040  11.226 -0.7966 -0.3914  0.6236
  917MPD2    H313482   3.469   4.261  11.132 -0.1478 -0.7330  0.9081
  917MPD2     N13483   3.626   4.487  11.487  0.7638  0.0270  0.1157
  917MPD2    H513484   3.598   4.573  11.441  0.7757  0.4311  0.8639
  917MPD2    N113485   3.608   4.003  11.474  0.2287 -0.8981  0.5078
  917MPD2    H713486   3.533   3.939  11.450 -0.2315  0.0253 -0.5551
  918MPD2     C13487   3.506   4.260  12.431  0.2030 -0.1642 -0.1493
  918MPD2    C113488   3.630   4.243  12.376  0.5889  0.5627 -0.3294
  918MPD2    C213489   3.653   4.170  12.256  0.3842  0.2866  0.0518
  918MPD2    C313490   3.545   4.112  12.193 -0.6474 -0.7337  0.0951
  918MPD2    C413491   3.417   4.136  12.245  0.9725  0.3389 -0.2289
  918MPD2    C513492   3.398   4.209  12.359  0.4128 -0.6372  0.2784
  918MPD2     H13493   3.752   4.155  12.215  1.1602 -2.0588  2.7688
  918MPD2    H113494   3.325   4.104  12.198 -1.2118  3.0383  2.1642
  918MPD2    H213495   3.492   4.326  12.516 -1.1811  0.1909 -0.6578
  918MPD2    H313496   3.295   4.221  12.392 -0.2899 -2.6932 -1.1192
  918MPD2     N13497   3.556   4.032  12.082  0.6591  0.6222 -0.3117
  918MPD2    H513498   3.647   4.016  12.041  0.6579  0.9479 -0.4469
  918MPD2    N113499   3.743   4.303  12.431 -0.2339 -0.4115 -0.1427
  918MPD2    H713500   3.826   4.301  12.373 -0.1938  0.4909 -0.1145
  919MPD2     C13501   3.894   3.155  12.147 -0.2232 -0.4068 -0.1622
  919MPD2    C113502   3.855   3.043  12.079 -0.7078 -0.1003 -0.0942
  919MPD2    C213503   3.837   3.050  11.945  0.7578 -0.8293  0.7192
  919MPD2    C313504   3.843   3.174  11.875 -0.6571  0.1765  0.3408
  919MPD2    C413505   3.873   3.282  11.948 -0.2075  0.7430 -0.4297
  919MPD2    C513506   3.906   3.277  12.079  0.2704  0.1301  0.3600
  919MPD2     H13507   3.816   2.954  11.899 -3.3477 -0.3918  1.7253
  919MPD2    H113508   3.867   3.379  11.899  1.2310  1.6307  1.1608
  919MPD2    H213509   3.906   3.156  12.255  0.3185  1.6919 -0.2359
  919MPD2    H313510   3.910   3.373  12.129 -1.2113 -0.3925  1.4629
  919MPD2     N13511   3.817   3.188  11.738 -0.2089  0.8054 -0.6295
  919MPD2    H513512   3.828   3.279  11.694 -0.8422  1.1493 -0.0693
  919MPD2    N113513   3.853   2.919  12.135 -0.1700 -0.2330 -0.1236
  919MPD2    H713514   3.836   2.839  12.075  0.6218 -0.8951  0.5367
  920MPD2     C13515   4.016   3.706  10.923 -0.3742 -0.5644  0.3220
  920MPD2    C113516   3.896   3.636  10.887  0.0321 -0.2101  0.6179
  920MPD2    C213517   3.853   3.533  10.968  0.1343 -0.6999 -0.3665
  920MPD2    C313518   3.926   3.495  11.082 -0.2136  0.4730  0.0400
  920MPD2    C413519   4.043   3.562  11.106  0.4498 -0.1416 -0.1000
  920MPD2    C513520   4.087   3.669  11.030 -0.0087 -0.3480 -0.0678
  920MPD2     H13521   3.767   3.469  10.951  0.6696 -1.9514  1.5933
  920MPD2    H113522   4.109   3.524  11.183 -0.1095 -0.3055  0.3010
  920MPD2    H213523   4.050   3.785  10.856 -1.0879  1.0148  1.8217
  920MPD2    H313524   4.184   3.715  11.048 -1.3281  3.4040 -2.5343
  920MPD2     N13525   3.880   3.382  11.157  0.1729 -0.4128 -0.6091
  920MPD2    H513526   3.785   3.349  11.146  0.5050 -1.7870  0.5632
  920MPD2    N113527   3.819   3.660  10.777  0.1538  0.4170  0.6484
  920MPD2    H713528   3.739   3.598  10.774 -0.4160  1.1786  0.1634
  921MPD2     C13529   0.178   2.195  16.686 -0.2632 -0.4345  0.3653
  921MPD2    C113530   0.174   2.129  16.563  0.6637  0.5249 -0.7104
  921MPD2    C213531   0.079   2.027  16.540  0.1016 -0.8598 -0.1955
  921MPD2    C313532   4.716   2.007  16.637 -0.7537  0.6919 -0.2504
  921MPD2    C413533   4.704   2.095  16.743 -0.1916 -0.2165  0.1161
  921MPD2    C513534   0.069   2.175  16.774 -0.1434  0.2617  0.5537
  921MPD2     H13535   0.091   1.974  16.447 -1.2970 -0.0633 -0.8216
  921MPD2    H113536   4.615   2.086  16.804  0.1969  0.4740  0.7828
  921MPD2    H213537   0.256   2.262  16.720 -0.5452 -0.8248  1.7870
  921MPD2    H313538   0.053   2.246  16.854 -0.5927  1.3424 -0.4949
  921MPD2     N13539   4.609   1.914  16.618 -0.4858 -0.1860  0.1866
  921MPD2    H513540   4.528   1.917  16.679  0.0303 -0.9240  0.9158
  921MPD2    N113541   0.277   2.156  16.475 -0.3456  0.0514 -0.5072
  921MPD2    H713542   0.357   2.209  16.509  0.6788 -1.5862 -0.3326
  922MPD2     C13543   0.858   0.118   0.528 -0.4927 -0.0769  0.2109
  922MPD2    C113544   0.864   0.188   0.408 -0.5040  0.0247  0.0139
  922MPD2    C213545   0.842   0.119   0.284 -0.4215 -0.2680  0.3505
  922MPD2    C313546   0.798   4.726   0.279 -0.2405 -0.1038  0.6288
  922MPD2    C413547   0.784   4.670   0.397  0.2458 -0.1881 -0.0829
  922MPD2    C513548   0.819   4.729   0.514  0.2714 -0.9453 -0.3668
  922MPD2     H13549   0.850   0.177   0.193  0.3399 -1.0331 -0.0696
  922MPD2    H113550   0.745   4.570   0.415  0.4227 -0.4017 -0.8629
  922MPD2    H213551   0.888   0.164   0.621  0.1518  2.3830 -1.1871
  922MPD2    H313552   0.822   4.677   0.609 -0.4498  0.9138  0.6861
  922MPD2     N13553   0.767   4.669   0.149 -0.2283 -1.0594 -0.2862
  922MPD2    H513554   0.788   4.734   0.074  1.0951 -0.3645  0.6922
  922MPD2    N113555   0.908   0.325   0.410 -0.0143  0.2385 -0.1594
  922MPD2    H713556   0.922   0.355   0.506 -1.5898 -1.1483  0.5108
  923MPD2     C13557   2.934   2.650   9.357  0.4526 -0.6625 -0.4132
  923MPD2    C113558   2.827   2.698   9.430  0.1983 -0.3215 -0.2899
  923MPD2    C213559   2.801   2.636   9.553  0.7866 -0.0759  0.3347
  923MPD2    C313560   2.866   2.525   9.599  0.0342  0.8788 -0.6654
  923MPD2    C413561   2.960   2.468   9.514  0.8624 -0.2932  0.1560
  923MPD2    C513562   2.999   2.532   9.396  0.5680  0.3292  0.2722
  923MPD2     H13563   2.723   2.681   9.613  0.3244 -0.9413  0.3686
  923MPD2    H113564   3.005   2.378   9.555  2.8360  0.8149  0.4064
  923MPD2    H213565   2.967   2.699   9.266  0.7573 -1.1531 -0.5703
  923MPD2    H313566   3.080   2.502   9.330  0.6183  0.3420  0.3289
  923MPD2     N13567   2.834   2.453   9.723  0.1868 -0.4769  0.1999
  923MPD2    H513568   2.881   2.364   9.736  0.9736 -0.2363 -0.9820
  923MPD2    N113569   2.764   2.811   9.378  0.1489 -0.0733 -0.3664
  923MPD2    H713570   2.790   2.824   9.281  0.1097  1.2993 -0.1969
  924MPD2     C13571   1.982   4.508  16.366 -0.1911  0.3234 -1.9223
  924MPD2    C113572   1.931   4.612  16.293 -0.1265  0.3335  0.0809
  924MPD2    C213573   2.017   4.711  16.244  0.1069 -0.1850 -0.1002
  924MPD2    C313574   2.148   4.709  16.267  0.5882 -0.0289  0.2514
  924MPD2    C413575   2.203   4.606  16.342  0.1303  0.7397 -0.0090
  924MPD2    C513576   2.116   4.508  16.387  0.0657 -0.3752  0.3977
  924MPD2     H13577   1.973   0.059  16.194 -0.6763 -1.3912 -1.4894
  924MPD2    H113578   2.309   4.597  16.361 -0.5764 -2.3288  2.5324
  924MPD2    H213579   1.928   4.426  16.411  0.7765  0.7696  0.0346
  924MPD2    H313580   2.163   4.435  16.452  0.2040  1.8239  2.7504
  924MPD2     N13581   2.235   0.078  16.235 -0.1040  0.0957  0.5379
  924MPD2    H513582   2.332   0.071  16.264  0.2439 -0.9990 -0.8668
  924MPD2    N113583   1.790   4.620  16.287  0.4417 -0.2968 -0.4645
  924MPD2    H713584   1.733   4.552  16.336  0.6659 -0.9637 -1.1278
  925MPD2     C13585   1.258   2.546  15.110 -0.3043  0.6441 -0.6169
  925MPD2    C113586   1.198   2.634  15.019  0.5617 -0.4601  0.3153
  925MPD2    C213587   1.095   2.718  15.055 -0.4722  0.4736 -0.6286
  925MPD2    C313588   1.053   2.723  15.188 -0.3546  0.0008  1.1418
  925MPD2    C413589   1.110   2.631  15.275 -0.4729  0.6982  0.5275
  925MPD2    C513590   1.217   2.544  15.239 -0.5527  0.1715 -0.0752
  925MPD2     H13591   1.043   2.779  14.982  0.5375  0.0408 -1.7057
  925MPD2    H113592   1.078   2.635  15.378 -3.0911 -0.9156 -0.2203
  925MPD2    H213593   1.333   2.476  15.075  0.4777 -0.5984  3.5517
  925MPD2    H313594   1.259   2.478  15.315  2.4390  1.3402 -0.7252
  925MPD2     N13595   0.934   2.796  15.223  1.2131 -0.2615  0.6087
  925MPD2    H513596   0.908   2.789  15.321  0.1677 -0.1493  0.3363
  925MPD2    N113597   1.218   2.630  14.877  1.0343  0.2740 -0.0603
  925MPD2    H713598   1.157   2.678  14.812 -0.2693  0.3767  1.2547
  926MPD2     C13599   4.505   0.975  13.303 -0.5026 -0.5408  0.0246
  926MPD2    C113600   4.439   1.078  13.240 -0.2419  0.1098  0.5069
  926MPD2    C213601   4.484   1.117  13.114  0.2900  0.1549 -0.4693
  926MPD2    C313602   4.600   1.068  13.061 -0.2838 -0.4272  0.3643
  926MPD2    C413603   4.663   0.970  13.129 -0.3534  0.0895 -0.3489
  926MPD2    C513604   4.615   0.923  13.244  0.0537 -0.6787  0.4555
  926MPD2     H13605   4.424   1.191  13.062 -2.0182 -1.1079  0.3990
  926MPD2    H113606   0.019   0.927  13.096 -0.7631 -0.6684 -0.5147
  926MPD2    H213607   4.477   0.932  13.399 -0.8046 -0.6090 -0.0952
  926MPD2    H313608   4.666   0.843  13.295  0.4646  0.0087  1.1167
  926MPD2     N13609   4.666   1.122  12.945 -0.0226  0.0154 -0.0860
  926MPD2    H513610   0.028   1.104  12.938  0.1137 -0.2268  2.2686
  926MPD2    N113611   4.335   1.146  13.304 -0.1284  0.7286  0.1648
  926MPD2    H713612   4.295   1.224  13.253 -2.2505 -0.8115 -0.5228
  927MPD2     C13613   0.039   3.138   0.173  0.6350 -0.7788 -0.6105
  927MPD2    C113614   4.656   3.191   0.129  0.2834  0.5256  0.2560
  927MPD2    C213615   4.650   3.248  17.748  0.5360 -0.0816 -0.5365
  927MPD2    C313616   0.029   3.263  17.678  0.4110 -0.4949 -0.3059
  927MPD2    C413617   0.148   3.204  17.724  0.2117 -0.1673 -0.0974
  927MPD2    C513618   0.150   3.139   0.098  0.0963 -0.4600  0.5038
  927MPD2     H13619   4.555   3.285  17.709  1.6872  0.5286 -2.7710
  927MPD2    H113620   0.245   3.223  17.681 -0.4402 -1.2831 -2.0448
  927MPD2    H213621   0.044   3.097   0.273  0.3717 -1.7765 -1.0069
  927MPD2    H313622   0.241   3.098   0.140 -0.5687 -1.1053  1.3249
  927MPD2     N13623   0.030   3.352  17.569  0.4362 -0.2970 -0.4467
  927MPD2    H513624   4.693   3.421  17.567 -1.1438 -1.9640  0.3667
  927MPD2    N113625   4.549   3.213   0.223  0.8133  0.2302  0.2104
  927MPD2    H713626   4.565   3.184   0.318  0.0399 -1.9232 -0.3092
  928MPD2     C13627   2.096   2.713   1.126  0.1651 -0.7335  0.0111
  928MPD2    C113628   2.226   2.736   1.158 -0.2773 -0.7939 -1.1848
  928MPD2    C213629   2.325   2.680   1.078  0.1607  0.5347  0.4262
  928MPD2    C313630   2.294   2.582   0.985  0.8058 -0.0827 -0.4876
  928MPD2    C413631   2.164   2.551   0.965 -0.5336  0.0422 -0.4509
  928MPD2    C513632   2.068   2.617   1.032  0.8323 -0.4830  1.0800
  928MPD2     H13633   2.431   2.693   1.097  0.4479  1.1312 -1.5222
  928MPD2    H113634   2.145   2.469   0.896 -4.4712  1.5031 -1.1504
  928MPD2    H213635   2.017   2.747   1.191 -0.2919  0.4344 -1.1670
  928MPD2    H313636   1.967   2.588   1.005  1.4314  1.0077 -2.7721
  928MPD2     N13637   2.388   2.520   0.907 -0.1370  0.2015  0.0470
  928MPD2    H513638   2.351   2.455   0.838 -0.3650  1.0810 -0.6575
  928MPD2    N113639   2.243   2.833   1.264  0.1711 -0.1327 -0.2428
  928MPD2    H713640   2.160   2.869   1.309 -0.0169  0.9216 -1.4414
  929MPD2     C13641   2.472   2.040   9.788 -0.0926 -0.6210 -0.2579
  929MPD2    C113642   2.355   2.069   9.851 -1.0755 -0.6382  0.2193
  929MPD2    C213643   2.295   2.195   9.839 -0.6245 -0.0149 -0.0862
  929MPD2    C313644   2.367   2.297   9.773 -1.2863 -0.6290  0.2758
  929MPD2    C413645   2.480   2.263   9.703  0.6411  0.4240  0.0748
  929MPD2    C513646   2.532   2.136   9.709  0.0391  0.6362  0.2280
  929MPD2     H13647   2.204   2.209   9.896 -0.1669  0.5256  0.5046
  929MPD2    H113648   2.531   2.337   9.643  0.4724  1.1306  0.8023
  929MPD2    H213649   2.510   1.939   9.786  0.4182 -0.4508  1.0468
  929MPD2    H313650   2.608   2.109   9.636  1.0623  1.6518  0.9373
  929MPD2     N13651   2.320   2.432   9.771  0.1419  0.0222  0.2419
  929MPD2    H513652   2.360   2.486   9.695  2.3724 -2.2585 -0.2163
  929MPD2    N113653   2.297   1.970   9.925 -0.6948  0.0174  0.2199
  929MPD2    H713654   2.360   1.895   9.953  0.6025  1.1844  0.4103
  930MPD2     C13655   3.826   3.789  14.456  0.1696 -0.1440  0.1176
  930MPD2    C113656   3.914   3.811  14.359  0.4952 -0.0042 -0.9722
  930MPD2    C213657   3.926   3.721  14.257  0.4656  1.0518  0.5326
  930MPD2    C313658   3.834   3.614  14.249  0.6418 -0.7302  0.1302
  930MPD2    C413659   3.747   3.584  14.358  0.3953 -0.3742  0.3351
  930MPD2    C513660   3.745   3.676  14.462  0.1208 -0.7249 -0.1514
  930MPD2     H13661   4.000   3.737  14.180 -0.9308 -0.4410 -1.1052
  930MPD2    H113662   3.689   3.493  14.367 -0.5626 -0.1995 -4.0372
  930MPD2    H213663   3.811   3.865  14.532 -0.1445  0.3758 -0.4560
  930MPD2    H313664   3.680   3.651  14.545 -0.5145 -0.9177 -0.7012
  930MPD2     N13665   3.842   3.510  14.150  0.5632 -0.1134  0.2949
  930MPD2    H513666   3.810   3.422  14.189 -0.9059  1.7192  3.2296
  930MPD2    N113667   3.993   3.930  14.372  0.3703 -0.2288  0.3653
  930MPD2    H713668   3.966   3.980  14.456  0.2521 -1.1274  0.8671
  931MPD2     C13669   4.470   3.473   1.001  0.0252 -0.1615 -0.1780
  931MPD2    C113670   4.460   3.362   0.919 -0.4466  0.2301 -0.7986
  931MPD2    C213671   4.523   3.243   0.956  0.8475  0.1200  0.5000
  931MPD2    C313672   4.564   3.222   1.087 -0.0765 -0.4159  0.3759
  931MPD2    C413673   4.570   3.325   1.170  0.0999  0.1537 -0.8169
  931MPD2    C513674   4.526   3.447   1.121 -0.0337  0.4006 -0.2209
  931MPD2     H13675   4.505   3.150   0.903  0.6157  0.1699  0.4925
  931MPD2    H113676   4.603   3.301   1.271  1.8952  0.1010 -1.4207
  931MPD2    H213677   4.434   3.574   0.991 -0.8888 -0.5337 -0.6477
  931MPD2    H313678   4.537   3.526   1.195 -3.1644  0.1449  0.5316
  931MPD2     N13679   4.608   3.099   1.144 -0.0178 -0.0599  0.3613
  931MPD2    H513680   4.618   3.105   1.245 -3.2215 -0.3984  0.6986
  931MPD2    N113681   4.412   3.390   0.789 -0.0876  0.6342 -0.0959
  931MPD2    H713682   4.389   3.486   0.767  1.4291  1.3732  1.5029
  932MPD2     C13683   0.711   2.870  11.644 -0.4383  0.1949  0.3171
  932MPD2    C113684   0.825   2.838  11.571 -0.0548  0.1483  0.5524
  932MPD2    C213685   0.834   2.731  11.489  0.1477  0.2654 -0.4046
  932MPD2    C313686   0.731   2.645  11.491 -0.4834 -0.5777 -0.0219
  932MPD2    C413687   0.613   2.673  11.565  1.0963 -0.5373 -0.7620
  932MPD2    C513688   0.603   2.785  11.646  0.1422  0.5308 -0.1479
  932MPD2     H13689   0.923   2.709  11.432  1.7119 -0.0038  2.0984
  932MPD2    H113690   0.530   2.603  11.567 -1.0967  2.1623  1.6554
  932MPD2    H213691   0.710   2.953  11.713  0.9981 -0.2121  0.8331
  932MPD2    H313692   0.516   2.805  11.709 -0.6785 -2.4004 -0.3750
  932MPD2     N13693   0.735   2.522  11.418 -0.1370  0.2762 -0.0315
  932MPD2    H513694   0.653   2.465  11.433  0.5309 -0.1698  1.8530
  932MPD2    N113695   0.942   2.905  11.586  0.4101  0.4022 -0.4474
  932MPD2    H713696   1.024   2.865  11.542  1.6110  2.6485 -0.2649
  933MPD2     C13697   2.104   3.450   1.849 -0.3078 -0.6993 -0.1811
  933MPD2    C113698   2.066   3.352   1.759  0.6893  0.3449  0.1368
  933MPD2    C213699   1.937   3.336   1.717 -0.1181  0.5998 -0.3182
  933MPD2    C313700   1.836   3.415   1.766 -1.4256  0.0738  0.2458
  933MPD2    C413701   1.869   3.516   1.853 -0.3608 -0.0542  0.7110
  933MPD2    C513702   2.001   3.532   1.891 -0.1408  0.4573  0.4937
  933MPD2     H13703   1.916   3.247   1.658 -1.4919  1.9154 -1.8043
  933MPD2    H113704   1.795   3.589   1.885 -1.0662 -1.1689  1.6623
  933MPD2    H213705   2.204   3.481   1.880 -0.3565  0.2977 -1.0179
  933MPD2    H313706   2.020   3.620   1.951  4.3249  0.2235 -0.6015
  933MPD2     N13707   1.703   3.394   1.728  0.0260 -0.6611 -0.5214
  933MPD2    H513708   1.696   3.315   1.664  0.7662  0.5404 -2.0856
  933MPD2    N113709   2.169   3.280   1.700 -0.4871 -0.1310 -0.6772
  933MPD2    H713710   2.261   3.303   1.736 -1.4573  0.5599  1.3161
  934MPD2     C13711   3.309   0.433   1.502 -0.4747 -0.6113  0.1935
  934MPD2    C113712   3.418   0.358   1.458  0.5039 -0.3809  0.2316
  934MPD2    C213713   3.389   0.248   1.383  0.0276 -0.2735  0.3286
  934MPD2    C313714   3.263   0.210   1.346  0.6200 -0.0910  0.3800
  934MPD2    C413715   3.159   0.290   1.389  0.2470  0.3437  0.1315
  934MPD2    C513716   3.179   0.396   1.473 -0.7001  0.1715 -0.5252
  934MPD2     H13717   3.471   0.188   1.345 -0.0930  0.3389 -0.8931
  934MPD2    H113718   3.053   0.279   1.369  0.2548 -0.9653  0.8252
  934MPD2    H213719   3.320   0.520   1.565  0.8868 -1.7552  1.5618
  934MPD2    H313720   3.094   0.453   1.509 -0.4346  0.1642  0.1089
  934MPD2     N13721   3.218   0.103   1.267  0.4845  0.3042  0.4338
  934MPD2    H513722   3.119   0.097   1.247  0.9964 -2.3300 -1.3772
  934MPD2    N113723   3.561   0.378   1.484 -0.4272  0.1002  0.4541
  934MPD2    H713724   3.622   0.304   1.452 -1.3606  0.7947 -2.8650
  935MPD2     C13725   3.797   4.026   1.152 -0.0788  0.5928 -0.1603
  935MPD2    C113726   3.692   4.002   1.064  0.3879  0.0177 -0.2735
  935MPD2    C213727   3.580   4.087   1.060 -1.5744  0.1374  0.3433
  935MPD2    C313728   3.579   4.196   1.141  0.0310 -0.2260  0.3105
  935MPD2    C413729   3.687   4.232   1.212 -0.4462  0.1326 -0.5479
  935MPD2    C513730   3.793   4.145   1.222 -0.4682  0.2334 -0.6942
  935MPD2     H13731   3.500   4.066   0.990  0.0583  0.1863 -1.5252
  935MPD2    H113732   3.701   4.325   1.266  0.0765 -1.6099  2.3455
  935MPD2    H213733   3.882   3.961   1.171 -0.6346 -0.5090 -1.5361
  935MPD2    H313734   3.873   4.170   1.290 -0.4853  0.9405 -0.9290
  935MPD2     N13735   3.471   4.284   1.145 -0.3048 -0.1354  0.4775
  935MPD2    H513736   3.488   4.354   1.216 -1.2581  0.4812  0.1075
  935MPD2    N113737   3.693   3.882   0.983  0.6558 -0.1016 -0.1193
  935MPD2    H713738   3.607   3.859   0.934 -0.0799  1.0795  0.6125
  936MPD2     C13739   1.876   0.585  12.675 -0.6600  0.1518 -0.4744
  936MPD2    C113740   1.839   0.648  12.790  0.1802  0.6127  0.5814
  936MPD2    C213741   1.759   0.759  12.790 -1.1542 -0.2700  0.0492
  936MPD2    C313742   1.723   0.812  12.669 -0.0922 -0.1863  0.0459
  936MPD2    C413743   1.774   0.755  12.553 -0.1614 -0.6014 -0.3028
  936MPD2    C513744   1.833   0.634  12.550 -0.5187 -0.4963  0.1590
  936MPD2     H13745   1.730   0.794  12.888 -0.6698 -1.0433  0.4657
  936MPD2    H113746   1.749   0.799  12.457 -1.8543  0.4577  0.6187
  936MPD2    H213747   1.940   0.498  12.667  1.3171  1.6154 -0.6088
  936MPD2    H313748   1.875   0.584  12.463  0.5970  1.5835 -0.4983
  936MPD2     N13749   1.655   0.940  12.652  0.2210  0.5136 -0.1851
  936MPD2    H513750   1.657   0.976  12.557  2.6780 -0.7083 -0.5723
  936MPD2    N113751   1.877   0.594  12.917  0.6923  0.2992  0.2074
  936MPD2    H713752   1.879   0.662  12.992 -0.6725 -0.0741  0.5854
  937MPD2     C13753   4.114   2.365  11.840 -0.5251  0.2437  0.0638
  937MPD2    C113754   4.143   2.487  11.892  0.4514  1.0259  0.0389
  937MPD2    C213755   4.214   2.570  11.812  0.2841 -0.1939  0.6624
  937MPD2    C313756   4.241   2.540  11.683  0.5184 -0.2235  0.2267
  937MPD2    C413757   4.203   2.416  11.627  0.2359  0.4868  0.3698
  937MPD2    C513758   4.139   2.335  11.708 -0.1334 -0.0400  0.0616
  937MPD2     H13759   4.244   2.665  11.855  0.2905  0.2863 -0.4040
  937MPD2    H113760   4.220   2.384  11.525 -3.3717 -1.2259  0.3073
  937MPD2    H213761   4.068   2.280  11.887 -0.6356  0.2493 -0.0324
  937MPD2    H313762   4.101   2.242  11.666 -0.4836  2.0584 -4.3427
  937MPD2     N13763   4.314   2.641  11.620 -0.3000 -0.5227  0.1046
  937MPD2    H513764   4.342   2.720  11.676  1.9165 -0.9353 -0.4346
  937MPD2    N113765   4.126   2.517  12.025  0.0719  0.7862  0.6162
  937MPD2    H713766   4.156   2.607  12.060  2.8680  0.1615 -0.2361
  938MPD2     C13767   2.195   4.271   0.598 -0.1468 -0.3436  0.4127
  938MPD2    C113768   2.328   4.302   0.592 -0.5905 -0.3847  0.5690
  938MPD2    C213769   2.421   4.205   0.631  0.2207 -0.0391 -0.3778
  938MPD2    C313770   2.373   4.090   0.686 -0.2005  0.5100 -1.1535
  938MPD2    C413771   2.236   4.061   0.685 -0.5448  0.4003 -0.1164
  938MPD2    C513772   2.148   4.152   0.640 -0.7970 -0.1316 -0.1748
  938MPD2     H13773   2.522   4.242   0.635 -0.1056  0.9960 -1.5820
  938MPD2    H113774   2.200   3.971   0.733  0.8933  0.0716  0.3477
  938MPD2    H213775   2.124   4.339   0.551  1.2350  0.5543 -0.3882
  938MPD2    H313776   2.041   4.137   0.640 -0.9782  1.1175  1.4044
  938MPD2     N13777   2.451   4.012   0.775 -0.9644 -0.1005  0.1039
  938MPD2    H513778   2.414   3.928   0.818 -1.0809 -0.3681 -0.5314
  938MPD2    N113779   2.381   4.427   0.547  0.2751 -0.4071  0.4662
  938MPD2    H713780   2.481   4.436   0.540  0.0734  1.7471  0.3110
  939MPD2     C13781   3.571   0.203   0.772  0.1761  0.9773  0.4028
  939MPD2    C113782   3.666   0.296   0.744  0.1778  0.1093 -0.5155
  939MPD2    C213783   3.768   0.264   0.649  0.1566  0.1531  0.7779
  939MPD2    C313784   3.770   0.138   0.589 -0.1995  0.6367  0.3678
  939MPD2    C413785   3.669   0.050   0.611  0.7433 -0.6056  0.4683
  939MPD2    C513786   3.575   0.080   0.710  0.3425 -0.6948 -0.1724
  939MPD2     H13787   3.841   0.335   0.613  1.8254 -1.1389  1.6591
  939MPD2    H113788   3.662   4.694   0.557 -0.0707 -0.4315  0.2806
  939MPD2    H213789   3.498   0.220   0.850  1.8495 -0.0328  2.2102
  939MPD2    H313790   3.511   4.737   0.743  0.1818 -0.6861 -0.4615
  939MPD2     N13791   3.887   0.121   0.506  0.0447 -0.4359 -0.6780
  939MPD2    H513792   3.943   0.206   0.511 -0.3845 -0.0527 -2.5224
  939MPD2    N113793   3.659   0.423   0.810  0.2564 -0.0794  0.1465
  939MPD2    H713794   3.575   0.438   0.865 -0.4912  0.4179 -1.1384
  940MPD2     C13795   2.729   1.167  13.645  0.0358  1.0983 -0.0622
  940MPD2    C113796   2.704   1.043  13.697  0.4203 -0.2220 -0.6255
  940MPD2    C213797   2.717   0.929  13.617  0.3867  0.2852  0.7327
  940MPD2    C313798   2.725   0.946  13.481 -0.0083  0.6873 -0.3544
  940MPD2    C413799   2.738   1.071  13.430  0.1559  0.0188  0.8344
  940MPD2    C513800   2.740   1.185  13.512 -0.6705 -0.2823  0.2953
  940MPD2     H13801   2.692   0.832  13.658  0.5039 -0.9224 -2.0796
  940MPD2    H113802   2.750   1.095  13.325 -0.1370 -1.1261  0.5411
  940MPD2    H213803   2.719   1.259  13.702 -2.0205 -1.2492  3.3688
  940MPD2    H313804   2.750   1.283  13.468  4.6237 -1.4711 -1.1660
  940MPD2     N13805   2.720   0.838  13.398  0.3277  0.0315 -0.1972
  940MPD2    H513806   2.716   0.866  13.301 -0.6927 -0.4483 -0.3025
  940MPD2    N113807   2.668   1.024  13.832 -0.2091 -0.7296  0.1983
  940MPD2    H713808   2.670   0.931  13.873 -1.4965 -0.6329  0.4824
  941MPD2     C13809   0.992   0.680  10.511  0.4498 -0.7498  0.3104
  941MPD2    C113810   1.070   0.590  10.583 -0.3009  0.2184 -1.0908
  941MPD2    C213811   1.010   0.472  10.621 -0.1639  0.7142 -0.1602
  941MPD2    C313812   0.879   0.440  10.587  0.3211  0.2099  0.5909
  941MPD2    C413813   0.797   0.547  10.547 -0.5269  0.2714  0.2291
  941MPD2    C513814   0.858   0.662  10.501 -0.5729  0.3016  1.3148
  941MPD2     H13815   1.067   0.397  10.675  1.0159  1.6898 -0.0302
  941MPD2    H113816   0.692   0.536  10.526  0.1338 -2.0514 -1.8753
  941MPD2    H213817   1.030   0.772  10.469  0.4102 -1.6088 -1.5987
  941MPD2    H313818   0.802   0.746  10.462  1.0078 -0.2737 -2.2287
  941MPD2     N13819   0.806   0.317  10.606 -0.0716  0.3347 -0.2663
  941MPD2    H513820   0.708   0.318  10.580 -0.2293  4.4492  0.4748
  941MPD2    N113821   1.207   0.615  10.605 -0.7698  0.2783  0.0158
  941MPD2    H713822   1.256   0.540  10.651  0.7709  0.9263 -0.5860
  942MPD2     C13823   2.415   2.713   9.038 -0.2540 -0.1544  0.0638
  942MPD2    C113824   2.317   2.722   9.138  0.3128  0.2910  0.2165
  942MPD2    C213825   2.300   2.622   9.230  0.6136  0.2264 -0.9152
  942MPD2    C313826   2.378   2.511   9.231 -0.4913  0.3655  0.1827
  942MPD2    C413827   2.484   2.505   9.144 -0.2209 -0.1304 -0.5244
  942MPD2    C513828   2.495   2.601   9.042 -0.5135  0.3657  0.1868
  942MPD2     H13829   2.222   2.635   9.304  3.9160  0.2298  2.5475
  942MPD2    H113830   2.547   2.417   9.141  0.8298  0.6057  0.2143
  942MPD2    H213831   2.429   2.787   8.960 -0.7561  0.3006  0.4115
  942MPD2    H313832   2.578   2.588   8.975 -2.3092 -1.0162 -1.7662
  942MPD2     N13833   2.350   2.406   9.318  0.3984  0.6276 -0.1886
  942MPD2    H513834   2.421   2.334   9.324  0.2196  0.3741 -1.1672
  942MPD2    N113835   2.236   2.837   9.155  0.4687 -0.4914  0.2106
  942MPD2    H713836   2.169   2.839   9.231 -1.5069 -0.0316 -1.5571
  943MPD2     C13837   0.179   0.740  10.483  0.5207 -0.1512  0.0529
  943MPD2    C113838   0.181   0.623  10.558  0.3915 -0.8858  0.1308
  943MPD2    C213839   0.236   0.637  10.684 -0.5932 -0.6237 -0.9831
  943MPD2    C313840   0.277   0.757  10.735 -0.4019  0.4834  0.2081
  943MPD2    C413841   0.288   0.857  10.652 -0.7087  0.6625  0.2127
  943MPD2    C513842   0.238   0.857  10.522 -0.1581 -0.3743  0.5637
  943MPD2     H13843   0.228   0.552  10.752  1.5999 -0.5441 -0.6179
  943MPD2    H113844   0.310   0.955  10.692  2.0942  0.2969 -0.4623
  943MPD2    H213845   0.160   0.720  10.378 -1.2170  0.4906  0.2565
  943MPD2    H313846   0.249   0.949  10.467  1.9458 -0.0734  1.4554
  943MPD2     N13847   0.297   0.779  10.871 -0.0521 -0.0796 -0.0544
  943MPD2    H513848   0.314   0.875  10.900  1.2191 -0.4386  0.3669
  943MPD2    N113849   0.117   0.501  10.506 -0.3846 -0.2856  0.1255
  943MPD2    H713850   0.082   0.512  10.412 -0.4212  0.1497  0.1875
  944MPD2     C13851   4.310   3.590  11.460 -0.6987 -0.2452  0.2702
  944MPD2    C113852   4.343   3.644  11.584  0.8694  0.0496 -0.3910
  944MPD2    C213853   4.375   3.779  11.590 -0.4051 -0.2843  0.5878
  944MPD2    C313854   4.369   3.861  11.483 -0.3419  0.3464  0.1806
  944MPD2    C413855   4.329   3.807  11.359  0.2748 -1.0239 -0.6571
  944MPD2    C513856   4.305   3.675  11.353 -0.4364 -0.0795  0.0047
  944MPD2     H13857   4.401   3.824  11.685  1.5764  1.7390 -0.9293
  944MPD2    H113858   4.313   3.868  11.271 -1.1060 -1.5035 -0.7497
  944MPD2    H213859   4.287   3.485  11.449  2.3473 -1.0528  1.6873
  944MPD2    H313860   4.262   3.634  11.262  1.6506 -0.1881 -0.9162
  944MPD2     N13861   4.381   3.999  11.506  0.1793 -0.6039  0.1592
  944MPD2    H513862   4.390   4.034  11.601 -0.7370  2.0172 -0.7241
  944MPD2    N113863   4.370   3.552  11.690  0.1177  0.2334 -0.0413
  944MPD2    H713864   4.310   3.471  11.676  1.2338 -0.4404 -0.9505
    1TMC1    C113865   3.632   4.474  14.508 -0.0865 -0.1127 -0.9459
    1TMC1    C213866   3.749   4.400  14.500  0.2229 -0.2557  0.1321
    1TMC1    C313867   3.748   4.270  14.501  0.4192 -0.8064 -0.3203
    1TMC1    C413868   3.509   4.418  14.527  0.0404  0.6270 -0.2307
    1TMC1    C513869   3.519   4.276  14.542 -0.6260  0.2220 -0.2400
    1TMC1    C613870   3.630   4.200  14.527  0.0923  0.0288  0.1735
    1TMC1     C13871   3.651   4.614  14.549  0.2843 -0.2128 -0.0258
    1TMC1     O13872   3.770   4.635  14.566  0.4642  0.0941 -0.2853
    1TMC1     H13873   3.843   4.451  14.482  0.7269 -0.3857  2.3959
    1TMC1    H113874   3.414   4.469  14.539  0.9632  2.3758 -0.4727
    1TMC1    H213875   3.639   4.099  14.565 -0.3702 -0.2995 -0.5971
    1TMC1    C713876   3.397   4.215  14.585 -0.3855 -0.4198 -0.0894
    1TMC1    C813877   3.854   4.210  14.580  0.3985  0.6838 -0.5013
    1TMC1    O113878   3.315   4.265  14.655  0.1890  0.2075  0.2932
    1TMC1    O213879   3.912   4.108  14.552 -0.1026  0.5860  0.1526
    1TMC1    O313880   3.393   4.082  14.549 -0.2299  0.2244  0.2918
    1TMC1    H313881   3.455   4.059  14.476 -0.3005 -1.9735  0.9309
    1TMC1    O513882   3.832   4.261  14.702 -0.2779  0.2148 -0.3270
    1TMC1    H513883   3.763   4.330  14.714  0.0073  0.8515 -2.2545
    2MPD2     C13884   3.568   0.340  14.668  0.6004 -0.1869  0.2436
    2MPD2    C113885   3.474   0.309  14.572 -0.0932 -0.3505 -0.2827
    2MPD2    C213886   3.469   0.176  14.536 -0.2584  0.3705 -0.3475
    2MPD2    C313887   3.557   0.083  14.585 -0.7021  0.2407  1.0762
    2MPD2    C413888   3.647   0.116  14.683  0.2177  0.9419 -0.4055
    2MPD2    C513889   3.649   0.245  14.728 -0.4742  0.0448 -0.9944
    2MPD2     H13890   3.399   0.144  14.459  1.8087 -1.3243 -1.5326
    2MPD2    H113891   3.717   0.049  14.732  0.9650  1.4061 -0.8466
    2MPD2    H213892   3.583   0.443  14.699 -0.3734  0.3622 -1.1525
    2MPD2    H313893   3.727   0.280  14.795 -1.3369  2.2471 -1.1518
    2MPD2     N13894   3.548   4.696  14.539  0.0079  0.0902 -0.3199
    2MPD2    H513895   3.472   4.664  14.479 -1.6610  1.4882  1.0582
    2MPD2    N113896   3.406   0.417  14.513 -0.7018  0.3916  0.2829
    2MPD2    H713897   3.413   0.507  14.560  1.9600  0.9670 -1.1988
    3TMC2    C113898   3.291   0.539  14.350 -0.6855  0.8296  0.1906
    3TMC2    C213899   3.300   0.646  14.436 -0.5126 -0.0746 -0.4229
    3TMC2    C313900   3.257   0.764  14.377  0.2839  0.0487 -0.2203
    3TMC2    C413901   3.263   0.550  14.218 -0.8745  0.1317  0.2739
    3TMC2    C513902   3.241   0.674  14.166 -0.5105 -0.0728  0.2199
    3TMC2    C613903   3.239   0.782  14.243  0.6000 -0.6906  0.5477
    3TMC2     C13904   3.350   0.408  14.390 -0.1344  0.3031 -0.1723
    3TMC2     O13905   3.363   0.319  14.308  0.4452  0.5580  0.0956
    3TMC2     H13906   3.290   0.636  14.544 -0.7451  0.3013 -0.4111
    3TMC2    H113907   3.279   0.461  14.160  1.4073  1.2474 -0.7991
    3TMC2    H213908   3.216   0.882  14.209 -1.4588 -0.6441  2.0078
    3TMC2    C713909   3.190   0.679  14.026  0.0205 -0.6021 -0.7212
    3TMC2    C813910   3.221   0.880  14.457 -0.3375  0.0729 -0.3901
    3TMC2    O113911   3.150   0.569  13.985  0.2656  0.3016  0.5753
    3TMC2    O213912   3.148   0.973  14.415  0.0604  0.4914 -0.1774
    3TMC2    O513913   3.315   0.884  14.555 -0.2092  0.4301  0.1381
    3TMC2    H513914   3.354   0.795  14.572 -1.8960 -0.7423 -2.1738
    4TMC2    C113915   3.059   1.532  13.475  0.0406  0.0693  0.0382
    4TMC2    C213916   3.143   1.625  13.537 -0.2655  0.1091  0.1822
    4TMC2    C313917   3.228   1.588  13.639  0.3754  0.1213  0.5266
    4TMC2    C413918   3.078   1.397  13.507 -0.0778 -0.1471  0.6204
    4TMC2    C513919   3.164   1.363  13.607  0.3216  0.7749 -0.0424
    4TMC2    C613920   3.249   1.457  13.668 -0.1399 -0.8076  0.0770
    4TMC2     C13921   2.937   1.577  13.415 -0.0368  0.0723  0.2076
    4TMC2     O13922   2.910   1.688  13.461 -0.2094  0.0353  0.0823
    4TMC2     H13923   3.123   1.731  13.526  3.1425  0.3393 -3.6604
    4TMC2    H113924   2.994   1.331  13.492  0.3227 -0.8595  1.5114
    4TMC2    H213925   3.296   1.427  13.761 -0.3275  0.8831  0.7163
    4TMC2    C713926   3.133   1.243  13.693 -0.0522 -0.2543  0.7490
    4TMC2    C813927   3.333   1.688  13.658 -0.4255  0.0994 -0.4837
    4TMC2    O113928   3.117   1.253  13.813  0.4442 -0.0721 -0.2670
    4TMC2    O213929   3.358   1.760  13.560 -0.2093  0.3589  0.0877
    4TMC2    O513930   3.427   1.646  13.744  0.2816 -0.0050 -0.2229
    4TMC2    H513931   3.389   1.604  13.824  1.8589 -0.9458  0.0332
    5MPD2     C13932   2.470   1.514  13.218 -0.1783  0.1879 -0.4612
    5MPD2    C113933   2.559   1.443  13.141 -0.5226  0.2057 -0.2531
    5MPD2    C213934   2.692   1.429  13.183  0.1973 -0.0516 -0.6850
    5MPD2    C313935   2.743   1.494  13.301 -0.0504  0.1733  0.4501
    5MPD2    C413936   2.654   1.575  13.367 -0.4615 -0.2549  0.5006
    5MPD2    C513937   2.521   1.583  13.326  0.6720 -0.1205  0.5910
    5MPD2     H13938   2.766   1.362  13.142  0.1253 -0.3554 -0.3206
    5MPD2    H113939   2.671   1.635  13.455  1.0394 -0.0745  0.0811
    5MPD2    H213940   2.364   1.522  13.197 -0.2928  1.3106  0.5811
    5MPD2    H313941   2.451   1.649  13.376  0.4336  0.5498 -0.6220
    5MPD2     N13942   2.874   1.483  13.336 -0.5760  0.0609 -0.5345
    5MPD2    H513943   2.926   1.410  13.288  1.5647  1.8027 -0.9012
    5MPD2    N113944   2.518   1.398  13.008 -0.0080  0.1743  0.2168
    5MPD2    H713945   2.425   1.427  12.980 -0.6047  1.7861  3.9355
    6MPD1     C13946   1.586   1.929  11.954  0.3196 -0.0870 -0.0231
    6MPD1    C113947   1.710   1.951  11.896 -0.1259 -0.2889 -0.0657
    6MPD1    C213948   1.812   2.018  11.963 -0.1794  0.1068 -0.6785
    6MPD1    C313949   1.770   2.088  12.076 -0.1927  0.5511 -0.3458
    6MPD1    C413950   1.647   2.071  12.125 -0.1352 -0.0989 -0.5117
    6MPD1    C513951   1.550   1.990  12.070 -0.0491  1.0303  0.1707
    6MPD1     H13952   1.914   2.015  11.926  0.1544 -1.4504  0.3621
    6MPD1    H113953   1.626   2.112  12.223  0.0664  1.1628 -0.9967
    6MPD1    H213954   1.511   1.863  11.911 -0.8974  0.4891  1.1985
    6MPD1    H313955   1.453   1.991  12.118 -0.4328 -1.3669 -0.5754
    6MPD1     N13956   1.868   2.159  12.154 -0.2798 -0.0915  0.3633
    6MPD1    H513957   1.834   2.194  12.243 -2.0660 -0.5930 -0.1353
    6MPD1    N113958   1.742   1.870  11.783 -0.5106  0.0573  0.6123
    6MPD1    H613959   1.668   1.866  11.714 -1.3904 -1.4764  1.6460
    6MPD1    H713960   1.824   1.905  11.734  0.0892 -2.0770  0.0567
    7MPD2     C13961   1.932   1.804  12.702 -0.5146 -0.6347 -0.2791
    7MPD2    C113962   2.045   1.803  12.626  0.3505  0.9164  0.4753
    7MPD2    C213963   2.117   1.689  12.619  0.2273  0.1195 -0.0799
    7MPD2    C313964   2.086   1.577  12.690 -0.3653 -0.1199  0.0415
    7MPD2    C413965   1.978   1.585  12.779 -0.2283 -0.2681  0.2902
    7MPD2    C513966   1.900   1.695  12.778 -0.0495 -0.0708  0.5428
    7MPD2     H13967   2.203   1.681  12.555 -0.4997  2.8570 -1.3835
    7MPD2    H113968   1.950   1.498  12.837  0.1570 -0.0868  0.7532
    7MPD2    H213969   1.875   1.895  12.718 -0.6181 -0.8921  0.8082
    7MPD2    H313970   1.819   1.699  12.850 -0.6754 -0.5718 -0.1360
    7MPD2     N13971   2.163   1.459  12.688  0.9166 -0.4805  0.8507
    7MPD2    H513972   2.137   1.383  12.751 -0.2183 -1.3467 -0.6669
    7MPD2    N113973   2.083   1.905  12.546 -0.1519 -0.1868  0.5453
    7MPD2    H713974   2.151   1.868  12.480 -1.3560  1.3186 -1.5201
    8TMC3    C113975   2.347   1.321  12.642  0.2548  0.4356 -0.0985
    8TMC3    C213976   2.401   1.333  12.768 -0.4495  0.5186 -0.8716
    8TMC3    C313977   2.534   1.306  12.783  0.5184 -0.9138  1.2494
    8TMC3    C413978   2.430   1.282  12.532 -0.8430  0.9038 -0.2688
    8TMC3    C513979   2.564   1.273  12.557 -0.2155 -0.7534 -0.4117
    8TMC3    C613980   2.619   1.286  12.678  0.2943  0.4698  0.6968
    8TMC3     C13981   2.260   1.421  12.598  0.0739 -0.1081 -0.3769
    8TMC3     O13982   2.283   1.469  12.484 -0.1413 -0.0636 -0.1954
    8TMC3     H13983   2.330   1.341  12.850 -0.3881  0.4326 -0.8100
    8TMC3    H113984   2.393   1.288  12.430  1.2454  1.2063 -1.0184
    8TMC3    H213985   2.727   1.282  12.690  0.6265  2.2127 -1.7715
    8TMC3    C713986   2.638   1.356  12.459  0.0794 -0.1866  0.6660
    8TMC3    C813987   2.594   1.330  12.913 -0.2661 -0.3153 -0.6016
    8TMC3    O113988   2.759   1.349  12.455 -0.4811  0.7809  0.4050
    8TMC3    O213989   2.708   1.286  12.929  0.6536  0.2717  0.6876
    9TMC3    C113990   2.094   2.212  12.223  0.5284 -0.1816 -0.5462
    9TMC3    C213991   2.219   2.158  12.186  0.2851 -0.1670  0.3885
    9TMC3    C313992   2.277   2.068  12.262 -0.8224  0.5246  0.0571
    9TMC3    C413993   2.048   2.196  12.356 -0.3689 -0.3940 -0.0679
    9TMC3    C513994   2.118   2.108  12.435 -0.4368  0.2371 -0.5136
    9TMC3    C613995   2.231   2.038  12.393 -0.1249 -0.6864  0.3678
    9TMC3     C13996   1.999   2.193  12.115 -0.5117  0.3422  0.6451
    9TMC3     O13997   2.039   2.194  11.999  0.0222  0.1550  0.2932
    9TMC3     H13998   2.246   2.169  12.082  0.5633 -1.1234  0.3638
    9TMC3    H113999   1.946   2.211  12.390 -1.3231 -1.6184 -2.3791
    9TMC3    H214000   2.295   1.997  12.470 -2.1484 -0.9554  1.8882
    9TMC3    C714001   2.033   2.035  12.532  0.6027 -0.1904 -0.6276
    9TMC3    C814002   2.400   1.999  12.213 -0.2659  0.5208  0.0085
    9TMC3    O114003   1.927   2.072  12.578 -0.4337 -0.4187 -0.7263
    9TMC3    O214004   2.465   2.050  12.120 -0.6978  0.2926 -0.4489
   10MPD2     C14005   2.714   1.597  12.301  0.0041  0.4113  0.1388
   10MPD2    C114006   2.586   1.572  12.347  0.5969 -0.4993 -0.0296
   10MPD2    C214007   2.488   1.670  12.338 -0.1915  0.1043  0.2911
   10MPD2    C314008   2.517   1.798  12.295 -0.2278 -0.0646 -0.1168
   10MPD2    C414009   2.641   1.822  12.243  0.5559  0.3750  0.5293
   10MPD2    C514010   2.736   1.726  12.249 -0.0055 -0.1173  0.5346
   10MPD2     H14011   2.388   1.650  12.373 -0.6260  2.4857  0.4302
   10MPD2    H114012   2.670   1.914  12.194  1.3770  1.1393  2.4881
   10MPD2    H214013   2.807   1.541  12.309 -0.0118  0.5136  0.9981
   10MPD2    H314014   2.838   1.743  12.217 -0.3503 -0.4699 -0.7294
   10MPD2     N14015   2.407   1.882  12.276  0.0591  0.6456  0.1429
   10MPD2    H514016   2.320   1.854  12.322  0.9697 -0.2864  1.3228
   10MPD2    N114017   2.559   1.452  12.412 -0.2886 -0.4922 -0.0935
   10MPD2    H714018   2.463   1.454  12.445 -0.5498 -0.8411 -0.8472
   11MPD2     C14019   3.159   0.734  13.732  0.7021 -0.3457 -0.4754
   11MPD2    C114020   3.169   0.832  13.825 -0.0189  0.6216  0.2831
   11MPD2    C214021   3.156   0.959  13.793  0.1514 -0.1653 -0.4633
   11MPD2    C314022   3.132   0.997  13.661 -0.0317  0.5351 -0.2809
   11MPD2    C414023   3.118   0.894  13.570 -0.4593 -0.5753 -0.5805
   11MPD2    C514024   3.130   0.768  13.604 -0.1656 -0.0789  0.4822
   11MPD2     H14025   3.173   1.029  13.874 -1.9289 -0.9982  0.6719
   11MPD2    H114026   3.117   0.916  13.464 -0.7019 -0.7442 -0.6120
   11MPD2    H214027   3.169   0.630  13.762  1.1326 -0.6111 -1.5565
   11MPD2    H314028   3.142   0.692  13.528  1.8502 -0.4213  1.1497
   11MPD2     N14029   3.131   1.132  13.613  0.0493  0.5697  0.0624
   11MPD2    H514030   3.130   1.150  13.513 -2.5903  0.3522  0.0404
   11MPD2    N114031   3.204   0.805  13.962 -0.0119  0.2119 -0.2440
   11MPD2    H714032   3.255   0.876  14.013 -0.2495  0.8688 -0.9375
    1MPD1     C14033   0.086   2.232  17.253 -0.4519  0.1173 -0.4982
    1MPD1    C114034   0.183   2.330  17.278 -0.1826  0.6192 -0.0780
    1MPD1    C214035   0.292   2.337  17.183  0.0217 -0.4692 -0.0543
    1MPD1    C314036   0.309   2.241  17.085  0.2524  0.5083 -0.3542
    1MPD1    C414037   0.215   2.142  17.072  0.4671 -0.0191 -0.1833
    1MPD1    C514038   0.108   2.137  17.156  0.2477 -0.7112  0.2952
    1MPD1     H14039   0.354   2.426  17.183  0.3915 -0.7203 -1.1423
    1MPD1    H114040   0.235   2.058  17.007  1.1154  0.4040 -0.5346
    1MPD1    H214041   4.736   2.226  17.317  0.9854 -1.2907  1.3374
    1MPD1    H314042   0.029   2.066  17.134  0.8873 -1.3634  0.1210
    1MPD1     N14043   0.427   2.238  17.006 -0.3351 -0.0134  0.3178
    1MPD1    H514044   0.436   2.152  16.953 -0.2669  0.3270 -0.2204
    1MPD1    N114045   0.151   2.433  17.372  0.3832 -0.4047  0.4962
    1MPD1    H614046   0.103   2.388  17.450 -1.2393  1.4334  0.5406
    1MPD1    H714047   0.237   2.474  17.407  0.2953  0.7449 -0.6563
    2MPD1     C14048   1.499   2.391  16.692 -0.1723 -0.2191  0.3503
    2MPD1    C114049   1.435   2.283  16.630 -0.9332  0.8498  0.1611
    2MPD1    C214050   1.303   2.258  16.667 -0.3772 -0.7088 -0.2989
    2MPD1    C314051   1.231   2.335  16.754 -0.4149  0.1553  0.0306
    2MPD1    C414052   1.294   2.439  16.818  0.1460 -0.3294 -0.5519
    2MPD1    C514053   1.426   2.465  16.786 -0.2769 -0.8839  0.0634
    2MPD1     H14054   1.254   2.169  16.629  0.3028 -0.9867 -0.5201
    2MPD1    H114055   1.232   2.509  16.872  1.0129  0.1849 -0.2145
    2MPD1    H214056   1.605   2.411  16.681  0.1877 -1.1791  2.1826
    2MPD1    H314057   1.486   2.540  16.836 -0.3912 -1.9580  1.7835
    2MPD1     N14058   1.087   2.312  16.766 -0.1538 -0.1233 -0.0495
    2MPD1    H514059   1.052   2.234  16.712 -1.1427  1.2463 -1.3750
    2MPD1    N114060   1.510   2.199  16.550 -0.1155 -0.0255 -0.4167
    2MPD1    H614061   1.459   2.126  16.500 -0.2174 -0.8381  0.8816
    2MPD1    H714062   1.564   2.252  16.481  0.1230  0.7757  0.3820
    3TMC3    C114063   0.867   2.333  16.838  0.1795 -0.4932  0.1311
    3TMC3    C214064   0.824   2.343  16.712 -0.6565  0.7709  0.2294
    3TMC3    C314065   0.688   2.319  16.698  0.2475 -0.2502  0.1853
    3TMC3    C414066   0.783   2.327  16.945  0.3218 -0.2600 -0.2933
    3TMC3    C514067   0.644   2.306  16.923 -0.2247  0.6296  0.8850
    3TMC3    C614068   0.593   2.300  16.798  0.5789 -0.1464  0.6095
    3TMC3     C14069   1.007   2.364  16.862  0.0343 -0.3165 -0.7793
    3TMC3     O14070   1.032   2.430  16.960 -0.2076 -0.3352  0.7650
    3TMC3     H14071   0.889   2.357  16.626 -1.8882  0.6014 -0.7319
    3TMC3    H114072   0.818   2.320  17.047 -0.3427  0.0038 -0.0441
    3TMC3    H214073   0.486   2.301  16.778  0.9551 -0.2813 -1.4608
    3TMC3    C714074   0.545   2.309  17.031  1.3507  0.4487 -0.3836
    3TMC3    C814075   0.614   2.346  16.569 -0.0677  0.1291  0.0242
    3TMC3    O114076   0.588   2.344  17.142 -0.7635 -1.0389 -0.2087
    3TMC3    O214077   0.505   2.296  16.552  0.2658 -0.5292  0.3707
    4MPD1     C14078   0.607   2.508  16.088  0.5585  0.3462  0.3342
    4MPD1    C114079   0.739   2.470  16.119 -1.3298  0.3214  0.6910
    4MPD1    C214080   0.771   2.446  16.252 -0.0212 -0.2276  0.0950
    4MPD1    C314081   0.664   2.448  16.345  0.0296 -0.4092 -0.7104
    4MPD1    C414082   0.535   2.474  16.314 -0.3736  0.1347 -0.3469
    4MPD1    C514083   0.510   2.511  16.184  0.0655  0.0262  0.0946
    4MPD1     H14084   0.870   2.420  16.288  1.1000  0.2577 -2.6364
    4MPD1    H114085   0.455   2.474  16.387 -0.5535 -3.6025 -0.5116
    4MPD1    H214086   0.585   2.533  15.985 -0.3811 -0.4852  0.3258
    4MPD1    H314087   0.413   2.539  16.146 -0.9675  0.0222  2.7533
    4MPD1     N14088   0.705   2.411  16.474  0.5096  0.5212 -0.2245
    4MPD1    H514089   0.802   2.429  16.497  0.4330  0.8510 -0.1627
    4MPD1    N114090   0.841   2.463  16.025 -0.0869 -0.0992 -0.5976
    4MPD1    H614091   0.904   2.387  16.048  0.0681  0.0483 -0.5370
    4MPD1    H714092   0.792   2.446  15.937  1.4943 -3.8791 -0.7510
    1TCq1    O114093   1.487   2.505  11.489  0.3175 -0.6820  0.1954
    1TCq1    C114094   1.380   2.471  11.414  0.1114 -0.0133 -0.0774
    1TCq1    O214095   1.271   2.526  11.425 -1.0208 -0.3835 -0.1471
    1TCq1    C214096   1.431   2.443  11.281 -0.0943  0.1517 -0.1413
    1TCq1    C314097   1.363   2.347  11.210 -0.0722 -0.1364  0.3083
    1TCq1    C414098   1.416   2.303  11.088 -0.9649  0.2877 -0.0651
    1TCq1    C514099   1.540   2.348  11.047 -0.0331  0.4486  1.2211
    1TCq1    C614100   1.602   2.448  11.123  0.2026 -0.4587  0.5490
    1TCq1    C714101   1.552   2.493  11.235 -0.7167  0.2607  0.5110
    1TCq1    C814102   1.734   2.493  11.090 -0.7271  0.5002 -0.1241
    1TCq1    O414103   1.794   2.569  11.170  0.2811 -0.5169  0.5582
    1TCq1    C914104   1.363   2.176  11.042 -0.0506  0.7181  0.7813
    1TCq1    O514105   1.257   2.135  11.100 -0.6790  0.5780  0.1782
    1TCq1    O614106   1.439   2.108  10.961  0.1015 -0.1624 -0.4437
    1TCq1    H114107   1.569   2.463  11.456  1.3126  2.9806 -1.9260
    1TCq1    H214108   1.294   2.285  11.267 -0.9351 -2.4626 -3.2344
    1TCq1    H314109   1.598   2.301  10.969 -3.5064  0.9699 -1.6929
    1TCq1    H414110   1.599   2.577  11.286 -1.0739 -0.3822  1.8893
    2MPD1     C14111   2.145   2.518  10.778 -0.6504 -0.0383 -0.3156
    2MPD1    C114112   2.069   2.407  10.746 -0.4143  0.6943 -0.8588
    2MPD1    C214113   1.949   2.391  10.811 -0.2288 -0.5896 -0.3602
    2MPD1    C314114   1.910   2.472  10.919  0.3587 -0.0182 -0.3466
    2MPD1    C414115   1.993   2.564  10.964 -0.3748  0.3727  0.5531
    2MPD1    C514116   2.116   2.586  10.898  0.0372  0.3878 -0.3790
    2MPD1     H14117   1.878   2.312  10.787  0.8032 -1.5428 -0.2625
    2MPD1    H114118   1.964   2.629  11.046 -0.3895  0.4665  0.4733
    2MPD1    H214119   2.234   2.554  10.727 -0.4053  1.1324  0.9493
    2MPD1    H314120   2.189   2.665  10.916  0.9390 -0.3597 -0.7552
    2MPD1     N14121   1.778   2.448  10.969  0.5389  1.2317  0.2426
    2MPD1    H514122   1.729   2.378  10.914  1.0301  0.3013  0.9873
    2MPD1    N114123   2.097   2.338  10.627 -0.3445  0.4460  0.3218
    2MPD1    H614124   2.190   2.353  10.588  0.3577  0.8004  2.1249
    2MPD1    H714125   2.087   2.237  10.630 -1.0704  0.5400  0.8723
    1TMC1    C114126   3.187   2.638   0.260 -0.6446  0.6169 -0.2954
    1TMC1    C214127   3.269   2.538   0.224  0.2183  0.2689 -0.1820
    1TMC1    C314128   3.217   2.417   0.218 -0.2324  0.0460  0.4782
    1TMC1    C414129   3.049   2.629   0.265  0.8075 -0.0886  0.1945
    1TMC1    C514130   3.002   2.498   0.252 -0.0683 -0.1826  0.1699
    1TMC1    C614131   3.086   2.392   0.233  0.2382  0.8792  0.8507
    1TMC1     C14132   3.250   2.746   0.329 -0.4475  0.2626 -0.6097
    1TMC1     O14133   3.362   2.757   0.287  0.4448  0.3859 -0.2987
    1TMC1     H14134   3.373   2.546   0.193  0.3606  1.3529  0.5774
    1TMC1    H114135   2.989   2.716   0.287  1.3015 -0.1080  1.6115
    1TMC1    H214136   3.050   2.290   0.232 -0.6650  1.1934  1.4721
    1TMC1    C714137   2.859   2.468   0.271 -0.4089  0.0065  0.0494
    1TMC1    C814138   3.308   2.310   0.175 -0.5068  0.2536  0.0564
    1TMC1    O114139   2.810   2.365   0.315 -0.0186  0.5497  0.8255
    1TMC1    O214140   3.409   2.322   0.108 -0.1679 -0.5310 -0.2296
    1TMC1    O314141   2.787   2.568   0.206 -0.1305 -0.0110  0.0034
    1TMC1    H314142   2.853   2.636   0.180 -0.5748  0.0611 -0.9303
    1TMC1    O514143   3.286   2.210   0.261  0.6076  0.3255  0.4361
    1TMC1    H514144   3.212   2.226   0.324 -0.6888 -2.5657 -0.3503
    2MPD1     C14145   3.307   3.093   0.691 -0.1105 -0.0676 -0.1359
    2MPD1    C114146   3.185   3.037   0.714 -0.1971 -0.4866  0.3914
    2MPD1    C214147   3.138   2.939   0.628  0.3389 -0.5441 -0.1631
    2MPD1    C314148   3.220   2.898   0.525  0.0986 -0.6643 -0.7588
    2MPD1    C414149   3.337   2.956   0.505 -0.0787  0.4574 -0.9653
    2MPD1    C514150   3.379   3.054   0.590  0.0250  0.0362  0.7673
    2MPD1     H14151   3.043   2.888   0.644  0.3609  0.0386  1.7883
    2MPD1    H114152   3.411   2.923   0.432 -1.7087 -1.2688 -1.8425
    2MPD1    H214153   3.349   3.169   0.757  0.7973  1.3000 -2.2852
    2MPD1    H314154   3.478   3.097   0.576  0.2742 -1.7246 -2.8886
    2MPD1     N14155   3.175   2.803   0.428 -0.0699 -0.1982  0.2484
    2MPD1    H514156   3.085   2.758   0.442 -0.6971  1.7981  2.5538
    2MPD1    N114157   3.098   3.090   0.813 -0.1257  0.5839 -0.4358
    2MPD1    H614158   3.143   3.130   0.894 -1.8527 -1.3389  1.4645
    2MPD1    H714159   3.033   3.022   0.852 -0.3114  0.1211 -1.5306
    1MPD1     C14160   3.249   1.618  11.206 -0.0524 -0.0261  0.0739
    1MPD1    C114161   3.134   1.575  11.267 -0.6405  0.3759  0.4467
    1MPD1    C214162   3.142   1.561  11.407  0.0428  1.1104 -0.1383
    1MPD1    C314163   3.265   1.545  11.463  0.0158  0.2565 -0.4218
    1MPD1    C414164   3.385   1.553  11.388 -0.6964 -0.6782 -0.5624
    1MPD1    C514165   3.372   1.602  11.260  0.4757  0.7023 -0.6554
    1MPD1     H14166   3.051   1.550  11.465 -0.9191  2.5940 -1.3436
    1MPD1    H114167   3.480   1.545  11.439 -1.6217 -0.9898  1.1283
    1MPD1    H214168   3.259   1.651  11.103 -1.6991 -0.4783 -0.2297
    1MPD1    H314169   3.459   1.612  11.196  0.1583  3.0739 -0.7209
    1MPD1     N14170   3.260   1.530  11.607 -0.2255 -0.3362 -0.1882
    1MPD1    H514171   3.168   1.529  11.650 -0.4156 -0.2482 -0.5932
    1MPD1    N114172   3.004   1.574  11.201 -0.4093 -0.2277 -0.3560
    1MPD1    H614173   2.938   1.519  11.255  1.4916 -2.2472 -0.0593
    1MPD1    H714174   3.021   1.540  11.106 -1.8700 -1.6228 -0.1058
    2MPD1     C14175   3.078   2.304  10.649 -0.7540  0.1598  1.2082
    2MPD1    C114176   3.127   2.406  10.572  0.1791 -0.0105  0.0102
    2MPD1    C214177   3.136   2.534  10.628  0.3198 -0.5539 -0.8876
    2MPD1    C314178   3.065   2.558  10.751 -1.2761 -0.4301 -0.1432
    2MPD1    C414179   2.997   2.455  10.810  0.4193 -0.3625 -0.4212
    2MPD1    C514180   2.999   2.333  10.757 -0.0528 -0.1907 -0.1566
    2MPD1     H14181   3.197   2.613  10.586 -1.1868 -0.0659 -2.1408
    2MPD1    H114182   2.940   2.472  10.901  0.5776 -0.5295 -0.2928
    2MPD1    H214183   3.090   2.198  10.635  1.1652  0.5204  0.1117
    2MPD1    H314184   2.953   2.252  10.814  2.3276 -0.4105  1.4813
    2MPD1     N14185   3.062   2.678  10.828 -0.3033  0.0416 -0.1565
    2MPD1    H514186   3.023   2.684  10.922  2.2996  1.0406  0.8572
    2MPD1    N114187   3.207   2.376  10.463  0.4598 -0.6089  0.1429
    2MPD1    H614188   3.167   2.298  10.412 -0.4316 -0.8509  1.2133
    2MPD1    H714189   3.203   2.442  10.386 -0.3323 -0.0972  0.6152
    3MPD1     C14190   3.833   3.157  10.662 -0.7126 -0.5248  0.0889
    3MPD1    C114191   3.763   3.045  10.628  0.3052 -0.3620  0.6108
    3MPD1    C214192   3.643   3.018  10.685  0.2378  0.1817  0.0271
    3MPD1    C314193   3.588   3.101  10.777  0.2506 -0.0659  0.9804
    3MPD1    C414194   3.654   3.218  10.811 -0.2004 -0.1678 -0.7100
    3MPD1    C514195   3.780   3.240  10.755  0.2245  0.1769 -0.3683
    3MPD1     H14196   3.592   2.929  10.651  0.2611  0.3286 -0.3860
    3MPD1    H114197   3.612   3.289  10.881 -1.9074 -0.7905 -1.1018
    3MPD1    H214198   3.926   3.186  10.613  0.3533 -1.9443  1.2652
    3MPD1    H314199   3.829   3.336  10.771 -1.8371  1.4148 -1.5285
    3MPD1     N14200   3.463   3.067  10.818 -0.1212  0.1003  0.3014
    3MPD1    H514201   3.424   2.977  10.792  0.5363 -0.2566  0.5641
    3MPD1    N114202   3.823   2.947  10.543 -0.7517 -0.0482  0.6602
    3MPD1    H614203   3.750   2.889  10.502 -0.7899  0.0608  0.5746
    3MPD1    H714204   3.873   2.992  10.466  0.5155 -0.1215  1.4380
    4MPD2     C14205   2.850   1.877  11.988 -0.1416  0.0440 -0.0055
    4MPD2    C114206   2.985   1.895  12.006 -0.2796  0.5342 -0.3230
    4MPD2    C214207   3.040   2.016  12.028  0.0111 -0.0294 -0.5225
    4MPD2    C314208   2.965   2.129  11.998  0.1398  0.2446 -1.0377
    4MPD2    C414209   2.838   2.117  11.972  0.1142  0.1381 -0.4973
    4MPD2    C514210   2.779   1.994  11.973 -0.3371 -0.3516 -0.1667
    4MPD2     H14211   3.143   2.010  12.062 -0.1958  0.9235  0.2898
    4MPD2    H114212   2.783   2.208  11.955 -1.5423 -0.7330  0.2388
    4MPD2    H214213   2.800   1.782  11.974  1.9828 -0.8926 -1.1988
    4MPD2    H314214   2.674   1.997  11.945 -0.0130 -1.4091 -1.4832
    4MPD2     N14215   3.016   2.256  12.001  0.1689 -0.0213  0.0295
    4MPD2    H514216   2.954   2.336  11.988 -0.9768 -1.0591 -0.8670
    4MPD2    N114217   3.073   1.782  12.019 -0.2805 -0.3405  0.5368
    4MPD2    H714218   3.165   1.796  12.061  0.5739  2.6201 -2.3269
    5TMC3    C114219   3.168   1.561  11.991 -0.0064  0.2724 -0.6703
    5TMC3    C214220   3.199   1.500  11.874  0.2527  0.1676  0.8219
    5TMC3    C314221   3.331   1.522  11.834  0.3091  0.2291  0.4435
    5TMC3    C414222   3.254   1.627  12.074 -0.8943 -0.2696 -0.1220
    5TMC3    C514223   3.383   1.641  12.026  0.2638 -0.0549  0.5226
    5TMC3    C614224   3.428   1.587  11.906  0.0809 -0.4417 -0.4652
    5TMC3     C14225   3.048   1.651  11.976  0.2741  0.1055  0.0178
    5TMC3     O14226   2.964   1.610  11.895 -0.5549 -0.0847 -0.1351
    5TMC3     H14227   3.128   1.440  11.819  1.4266 -0.8947  0.4465
    5TMC3    H114228   3.235   1.651  12.177  2.1341 -0.6401  0.5335
    5TMC3    H214229   3.523   1.612  11.859 -0.3652 -2.8074 -2.6419
    5TMC3    C714230   3.422   1.779  12.049 -0.1984 -0.0487  0.8661
    5TMC3    C814231   3.369   1.521  11.694 -0.1040 -0.1496 -0.7129
    5TMC3    O114232   3.341   1.853  12.108  0.5522 -0.2646  0.2139
    5TMC3    O214233   3.486   1.494  11.658 -0.2509  0.0332 -0.0573
    6TMC3    C114234   3.129   2.895  10.882 -0.2487 -0.2126 -0.0737
    6TMC3    C214235   3.207   2.993  10.842  0.2411 -0.2536 -0.0149
    6TMC3    C314236   3.255   3.084  10.931  0.2428  0.5749 -0.6897
    6TMC3    C414237   3.098   2.876  11.014 -0.1880 -0.0371  0.1395
    6TMC3    C514238   3.150   2.968  11.104  0.1981  0.6057 -0.1590
    6TMC3    C614239   3.235   3.071  11.065 -0.5286  0.1172 -0.6475
    6TMC3     C14240   3.119   2.791  10.782  0.0883 -0.2499 -0.3787
    6TMC3     O14241   3.143   2.827  10.664 -0.2036 -0.4599  0.4801
    6TMC3     H14242   3.234   3.002  10.737  1.3505  0.2367  0.3095
    6TMC3    H114243   3.055   2.784  11.052 -2.1042 -0.0238 -1.9560
    6TMC3    H214244   3.298   3.133  11.128  0.0741  1.7919 -2.8599
    6TMC3    C714245   3.157   2.920  11.247  0.1658  0.1178 -0.2188
    6TMC3    C814246   3.382   3.145  10.900 -0.4007  0.1706 -0.2195
    6TMC3    O114247   3.094   2.822  11.286  0.1768 -0.7584  0.3172
    6TMC3    O214248   3.410   3.242  10.969  0.0841 -0.5145 -0.8072
    7MPD2     C14249   3.724   2.187  11.947  0.6005 -0.1570  0.3614
    7MPD2    C114250   3.588   2.176  11.977 -0.7545  0.5144  0.1846
    7MPD2    C214251   3.531   2.049  11.991 -0.4870  0.2909 -0.5338
    7MPD2    C314252   3.604   1.936  11.984 -0.4669  0.6318 -0.4783
    7MPD2    C414253   3.745   1.948  11.961  0.7252 -0.1461 -0.1424
    7MPD2    C514254   3.795   2.075  11.938  0.3250  0.0984  0.1537
    7MPD2     H14255   3.428   2.046  12.024 -0.6766  0.4855 -1.0978
    7MPD2    H114256   3.812   1.864  11.952 -1.1422 -1.8116  1.4241
    7MPD2    H214257   3.765   2.287  11.939  0.7461 -0.0027  2.9760
    7MPD2    H314258   3.901   2.085  11.915  0.3279  0.9632  0.5458
    7MPD2     N14259   3.543   1.808  12.002 -0.1721  0.4420  0.5930
    7MPD2    H514260   3.606   1.729  11.992 -0.2716  0.5126 -0.5555
    7MPD2    N114261   3.500   2.283  12.001  0.0406  0.7412 -0.0277
    7MPD2    H714262   3.408   2.245  12.019  0.2083  0.5411  0.4140
    8TMC3    C114263   3.406   2.499  11.999 -0.2370  0.5717 -0.3586
    8TMC3    C214264   3.385   2.572  11.891  0.1846 -0.0242 -0.2811
    8TMC3    C314265   3.264   2.563  11.828 -0.8699 -0.4383 -0.2897
    8TMC3    C414266   3.301   2.439  12.055  0.0116  0.5408 -0.0651
    8TMC3    C514267   3.176   2.426  12.003 -0.2978 -0.2317 -1.1736
    8TMC3    C614268   3.160   2.489  11.882  0.2512 -0.1468 -0.5414
    8TMC3     C14269   3.527   2.416  11.991  0.1956  0.6721 -0.8163
    8TMC3     O14270   3.631   2.470  11.957  0.4300 -0.0675 -0.7672
    8TMC3     H14271   3.475   2.602  11.838  1.4102 -0.1910  1.6959
    8TMC3    H114272   3.315   2.386  12.148 -1.3928  1.0722  0.4470
    8TMC3    H214273   3.068   2.487  11.824 -0.8475 -1.4393  1.2280
    8TMC3    C714274   3.146   2.286  12.013  0.6391 -1.1915 -0.6346
    8TMC3    C814275   3.246   2.658  11.718 -0.2441  0.0696  0.2504
    8TMC3    O114276   3.241   2.212  12.012 -0.0146  0.1335 -0.5073
    8TMC3    O214277   3.154   2.628  11.644 -0.2948  0.0058  0.1398
    9MPD2     C14278   3.368   3.000  11.728  0.1685 -0.0128  0.1838
    9MPD2    C114279   3.306   2.891  11.669  0.3079  0.5151 -0.5130
    9MPD2    C214280   3.267   2.886  11.533 -0.7192 -0.0605  0.6060
    9MPD2    C314281   3.283   2.992  11.453 -0.4390  0.1674 -0.2641
    9MPD2    C414282   3.335   3.106  11.510 -0.2596  0.1802  0.8307
    9MPD2    C514283   3.383   3.106  11.640  0.2515 -0.1475 -0.2562
    9MPD2     H14284   3.222   2.800  11.485 -1.1202 -0.4322  1.6591
    9MPD2    H114285   3.319   3.204  11.466 -1.2869  0.1698  1.1855
    9MPD2    H214286   3.403   2.991  11.830 -4.3339  1.1203  1.7941
    9MPD2    H314287   3.420   3.204  11.669  0.2086  1.0645 -4.3176
    9MPD2     N14288   3.237   2.999  11.325  0.2028 -0.8497 -0.5209
    9MPD2    H514289   3.264   3.086  11.281  3.2933 -0.8849  1.3154
    9MPD2    N114290   3.308   2.775  11.746 -0.4717  0.2441 -0.2315
    9MPD2    H714291   3.347   2.792  11.838  0.1508  0.6866 -0.5754
    1MPD1     C14292   2.431   4.659  16.623  0.0736  0.0709 -0.6587
    1MPD1    C114293   2.453   0.052  16.576 -0.2863  0.1906 -0.9264
    1MPD1    C214294   2.510   0.062  16.456 -0.6626  0.2825 -0.2198
    1MPD1    C314295   2.556   4.692  16.382 -0.1885  0.0290 -0.7006
    1MPD1    C414296   2.541   4.569  16.437  0.2865 -0.6571  0.1637
    1MPD1    C514297   2.480   4.548  16.554  0.1813  0.4362  0.2067
    1MPD1     H14298   2.527   0.163  16.421 -1.8709  0.5389 -0.0673
    1MPD1    H114299   2.574   4.483  16.380  2.4419  0.6526 -0.5737
    1MPD1    H214300   2.383   4.648  16.720 -0.4754 -0.0486 -0.9482
    1MPD1    H314301   2.443   4.452  16.588  0.7127 -0.4999 -1.9020
    1MPD1     N14302   2.599   4.694  16.249  0.0672 -0.4735 -0.2950
    1MPD1    H514303   2.618   4.606  16.202  0.3046 -1.1599  1.1053
    1MPD1    N114304   2.394   0.157  16.641  0.6590  0.1614  0.0029
    1MPD1    H614305   2.441   0.245  16.622 -0.7713  0.7143 -0.8863
    1MPD1    H714306   2.408   0.149  16.742 -0.3572 -3.2615 -0.1222
    2TMC2    C114307   2.658   0.119  15.806  0.4754 -0.8009 -0.3492
    2TMC2    C214308   2.670   4.724  15.759 -0.2980  0.8313 -0.6761
    2TMC2    C314309   2.666   4.628  15.848 -0.0546  0.8500 -0.6408
    2TMC2    C414310   2.644   0.143  15.938  0.4423  0.1094  0.0993
    2TMC2    C514311   2.638   0.033  16.026  0.3206  0.3520  0.0629
    2TMC2    C614312   2.654   4.646  15.983 -0.0219 -0.2278  0.2116
    2TMC2     C14313   2.675   0.230  15.713  0.3895  0.0917  0.4344
    2TMC2     O14314   2.743   0.208  15.617  0.0004 -0.3856 -0.1488
    2TMC2     H14315   2.670   4.716  15.651 -2.5003  0.6705 -0.6697
    2TMC2    H114316   2.634   0.244  15.975  0.0223  0.5523 -1.2094
    2TMC2    H214317   2.639   4.559  16.046 -0.6075 -0.3040 -0.0374
    2TMC2    C714318   2.610   0.065  16.168  0.2956  0.0598 -0.3966
    2TMC2    C814319   2.645   4.488  15.804  0.1470  0.6153  0.0991
    2TMC2    O114320   2.591   0.180  16.190  0.1232  0.1679  0.2809
    2TMC2    O214321   2.594   4.406  15.884  0.2258  0.2226 -0.5032
    2TMC2    O514322   2.725   4.469  15.700 -0.3612  0.4811 -0.4207
    2TMC2    H514323   2.762   4.553  15.665 -0.4362 -0.5984 -3.0874
    3MPD1     C14324   2.463   0.618  15.465  0.4800 -0.3237 -0.4438
    3MPD1    C114325   2.366   0.556  15.534  0.9074 -0.8651  0.0689
    3MPD1    C214326   2.406   0.469  15.630 -0.1861 -0.1555  0.5084
    3MPD1    C314327   2.533   0.413  15.632 -0.4649  0.5597 -0.3491
    3MPD1    C414328   2.630   0.464  15.548 -0.0884 -0.3303  0.6476
    3MPD1    C514329   2.593   0.573  15.471 -0.4410  0.4754 -0.5902
    3MPD1     H14330   2.340   0.443  15.712 -0.1189  2.1793  1.2787
    3MPD1    H114331   2.735   0.438  15.559  0.1706  0.5488  0.2006
    3MPD1    H214332   2.442   0.695  15.392  1.7326  1.0624  0.6591
    3MPD1    H314333   2.671   0.631  15.423 -0.1257 -0.0802 -0.7565
    3MPD1     N14334   2.569   0.312  15.729 -0.5392  0.0985 -0.7804
    3MPD1    H514335   2.493   0.287  15.791  0.2352 -0.5691 -0.0896
    3MPD1    N114336   2.236   0.606  15.533  0.6936 -0.0718  0.5124
    3MPD1    H614337   2.199   0.638  15.443  1.8003  0.9287  0.4070
    3MPD1    H714338   2.181   0.527  15.565 -2.2300  1.8445  0.2034
    1TMC1    C114339   1.688   4.664  13.178  0.7139 -0.1016  0.4172
    1TMC1    C214340   1.619   4.545  13.151  0.4836 -0.7348  0.0462
    1TMC1    C314341   1.491   4.563  13.103 -0.5852 -0.6481  0.2073
    1TMC1    C414342   1.635   0.050  13.140  0.4767 -0.4720  0.2528
    1TMC1    C514343   1.515   0.049  13.076 -0.8878 -0.2020 -0.0811
    1TMC1    C614344   1.433   4.682  13.065 -0.3731 -0.1988 -0.0365
    1TMC1     C14345   1.821   4.656  13.224  0.0972 -0.4410 -0.2880
    1TMC1     O14346   1.873   4.547  13.212  0.0801  0.0806  0.2061
    1TMC1     H14347   1.656   4.455  13.199  1.2869  0.5568  1.8558
    1TMC1    H114348   1.694   0.139  13.159  0.6975 -1.2580  3.2482
    1TMC1    H214349   1.345   4.675  13.002  0.2622 -0.5910 -0.8858
    1TMC1    C714350   1.482   0.168  13.005 -0.2007 -0.0617 -0.2843
    1TMC1    C814351   1.397   4.458  13.103  0.5479  1.1035  0.8472
    1TMC1    O114352   1.567   0.256  12.999  0.3635 -0.2500  0.2468
    1TMC1    O214353   1.277   4.468  13.073 -0.1636 -0.6182  0.3188
    1TMC1    O314354   1.348   0.173  12.972  0.5707 -0.2556 -0.1825
    1TMC1    H314355   1.290   0.112  13.022 -1.5297  1.0999 -0.9467
    1TMC1    O514356   1.462   4.348  13.128  0.2620  0.0248 -0.0732
    1TMC1    H514357   1.558   4.359  13.142  0.0974  2.0712 -0.5024
    2MPD2     C14358   2.085   4.687  13.341  0.0307 -0.5332 -0.4478
    2MPD2    C114359   1.984   0.036  13.369  0.3339 -0.2788  0.3670
    2MPD2    C214360   2.000   0.129  13.473 -0.3723 -0.2390 -0.2195
    2MPD2    C314361   2.102   0.129  13.561  0.1674 -0.1931  0.9290
    2MPD2    C414362   2.209   0.053  13.528 -0.5100  0.3889 -0.0498
    2MPD2    C514363   2.204   4.704  13.418  0.3815  0.0110 -0.7942
    2MPD2     H14364   1.933   0.212  13.491 -1.3724 -1.1186  0.1195
    2MPD2    H114365   2.304   0.064  13.579 -0.7229 -0.2929  0.4922
    2MPD2    H214366   2.086   4.625  13.252 -2.0885 -0.3737 -0.5907
    2MPD2    H314367   2.288   4.637  13.403  0.7976 -0.0458  1.8033
    2MPD2     N14368   2.098   0.215  13.674 -0.5693 -0.3972  0.3644
    2MPD2    H514369   2.017   0.276  13.682  1.8370  2.3698  3.4298
    2MPD2    N114370   1.865   0.028  13.292 -0.2057 -0.1740 -0.4295
    2MPD2    H714371   1.795   0.100  13.305  0.1819  0.5053 -2.1229
    3TCq1    O114372   1.872   0.347  14.244 -0.2947 -0.2529  0.0387
    3TCq1    C114373   1.986   0.305  14.193  0.4520 -0.2609 -0.1002
    3TCq1    O214374   2.068   0.237  14.250  0.7401 -1.0017  0.8267
    3TCq1    C214375   2.010   0.348  14.059  0.2370  0.1176 -0.2486
    3TCq1    C314376   1.954   0.465  14.015 -0.3856 -0.0132 -0.1507
    3TCq1    C414377   1.983   0.511  13.888  0.4824 -0.0099 -0.6170
    3TCq1    C514378   2.071   0.438  13.811  0.5532  0.3050  0.3074
    3TCq1    C614379   2.137   0.330  13.868 -0.2816  0.1740 -0.1054
    3TCq1    C714380   2.108   0.284  13.990 -0.1886 -0.7497  0.4787
    3TCq1    C814381   2.191   0.228  13.777 -0.2903  0.2566  0.2661
    3TCq1    O414382   2.295   0.159  13.801  1.1682  0.3390  1.0734
    3TCq1    C914383   1.927   0.640  13.840 -0.4040  0.0693  0.7612
    3TCq1    O514384   1.841   0.694  13.911 -0.0818  0.4876  0.0996
    3TCq1    O614385   1.967   0.685  13.731  0.5510  0.1429  0.3332
    3TCq1    H114386   1.802   0.365  14.179  2.6751  1.4196 -2.7100
    3TCq1    H214387   1.893   0.531  14.077  1.9529  0.8976  1.1725
    3TCq1    H314388   2.095   0.466  13.709 -2.1743 -2.4498 -1.0959
    3TCq1    H414389   2.143   0.187  14.024 -0.5604 -0.8439  0.5992
    1MPD2     C14390   1.046   1.171  14.850 -0.2114 -0.3499  0.7466
    1MPD2    C114391   0.937   1.149  14.774 -0.9681  0.3370 -0.2128
    1MPD2    C214392   0.908   1.020  14.751 -0.5247  0.5255  0.2977
    1MPD2    C314393   0.982   0.913  14.798  0.5674  0.0833 -0.7395
    1MPD2    C414394   1.094   0.941  14.870  0.6943  0.7128 -0.3116
    1MPD2    C514395   1.126   1.067  14.889 -0.3902 -0.3392 -0.3040
    1MPD2     H14396   0.823   0.991  14.689 -0.1817  0.3196 -0.0796
    1MPD2    H114397   1.159   0.860  14.903  0.7965  0.4623 -1.1329
    1MPD2    H214398   1.069   1.272  14.880  0.9582  0.5139 -2.9980
    1MPD2    H314399   1.205   1.082  14.961 -2.2168  0.6320  1.5140
    1MPD2     N14400   0.953   0.782  14.781  0.3632  0.7590 -0.5338
    1MPD2    H514401   1.026   0.719  14.812 -0.1398  0.2666 -0.3638
    1MPD2    N114402   0.857   1.257  14.730 -0.6465 -0.7306 -0.1483
    1MPD2    H714403   0.897   1.349  14.740 -1.6256 -0.4594  1.2685
    2TMC3    C114404   0.711   1.354  14.574 -0.7204 -0.1030 -0.6303
    2TMC3    C214405   0.642   1.297  14.474  0.0223  0.5377 -0.5608
    2TMC3    C314406   0.517   1.344  14.454  0.3354  0.6832 -0.7980
    2TMC3    C414407   0.670   1.480  14.620  0.0346 -0.2391  0.6715
    2TMC3    C514408   0.551   1.535  14.570  0.5353  0.2694  0.2786
    2TMC3    C614409   0.467   1.457  14.499  0.4818 -0.5102  0.8878
    2TMC3     C14410   0.736   1.249  14.671  0.7649 -0.4773  0.2531
    2TMC3     O14411   0.656   1.154  14.652 -0.0872 -0.4416  0.0023
    2TMC3     H14412   0.677   1.207  14.425  0.5347  0.7696 -0.6128
    2TMC3    H114413   0.717   1.539  14.698 -1.4682  0.9988  0.6392
    2TMC3    H214414   0.369   1.498  14.481  0.9643  0.2728 -0.0074
    2TMC3    C714415   0.488   1.648  14.628  0.8081 -0.8502  0.4090
    2TMC3    C814416   0.411   1.250  14.424  0.2848 -1.5787 -0.4921
    2TMC3    O114417   0.374   1.642  14.669  0.0010  0.3832 -0.2354
    2TMC3    O214418   0.318   1.281  14.350 -0.0858  0.1884  0.5210
    3TCq1    O114419   0.663   2.542  14.035 -0.2310 -0.1926  0.2162
    3TCq1    C114420   0.794   2.535  14.046 -0.1700  0.0682 -0.0790
    3TCq1    O214421   0.879   2.605  13.992 -0.1117 -0.4539 -0.2639
    3TCq1    C214422   0.825   2.497  14.186  0.3559 -0.8610  0.0516
    3TCq1    C314423   0.957   2.451  14.214  0.1435 -0.8704 -0.0924
    3TCq1    C414424   0.989   2.383  14.326 -0.1370 -0.8507  0.4043
    3TCq1    C514425   0.892   2.342  14.411 -0.5469 -0.2745 -0.1180
    3TCq1    C614426   0.771   2.384  14.376 -0.1601  0.1905  0.2313
    3TCq1    C714427   0.728   2.468  14.274 -0.7578 -0.4176  0.4636
    3TCq1    C814428   0.662   2.338  14.453 -0.0546 -1.0882 -0.5227
    3TCq1    O414429   0.554   2.403  14.449  0.4578  0.3353  0.1152
    3TCq1    C914430   1.128   2.355  14.345 -0.2693 -0.7182 -0.5573
    3TCq1    O514431   1.153   2.303  14.455 -0.1086  0.1660 -0.0716
    3TCq1    O614432   1.214   2.397  14.264  0.5473  0.8466  0.0294
    3TCq1    H114433   0.609   2.479  14.088  0.5117 -0.0062  1.2097
    3TCq1    H214434   1.037   2.477  14.145  0.7767 -1.4201  0.4428
    3TCq1    H314435   0.917   2.292  14.504  0.6795 -4.3171 -2.6131
    3TCq1    H414436   0.628   2.509  14.272 -0.6333 -0.0782  1.4398
    4MPD2     C14437   0.466   2.164  14.598  1.1666  0.3624 -0.3663
    4MPD2    C114438   0.593   2.122  14.561 -0.7136 -0.4970  0.1286
    4MPD2    C214439   0.627   1.990  14.578 -0.1895  0.4284 -0.8065
    4MPD2    C314440   0.529   1.897  14.615  0.1782  0.2553 -0.2227
    4MPD2    C414441   0.404   1.939  14.649 -0.1549 -0.1380 -0.3223
    4MPD2    C514442   0.375   2.072  14.643  0.1014 -0.0167 -0.3327
    4MPD2     H14443   0.729   1.965  14.549  0.4831  1.3013  0.7732
    4MPD2    H114444   0.328   1.869  14.681 -0.2415  0.1013 -0.0036
    4MPD2    H214445   0.428   2.265  14.591 -2.2479 -0.9452 -0.8838
    4MPD2    H314446   0.278   2.106  14.678 -0.1919 -1.2024  0.0155
    4MPD2     N14447   0.566   1.757  14.613  0.5652 -0.0940  1.0203
    4MPD2    H514448   0.654   1.734  14.569  0.7424 -0.0728  1.3619
    4MPD2    N114449   0.686   2.216  14.504 -0.2255 -0.1627  0.0504
    4MPD2    H714450   0.772   2.175  14.470 -0.7531  0.3573 -1.8874
    5TMC2    C114451   0.675   0.497  14.524  0.4729  0.0603  0.1421
    5TMC2    C214452   0.773   0.479  14.431 -0.0271  0.4120  0.2873
    5TMC2    C314453   0.898   0.525  14.458  0.2919 -0.4297 -0.1450
    5TMC2    C414454   0.710   0.551  14.649 -0.4437 -0.4839  0.2075
    5TMC2    C514455   0.836   0.601  14.663  0.3978 -0.3132 -0.3599
    5TMC2    C614456   0.931   0.594  14.569  0.2196  0.6512  0.0405
    5TMC2     C14457   0.561   0.550  14.462 -0.2699  0.6400 -0.0944
    5TMC2     O14458   0.521   0.486  14.365  0.1839  0.2669  0.5737
    5TMC2     H14459   0.746   0.458  14.328 -1.7440 -0.0377  0.8351
    5TMC2    H114460   0.637   0.568  14.726  0.5169  0.6317  0.8771
    5TMC2    H214461   1.033   0.624  14.590 -0.2743  1.6386  0.9796
    5TMC2    C714462   0.831   0.727  14.740  0.1545 -0.9804 -0.0987
    5TMC2    C814463   1.002   0.488  14.365 -0.5764  0.6187  0.7886
    5TMC2    O114464   0.722   0.782  14.725 -0.2474  0.1500 -0.2208
    5TMC2    O214465   0.979   0.400  14.285  0.3479  0.5238 -0.1175
    5TMC2    O514466   1.083   0.595  14.334  0.1068 -0.0142 -0.4139
    5TMC2    H514467   1.098   0.667  14.399  0.9761  0.0519 -0.6892
    6MPD2     C14468   0.297   0.977  14.340 -0.1784 -0.1846  0.4874
    6MPD2    C114469   0.397   0.999  14.437  0.6520  0.8603  0.0171
    6MPD2    C214470   0.466   0.896  14.492 -0.0937 -0.4551  0.4718
    6MPD2    C314471   0.443   0.771  14.446  0.2260  0.5996 -0.1685
    6MPD2    C414472   0.350   0.741  14.355  0.3789  0.6119 -0.0585
    6MPD2    C514473   0.278   0.844  14.302 -0.3439 -0.7492  0.1890
    6MPD2     H14474   0.543   0.913  14.566 -0.5740 -1.2488  1.1437
    6MPD2    H114475   0.329   0.640  14.320 -1.7967  0.9101  0.3844
    6MPD2    H214476   0.245   1.050  14.280 -0.0895 -1.6843 -1.4106
    6MPD2    H314477   0.213   0.806  14.223  0.7696 -1.5553 -0.3325
    6MPD2     N14478   0.529   0.678  14.503  0.7128 -0.0782 -0.1277
    6MPD2    H514479   0.579   0.719  14.582 -0.5112  1.0910  0.0323
    6MPD2    N114480   0.445   1.127  14.475  0.3589 -0.2662  0.0830
    6MPD2    H714481   0.520   1.130  14.544  0.9126 -1.7792 -0.4658
  945NH3     N114482   0.999   4.529  14.654 -0.2346  0.0126  0.4628
  945NH3     H214483   1.009   4.571  14.562 -2.4279 -0.2688  0.1005
  945NH3     H314484   1.007   4.606  14.720 -1.4738  0.1037  0.5089
  945NH3     H414485   1.091   4.488  14.665 -0.3872 -0.4980 -0.1638
  946SOD     NA14486   4.002   4.270  13.095 -0.2530  0.0216  0.0285
  947SOD     NA14487   2.247   0.582  12.247  0.5282  0.3548  0.2286
  948SOD     NA14488   0.715   2.132   6.926 -0.3072 -0.3841 -0.3074
  949SOD     NA14489   1.915   2.384  10.190  0.1565 -0.0727 -0.2756
  950SOD     NA14490   4.003   1.524   4.601  0.1113  0.1509 -0.7876
  951SOD     NA14491   3.760   4.229   9.751  0.1043 -0.4349 -0.2026
  952SOD     NA14492   4.413   2.605   4.559  0.3952 -0.0566 -0.5165
  953SOD     NA14493   3.449   1.036  15.947 -0.3654 -0.0548  0.2147
  954SOL     OW14494   0.465   0.377   1.193  0.3575  0.3746 -0.0032
  954SOL    HW114495   0.433   0.356   1.280  1.0009  2.5366  0.7498
  954SOL    HW214496   0.493   0.468   1.203  1.6433 -0.1397  1.0753
  955SOL     OW14497   1.900   2.072  13.885 -0.3094  0.2491 -0.0472
  955SOL    HW114498   1.902   1.986  13.843  1.8244  0.5565 -0.5692
  955SOL    HW214499   1.807   2.085  13.903 -0.4966 -1.5477  0.2701
  956SOL     OW14500   3.337   2.746   3.715 -0.1999  0.2419 -0.2415
  956SOL    HW114501   3.241   2.745   3.716 -0.2067 -0.1165 -0.8718
  956SOL    HW214502   3.355   2.735   3.808  0.6330 -1.5124 -0.6143
  957SOL     OW14503   1.242   2.995  13.966  0.5735 -0.2982  0.3209
  957SOL    HW114504   1.205   2.911  13.991  2.1613 -0.5414  1.9273
  957SOL    HW214505   1.334   2.976  13.983  0.5784 -1.0076 -0.4963
  958SOL     OW14506   3.688   3.843   4.886 -0.0043  0.1033  0.1116
  958SOL    HW114507   3.678   3.890   4.803  0.8447 -0.3301 -0.2461
  958SOL    HW214508   3.639   3.907   4.937  1.2704  1.9562 -0.9833
  959SOL     OW14509   4.257   0.510  16.178 -0.1421 -0.1215 -0.2512
  959SOL    HW114510   4.352   0.506  16.190 -0.1255  3.0343  0.6215
  959SOL    HW214511   4.235   0.421  16.207  1.4596  0.2769  2.2356
  960SOL     OW14512   1.898   2.957  16.926 -0.3893  0.6816 -0.2558
  960SOL    HW114513   1.844   3.036  16.931 -0.6419  0.4810  0.2046
  960SOL    HW214514   1.845   2.897  16.873  0.1975 -0.8522  0.8843
  961SOL     OW14515   0.092   2.310   2.364  0.0247  0.0187 -0.2757
  961SOL    HW114516   0.034   2.248   2.319 -2.1924  1.9637 -0.0848
  961SOL    HW214517   0.175   2.262   2.357  0.2483 -0.2442  4.4068
  962SOL     OW14518   0.333   3.629  11.826  0.5891 -0.1802 -0.3307
  962SOL    HW114519   0.354   3.571  11.899  0.4823 -0.4777 -0.5349
  962SOL    HW214520   0.320   3.560  11.761 -2.1602  0.7225 -0.7175
  963SOL     OW14521   3.124   2.495   8.072 -0.3543  0.4535  0.4097
  963SOL    HW114522   3.098   2.517   8.161  0.5407  0.1533  0.7359
  963SOL    HW214523   3.161   2.580   8.045 -1.1481  0.2242 -1.4552
  964SOL     OW14524   4.563   3.774   8.798  0.3666 -0.6798  0.9819
  964SOL    HW114525   4.509   3.840   8.755 -0.1391 -2.3900 -1.0008
  964SOL    HW214526   4.500   3.708   8.827  1.3239 -2.2578 -0.5261
  965SOL     OW14527   4.240   2.064   9.867 -0.1276 -0.3387  0.4535
  965SOL    HW114528   4.151   2.034   9.886 -0.3727 -0.8514 -1.5690
  965SOL    HW214529   4.246   2.022   9.782 -1.5187  0.0827  0.1488
  966SOL     OW14530   0.202   2.945   5.204  0.4549 -0.4417 -0.2150
  966SOL    HW114531   0.195   3.035   5.236 -0.5582 -0.3575 -0.6706
  966SOL    HW214532   0.115   2.916   5.233  0.3658 -2.0212 -2.0851
  967SOL     OW14533   0.599   0.235  10.013 -0.6452 -0.2252  0.5511
  967SOL    HW114534   0.655   0.305  10.048  1.7653 -1.6468 -0.4036
  967SOL    HW214535   0.650   0.205   9.938 -2.6459  0.6827 -1.1434
  968SOL     OW14536   0.276   0.680  15.840 -0.0709  0.3854  0.1532
  968SOL    HW114537   0.334   0.613  15.805  0.1595 -0.1362  1.5476
  968SOL    HW214538   0.262   0.730  15.759  3.4150 -1.6706 -1.7251
  969SOL     OW14539   1.147   3.027   5.789 -0.4680  0.2024  0.4514
  969SOL    HW114540   1.219   3.028   5.853  0.5664 -1.0541 -0.6927
  969SOL    HW214541   1.094   2.951   5.817  1.2551 -0.4830  1.8892
  970SOL     OW14542   0.667   4.251   7.200 -0.3251 -0.2504 -0.2924
  970SOL    HW114543   0.673   4.271   7.106  2.1441  0.3145  0.0007
  970SOL    HW214544   0.616   4.328   7.225 -0.0694 -0.0268 -0.4636
  971SOL     OW14545   4.576   3.421   4.254  0.3640  0.4275  0.1062
  971SOL    HW114546   4.668   3.447   4.243 -0.0488  0.7595 -2.6416
  971SOL    HW214547   4.585   3.370   4.334 -0.4936 -0.1061 -0.1366
  972SOL     OW14548   4.737   3.820   7.172 -0.3382 -0.4352  0.5076
  972SOL    HW114549   0.021   3.746   7.230 -2.1564 -1.5713 -0.2552
  972SOL    HW214550   0.085   3.862   7.175 -1.0175  0.9847 -0.3431
  973SOL     OW14551   1.304   0.841  12.395 -0.4752 -0.3289 -0.4220
  973SOL    HW114552   1.315   0.782  12.469  2.2734 -0.9150 -1.3029
  973SOL    HW214553   1.209   0.848  12.386 -0.7229 -1.5031  1.3399
  974SOL     OW14554   2.167   4.281   7.970 -0.1451  0.2260 -0.4507
  974SOL    HW114555   2.167   4.224   7.893  1.6220  0.2842 -0.5041
  974SOL    HW214556   2.099   4.339   7.938  1.0894  1.6891 -0.4119
  975SOL     OW14557   1.454   2.711  15.321 -0.0271  0.3645  0.3623
  975SOL    HW114558   1.445   2.784  15.382  0.9537  1.1709 -0.4651
  975SOL    HW214559   1.365   2.685  15.301  0.5348 -0.9116 -0.4499
  976SOL     OW14560   2.531   2.369   1.663  0.4713 -0.1887  0.1125
  976SOL    HW114561   2.522   2.365   1.759  0.5073  1.1655  0.1737
  976SOL    HW214562   2.559   2.458   1.647 -0.0160 -0.1169 -0.3310
  977SOL     OW14563   3.191   4.481  14.154  0.1718 -0.0969  0.5475
  977SOL    HW114564   3.250   4.443  14.089  0.3340  1.2859 -0.1118
  977SOL    HW214565   3.148   4.547  14.099  0.9291  1.7507  2.1833
  978SOL     OW14566   1.402   2.380  13.838 -0.2691 -0.1680 -0.1776
  978SOL    HW114567   1.351   2.303  13.866  0.2678 -0.2162  0.6711
  978SOL    HW214568   1.406   2.438  13.914  0.8130 -1.6333  0.8850
  979SOL     OW14569   0.745   0.300   3.701 -0.6279 -0.4066  0.4084
  979SOL    HW114570   0.684   0.233   3.672  1.8263 -1.7224 -1.6393
  979SOL    HW214571   0.688   0.359   3.751 -0.0927  0.4465  0.0198
  980SOL     OW14572   0.347   1.266   6.994  0.3058 -0.0098 -0.2569
  980SOL    HW114573   0.440   1.253   7.014  0.4252  1.6000  0.2671
  980SOL    HW214574   0.307   1.180   7.006 -0.2824  0.1340 -1.1256
  981SOL     OW14575   3.318   0.380  11.530 -0.1714  0.2082 -0.1356
  981SOL    HW114576   3.353   0.294  11.506  0.9030  0.3245  1.0424
  981SOL    HW214577   3.358   0.390  11.616 -2.6064  0.6681  0.9213
  982SOL     OW14578   3.686   1.577   3.578 -0.5455  0.1227  0.5250
  982SOL    HW114579   3.689   1.618   3.492  0.6558  0.0958  0.5583
  982SOL    HW214580   3.760   1.624   3.616 -3.5601  2.5521  3.4385
  983SOL     OW14581   3.604   4.194   1.972  0.3686  0.4369  0.0037
  983SOL    HW114582   3.584   4.109   1.931  1.4327 -0.5246  1.5015
  983SOL    HW214583   3.541   4.258   1.940 -0.2134  0.2658  0.7988
  984SOL     OW14584   3.799   2.281   7.758 -0.2569 -0.2273 -0.7481
  984SOL    HW114585   3.835   2.204   7.803 -1.5262  0.3569  1.2266
  984SOL    HW214586   3.710   2.285   7.791  0.3310  0.4841  0.7648
  985SOL     OW14587   4.710   3.853  16.634 -0.6461  0.3409 -0.0615
  985SOL    HW114588   4.623   3.832  16.669 -1.1961  1.4270 -0.7486
  985SOL    HW214589   4.712   3.946  16.658  0.9198 -0.0293  1.2400
  986SOL     OW14590   1.918   1.822   8.573  0.2591  0.0778  0.1556
  986SOL    HW114591   1.882   1.789   8.491  1.4545 -0.2012 -0.2639
  986SOL    HW214592   1.843   1.798   8.626 -0.1973  0.9618 -0.0962
  987SOL     OW14593   0.145   4.026   5.176  0.1001 -0.1855 -0.2648
  987SOL    HW114594   0.216   4.049   5.116  1.8501 -0.0464  1.8938
  987SOL    HW214595   0.068   4.016   5.120  1.2872  0.7345 -2.0420
  988SOL     OW14596   4.261   4.384   1.784  0.2746 -0.0294 -0.0450
  988SOL    HW114597   4.228   4.449   1.721 -1.9755 -0.4868  0.6754
  988SOL    HW214598   4.201   4.313   1.760 -0.4240  0.9938 -1.3324
  989SOL     OW14599   4.261   4.333   8.529  0.6161 -0.2254  0.5518
  989SOL    HW114600   4.284   4.426   8.536 -0.4046  0.3368 -4.1957
  989SOL    HW214601   4.167   4.333   8.546  0.3078  0.1599 -1.2118
  990SOL     OW14602   1.818   1.886  15.428  0.0144 -0.6778  0.4379
  990SOL    HW114603   1.793   1.849  15.513  0.3200  1.4409  1.4361
  990SOL    HW214604   1.747   1.950  15.424 -1.6989 -2.5675  0.0784
  991SOL     OW14605   2.151   4.160   7.729 -0.2826  0.5660 -0.0599
  991SOL    HW114606   2.150   4.211   7.648 -1.3863  0.4789 -0.1032
  991SOL    HW214607   2.189   4.075   7.708 -0.2471  0.2842  1.1609
  992SOL     OW14608   3.360   4.140  16.128 -0.4165 -0.1086 -0.1383
  992SOL    HW114609   3.280   4.091  16.146 -0.6046 -0.3388 -1.5412
  992SOL    HW214610   3.330   4.230  16.121 -0.5510 -0.1258  0.2470
  993SOL     OW14611   1.000   2.321   9.117 -0.0256 -0.5459 -0.3348
  993SOL    HW114612   1.035   2.366   9.040  0.2651 -1.2441 -0.6158
  993SOL    HW214613   1.083   2.290   9.153 -0.5139 -1.1068  0.2971
  994SOL     OW14614   1.123   0.185   1.980 -0.1461 -0.7530  0.8997
  994SOL    HW114615   1.038   0.226   1.967  0.5859  0.8163  1.1192
  994SOL    HW214616   1.168   0.239   2.045 -0.3722  0.7549 -0.1919
  995SOL     OW14617   0.923   1.414  16.716  0.2156 -0.0969 -0.8207
  995SOL    HW114618   0.845   1.379  16.673  1.5623 -1.4599 -2.1587
  995SOL    HW214619   0.972   1.332  16.706 -0.7228 -0.7047 -0.4475
  996SOL     OW14620   2.957   1.365   1.881  0.6084  0.0066 -0.5977
  996SOL    HW114621   3.036   1.327   1.919  0.4283 -0.8802 -1.1061
  996SOL    HW214622   2.921   1.279   1.859 -2.8834  1.0180  1.1382
  997SOL     OW14623   1.815   0.926   4.906 -0.3933 -0.2794 -0.5656
  997SOL    HW114624   1.788   0.947   4.995 -1.8865 -0.5592 -0.9545
  997SOL    HW214625   1.890   0.867   4.916  1.4753  2.0848 -0.7809
  998SOL     OW14626   2.730   1.224  15.335 -0.0961  0.1252  0.4726
  998SOL    HW114627   2.721   1.177  15.417 -1.2149  0.3948  0.5140
  998SOL    HW214628   2.648   1.275  15.333  0.1056  0.3485 -2.3505
  999SOL     OW14629   4.155   3.415  16.471 -0.5510  0.1059 -0.2272
  999SOL    HW114630   4.224   3.353  16.447  0.4321  0.5104  1.5960
  999SOL    HW214631   4.074   3.365  16.480 -0.5358 -0.3427 -2.5304
 1000SOL     OW14632   2.085   2.738   7.109  0.0388  0.2750  0.1382
 1000SOL    HW114633   2.052   2.677   7.043  0.0000  1.3577 -0.8434
 1000SOL    HW214634   2.167   2.694   7.132  1.3850  3.5471  1.6638
 1001SOL     OW14635   2.067   4.228   3.707  0.1474 -0.5088  0.0756
 1001SOL    HW114636   2.056   4.310   3.754 -0.9922  0.1816 -1.4135
 1001SOL    HW214637   2.158   4.208   3.727  0.0744  1.0296  1.9052
 1002SOL     OW14638   4.386   1.569   5.746 -0.5426  0.0629  0.1496
 1002SOL    HW114639   4.368   1.479   5.771  0.0687  0.2881  1.3871
 1002SOL    HW214640   4.314   1.590   5.686 -2.7772 -0.3228  2.7490
 1003SOL     OW14641   0.635   3.329  10.950 -0.1764 -0.5434 -0.1664
 1003SOL    HW114642   0.676   3.401  10.902 -0.4880 -1.0612 -1.2082
 1003SOL    HW214643   0.601   3.372  11.028 -0.2523  1.0142 -1.0702
 1004SOL     OW14644   0.807   3.097  17.013  0.0520 -0.4264  0.1200
 1004SOL    HW114645   0.767   3.125  16.930  0.0694 -1.3354 -0.1933
 1004SOL    HW214646   0.819   3.184  17.052  2.1683 -0.7296  0.1706
 1005SOL     OW14647   3.351   3.180   8.272  0.3384  0.3062  0.1937
 1005SOL    HW114648   3.375   3.260   8.225 -1.6542  0.5780 -0.3422
 1005SOL    HW214649   3.364   3.206   8.363  2.0667 -0.3391  0.1530
 1006SOL     OW14650   1.517   1.567   2.323 -0.2482 -0.7406 -0.2237
 1006SOL    HW114651   1.467   1.593   2.246  0.7496 -2.1612 -1.3378
 1006SOL    HW214652   1.583   1.512   2.281  0.6075  0.5632 -0.6010
 1007SOL     OW14653   3.886   1.742   3.647  0.1581 -0.3901  0.2202
 1007SOL    HW114654   3.869   1.809   3.714  1.9507 -0.8493  1.1455
 1007SOL    HW214655   3.906   1.797   3.572 -1.3451  2.9866  2.2640
 1008SOL     OW14656   1.524   4.680   4.470  0.4895  0.1764  0.1720
 1008SOL    HW114657   1.579   4.730   4.410  3.2254 -0.6452  2.0348
 1008SOL    HW214658   1.494   4.614   4.407  0.2586  0.8489 -0.4315
 1009SOL     OW14659   0.824   4.558  17.214 -0.0583  0.0477 -0.0708
 1009SOL    HW114660   0.795   4.637  17.259 -2.5852 -0.3467 -0.9781
 1009SOL    HW214661   0.835   4.598  17.128  2.1839  0.9077  0.6313
 1010SOL     OW14662   1.729   2.630   7.305 -0.2607 -1.0015 -0.4744
 1010SOL    HW114663   1.764   2.658   7.390 -1.7252 -1.4164  0.2596
 1010SOL    HW214664   1.642   2.656   7.333 -0.1865  0.1165 -1.3109
 1011SOL     OW14665   3.533   3.205   3.789 -0.6778 -0.0832 -0.0782
 1011SOL    HW114666   3.573   3.271   3.733  2.0442  1.9722  4.3044
 1011SOL    HW214667   3.608   3.175   3.841 -0.0823  0.6064 -0.5480
 1012SOL     OW14668   3.996   1.170   2.903  0.0166  0.5234  0.3319
 1012SOL    HW114669   3.995   1.241   2.839 -0.6465 -0.8482 -1.1663
 1012SOL    HW214670   4.089   1.161   2.924 -0.3377 -1.0503  1.1920
 1013SOL     OW14671   4.255   2.767  12.147  0.0439 -0.1704  0.0374
 1013SOL    HW114672   4.264   2.839  12.084  2.2028 -2.2251 -1.9663
 1013SOL    HW214673   4.332   2.716  12.122  0.2403 -2.4299  5.2812
 1014SOL     OW14674   2.397   3.199   7.535  0.1232  0.2841  0.2653
 1014SOL    HW114675   2.356   3.200   7.448 -4.6411  0.3529  2.5277
 1014SOL    HW214676   2.350   3.126   7.576 -0.2695 -0.3235 -1.2714
 1015SOL     OW14677   3.771   4.449   9.695 -0.5859  0.0172 -0.0582
 1015SOL    HW114678   3.743   4.516   9.757 -3.0513  0.2125 -1.3855
 1015SOL    HW214679   3.858   4.476   9.663 -0.5656 -0.0415 -0.0526
 1016SOL     OW14680   3.172   0.157   3.159 -0.1376  0.7113  0.2776
 1016SOL    HW114681   3.102   0.164   3.224 -0.3991 -1.0336  0.1914
 1016SOL    HW214682   3.185   0.250   3.140 -1.6491  1.0942  1.0761
 1017SOL     OW14683   0.868   3.521   6.002  0.4590 -0.3966 -0.1099
 1017SOL    HW114684   0.937   3.456   5.988 -1.2466 -2.4005  0.8376
 1017SOL    HW214685   0.812   3.481   6.068 -1.2921 -0.1905 -1.4636
 1018SOL     OW14686   4.662   0.204   4.373  0.1215  1.2884 -0.4068
 1018SOL    HW114687   4.660   0.120   4.419  1.3745  1.1079 -0.6903
 1018SOL    HW214688   4.683   0.264   4.445  0.3814 -0.2739  0.8193
 1019SOL     OW14689   0.180   2.306   2.909  0.2499  0.0592 -0.0312
 1019SOL    HW114690   0.150   2.338   2.824 -0.7484  0.8594  0.6204
 1019SOL    HW214691   0.146   2.217   2.920 -2.5736  1.1234 -0.1147
 1020SOL     OW14692   2.359   0.420  12.124  0.3146 -0.7094 -0.1611
 1020SOL    HW114693   2.434   0.365  12.145 -0.6425 -1.1719  2.0235
 1020SOL    HW214694   2.360   0.410  12.029 -1.3082 -0.6788 -0.1843
 1021SOL     OW14695   3.793   0.861  13.129  0.0109  0.3014  0.3207
 1021SOL    HW114696   3.861   0.795  13.115  0.9312  1.0092  1.4014
 1021SOL    HW214697   3.793   0.919  13.053 -1.7040 -1.5074 -1.0415
 1022SOL     OW14698   2.678   1.141   0.835 -0.1853 -0.4114  0.5778
 1022SOL    HW114699   2.662   1.236   0.830  0.9915 -0.1882  1.0029
 1022SOL    HW214700   2.613   1.103   0.893 -2.2833  1.5593 -0.4643
 1023SOL     OW14701   4.265   2.883   6.014 -0.8497 -0.3115 -0.1269
 1023SOL    HW114702   4.253   2.791   5.989 -2.1667 -0.0260 -0.5328
 1023SOL    HW214703   4.358   2.875   6.033 -0.6991  2.4378  0.2573
 1024SOL     OW14704   3.781   1.254   2.632  0.3053  0.1994  0.6282
 1024SOL    HW114705   3.822   1.200   2.564 -1.9653  0.7417 -1.1738
 1024SOL    HW214706   3.854   1.315   2.638  0.2824  0.2700  0.1453
 1025SOL     OW14707   3.923   4.300  12.144  0.8307 -0.4670  0.3051
 1025SOL    HW114708   3.903   4.308  12.050  3.0457 -2.0681 -0.2787
 1025SOL    HW214709   3.961   4.213  12.136  0.8730 -0.2741 -1.6759
 1026SOL     OW14710   2.654   2.900   4.126  0.0475  0.0748  0.6902
 1026SOL    HW114711   2.606   2.877   4.047  0.4251  2.6883 -0.2973
 1026SOL    HW214712   2.732   2.941   4.087 -1.1819  0.9277 -0.8409
 1027SOL     OW14713   3.981   4.143   9.409  0.9698  0.6834 -0.1189
 1027SOL    HW114714   3.898   4.188   9.426 -0.1672 -0.5381 -2.4298
 1027SOL    HW214715   3.993   4.094   9.490  1.0685  2.6431  1.0470
 1028SOL     OW14716   4.471   0.959   8.056  0.5394 -0.0365 -0.1729
 1028SOL    HW114717   4.448   0.890   8.119 -0.8319 -1.7633 -2.5569
 1028SOL    HW214718   4.468   0.906   7.976  3.8046 -0.4226 -0.0491
 1029SOL     OW14719   0.561   3.731  15.580 -0.0321  0.3128 -0.0444
 1029SOL    HW114720   0.534   3.806  15.527 -0.7775  0.6210  0.7687
 1029SOL    HW214721   0.475   3.688  15.586  0.0558  0.0123 -0.8907
 1030SOL     OW14722   4.168   1.947   8.420 -0.4978  0.2785 -0.2227
 1030SOL    HW114723   4.132   2.012   8.482 -3.1371 -0.6681 -0.7759
 1030SOL    HW214724   4.209   1.999   8.351 -0.6393  0.7388  0.0356
 1031SOL     OW14725   4.675   2.701   6.739 -0.6374 -0.2678  0.0492
 1031SOL    HW114726   4.584   2.671   6.732 -0.5899  0.0110 -1.8817
 1031SOL    HW214727   4.688   2.686   6.832 -0.8950  1.4954  0.3783
 1032SOL     OW14728   2.837   0.749   2.533  0.4177  0.1141  0.5047
 1032SOL    HW114729   2.910   0.706   2.487 -1.2574 -2.5192  0.3293
 1032SOL    HW214730   2.777   0.680   2.561 -1.3797  1.8315  0.8216
 1033SOL     OW14731   1.198   1.533   9.687 -0.0810  0.3664  0.2426
 1033SOL    HW114732   1.128   1.572   9.634 -1.6711 -1.3347  1.0714
 1033SOL    HW214733   1.255   1.606   9.710  0.6317  0.3055 -1.3355
 1034SOL     OW14734   2.499   4.398   1.518 -0.2518  0.7527  0.2332
 1034SOL    HW114735   2.497   4.325   1.456  1.8504  1.3856 -0.5813
 1034SOL    HW214736   2.565   4.457   1.481  1.3113 -0.3427  1.2981
 1035SOL     OW14737   2.049   3.566   7.890 -0.4388 -0.4242  0.0960
 1035SOL    HW114738   2.077   3.656   7.907 -0.3295 -0.7368  1.6017
 1035SOL    HW214739   2.043   3.532   7.980 -0.2459 -2.1041 -0.5162
 1036SOL     OW14740   1.919   2.031   8.185  0.3468 -0.2030  0.5148
 1036SOL    HW114741   1.968   2.113   8.198 -0.0079  0.1948 -0.6017
 1036SOL    HW214742   1.830   2.066   8.183 -0.1790 -1.5143  0.8602
 1037SOL     OW14743   2.654   2.009   6.968 -0.8655 -0.2591 -0.2874
 1037SOL    HW114744   2.737   1.962   6.973 -0.2597  0.9793  1.4506
 1037SOL    HW214745   2.683   2.098   6.990  1.3908 -1.3437  1.1624
 1038SOL     OW14746   3.781   1.273   5.548  0.0278 -0.6149  0.0754
 1038SOL    HW114747   3.798   1.347   5.489 -0.4980 -1.2305 -0.8395
 1038SOL    HW214748   3.685   1.267   5.540 -0.2707  2.7703  0.9979
 1039SOL     OW14749   2.507   1.489  16.496  0.5106  0.1807  0.4630
 1039SOL    HW114750   2.532   1.539  16.418 -1.8458 -0.6535 -0.8086
 1039SOL    HW214751   2.417   1.468  16.471  0.3186  2.0015 -0.4299
 1040SOL     OW14752   1.525   4.216  11.315 -0.4774 -0.4169 -0.3980
 1040SOL    HW114753   1.446   4.252  11.276 -1.1975 -2.3069 -0.6441
 1040SOL    HW214754   1.557   4.165  11.241 -0.8012  2.0840 -2.2683
 1041SOL     OW14755   1.478   1.381   7.706 -0.7847 -0.4007  0.5569
 1041SOL    HW114756   1.404   1.442   7.704  0.4299  1.0193 -0.8181
 1041SOL    HW214757   1.463   1.330   7.626  0.8008  1.4106 -0.8671
 1042SOL     OW14758   3.135   4.349  11.899  0.2860 -0.3705 -0.3143
 1042SOL    HW114759   3.216   4.304  11.925  0.7659  0.8133  0.2014
 1042SOL    HW214760   3.137   4.422  11.960  2.9377 -0.5894 -0.1459
 1043SOL     OW14761   3.481   3.657  16.526 -0.1677 -0.4284  0.1213
 1043SOL    HW114762   3.491   3.632  16.617  1.5568  1.9976  0.6001
 1043SOL    HW214763   3.529   3.739  16.520 -1.3921  0.4780  3.0775
 1044SOL     OW14764   4.418   0.435   7.445  0.2840 -0.5056  0.9876
 1044SOL    HW114765   4.407   0.457   7.353 -0.4845  0.3155  1.2747
 1044SOL    HW214766   4.435   0.341   7.439 -1.8912 -0.8587  0.3842
 1045SOL     OW14767   3.709   2.321   6.195 -0.4562  0.3275  0.2041
 1045SOL    HW114768   3.710   2.411   6.228  0.1760  0.6758 -0.7815
 1045SOL    HW214769   3.744   2.347   6.110  3.0593 -2.4701  0.8168
 1046SOL     OW14770   2.260   3.092   4.320  0.1758  0.1381 -0.3932
 1046SOL    HW114771   2.235   3.091   4.227  0.9410 -1.6630 -0.5862
 1046SOL    HW214772   2.342   3.141   4.318 -0.8205  1.8810  1.4917
 1047SOL     OW14773   4.207   2.311   3.336  0.3253 -0.7196  0.1413
 1047SOL    HW114774   4.298   2.340   3.344 -0.2725  1.3377 -0.5893
 1047SOL    HW214775   4.198   2.304   3.241  0.3106 -3.0133  0.3205
 1048SOL     OW14776   1.630   2.130  13.900  0.0811 -0.3552  0.3804
 1048SOL    HW114777   1.615   2.224  13.909 -1.6630 -0.8083  2.0798
 1048SOL    HW214778   1.587   2.076  13.967  0.8396  3.7955  4.2031
 1049SOL     OW14779   2.472   2.252   8.816 -0.1426 -0.3896  0.0272
 1049SOL    HW114780   2.555   2.265   8.862  0.1898  1.8699 -1.2117
 1049SOL    HW214781   2.509   2.236   8.729  0.3719  1.1466 -0.0294
 1050SOL     OW14782   0.436   0.508   8.739  0.2789  0.0698  0.0535
 1050SOL    HW114783   0.523   0.547   8.731  0.3072 -0.4798 -2.1347
 1050SOL    HW214784   0.457   0.422   8.702  1.8637  0.6741 -0.4695
 1051SOL     OW14785   3.929   3.513   7.927 -0.6130  0.3371  0.3414
 1051SOL    HW114786   3.938   3.463   7.846  1.4540  0.1324  0.7101
 1051SOL    HW214787   3.857   3.568   7.894 -0.3989 -0.1978 -1.0393
 1052SOL     OW14788   2.782   2.907   3.224 -0.0647  0.2601  0.3256
 1052SOL    HW114789   2.866   2.914   3.179  0.3564 -1.6192  0.8309
 1052SOL    HW214790   2.795   2.829   3.278  0.8654  0.2843  0.1404
 1053SOL     OW14791   0.787   1.221   4.348 -0.2330  0.0094 -0.9293
 1053SOL    HW114792   0.718   1.261   4.401 -0.3487  1.0002 -1.8166
 1053SOL    HW214793   0.754   1.226   4.259  1.6132  0.7511 -1.5838
 1054SOL     OW14794   1.093   2.440   0.074  0.0359 -0.2512 -0.0906
 1054SOL    HW114795   1.041   2.421   0.152  1.6493 -0.1542  1.0232
 1054SOL    HW214796   1.173   2.389   0.091  0.0858  0.4914  1.8990
 1055SOL     OW14797   2.903   1.210   0.544 -0.3767 -0.1112 -0.1705
 1055SOL    HW114798   2.922   1.276   0.477  2.0620 -0.7052 -0.0692
 1055SOL    HW214799   2.979   1.151   0.546  0.0411  0.4917  2.0684
 1056SOL     OW14800   3.881   0.303   8.298  0.1554  0.4103 -0.4373
 1056SOL    HW114801   3.912   0.369   8.235 -1.3877  0.5920 -0.9962
 1056SOL    HW214802   3.930   0.224   8.276 -0.7596 -0.4135  0.5001
 1057SOL     OW14803   0.461   2.178   1.731  0.3857 -0.2324  0.0843
 1057SOL    HW114804   0.524   2.212   1.667 -0.9013  1.6201 -0.2302
 1057SOL    HW214805   0.460   2.244   1.800 -0.6571  1.7539 -1.7998
 1058SOL     OW14806   2.698   4.238   8.850 -0.1294  0.1580  0.1109
 1058SOL    HW114807   2.715   4.297   8.776  0.8750 -0.1062  0.1242
 1058SOL    HW214808   2.632   4.182   8.809 -1.4024  1.7500 -0.0024
 1059SOL     OW14809   2.063   3.296   2.831 -0.9996  0.0622 -0.3816
 1059SOL    HW114810   2.095   3.227   2.889  1.3553  0.7033 -0.9226
 1059SOL    HW214811   2.118   3.295   2.753  0.5916  1.3377  0.7186
 1060SOL     OW14812   3.936   2.552   4.653  0.8689 -0.5440  0.2516
 1060SOL    HW114813   3.947   2.647   4.642 -0.9347  0.0389  3.3721
 1060SOL    HW214814   3.975   2.529   4.569  2.0271  0.8138  0.4030
 1061SOL     OW14815   2.204   0.211   3.853  0.2918  0.5295 -0.2667
 1061SOL    HW114816   2.275   0.263   3.815  0.9880 -0.2124  0.0005
 1061SOL    HW214817   2.120   0.248   3.827  1.0979  0.3964 -3.0189
 1062SOL     OW14818   4.523   3.072   8.831  0.7126 -0.0905  0.7730
 1062SOL    HW114819   4.601   3.100   8.783  0.6595  0.1536  0.8288
 1062SOL    HW214820   4.553   2.987   8.863  1.2708  0.7787  2.5331
 1063SOL     OW14821   0.538   0.003   8.958  0.8108  0.2345  0.3106
 1063SOL    HW114822   0.481   4.679   9.004  0.1935  0.6528  0.1010
 1063SOL    HW214823   0.467   0.053   8.917  0.0356  0.8440  2.3858
 1064SOL     OW14824   0.053   3.549   6.774  0.2421 -0.3498 -0.0236
 1064SOL    HW114825   0.096   3.511   6.851 -2.5472 -1.8286  0.8159
 1064SOL    HW214826   0.035   3.633   6.818  1.0558  0.2262 -0.7776
 1065SOL     OW14827   0.680   4.609   5.236 -0.5347  0.0654 -0.1052
 1065SOL    HW114828   0.666   4.656   5.154  0.9553  0.4628 -0.1323
 1065SOL    HW214829   0.767   4.570   5.229  0.1295  1.3572  0.9957
 1066SOL     OW14830   0.217   2.341   7.424  0.9411 -0.5236  0.1492
 1066SOL    HW114831   0.202   2.321   7.332  0.3356 -2.3511  0.6260
 1066SOL    HW214832   0.126   2.320   7.447  1.9840 -0.5205  4.2679
 1067SOL     OW14833   3.394   3.532  15.526 -0.0295 -0.0294  0.3947
 1067SOL    HW114834   3.414   3.611  15.477  0.6547 -0.3012  0.2260
 1067SOL    HW214835   3.341   3.565  15.598 -0.0226 -1.1994  0.9429
 1068SOL     OW14836   4.215   4.241   7.265 -1.0152  0.1050  0.1511
 1068SOL    HW114837   4.235   4.195   7.183 -1.0857 -0.5058  0.4771
 1068SOL    HW214838   4.257   4.176   7.321 -1.7211  0.4337  1.0655
 1069SOL     OW14839   3.020   0.198  14.908 -0.5681  0.1158  0.0409
 1069SOL    HW114840   3.088   0.241  14.857 -0.0962 -1.0003 -0.2623
 1069SOL    HW214841   3.062   0.121  14.947 -0.3961  1.3532  2.2772
 1070SOL     OW14842   2.608   2.853  12.064 -0.2519  0.0793 -0.3849
 1070SOL    HW114843   2.678   2.902  12.107 -0.5164  0.8280 -0.7968
 1070SOL    HW214844   2.547   2.879  12.133  1.2133 -0.4819  1.1417
 1071SOL     OW14845   2.103   4.618   7.116  0.7220  0.0194  0.6976
 1071SOL    HW114846   2.089   4.704   7.155 -0.1016 -0.0038  0.4553
 1071SOL    HW214847   2.187   4.637   7.075 -0.1644  1.7028 -0.2830
 1072SOL     OW14848   4.161   2.147   2.440  0.0503 -0.2617  0.2166
 1072SOL    HW114849   4.229   2.138   2.373 -1.0302 -3.0325 -0.5071
 1072SOL    HW214850   4.141   2.238   2.421  1.2576  0.4842  2.5447
 1073SOL     OW14851   0.786   1.410   1.116  0.0554  0.2823 -0.2015
 1073SOL    HW114852   0.871   1.370   1.132  0.4386  1.5095  0.8297
 1073SOL    HW214853   0.807   1.454   1.033 -1.3403 -0.9778 -1.2285
 1074SOL     OW14854   3.562   1.922   4.288 -0.3512 -0.2133 -0.0075
 1074SOL    HW114855   3.498   1.993   4.282 -0.3442 -0.0491  1.7620
 1074SOL    HW214856   3.591   1.943   4.377  1.1114  0.2645 -0.6161
 1075SOL     OW14857   2.928   4.689  17.184 -0.3615  0.3034 -0.4387
 1075SOL    HW114858   2.985   4.716  17.112  2.5369  0.4729  1.9192
 1075SOL    HW214859   2.954   4.597  17.194  1.3759  0.6453 -1.9009
 1076SOL     OW14860   1.012   3.115   6.813  0.2945 -0.2367  0.0318
 1076SOL    HW114861   0.999   3.207   6.789  1.3788  0.4385  2.0118
 1076SOL    HW214862   0.977   3.071   6.735  0.4045  0.4226 -0.3872
 1077SOL     OW14863   3.101   4.151   7.638  0.4748 -0.0254  0.1650
 1077SOL    HW114864   3.033   4.203   7.680  0.8935  1.7412 -1.3492
 1077SOL    HW214865   3.098   4.190   7.551 -2.0260  0.0309  0.2886
 1078SOL     OW14866   2.354   4.636  15.739  0.2115  0.6381  0.2779
 1078SOL    HW114867   2.374   4.614  15.648  1.8168  2.8019  0.1104
 1078SOL    HW214868   2.262   4.660  15.727  0.6784  1.5055 -1.5332
 1079SOL     OW14869   1.195   1.046  15.783  0.3726  0.5494 -0.3823
 1079SOL    HW114870   1.237   0.989  15.718  2.5966  0.8341  0.8018
 1079SOL    HW214871   1.257   1.119  15.776 -0.9063  1.4240 -2.7143
 1080SOL     OW14872   2.036   1.007   1.530  0.1550 -0.3160 -0.4485
 1080SOL    HW114873   1.996   1.022   1.445  0.2938 -1.1804 -0.6678
 1080SOL    HW214874   2.029   0.913   1.544  1.9569 -0.0833  2.2314
 1081SOL     OW14875   2.737   0.244   3.011  0.3957 -0.2089  0.6721
 1081SOL    HW114876   2.641   0.244   3.022  0.2825 -0.8436 -0.3408
 1081SOL    HW214877   2.762   0.164   3.057 -0.5003 -0.3235  0.9697
 1082SOL     OW14878   2.414   4.523  14.928 -0.2412 -0.4535  0.5727
 1082SOL    HW114879   2.407   4.440  14.976  0.3456 -0.9035 -0.1065
 1082SOL    HW214880   2.328   4.518  14.887 -0.7035  0.1537  1.4733
 1083SOL     OW14881   2.714   1.515   2.301  0.1179 -0.4812  0.1686
 1083SOL    HW114882   2.669   1.598   2.315 -2.8267 -1.9362 -0.6059
 1083SOL    HW214883   2.781   1.543   2.240 -0.2565  0.6717  0.2761
 1084SOL     OW14884   2.652   1.206   0.157  0.4831  0.9839 -0.2134
 1084SOL    HW114885   2.696   1.283   0.121  1.9276  0.1044 -0.3605
 1084SOL    HW214886   2.625   1.240   0.242  0.2028 -3.5926  1.4975
 1085SOL     OW14887   2.046   1.754  11.120  0.4623  0.0246 -0.2278
 1085SOL    HW114888   2.038   1.775  11.027 -1.1984 -1.4664 -0.4205
 1085SOL    HW214889   2.075   1.841  11.149  0.9286  0.3407 -1.6658
 1086SOL     OW14890   4.442   3.129   3.078 -0.3876 -0.1866  0.1022
 1086SOL    HW114891   4.531   3.095   3.083  0.1584  1.4855  1.9168
 1086SOL    HW214892   4.435   3.176   2.995 -0.8092  0.9364  0.7619
 1087SOL     OW14893   4.508   0.866  11.773 -0.4476 -0.1051 -0.2655
 1087SOL    HW114894   4.566   0.792  11.757  1.3836  0.8475  1.9629
 1087SOL    HW214895   4.569   0.938  11.755 -0.0978 -0.1969  0.5450
 1088SOL     OW14896   3.942   1.915   9.515 -0.0418 -0.0160 -0.2623
 1088SOL    HW114897   3.914   1.823   9.510 -0.2519  0.0482 -0.2640
 1088SOL    HW214898   3.993   1.922   9.434 -0.3218  0.5791 -0.3898
 1089SOL     OW14899   1.548   2.673   3.458  0.1667  0.6173  0.2921
 1089SOL    HW114900   1.562   2.766   3.476  2.7870  0.0254  1.3205
 1089SOL    HW214901   1.524   2.682   3.366  2.9845  4.6949 -0.0241
 1090SOL     OW14902   2.866   2.443  16.287 -0.0549 -0.4320 -0.2471
 1090SOL    HW114903   2.873   2.528  16.244 -0.0463 -0.0325  0.5566
 1090SOL    HW214904   2.806   2.400  16.226  0.0389 -2.7462  1.2849
 1091SOL     OW14905   1.896   0.817  11.174  0.5214  0.2347  0.1833
 1091SOL    HW114906   1.860   0.810  11.263  0.1365  0.2912  0.0345
 1091SOL    HW214907   1.822   0.778  11.127 -0.9305  1.5555  1.3716
 1092SOL     OW14908   1.266   2.067   7.222 -0.2701  0.0899 -0.3394
 1092SOL    HW114909   1.349   2.035   7.186 -0.4473 -0.1419 -0.5368
 1092SOL    HW214910   1.286   2.160   7.211  1.2626 -0.4643 -2.2988
 1093SOL     OW14911   1.350   2.882  11.761  0.5917 -0.1414 -0.6200
 1093SOL    HW114912   1.289   2.846  11.696 -3.1639  1.9775  1.7490
 1093SOL    HW214913   1.423   2.821  11.748  2.0374  1.3248  0.5847
 1094SOL     OW14914   1.096   3.243   2.364 -0.0095 -0.2146  0.2899
 1094SOL    HW114915   1.077   3.287   2.282  2.2254  1.4890  0.6786
 1094SOL    HW214916   1.173   3.191   2.340  0.1875 -0.2373  0.9433
 1095SOL     OW14917   4.592   4.143   8.071  0.1938 -0.2292 -0.0929
 1095SOL    HW114918   4.581   4.152   7.976 -1.4092  0.0484  0.1214
 1095SOL    HW214919   4.552   4.220   8.112  1.1137  1.0078 -1.5478
 1096SOL     OW14920   2.130   1.169   6.303  0.1117 -0.4504  0.2936
 1096SOL    HW114921   2.152   1.248   6.351 -0.1807 -0.1504 -0.0709
 1096SOL    HW214922   2.166   1.199   6.219  0.6421 -0.0177  0.6770
 1097SOL     OW14923   1.109   4.184   9.328  0.0951  0.1976 -0.1490
 1097SOL    HW114924   1.152   4.228   9.256  1.5816 -0.6704  0.2114
 1097SOL    HW214925   1.035   4.146   9.281 -1.5477  0.1558  2.4244
 1098SOL     OW14926   0.773   4.094   9.870  0.1876  0.4573  0.3087
 1098SOL    HW114927   0.811   4.009   9.891 -1.8071 -0.1547  1.4373
 1098SOL    HW214928   0.740   4.124   9.954 -1.4202  1.8430 -0.8020
 1099SOL     OW14929   1.507   2.082   0.914 -0.2455 -0.1238  0.0401
 1099SOL    HW114930   1.426   2.121   0.881  0.0802 -0.4693 -1.2017
 1099SOL    HW214931   1.524   2.008   0.855 -0.3763 -0.5697  0.5685
 1100SOL     OW14932   3.496   0.806   9.618 -0.0778 -0.0976 -0.5153
 1100SOL    HW114933   3.469   0.896   9.599  0.2646  0.0323 -0.3750
 1100SOL    HW214934   3.408   0.768   9.611  1.0799 -2.8341 -0.2371
 1101SOL     OW14935   3.174   1.679   0.124 -0.5669 -0.2653  0.2146
 1101SOL    HW114936   3.090   1.725   0.120 -1.0989 -1.4558 -2.0881
 1101SOL    HW214937   3.224   1.753   0.159 -1.9401  1.0920 -0.6997
 1102SOL     OW14938   1.917   4.683   4.372  0.5144 -0.1309 -0.5714
 1102SOL    HW114939   1.994   4.732   4.345 -0.8228  1.9695 -0.5957
 1102SOL    HW214940   1.938   4.593   4.349 -2.5863 -1.3332  1.3473
 1103SOL     OW14941   3.896   3.073   0.557 -0.3028  0.7841  0.2836
 1103SOL    HW114942   3.903   3.167   0.572 -0.3934  1.0765 -1.5415
 1103SOL    HW214943   3.987   3.044   0.563 -0.9102 -0.9267  1.2354
 1104SOL     OW14944   3.443   2.110   5.993 -0.2316  0.1438 -0.1921
 1104SOL    HW114945   3.490   2.139   5.914  0.3842 -0.3989 -0.0199
 1104SOL    HW214946   3.386   2.184   6.013 -1.1857 -0.2647 -1.4068
 1105SOL     OW14947   0.815   1.027   5.268  0.1756 -0.0765 -0.6992
 1105SOL    HW114948   0.738   0.974   5.245 -0.3227  0.1812  0.3642
 1105SOL    HW214949   0.867   0.963   5.316  0.1562  1.1418  0.9228
 1106SOL     OW14950   2.639   3.689  13.706  0.3923  0.0611 -0.1400
 1106SOL    HW114951   2.626   3.770  13.656 -0.5959  0.2099  0.3643
 1106SOL    HW214952   2.710   3.721  13.762  1.1937  0.1461 -1.1946
 1107SOL     OW14953   3.704   3.153  12.473  0.2525  0.0007 -0.0370
 1107SOL    HW114954   3.649   3.084  12.511  0.9121 -1.1774 -1.2316
 1107SOL    HW214955   3.760   3.096  12.422 -0.7641 -0.0969 -1.0536
 1108SOL     OW14956   0.530   1.668   5.032  0.1009 -0.3462  0.0481
 1108SOL    HW114957   0.478   1.672   5.112 -0.7034 -1.0349 -0.4465
 1108SOL    HW214958   0.614   1.636   5.064  0.3292  0.4242  0.2137
 1109SOL     OW14959   4.578   2.027   4.493  0.2105 -0.3642 -0.8070
 1109SOL    HW114960   4.500   2.064   4.452 -0.9833 -1.2719  0.6396
 1109SOL    HW214961   4.623   2.108   4.470 -0.2524  0.3338  0.7171
 1110SOL     OW14962   0.528   4.462   9.733 -0.1575  0.1370 -0.4107
 1110SOL    HW114963   0.462   4.394   9.747  1.6898 -1.2291  1.6862
 1110SOL    HW214964   0.581   4.449   9.812  0.3378  3.2764 -0.2530
 1111SOL     OW14965   1.685   4.440  11.370  0.1728  0.0017 -0.3817
 1111SOL    HW114966   1.623   4.512  11.362 -0.4925 -0.5766 -0.4764
 1111SOL    HW214967   1.623   4.367  11.366  1.5470 -1.1746 -0.4221
 1112SOL     OW14968   3.274   1.513   7.589 -0.0801 -0.0314  0.1815
 1112SOL    HW114969   3.290   1.584   7.651  2.5434 -1.9708  1.6792
 1112SOL    HW214970   3.207   1.457   7.629 -0.4283 -1.4652 -2.3802
 1113SOL     OW14971   0.390   0.617   9.013  0.7365 -0.0521 -0.2348
 1113SOL    HW114972   0.422   0.558   8.945  0.8315  0.7232 -0.8615
 1113SOL    HW214973   0.313   0.654   8.970  0.4080  0.1922  0.5688
 1114SOL     OW14974   0.927   2.257   1.536  0.2251  0.0001  0.0137
 1114SOL    HW114975   0.956   2.166   1.529  2.8121  0.7700  1.0024
 1114SOL    HW214976   0.834   2.243   1.553  0.6308 -0.7117  1.6738
 1115SOL     OW14977   3.677   1.427   1.612  0.1106  0.0528 -0.0600
 1115SOL    HW114978   3.695   1.507   1.563  1.1491  0.9039  1.7310
 1115SOL    HW214979   3.603   1.389   1.565 -1.5895  2.9975  0.2799
 1116SOL     OW14980   0.315   3.542   9.692  0.7490 -0.5659  0.0708
 1116SOL    HW114981   0.409   3.537   9.677  0.6080 -0.6147 -0.8172
 1116SOL    HW214982   0.308   3.616   9.752  0.8404 -0.3778 -0.1512
 1117SOL     OW14983   1.636   3.341   6.281 -0.0054  0.1739 -0.4535
 1117SOL    HW114984   1.642   3.256   6.237 -3.0554 -0.4649  0.3379
 1117SOL    HW214985   1.634   3.400   6.206  0.0592  0.6501 -0.0780
 1118SOL     OW14986   2.144   1.650   2.453 -0.0550 -0.2583  0.1304
 1118SOL    HW114987   2.077   1.622   2.515 -0.1823  0.9458  0.5300
 1118SOL    HW214988   2.114   1.607   2.373  0.0545  0.7439 -0.4467
 1119SOL     OW14989   4.014   1.075   4.102 -0.0626 -0.4208  0.6463
 1119SOL    HW114990   4.008   0.980   4.107  3.0781 -0.5732  1.5075
 1119SOL    HW214991   3.964   1.109   4.176  0.3620  0.4279  0.5504
 1120SOL     OW14992   2.317   1.474  10.870 -0.4182 -0.3164 -0.5492
 1120SOL    HW114993   2.232   1.433  10.889 -0.0315 -0.6326  0.5420
 1120SOL    HW214994   2.299   1.548  10.812 -1.2662 -0.9586 -1.1125
 1121SOL     OW14995   0.876   0.714   3.092  0.2820 -0.0772 -0.5999
 1121SOL    HW114996   0.929   0.638   3.068  1.1108  0.3063  0.0269
 1121SOL    HW214997   0.821   0.720   3.014  0.6279  3.3419 -0.5924
 1122SOL     OW14998   0.817   0.924  13.464  0.9089 -0.6274 -0.1202
 1122SOL    HW114999   0.878   0.857  13.495  0.6914 -0.1756  1.2940
 1122SOL    HW215000   0.746   0.870  13.428 -0.8905  0.2240  2.1428
 1123SOL     OW15001   4.663   1.666   5.178 -0.7122  0.3346  0.2396
 1123SOL    HW115002   4.639   1.697   5.091 -2.3896 -2.2443 -0.2210
 1123SOL    HW215003   4.583   1.617   5.199 -0.4366  0.0410  0.5919
 1124SOL     OW15004   0.614   1.048   1.442  0.0682  0.4717 -0.3663
 1124SOL    HW115005   0.559   1.029   1.366  0.4831 -2.2548  0.0337
 1124SOL    HW215006   0.566   1.007   1.513 -1.2507  2.4953 -0.1092
 1125SOL     OW15007   3.071   3.908   5.947  0.0960 -0.0251 -1.2812
 1125SOL    HW115008   3.133   3.853   5.994 -1.1182  0.2502  0.6500
 1125SOL    HW215009   3.056   3.984   6.003  1.3828 -0.2243 -0.6749
 1126SOL     OW15010   2.747   3.297   2.484 -0.3035  0.2035  0.2136
 1126SOL    HW115011   2.806   3.363   2.448  0.4797  0.2594  1.6018
 1126SOL    HW215012   2.748   3.326   2.575  3.2180 -0.9922  0.5538
 1127SOL     OW15013   3.175   0.194   0.073 -0.3168  0.4072 -0.4498
 1127SOL    HW115014   3.171   0.146  17.738 -2.6251 -0.5547  0.2213
 1127SOL    HW215015   3.223   0.272   0.044  0.9199 -0.8349 -1.7701
 1128SOL     OW15016   0.992   1.345  14.430  0.1544  0.1612 -1.0885
 1128SOL    HW115017   1.025   1.416  14.485 -0.6062 -1.7284  1.7938
 1128SOL    HW215018   0.914   1.386  14.394 -0.9483  0.5553  1.7237
 1129SOL     OW15019   4.560   3.928   5.682 -0.1005  0.3766  0.9419
 1129SOL    HW115020   4.600   3.847   5.711 -1.6584 -0.0222  2.0058
 1129SOL    HW215021   4.473   3.889   5.691  0.4578 -1.6623 -2.7210
 1130SOL     OW15022   3.634   3.910   4.264  0.4146 -0.5605  0.5009
 1130SOL    HW115023   3.687   3.831   4.273  1.2304 -0.1316 -0.5582
 1130SOL    HW215024   3.634   3.921   4.169 -2.6471 -1.7565  0.3875
 1131SOL     OW15025   1.535   1.646   5.344  0.4750  0.5849  0.5076
 1131SOL    HW115026   1.555   1.682   5.258  0.5661  0.3590  0.4324
 1131SOL    HW215027   1.512   1.555   5.326  1.4562 -0.1266  2.7071
 1132SOL     OW15028   0.485   4.721   8.460  0.1938 -0.0814  0.7587
 1132SOL    HW115029   0.539   4.717   8.539 -0.4515  1.2170  1.2647
 1132SOL    HW215030   0.549   0.027   8.403  0.2666 -2.3737 -0.9333
 1133SOL     OW15031   3.653   0.029   6.061  0.0114 -0.1364  0.0777
 1133SOL    HW115032   3.587   0.087   6.023  0.4329 -0.7119 -1.5260
 1133SOL    HW215033   3.635   0.054   6.152 -1.0300 -0.0081 -0.1628
 1134SOL     OW15034   0.103   0.245   6.180 -0.3847  0.3484  0.5094
 1134SOL    HW115035   0.092   0.330   6.224  0.4986 -0.4655  2.2809
 1134SOL    HW215036   0.198   0.239   6.185 -0.4795 -1.8169 -0.3563
 1135SOL     OW15037   0.255   4.554   4.675  0.5730  0.2709  0.1145
 1135SOL    HW115038   0.228   4.554   4.767 -2.9487  1.3213 -0.9212
 1135SOL    HW215039   0.221   4.636   4.640 -1.2196 -0.3851  0.3008
 1136SOL     OW15040   1.887   1.775   1.247  0.4902  0.5015  0.1717
 1136SOL    HW115041   1.939   1.741   1.319  1.2052  0.7650 -0.2187
 1136SOL    HW215042   1.825   1.832   1.292 -0.1511 -1.0929  1.3161
 1137SOL     OW15043   0.603   0.434   3.908 -0.1256 -0.5849 -0.0472
 1137SOL    HW115044   0.679   0.491   3.908 -1.5097  1.2476 -0.8751
 1137SOL    HW215045   0.531   0.494   3.888 -0.3997 -1.4348 -1.6055
 1138SOL     OW15046   4.592   0.046   6.681 -0.1786  0.1540 -0.0127
 1138SOL    HW115047   4.668   0.066   6.626 -0.0520  0.2547  0.2009
 1138SOL    HW215048   4.562   4.710   6.628 -0.2700  0.0507  0.1847
 1139SOL     OW15049   0.904   1.879  12.702  0.3628  0.0629 -0.3064
 1139SOL    HW115050   0.943   1.859  12.617  0.0067  3.4633 -1.2397
 1139SOL    HW215051   0.977   1.900  12.759  0.0735  1.0115 -0.2937
 1140SOL     OW15052   3.941   1.544   3.330 -0.0478 -0.5090 -0.3004
 1140SOL    HW115053   3.901   1.484   3.267  0.6616 -1.4860  0.1727
 1140SOL    HW215054   3.862   1.579   3.369  0.2783  0.2876 -0.3607
 1141SOL     OW15055   4.520   0.250   5.296  0.2665  0.1953  0.5488
 1141SOL    HW115056   4.563   0.234   5.379  1.1776 -1.9136 -0.3404
 1141SOL    HW215057   4.468   0.170   5.287  3.0593 -1.4277 -1.0703
 1142SOL     OW15058   2.426   1.327   8.709 -0.5358 -0.2194  1.0640
 1142SOL    HW115059   2.444   1.399   8.769 -1.3174  0.4579  0.4803
 1142SOL    HW215060   2.397   1.269   8.779  2.1205 -2.5875  0.1800
 1143SOL     OW15061   2.776   3.812   7.750 -0.2252  0.7380  0.1707
 1143SOL    HW115062   2.867   3.837   7.735 -0.0002 -1.0152 -1.3929
 1143SOL    HW215063   2.737   3.899   7.754 -0.8820  0.5454 -2.1620
 1144SOL     OW15064   0.272   3.609   2.155  0.5412  0.0163  0.1161
 1144SOL    HW115065   0.249   3.658   2.234  1.6158 -0.7475  0.8954
 1144SOL    HW215066   0.359   3.581   2.185  1.1960  0.4458 -1.3262
 1145SOL     OW15067   1.856   3.907  10.860 -0.3178 -0.1513  0.5883
 1145SOL    HW115068   1.930   3.951  10.902 -0.9631  1.1665  0.3221
 1145SOL    HW215069   1.898   3.831  10.819 -0.7650 -0.2684  0.3501
 1146SOL     OW15070   3.566   2.175  11.622  0.2305  0.4153 -0.0289
 1146SOL    HW115071   3.496   2.226  11.662 -0.7169 -0.2897 -0.7739
 1146SOL    HW215072   3.575   2.231  11.546  4.6460 -0.2936 -0.0350
 1147SOL     OW15073   4.681   2.786   7.643  0.1248 -0.0520 -0.5792
 1147SOL    HW115074   4.719   2.700   7.626 -0.7969 -0.5039 -0.3358
 1147SOL    HW215075   4.730   2.839   7.580  0.2098 -0.3350 -0.7522
 1148SOL     OW15076   3.015   1.380  12.232 -0.2548 -0.1378  0.3587
 1148SOL    HW115077   2.934   1.333  12.251  0.2854 -1.5980 -0.9467
 1148SOL    HW215078   3.037   1.419  12.317 -1.7584  2.8853 -0.6435
 1149SOL     OW15079   1.744   4.194   1.362  0.0036 -0.3843  0.5613
 1149SOL    HW115080   1.779   4.241   1.286  0.7841 -0.4748  0.8575
 1149SOL    HW215081   1.659   4.163   1.331  1.0759 -1.2889 -1.4788
 1150SOL     OW15082   2.281   2.713   6.329 -0.5335  0.3298  0.7923
 1150SOL    HW115083   2.204   2.694   6.383 -0.1989  0.4314  1.2989
 1150SOL    HW215084   2.340   2.728   6.403 -0.5729  0.6607  0.7558
 1151SOL     OW15085   3.779   3.473  11.671  0.3230 -0.3433 -0.1310
 1151SOL    HW115086   3.835   3.548  11.651 -0.7116  0.1413 -1.1938
 1151SOL    HW215087   3.720   3.507  11.738  1.2440  0.8187  0.1051
 1152SOL     OW15088   1.483   0.633  15.119 -0.2307  0.1891 -0.1528
 1152SOL    HW115089   1.392   0.662  15.116  0.2659  1.7598  0.1771
 1152SOL    HW215090   1.466   0.541  15.097 -1.1814  0.0884  1.0015
 1153SOL     OW15091   0.235   2.623   9.321  0.6159  0.2198 -0.6533
 1153SOL    HW115092   0.249   2.621   9.415 -0.4705  0.8626 -0.4706
 1153SOL    HW215093   0.148   2.662   9.313  1.0486  1.5138  0.9587
 1154SOL     OW15094   2.879   1.183   3.167 -0.4663 -0.1981 -0.6732
 1154SOL    HW115095   2.795   1.201   3.208 -1.4839 -2.9123 -1.6082
 1154SOL    HW215096   2.858   1.102   3.120  1.8903 -0.1529 -1.8119
 1155SOL     OW15097   4.560   3.226   3.629  0.0493  0.1846  0.5852
 1155SOL    HW115098   4.640   3.258   3.587 -0.7011 -0.0344 -1.0232
 1155SOL    HW215099   4.598   3.154   3.678  1.3837  0.4410 -0.0703
 1156SOL     OW15100   1.774   1.692   5.798 -0.0945 -0.1881 -0.1894
 1156SOL    HW115101   1.720   1.764   5.831  1.4502  0.0573  1.7706
 1156SOL    HW215102   1.702   1.637   5.767 -0.6548  1.4726 -1.8333
 1157SOL     OW15103   2.047   4.482   8.726 -0.0591 -0.5013  0.3240
 1157SOL    HW115104   1.973   4.436   8.765  0.1128  1.4645  2.9796
 1157SOL    HW215105   2.039   4.444   8.639 -0.1620  0.4090 -0.0625
 1158SOL     OW15106   0.120   0.275   2.428  0.4899  0.1726 -0.2009
 1158SOL    HW115107   0.210   0.301   2.452  0.5602 -2.3784  2.2555
 1158SOL    HW215108   0.139   0.247   2.338 -0.0717 -0.0309 -0.2521
 1159SOL     OW15109   0.456   1.435   4.897 -0.0486 -0.1705 -0.1801
 1159SOL    HW115110   0.524   1.376   4.928 -0.7674 -0.3711  1.0024
 1159SOL    HW215111   0.471   1.513   4.951  0.1844  0.4444 -1.1243
 1160SOL     OW15112   1.280   2.062   2.824  0.2998  0.2873 -0.7526
 1160SOL    HW115113   1.336   2.029   2.754  0.1837 -0.0125 -0.7025
 1160SOL    HW215114   1.278   1.990   2.888 -0.0643  0.0164 -1.0635
 1161SOL     OW15115   0.542   1.451   8.284 -0.6103  0.1707 -0.1411
 1161SOL    HW115116   0.456   1.439   8.244 -1.8628  3.6095  1.5634
 1161SOL    HW215117   0.593   1.492   8.214  0.4999  2.1919  1.8561
 1162SOL     OW15118   4.261   4.629   7.839  0.0572  0.3826 -0.3884
 1162SOL    HW115119   4.240   4.684   7.914 -1.0813  2.1585 -2.0052
 1162SOL    HW215120   4.270   4.541   7.876 -1.8064 -0.3759 -1.7581
 1163SOL     OW15121   4.521   2.296   8.476  0.1456  0.0156  0.0787
 1163SOL    HW115122   4.576   2.295   8.555 -0.0965  2.2293  0.2732
 1163SOL    HW215123   4.447   2.354   8.486  1.8851  2.3137 -0.4086
 1164SOL     OW15124   4.579   3.022  14.248  0.1263  0.6065 -0.6792
 1164SOL    HW115125   4.625   2.983  14.173 -1.9092 -1.9377 -0.5918
 1164SOL    HW215126   4.581   2.952  14.313  0.3763  0.4036 -0.9055
 1165SOL     OW15127   3.922   1.392  12.519 -0.6949 -0.4456  0.1863
 1165SOL    HW115128   3.943   1.471  12.469 -0.7625  1.1854  2.6992
 1165SOL    HW215129   3.877   1.347  12.448  2.9699  0.5276 -2.7385
 1166SOL     OW15130   4.597   4.149   5.153  0.3098  1.2404 -0.0224
 1166SOL    HW115131   4.525   4.129   5.093 -1.0461  2.3677  1.2339
 1166SOL    HW215132   4.661   4.198   5.100  0.3595  1.0666 -0.1227
 1167SOL     OW15133   1.797   1.417   7.335 -0.1085  0.4065  0.0335
 1167SOL    HW115134   1.879   1.466   7.341  0.1890 -0.0836 -0.0169
 1167SOL    HW215135   1.799   1.393   7.428  1.9006 -1.0677 -0.3753
 1168SOL     OW15136   2.071   2.447   8.535  0.0066  0.1225 -0.0310
 1168SOL    HW115137   2.006   2.381   8.559 -0.8512  0.6359 -0.9113
 1168SOL    HW215138   2.083   2.495   8.617  0.1696 -0.9417  0.5666
 1169SOL     OW15139   2.831   1.991   3.402 -0.3247  0.3463  0.7588
 1169SOL    HW115140   2.747   2.030   3.379 -0.2661 -0.1675 -0.3087
 1169SOL    HW215141   2.889   2.063   3.376  2.1191 -1.4303  1.1847
 1170SOL     OW15142   3.451   0.867   8.047  0.3444 -0.7476 -0.0300
 1170SOL    HW115143   3.463   0.873   7.952 -1.7135  1.0211 -0.1881
 1170SOL    HW215144   3.488   0.951   8.075  1.3477 -1.0363 -0.4747
 1171SOL     OW15145   0.670   1.852   4.142  0.4126 -0.4853  0.2170
 1171SOL    HW115146   0.721   1.843   4.061 -0.9362 -2.1193 -0.4720
 1171SOL    HW215147   0.737   1.865   4.208 -1.1189 -0.1353  1.7093
 1172SOL     OW15148   0.068   3.767   5.930 -0.1788 -0.0567  0.3338
 1172SOL    HW115149   0.155   3.801   5.911 -1.1921  1.8727 -0.7938
 1172SOL    HW215150   0.040   3.735   5.844  1.2654  1.1596 -0.5788
 1173SOL     OW15151   1.746   1.357  10.741  0.3132 -0.0828  1.1898
 1173SOL    HW115152   1.666   1.331  10.787  0.1621 -0.0074  0.9687
 1173SOL    HW215153   1.770   1.266  10.722 -0.8611  0.1537 -1.4855
 1174SOL     OW15154   2.970   4.633   9.742  0.1948  0.6553  0.3164
 1174SOL    HW115155   3.009   4.720   9.736 -0.9817  1.1934  0.3713
 1174SOL    HW215156   2.991   4.588   9.661 -1.1351  1.8000 -0.6766
 1175SOL     OW15157   2.215   1.482   8.606 -0.0331 -0.4410  0.1567
 1175SOL    HW115158   2.280   1.422   8.644  0.2569 -0.9855 -1.2192
 1175SOL    HW215159   2.152   1.499   8.676 -0.2882 -0.1599 -0.1443
 1176SOL     OW15160   2.736   0.326   7.561 -0.1376  0.0171 -0.2078
 1176SOL    HW115161   2.688   0.292   7.485  0.2693  0.2040 -0.5455
 1176SOL    HW215162   2.821   0.354   7.529 -0.3229 -0.2170 -0.8911
 1177SOL     OW15163   4.639   0.207   1.783  0.1037  0.6024 -0.8817
 1177SOL    HW115164   4.667   0.257   1.707  0.9757  1.3135 -0.1001
 1177SOL    HW215165   4.674   0.266   1.850 -0.7760 -0.1198  0.2162
 1178SOL     OW15166   0.255   2.528   0.499 -0.3468  0.1037  0.1155
 1178SOL    HW115167   0.176   2.483   0.527 -0.8713  1.5735  1.0334
 1178SOL    HW215168   0.282   2.557   0.586 -2.1157  1.5120  0.2068
 1179SOL     OW15169   0.412   2.071  13.811 -0.2524  0.2406 -0.0276
 1179SOL    HW115170   0.319   2.086  13.799 -0.3431  0.7183  1.2778
 1179SOL    HW215171   0.424   2.133  13.883  0.2748 -0.4298  0.4696
 1180SOL     OW15172   2.563   3.814  10.660 -0.3087 -0.8651 -0.1114
 1180SOL    HW115173   2.572   3.803  10.754  2.2462 -1.9813 -0.4853
 1180SOL    HW215174   2.610   3.897  10.664 -1.2507 -0.4099  1.6376
 1181SOL     OW15175   0.321   4.661   0.075  0.1387 -0.0932 -0.0528
 1181SOL    HW115176   0.313   0.019   0.077  0.9536 -0.0383  0.5843
 1181SOL    HW215177   0.384   4.645   0.145  2.1951 -0.1977 -1.8964
 1182SOL     OW15178   0.280   1.375  10.027  0.1325  0.2859 -0.0691
 1182SOL    HW115179   0.262   1.333   9.943 -3.0661  0.1413  0.6928
 1182SOL    HW215180   0.258   1.465  10.006 -1.4186  0.3767  1.8951
 1183SOL     OW15181   1.321   1.351   1.398  0.2969  0.3153 -0.2166
 1183SOL    HW115182   1.312   1.343   1.493  1.5334 -1.3093 -0.2452
 1183SOL    HW215183   1.338   1.260   1.375  1.3890 -0.1531  2.4197
 1184SOL     OW15184   3.335   0.046   2.859  0.2563 -0.1593 -0.0015
 1184SOL    HW115185   3.329   4.728   2.937 -0.1134 -1.8448 -1.2225
 1184SOL    HW215186   3.384   0.115   2.903 -0.0155 -0.4051  0.6810
 1185SOL     OW15187   3.945   1.252   8.558 -0.1132  0.7304  0.8987
 1185SOL    HW115188   3.934   1.336   8.513  1.9819  0.7912  0.5120
 1185SOL    HW215189   4.011   1.272   8.624 -0.1263  0.1234  1.0953
 1186SOL     OW15190   1.908   2.954   0.013  0.1016 -0.0867 -0.7901
 1186SOL    HW115191   1.932   2.897   0.086  0.4572 -1.7728 -2.2316
 1186SOL    HW215192   1.917   2.892  17.690 -1.3481  2.3244 -3.0658
 1187SOL     OW15193   0.831   0.469  12.344  0.2905 -0.2522  0.5456
 1187SOL    HW115194   0.879   0.548  12.369 -0.8802  0.4156  0.6611
 1187SOL    HW215195   0.898   0.401  12.332  1.4171  0.9728 -0.1940
 1188SOL     OW15196   3.421   3.614  12.709 -0.1497 -0.5504  0.0561
 1188SOL    HW115197   3.408   3.558  12.632 -3.8197 -0.2544  0.4608
 1188SOL    HW215198   3.357   3.681  12.686  0.3084 -0.3127 -0.5243
 1189SOL     OW15199   0.730   3.249   2.899 -0.4166 -0.2525  0.5644
 1189SOL    HW115200   0.694   3.166   2.871 -0.5169  0.2400 -0.7500
 1189SOL    HW215201   0.826   3.240   2.897 -0.5435 -1.5738  0.5387
 1190SOL     OW15202   0.713   3.942   5.349  0.3575 -0.2143  0.3735
 1190SOL    HW115203   0.800   3.911   5.324  0.2822  0.1996 -0.3999
 1190SOL    HW215204   0.671   3.859   5.326  0.1860  0.3826 -1.4690
 1191SOL     OW15205   4.271   4.588   6.745  0.4177 -0.0599  0.0906
 1191SOL    HW115206   4.342   4.563   6.685 -1.1067  1.0536 -2.1539
 1191SOL    HW215207   4.240   4.502   6.775  0.9099 -0.4753 -0.5690
 1192SOL     OW15208   2.588   2.718  16.216 -0.2636 -0.5866 -0.0270
 1192SOL    HW115209   2.676   2.681  16.214 -0.3227 -0.7666  0.7221
 1192SOL    HW215210   2.597   2.802  16.172 -1.0662  0.1097  1.1090
 1193SOL     OW15211   1.103   0.365  17.558  0.3842  0.1132  0.0842
 1193SOL    HW115212   1.043   0.307  17.512 -1.3786  2.1321 -0.2024
 1193SOL    HW215213   1.168   0.394  17.494  0.4625 -1.0256 -0.3477
 1194SOL     OW15214   0.080   4.127   6.873  0.0633  0.3459  0.1200
 1194SOL    HW115215   0.158   4.094   6.829 -0.3368 -3.1204  2.0368
 1194SOL    HW215216   0.016   4.084   6.816 -0.7862 -0.6366  1.8264
 1195SOL     OW15217   4.584   1.662   2.548  0.1045  0.0190  0.2668
 1195SOL    HW115218   4.532   1.681   2.469 -1.5904 -0.8259  1.1590
 1195SOL    HW215219   4.606   1.570   2.530  1.8258  0.5209 -0.1460
 1196SOL     OW15220   2.598   4.406   9.959  0.0867  0.2918 -0.1024
 1196SOL    HW115221   2.651   4.469  10.007  1.2963  0.0904 -1.1892
 1196SOL    HW215222   2.560   4.369  10.039 -2.2665  1.6901 -0.5620
 1197SOL     OW15223   0.615   3.865   6.043  0.0903 -0.4163 -0.0955
 1197SOL    HW115224   0.586   3.929   5.978 -0.1935 -1.9778 -1.4823
 1197SOL    HW215225   0.690   3.822   6.002  1.9584  1.0944  1.6969
 1198SOL     OW15226   3.023   0.876   7.812  0.0954 -0.1939  0.5717
 1198SOL    HW115227   3.089   0.807   7.818 -0.6591 -1.0484 -0.7894
 1198SOL    HW215228   3.016   0.908   7.902 -0.7947 -0.4395  0.5974
 1199SOL     OW15229   1.091   4.682   5.562 -0.1911 -0.1026  0.2385
 1199SOL    HW115230   1.178   4.705   5.530  1.2691 -3.1099  2.0728
 1199SOL    HW215231   1.037   0.023   5.552 -0.4148  0.0753  2.7289
 1200SOL     OW15232   4.407   2.006   3.308 -0.2226 -0.2813 -0.6619
 1200SOL    HW115233   4.424   2.065   3.234 -0.6845 -1.7901 -1.9644
 1200SOL    HW215234   4.347   1.945   3.266  1.0017 -1.3288 -0.8827
 1201SOL     OW15235   0.057   2.354   0.610  0.0596 -0.0343  0.4332
 1201SOL    HW115236   0.053   2.286   0.677 -2.8394 -2.5432 -2.2610
 1201SOL    HW215237   4.723   2.410   0.641  0.5121  0.2645  0.9426
 1202SOL     OW15238   1.552   0.090   7.394  0.2772  0.1163  0.2198
 1202SOL    HW115239   1.593   0.143   7.462  1.8423  1.6927 -1.9707
 1202SOL    HW215240   1.468   0.073   7.437  0.0152 -1.8962 -1.0708
 1203SOL     OW15241   0.016   1.325   9.251 -0.1907  0.6020  0.1841
 1203SOL    HW115242   0.023   1.288   9.163 -3.7475 -0.8626  0.5319
 1203SOL    HW215243   0.096   1.375   9.263 -1.9239  3.0778  1.3787
 1204SOL     OW15244   1.105   2.309  13.457  0.2750 -0.9954 -0.4447
 1204SOL    HW115245   1.104   2.285  13.365  0.7179  1.3137 -1.0472
 1204SOL    HW215246   1.156   2.390  13.465 -0.3719 -0.5918 -0.3463
 1205SOL     OW15247   4.392   0.177   5.638 -0.0611  0.0386 -0.1558
 1205SOL    HW115248   4.360   0.112   5.575  1.2295  0.7342 -1.5493
 1205SOL    HW215249   4.316   0.234   5.637  0.6646  0.9927 -0.7177
 1206SOL     OW15250   2.261   4.342  13.263 -0.1227 -0.4239  0.3321
 1206SOL    HW115251   2.315   4.329  13.185 -0.3210  0.2566  0.0847
 1206SOL    HW215252   2.183   4.354  13.210  0.6853  1.8108 -0.3186
 1207SOL     OW15253   4.516   3.277   1.753  0.0330 -0.2848 -0.2580
 1207SOL    HW115254   4.491   3.302   1.842  1.4969 -2.9112  0.9029
 1207SOL    HW215255   4.516   3.367   1.721  0.7794 -0.3159 -0.3497
 1208SOL     OW15256   0.500   2.952   5.082  0.0895  0.5319  1.1209
 1208SOL    HW115257   0.506   2.917   4.993  0.2122  2.1144  0.5096
 1208SOL    HW215258   0.430   2.895   5.114 -2.7531  2.3828 -1.7594
 1209SOL     OW15259   3.431   0.883  15.767 -0.6033 -0.0731 -0.0134
 1209SOL    HW115260   3.394   0.803  15.729  2.0727  0.2213 -3.2415
 1209SOL    HW215261   3.518   0.873  15.728  0.0100 -1.0337  1.5990
 1210SOL     OW15262   2.775   0.235  16.559  0.4342  0.0685 -0.0584
 1210SOL    HW115263   2.800   0.229  16.651  0.3757  1.3156  0.0389
 1210SOL    HW215264   2.680   0.229  16.567  0.4721 -1.6477 -0.8019
 1211SOL     OW15265   0.694   0.096   4.733  0.5566  0.3639 -0.4755
 1211SOL    HW115266   0.635   0.020   4.730  1.0850 -0.1343  1.1805
 1211SOL    HW215267   0.771   0.047   4.761 -0.1064 -2.4359 -3.5333
 1212SOL     OW15268   1.602   1.641  13.053  0.2900 -0.0065 -0.1029
 1212SOL    HW115269   1.642   1.644  13.140  1.5508 -1.0882 -0.6410
 1212SOL    HW215270   1.645   1.560  13.026 -1.4907 -1.2373  0.7516
 1213SOL     OW15271   0.103   4.632  12.305  1.0487 -0.4787 -0.0538
 1213SOL    HW115272   0.051   4.608  12.382 -0.3788 -2.4044 -1.6132
 1213SOL    HW215273   0.130   4.546  12.273  0.2537 -1.4498  1.8512
 1214SOL     OW15274   0.728   2.197   9.164 -0.1033  0.8178 -0.3121
 1214SOL    HW115275   0.780   2.271   9.134 -2.6204  2.5359 -0.4987
 1214SOL    HW215276   0.669   2.234   9.230 -0.8264 -0.4104 -0.2609
 1215SOL     OW15277   3.418   0.762  11.830  0.0973 -0.1493  0.1162
 1215SOL    HW115278   3.415   0.781  11.924 -0.0219 -0.7833  0.2371
 1215SOL    HW215279   3.453   0.846  11.801 -0.4037 -0.8222 -2.4050
 1216SOL     OW15280   2.647   3.319   5.990  0.4251 -0.1535  0.0725
 1216SOL    HW115281   2.707   3.392   5.972 -1.0231  0.9418 -0.2801
 1216SOL    HW215282   2.684   3.243   5.945 -0.7132 -0.0378 -1.0420
 1217SOL     OW15283   2.839   2.792   0.759  0.7767  0.1572 -0.7023
 1217SOL    HW115284   2.764   2.821   0.810  2.1758 -0.0495  1.4799
 1217SOL    HW215285   2.907   2.789   0.826 -2.1047  0.2087  2.2265
 1218SOL     OW15286   1.750   0.389   4.346 -0.6371  0.2895 -0.3745
 1218SOL    HW115287   1.669   0.368   4.393  0.1400 -1.3422  0.2076
 1218SOL    HW215288   1.821   0.358   4.401 -0.8792 -0.8367 -0.7012
 1219SOL     OW15289   3.586   4.284   4.966 -0.1103  0.1364  0.1461
 1219SOL    HW115290   3.637   4.358   5.001 -0.5705 -0.1505  1.4130
 1219SOL    HW215291   3.600   4.223   5.038 -1.1422  0.2208  0.4243
 1220SOL     OW15292   0.485   1.568   9.010  0.1437 -0.3154 -0.6598
 1220SOL    HW115293   0.401   1.545   9.048  0.6824  0.8768  1.2483
 1220SOL    HW215294   0.492   1.655   9.050  0.9013  0.1511 -1.7987
 1221SOL     OW15295   0.643   1.094   3.752 -0.0958  0.3965  0.1913
 1221SOL    HW115296   0.643   1.186   3.776 -1.8248  0.8906 -1.7697
 1221SOL    HW215297   0.738   1.081   3.760 -0.0149  0.0508 -1.4327
 1222SOL     OW15298   3.995   3.047   7.775  0.0880 -0.2290  0.4204
 1222SOL    HW115299   3.954   3.028   7.860 -0.1692 -0.4060  0.2593
 1222SOL    HW215300   3.917   3.035   7.721 -0.1523  2.7591  0.1056
 1223SOL     OW15301   3.214   1.793   7.571 -0.6930  0.2192 -0.1289
 1223SOL    HW115302   3.180   1.735   7.640 -0.9076  0.7880  0.2422
 1223SOL    HW215303   3.186   1.744   7.494 -0.2675  0.6419 -0.5475
 1224SOL     OW15304   0.601   2.134   2.106  0.3162 -0.0633  0.1418
 1224SOL    HW115305   0.609   2.221   2.147 -1.8399 -0.1276  0.7052
 1224SOL    HW215306   0.663   2.084   2.158  0.0105 -0.2887  0.2886
 1225SOL     OW15307   1.916   4.722  13.939 -0.4376  0.2476  0.4993
 1225SOL    HW115308   1.878   4.636  13.959  0.5517  0.2580  2.4887
 1225SOL    HW215309   1.845   0.043  13.963 -0.5361 -0.2425  1.4225
 1226SOL     OW15310   1.327   1.324   1.783  0.3415  0.5141 -0.1324
 1226SOL    HW115311   1.422   1.322   1.769  0.2524  0.4911 -0.7227
 1226SOL    HW215312   1.290   1.244   1.746 -1.0849  1.0789  0.0736
 1227SOL     OW15313   4.230   2.461  16.013 -0.1158 -0.7844  0.2656
 1227SOL    HW115314   4.168   2.498  16.076  0.1003  2.4280 -1.4165
 1227SOL    HW215315   4.279   2.541  15.997 -0.8327  0.2698  3.4550
 1228SOL     OW15316   3.569   4.443   2.407 -0.1143 -0.1267  0.6579
 1228SOL    HW115317   3.568   4.539   2.407  0.6723 -0.1248  1.0402
 1228SOL    HW215318   3.595   4.426   2.497  2.9343 -3.6192 -0.8803
 1229SOL     OW15319   1.810   3.371  13.940 -0.2504 -0.0043  0.4712
 1229SOL    HW115320   1.846   3.352  13.854 -0.4855 -0.3680  0.4524
 1229SOL    HW215321   1.727   3.324  13.928  0.7541 -0.7954 -3.3645
 1230SOL     OW15322   2.671   2.420   7.276  0.5765 -0.7680 -0.1958
 1230SOL    HW115323   2.754   2.385   7.310  2.4301 -0.2978 -4.2133
 1230SOL    HW215324   2.657   2.480   7.349  0.7314  2.1531 -2.5593
 1231SOL     OW15325   2.948   2.488  13.266  0.2255  0.3039  0.0409
 1231SOL    HW115326   2.868   2.512  13.218 -0.1230 -0.6926  0.1254
 1231SOL    HW215327   2.923   2.516  13.354  2.4755 -0.4622  0.9153
 1232SOL     OW15328   0.903   2.187   5.406  0.2354  0.2615  0.0309
 1232SOL    HW115329   0.877   2.096   5.420  0.3212  0.3107  0.5159
 1232SOL    HW215330   0.815   2.218   5.427 -0.1333 -0.8999  0.1882
 1233SOL     OW15331   4.662   2.195   3.185 -0.0071  0.1660 -0.3027
 1233SOL    HW115332   0.006   2.244   3.176  1.4882 -2.0198  1.4927
 1233SOL    HW215333   4.630   2.203   3.095  0.3822  4.0177 -0.1185
 1234SOL     OW15334   4.306   4.201  13.367 -0.2993 -0.5625  0.5935
 1234SOL    HW115335   4.335   4.175  13.455 -2.2657  0.2714  1.5110
 1234SOL    HW215336   4.221   4.238  13.391 -0.8901 -0.9326 -0.9536
 1235SOL     OW15337   3.323   1.776   6.277  0.4221 -0.0398 -0.1885
 1235SOL    HW115338   3.381   1.778   6.353 -0.4725 -2.1200  0.5696
 1235SOL    HW215339   3.248   1.826   6.309  0.1569 -0.6633  0.1748
 1236SOL     OW15340   2.258   2.591  12.753 -0.0743 -0.2356  0.3064
 1236SOL    HW115341   2.295   2.602  12.840  0.5702 -0.7156  0.0979
 1236SOL    HW215342   2.248   2.679  12.716  0.7272 -0.9376 -1.6034
 1237SOL     OW15343   0.107   2.052   2.884  0.1151  0.2449 -0.5032
 1237SOL    HW115344   0.022   2.094   2.871 -0.0271 -0.1364 -0.8118
 1237SOL    HW215345   0.093   1.979   2.824 -0.1421 -0.6840  0.6987
 1238SOL     OW15346   0.736   1.912  13.551  0.2118  0.8661 -0.2612
 1238SOL    HW115347   0.708   1.925  13.642 -0.4325 -0.1059 -0.3259
 1238SOL    HW215348   0.652   1.930  13.509  0.0240  1.2655  0.2856
 1239SOL     OW15349   0.065   4.634  13.462 -0.5144  0.2625  0.3816
 1239SOL    HW115350   0.144   4.672  13.422 -0.6304  1.0710  0.9113
 1239SOL    HW215351   0.086   4.626  13.555  1.9965 -1.4716 -0.3483
 1240SOL     OW15352   0.225   0.249  11.161  0.4579  0.0907  0.4600
 1240SOL    HW115353   0.264   0.213  11.081 -1.3267  0.1001 -0.4204
 1240SOL    HW215354   0.193   0.331  11.124 -3.6115 -1.3368  0.8720
 1241SOL     OW15355   0.723   1.332   9.605  0.2262  0.6014  0.7745
 1241SOL    HW115356   0.742   1.326   9.699  0.5453  0.4806  0.7012
 1241SOL    HW215357   0.754   1.247   9.575  0.8358  1.2205 -0.3266
 1242SOL     OW15358   2.361   2.362  10.551 -0.6785 -0.4277  0.5320
 1242SOL    HW115359   2.396   2.387  10.465  1.5145  1.4591  1.9610
 1242SOL    HW215360   2.416   2.285  10.563 -0.0087 -0.1078 -0.4265
 1243SOL     OW15361   0.251   0.913   2.938  0.1030  0.2678 -0.2688
 1243SOL    HW115362   0.254   0.993   2.886 -3.5716  0.3909 -0.3166
 1243SOL    HW215363   0.252   0.960   3.022  0.3097 -2.2361  1.1384
 1244SOL     OW15364   4.652   3.003   8.390 -0.2291 -0.7687  0.1697
 1244SOL    HW115365   4.587   3.069   8.413  0.1614 -0.2928 -0.0890
 1244SOL    HW215366   4.725   3.021   8.449 -0.6516  2.7022 -0.3969
 1245SOL     OW15367   1.028   3.237  17.348 -0.0206 -0.8572  0.1810
 1245SOL    HW115368   1.079   3.295  17.405 -0.9541  1.1387 -1.0347
 1245SOL    HW215369   1.094   3.171  17.327  0.7717  0.2651 -0.8568
 1246SOL     OW15370   1.993   4.126  15.406 -0.6406  0.0567  0.7893
 1246SOL    HW115371   1.937   4.056  15.440  2.4329 -3.6144 -1.7347
 1246SOL    HW215372   2.033   4.078  15.334  2.8896 -0.4505  3.0892
 1247SOL     OW15373   0.412   3.003   2.461  0.2046  0.1871  0.3556
 1247SOL    HW115374   0.437   3.080   2.411  2.1424 -0.4128  0.4180
 1247SOL    HW215375   0.318   3.020   2.473 -0.1535  0.0884 -2.3230
 1248SOL     OW15376   0.198   1.752   6.255  0.1924  0.2296  0.0454
 1248SOL    HW115377   0.210   1.671   6.206 -0.0560 -0.4565  1.1219
 1248SOL    HW215378   0.110   1.744   6.290  0.4009 -0.0071  0.5146
 1249SOL     OW15379   1.565   4.562  17.437 -0.0343 -0.0720 -0.1513
 1249SOL    HW115380   1.512   4.622  17.490 -3.5944 -1.3712 -2.2579
 1249SOL    HW215381   1.597   4.627  17.375 -1.5896  1.8032  1.0197
 1250SOL     OW15382   1.160   2.723  11.577  0.0015 -0.3246  0.3457
 1250SOL    HW115383   1.209   2.658  11.527 -2.0258  0.0391 -2.0898
 1250SOL    HW215384   1.108   2.669  11.636  0.3816 -1.0160  0.0533
 1251SOL     OW15385   2.740   1.109   8.112 -0.4198 -0.4225 -0.0089
 1251SOL    HW115386   2.713   1.088   8.202  0.6762 -1.2533  0.1324
 1251SOL    HW215387   2.691   1.037   8.073 -0.2471  1.8286 -4.2877
 1252SOL     OW15388   1.675   2.736   6.953  0.7116 -0.6570 -0.5653
 1252SOL    HW115389   1.652   2.731   6.861  1.6821 -1.7136 -0.7549
 1252SOL    HW215390   1.737   2.809   6.952 -0.0592 -0.0161 -1.3288
 1253SOL     OW15391   1.653   2.008  17.133 -0.4734  0.0516 -0.2845
 1253SOL    HW115392   1.707   2.080  17.102  0.4886 -0.0168  1.2487
 1253SOL    HW215393   1.597   2.001  17.056 -0.4496  1.0101 -0.3793
 1254SOL     OW15394   2.647   0.869   4.695  0.5303 -0.3382  0.5006
 1254SOL    HW115395   2.675   0.958   4.717 -0.9371  0.6178 -1.4820
 1254SOL    HW215396   2.601   0.888   4.613  0.2101 -0.4398  0.6578
 1255SOL     OW15397   3.819   1.851   4.831 -0.5388 -0.0992  0.2822
 1255SOL    HW115398   3.848   1.819   4.745  0.4123  1.3768  0.0608
 1255SOL    HW215399   3.727   1.829   4.823 -0.5348 -0.7062  1.9070
 1256SOL     OW15400   3.044   4.336  15.226 -0.0292 -0.0800 -0.0406
 1256SOL    HW115401   3.014   4.316  15.137 -1.5420 -1.2750  0.7254
 1256SOL    HW215402   3.029   4.430  15.231 -2.6400 -0.3762 -2.1472
 1257SOL     OW15403   0.152   3.710   3.144  0.7088 -0.2823  0.1143
 1257SOL    HW115404   0.152   3.781   3.080  0.6188 -0.2140  0.1904
 1257SOL    HW215405   0.142   3.630   3.093  0.0677 -0.7370  0.9686
 1258SOL     OW15406   3.712   0.303  16.989  0.5878 -0.6759  0.2942
 1258SOL    HW115407   3.790   0.342  17.027 -0.1688  1.0108  0.0900
 1258SOL    HW215408   3.642   0.334  17.047  0.7122  1.8039 -0.8795
 1259SOL     OW15409   1.645   4.296   4.951 -0.8652  0.1670 -0.3634
 1259SOL    HW115410   1.613   4.342   4.873  0.6391  0.6333 -0.7077
 1259SOL    HW215411   1.569   4.286   5.009  0.1250  0.9031  1.0616
 1260SOL     OW15412   4.663   4.444   9.151 -0.6281  0.0826 -0.7809
 1260SOL    HW115413   4.604   4.517   9.128  0.1608  0.3693 -1.8892
 1260SOL    HW215414   4.718   4.478   9.222  2.8867 -3.0353 -2.0233
 1261SOL     OW15415   3.786   1.833   9.220  0.1540 -0.1743  0.4752
 1261SOL    HW115416   3.700   1.791   9.223  0.3714 -0.6294  0.3998
 1261SOL    HW215417   3.833   1.801   9.297  0.2113 -0.4708  0.3188
 1262SOL     OW15418   2.284   3.693   8.146 -0.2393  0.2571 -0.8257
 1262SOL    HW115419   2.205   3.735   8.112 -0.3359 -0.3817 -1.3978
 1262SOL    HW215420   2.353   3.758   8.152 -1.4408  1.3504  1.0126
 1263SOL     OW15421   2.076   0.997   1.208 -0.1657 -0.6802  0.1611
 1263SOL    HW115422   2.046   0.990   1.118  3.3129  0.7929 -1.1197
 1263SOL    HW215423   2.151   1.056   1.196 -0.1204 -0.3588  1.9756
 1264SOL     OW15424   0.195   3.519   2.953 -0.5252  0.1121 -0.0135
 1264SOL    HW115425   0.164   3.509   2.864  0.7349 -1.7326 -0.2422
 1264SOL    HW215426   0.286   3.544   2.936 -0.5271  0.6516  0.7256
 1265SOL     OW15427   1.037   1.023   5.841  0.0233  0.7491  0.0505
 1265SOL    HW115428   0.977   1.089   5.807  0.0872  0.4755 -0.5897
 1265SOL    HW215429   1.012   1.038   5.933 -2.8775 -2.2597 -0.2468
 1266SOL     OW15430   0.365   0.982   5.211 -0.1483 -0.1103  0.2097
 1266SOL    HW115431   0.352   0.998   5.305 -1.8393 -0.1021 -0.0309
 1266SOL    HW215432   0.392   1.073   5.197  2.1064 -0.5397  1.7456
 1267SOL     OW15433   2.044   3.711  10.684  0.4543  0.5815  0.5665
 1267SOL    HW115434   1.988   3.634  10.696  1.0540  0.0533 -0.0025
 1267SOL    HW215435   2.103   3.675  10.617 -1.7578 -1.0595 -0.4928
 1268SOL     OW15436   3.967   3.807  15.496 -0.1347  0.2258 -0.1986
 1268SOL    HW115437   3.908   3.744  15.454  0.4342 -0.4819  0.0602
 1268SOL    HW215438   4.040   3.745  15.504  0.6598  1.2255  0.3395
 1269SOL     OW15439   3.270   2.735   4.742  0.9625 -0.2786 -0.2398
 1269SOL    HW115440   3.220   2.681   4.802 -1.1241  0.9077 -0.9051
 1269SOL    HW215441   3.241   2.694   4.660  3.5747 -1.8713 -0.3580
 1270SOL     OW15442   1.074   0.866   8.032 -0.1310 -0.5832 -0.0840
 1270SOL    HW115443   1.006   0.923   7.996 -0.4880 -1.9575 -1.6192
 1270SOL    HW215444   1.028   0.830   8.108  0.7664  1.3986  1.3810
 1271SOL     OW15445   1.849   1.069   7.257 -0.0187  0.2537  0.3299
 1271SOL    HW115446   1.911   0.998   7.239  0.8777  1.4932 -1.4422
 1271SOL    HW215447   1.849   1.062   7.352  2.0827  0.4324  0.3340
 1272SOL     OW15448   4.623   3.611   9.964 -0.4154 -0.7041 -0.2559
 1272SOL    HW115449   4.601   3.680  10.027  0.5383 -1.7593  1.2477
 1272SOL    HW215450   4.669   3.657   9.894 -0.9771 -0.6467 -0.5786
 1273SOL     OW15451   2.393   3.397   4.472  0.1622 -0.2454 -0.3492
 1273SOL    HW115452   2.432   3.482   4.453 -0.3351  0.1470  0.3764
 1273SOL    HW215453   2.437   3.338   4.411 -3.1603 -1.6827 -1.3624
 1274SOL     OW15454   0.630   3.594  13.439 -0.2371  0.4724  0.4644
 1274SOL    HW115455   0.587   3.590  13.353 -1.1135 -1.5396  1.0011
 1274SOL    HW215456   0.575   3.659  13.484  0.4591  2.7766 -1.9868
 1275SOL     OW15457   2.652   0.691  14.888 -0.4635  0.2885  0.1896
 1275SOL    HW115458   2.736   0.730  14.912  0.5756  0.2550 -3.4883
 1275SOL    HW215459   2.628   0.633  14.961 -1.2302  0.6175  0.2045
 1276SOL     OW15460   3.261   1.052   2.149  0.0385 -0.4139 -0.0397
 1276SOL    HW115461   3.352   1.021   2.139 -0.0737 -0.3225 -1.3227
 1276SOL    HW215462   3.234   1.011   2.231 -1.4729 -1.7493 -1.2212
 1277SOL     OW15463   3.598   1.974   7.071 -0.3744  0.2856  0.0444
 1277SOL    HW115464   3.523   1.917   7.056 -0.7644  0.8421 -0.1471
 1277SOL    HW215465   3.558   2.059   7.091 -0.7823 -0.1173  0.9185
 1278SOL     OW15466   4.096   2.800  17.424  0.2924 -0.6190  0.7091
 1278SOL    HW115467   4.065   2.889  17.442 -1.3945 -0.7848 -1.3109
 1278SOL    HW215468   4.191   2.812  17.426 -0.0849  2.3645  0.4123
 1279SOL     OW15469   0.625   1.043   6.302 -0.1948 -0.2437 -0.1366
 1279SOL    HW115470   0.693   0.994   6.346  1.8528  2.7279  0.0245
 1279SOL    HW215471   0.667   1.049   6.217  1.0512 -0.9300  0.4438
 1280SOL     OW15472   3.801   2.766   6.059  0.3161  0.1817 -0.5432
 1280SOL    HW115473   3.809   2.825   5.984  0.4711 -0.0634 -0.7187
 1280SOL    HW215474   3.735   2.810   6.112  2.4640  1.0336  1.3660
 1281SOL     OW15475   1.186   4.621  12.783  0.3651 -0.2012  0.5667
 1281SOL    HW115476   1.241   4.545  12.799  1.0530  0.5342  1.6851
 1281SOL    HW215477   1.236   4.683  12.729  0.5345 -2.5273 -1.9346
 1282SOL     OW15478   1.263   3.535   6.776  0.1289  0.6792  0.2268
 1282SOL    HW115479   1.304   3.617   6.749 -0.5029  0.8203 -0.2771
 1282SOL    HW215480   1.336   3.474   6.763 -2.4020 -2.7924  2.3116
 1283SOL     OW15481   2.971   3.915   7.425  0.2881 -0.0380  0.1673
 1283SOL    HW115482   2.987   3.896   7.333 -2.6937 -1.6055 -0.0251
 1283SOL    HW215483   3.004   4.004   7.435 -0.6449  0.3862 -0.5480
 1284SOL     OW15484   2.522   0.385  16.513  0.2608  0.3678 -0.1339
 1284SOL    HW115485   2.502   0.476  16.534 -1.0565 -0.1715  0.9508
 1284SOL    HW215486   2.583   0.393  16.439 -1.2963 -0.0508 -1.4572
 1285SOL     OW15487   2.947   4.259   3.295 -0.1282  0.3011 -0.4582
 1285SOL    HW115488   2.937   4.214   3.212  1.8143 -0.9837  0.0177
 1285SOL    HW215489   2.961   4.181   3.350 -2.0543  0.6901  0.6004
 1286SOL     OW15490   2.476   4.422   8.305 -0.2086  0.3153 -0.4467
 1286SOL    HW115491   2.406   4.374   8.261  1.0175  0.2495 -2.3491
 1286SOL    HW215492   2.499   4.358   8.371 -1.9396  1.1614  0.9804
 1287SOL     OW15493   2.088   1.508  14.478 -0.0305  0.8118 -0.0216
 1287SOL    HW115494   2.107   1.429  14.529 -1.1391 -0.6338 -1.8451
 1287SOL    HW215495   2.066   1.573  14.545  2.4398 -2.0244  3.5445
 1288SOL     OW15496   0.108   1.085   5.665  0.1878 -0.1093 -0.1746
 1288SOL    HW115497   0.133   1.178   5.663 -0.6975  0.0991 -1.9426
 1288SOL    HW215498   0.096   1.074   5.571 -1.9233  2.6380 -0.2123
 1289SOL     OW15499   3.552   2.142   7.678  0.0630 -0.2288 -0.9252
 1289SOL    HW115500   3.585   2.131   7.589  0.0658 -2.8075 -0.6214
 1289SOL    HW215501   3.464   2.103   7.672 -1.3848  2.3712  3.5959
 1290SOL     OW15502   1.938   3.866  15.464  0.9354 -0.0637  0.5938
 1290SOL    HW115503   1.964   3.783  15.424  3.5685  2.0416 -2.0456
 1290SOL    HW215504   1.843   3.856  15.475  0.8140  0.5237  0.0430
 1291SOL     OW15505   1.936   0.638  17.485  0.4274  0.3800 -0.2172
 1291SOL    HW115506   1.888   0.558  17.462 -0.0075  0.9314 -1.2096
 1291SOL    HW215507   1.914   0.698  17.414  0.5193 -2.0636 -2.3106
 1292SOL     OW15508   4.283   0.846   2.051  0.3557 -0.8404  0.1904
 1292SOL    HW115509   4.228   0.833   1.973  1.3522 -0.1944 -0.6163
 1292SOL    HW215510   4.283   0.753   2.070  1.1422 -0.7511  0.6253
 1293SOL     OW15511   4.672   0.146  10.882 -0.2006 -0.1327 -0.3225
 1293SOL    HW115512   4.690   0.097  10.963 -1.6566 -0.5583 -0.2592
 1293SOL    HW215513   4.712   0.230  10.904  1.5077 -1.5041  1.7891
 1294SOL     OW15514   2.179   2.495   3.112  0.1333 -0.4971  0.1747
 1294SOL    HW115515   2.109   2.529   3.056  0.0168 -2.5792 -0.9286
 1294SOL    HW215516   2.252   2.468   3.057 -0.0182 -0.6945  0.0717
 1295SOL     OW15517   2.972   3.342   5.620  0.3345 -0.0839  0.2393
 1295SOL    HW115518   2.936   3.317   5.706  0.8787  1.3239  0.8723
 1295SOL    HW215519   2.904   3.398   5.584  0.7505  1.2642  1.5514
 1296SOL     OW15520   2.650   3.880   2.289  0.0951  0.0240 -0.7510
 1296SOL    HW115521   2.570   3.891   2.341 -0.7717 -0.3885 -2.0069
 1296SOL    HW215522   2.712   3.910   2.355 -1.4520  0.2452  0.5852
 1297SOL     OW15523   2.634   0.771   2.330  0.1972 -0.4235 -0.4613
 1297SOL    HW115524   2.694   0.797   2.399 -0.1376 -0.2571 -0.2317
 1297SOL    HW215525   2.561   0.834   2.330 -0.8792 -1.6465 -2.9409
 1298SOL     OW15526   3.427   1.317  14.532  0.0386 -0.0125  0.3514
 1298SOL    HW115527   3.459   1.404  14.508  2.1903 -0.8298  0.2119
 1298SOL    HW215528   3.335   1.333  14.549 -0.2958 -0.3813 -1.0815
 1299SOL     OW15529   2.529   1.082   6.427  0.3558  0.5197  0.2039
 1299SOL    HW115530   2.563   1.057   6.341  0.6748 -2.0515  1.0754
 1299SOL    HW215531   2.486   1.158   6.388 -0.3327  0.3599  0.6560
 1300SOL     OW15532   1.160   2.209   5.192  0.2449  0.0543  0.2533
 1300SOL    HW115533   1.158   2.151   5.269 -1.3172 -2.1826 -1.4673
 1300SOL    HW215534   1.210   2.280   5.232 -4.3102  2.8358  1.0823
 1301SOL     OW15535   3.021   3.726  10.892 -0.2757  0.2497  0.4753
 1301SOL    HW115536   2.985   3.812  10.869 -1.3921 -0.5125 -0.6217
 1301SOL    HW215537   3.089   3.749  10.955 -2.0852 -0.9994  2.8740
 1302SOL     OW15538   0.720   0.892   4.189  0.2344  0.1345  0.5328
 1302SOL    HW115539   0.644   0.909   4.133  0.4330 -2.2882 -0.4663
 1302SOL    HW215540   0.680   0.913   4.273 -2.6548  0.0828 -0.8347
 1303SOL     OW15541   4.254   3.821   3.917  0.3162  0.0538  0.5710
 1303SOL    HW115542   4.165   3.850   3.936 -0.0970 -0.2254 -0.9348
 1303SOL    HW215543   4.240   3.791   3.827 -0.8513  0.0148  0.7649
 1304SOL     OW15544   0.959   0.426  10.291 -0.1965 -0.0731  0.1719
 1304SOL    HW115545   0.959   0.340  10.332  0.6048  1.2378  2.9477
 1304SOL    HW215546   0.947   0.487  10.364  0.5831 -0.5506  0.6995
 1305SOL     OW15547   1.453   4.315  14.244 -0.6954 -0.0413 -0.2170
 1305SOL    HW115548   1.435   4.345  14.333  1.1594 -0.9308  0.4569
 1305SOL    HW215549   1.368   4.275  14.224 -0.3994 -0.7554 -0.0414
 1306SOL     OW15550   3.142   2.591   4.124 -0.6250 -0.0201 -0.4745
 1306SOL    HW115551   3.077   2.521   4.135 -2.2252  2.1120  3.6407
 1306SOL    HW215552   3.090   2.658   4.079  0.9754  1.3028 -0.3443
 1307SOL     OW15553   2.462   2.962   6.731 -0.3135  0.2468  0.2245
 1307SOL    HW115554   2.443   2.962   6.637 -0.6106 -1.9275  0.2814
 1307SOL    HW215555   2.485   2.870   6.743 -0.7466  0.0341 -0.5798
 1308SOL     OW15556   4.733   0.736   4.017 -0.5164  0.4827  0.0518
 1308SOL    HW115557   4.680   0.813   3.994 -1.8492 -0.8775 -1.3805
 1308SOL    HW215558   0.034   0.703   3.936  1.0847 -1.4196  1.5833
 1309SOL     OW15559   3.233   4.659   7.896 -0.0492  0.3807  0.1807
 1309SOL    HW115560   3.154   4.709   7.918 -0.1175  0.7385 -0.8748
 1309SOL    HW215561   3.234   4.607   7.976 -1.2726 -0.7173 -0.5067
 1310SOL     OW15562   0.150   4.272   5.330  0.2454 -0.3267  0.3271
 1310SOL    HW115563   0.179   4.324   5.405 -0.1616  0.3003  0.0566
 1310SOL    HW215564   0.230   4.272   5.278 -0.6032 -1.5146 -0.9814
 1311SOL     OW15565   3.836   1.613   2.381 -0.2777 -0.3316 -0.1770
 1311SOL    HW115566   3.923   1.630   2.417  0.4788 -0.9324 -1.7201
 1311SOL    HW215567   3.857   1.532   2.335 -0.3959 -0.1973 -0.4662
 1312SOL     OW15568   1.146   1.874   4.085  0.0973 -0.3077  0.0303
 1312SOL    HW115569   1.222   1.883   4.027  0.7468 -2.0407  0.6204
 1312SOL    HW215570   1.092   1.926   4.026 -1.0997 -0.6229  0.8433
 1313SOL     OW15571   3.034   4.618   8.650  0.2661  0.4748 -0.3049
 1313SOL    HW115572   3.095   4.634   8.721 -1.7631 -1.1921  1.7912
 1313SOL    HW215573   3.033   4.523   8.658 -0.8595  0.4861 -0.3076
 1314SOL     OW15574   3.299   4.609  14.384 -0.1168  0.3629  0.3808
 1314SOL    HW115575   3.271   4.561  14.306 -0.0206 -1.6937  1.6219
 1314SOL    HW215576   3.226   4.671  14.394  1.9858  2.9402 -0.0944
 1315SOL     OW15577   0.264   0.694   0.194 -0.1622  0.1448  0.5878
 1315SOL    HW115578   0.197   0.643   0.241 -0.6247  0.9678  0.8161
 1315SOL    HW215579   0.245   0.673   0.103 -1.0293  1.9936  0.3462
 1316SOL     OW15580   3.343   1.408   9.385 -0.2088 -0.3447  0.5476
 1316SOL    HW115581   3.296   1.428   9.304  0.4446  2.9956  0.9565
 1316SOL    HW215582   3.382   1.323   9.367 -0.3340 -0.3553  0.3329
 1317SOL     OW15583   2.017   2.066  17.480 -0.1942  0.7955  0.0201
 1317SOL    HW115584   1.994   2.036  17.392  1.4005  3.2331 -1.2302
 1317SOL    HW215585   2.082   2.001  17.508  0.6579  0.6823 -2.2052
 1318SOL     OW15586   3.568   2.461   2.804 -0.3157  0.7868  0.0949
 1318SOL    HW115587   3.629   2.511   2.750  1.0332 -1.0613 -0.1200
 1318SOL    HW215588   3.532   2.528   2.861  1.0174  0.2158  1.6128
 1319SOL     OW15589   0.221   1.059  12.938  0.3443 -0.3347 -0.1480
 1319SOL    HW115590   0.215   1.012  12.855  1.5291 -1.4351  0.3970
 1319SOL    HW215591   0.313   1.054  12.965 -0.5938  1.1303  3.4027
 1320SOL     OW15592   1.086   2.678   1.712 -0.4635 -0.4529  0.8568
 1320SOL    HW115593   1.026   2.643   1.778  0.2313 -2.0863  0.6041
 1320SOL    HW215594   1.090   2.610   1.645  3.1487  1.8328 -1.1964
 1321SOL     OW15595   4.468   3.664   7.963  0.5423 -0.2323  0.5515
 1321SOL    HW115596   4.388   3.707   7.996  0.7789 -0.2303  1.1289
 1321SOL    HW215597   4.444   3.618   7.883 -1.2275 -0.4435  1.1842
 1322SOL     OW15598   2.209   2.123   2.983  0.3203 -0.2188  0.9391
 1322SOL    HW115599   2.121   2.156   2.962 -0.0936 -0.9782  1.4629
 1322SOL    HW215600   2.208   2.034   2.948  0.5490 -0.4937  1.6219
 1323SOL     OW15601   1.369   0.226   4.724  0.0750  0.4657 -0.8303
 1323SOL    HW115602   1.428   0.302   4.715 -0.4079  0.7046 -2.0344
 1323SOL    HW215603   1.437   0.174   4.681 -0.6838 -0.8900 -0.3546
 1324SOL     OW15604   0.391   2.546   2.168  0.0671  0.2327 -0.3028
 1324SOL    HW115605   0.296   2.545   2.161  0.0630 -2.4572  0.1165
 1324SOL    HW215606   0.407   2.637   2.143  1.8525 -0.1618 -0.6431
 1325SOL     OW15607   1.216   0.975  17.179 -0.2174  0.3335 -0.6073
 1325SOL    HW115608   1.228   0.907  17.113 -2.4302  0.7940 -1.5004
 1325SOL    HW215609   1.121   0.986  17.171 -0.6033 -2.1760  0.7143
 1326SOL     OW15610   4.660   2.132   7.356  0.1568  0.4205  0.2223
 1326SOL    HW115611   4.587   2.158   7.411  0.4587  0.6846  0.4926
 1326SOL    HW215612   4.635   2.049   7.314 -1.4032  0.8092  0.3922
 1327SOL     OW15613   0.073   2.078   9.120 -0.1838  0.3095 -0.1324
 1327SOL    HW115614   0.081   2.115   9.208 -1.4378 -0.6067  0.3569
 1327SOL    HW215615   0.165   2.084   9.092 -0.7665  1.5648 -1.7991
 1328SOL     OW15616   4.208   2.362   3.066  0.2158 -0.0608  0.1062
 1328SOL    HW115617   4.135   2.331   3.013  0.5339  2.1026 -1.5754
 1328SOL    HW215618   4.230   2.444   3.023 -2.2991  0.0298 -1.0396
 1329SOL     OW15619   4.265   1.011  16.118 -0.0087 -0.2119  0.1335
 1329SOL    HW115620   4.356   0.982  16.124  1.9688  4.9759 -4.6857
 1329SOL    HW215621   4.214   0.938  16.083 -0.8182  1.1174 -1.4458
 1330SOL     OW15622   0.054   0.052   6.905 -0.1968  0.4617 -0.3049
 1330SOL    HW115623   4.716   0.015   6.858 -0.2985 -0.5671  0.6687
 1330SOL    HW215624   0.083   4.709   6.949  0.9078  1.1416  0.2139
 1331SOL     OW15625   1.419   0.813  16.397  0.1246  0.2143 -0.2339
 1331SOL    HW115626   1.350   0.759  16.360 -1.2275 -0.3239  3.0341
 1331SOL    HW215627   1.379   0.823  16.483  0.8275  1.4810 -0.0521
 1332SOL     OW15628   4.649   0.000   8.099  0.4473 -0.1654  0.2239
 1332SOL    HW115629   4.693   4.654   8.114  0.0304 -0.6902 -1.4671
 1332SOL    HW215630   4.615   4.719   8.011  1.3331 -1.0104  0.0695
 1333SOL     OW15631   1.838   2.974   5.480  0.1688  0.4039  0.0884
 1333SOL    HW115632   1.836   2.981   5.385 -2.2307  0.0987  0.1188
 1333SOL    HW215633   1.922   3.019   5.492  0.8025 -0.3695 -1.4914
 1334SOL     OW15634   3.428   2.222   8.202  0.4711 -0.0917 -0.1268
 1334SOL    HW115635   3.364   2.151   8.207  0.2692  0.1354  0.5283
 1334SOL    HW215636   3.476   2.195   8.124 -1.1404 -1.0502 -0.7862
 1335SOL     OW15637   1.072   2.511   2.877 -0.4673 -0.0094 -0.1711
 1335SOL    HW115638   1.106   2.493   2.789 -0.5943  0.0504 -0.2321
 1335SOL    HW215639   1.129   2.585   2.897  0.9608 -1.6773  1.7926
 1336SOL     OW15640   4.556   4.670   3.141 -0.4819 -0.2108 -0.3657
 1336SOL    HW115641   4.589   4.683   3.052  0.9296  1.3839  0.3877
 1336SOL    HW215642   4.515   4.583   3.145  1.9159 -1.3326 -0.4158
 1337SOL     OW15643   1.636   0.354   8.393  0.5843  0.2030  0.0753
 1337SOL    HW115644   1.545   0.380   8.379  0.5339 -0.1086 -0.1669
 1337SOL    HW215645   1.670   0.381   8.308  0.0556 -2.3909 -0.9487
 1338SOL     OW15646   2.538   3.203   4.301 -0.1740  0.5051  0.2932
 1338SOL    HW115647   2.586   3.133   4.344 -0.0164  2.5678  3.4694
 1338SOL    HW215648   2.607   3.231   4.239  0.6837 -3.0788 -0.3500
 1339SOL     OW15649   4.174   2.334   9.789 -0.1866  0.4953 -0.3066
 1339SOL    HW115650   4.176   2.263   9.852 -0.6828  0.3769 -0.4225
 1339SOL    HW215651   4.080   2.353   9.790  0.1484  2.0953  0.9673
 1340SOL     OW15652   4.255   3.682   1.153  0.1241  0.3886  0.0683
 1340SOL    HW115653   4.215   3.747   1.096 -3.5271 -1.8864  0.0514
 1340SOL    HW215654   4.210   3.689   1.238  0.8573 -1.1891  0.5954
 1341SOL     OW15655   2.515   3.132  17.183 -0.3752  0.3238 -0.1480
 1341SOL    HW115656   2.598   3.164  17.147 -0.1025  2.2675  2.1689
 1341SOL    HW215657   2.511   3.048  17.138 -0.7550  0.6507 -0.7109
 1342SOL     OW15658   1.866   0.606   7.290  0.4703  0.2393 -0.2978
 1342SOL    HW115659   1.872   0.624   7.196  2.8762 -1.2415 -0.4227
 1342SOL    HW215660   1.945   0.657   7.309 -0.9646  2.9372 -1.4933
 1343SOL     OW15661   2.073   0.343   6.503  0.3452  0.0508  0.4169
 1343SOL    HW115662   1.981   0.338   6.532  0.4620  0.4974  0.8509
 1343SOL    HW215663   2.084   0.438   6.498 -0.6304  0.0613 -1.6462
 1344SOL     OW15664   4.366   0.406   8.671 -0.2787  0.0586 -0.5757
 1344SOL    HW115665   4.370   0.475   8.604 -1.1122 -0.4555 -1.1501
 1344SOL    HW215666   4.418   0.337   8.629  0.2414 -0.9596  1.7028
 1345SOL     OW15667   0.215   0.954  13.309 -0.2343 -0.4162 -0.3213
 1345SOL    HW115668   0.253   1.019  13.367  0.0566 -0.1541 -0.8058
 1345SOL    HW215669   0.286   0.934  13.248  0.2171  0.6584 -0.1535
 1346SOL     OW15670   1.955   1.483   0.305  0.3087 -0.1500 -0.0154
 1346SOL    HW115671   1.864   1.463   0.281  1.6364 -5.4239 -0.6330
 1346SOL    HW215672   1.998   1.398   0.297 -0.4959 -0.7148  1.7105
 1347SOL     OW15673   1.576   2.409  15.688 -0.0189 -0.4760  0.4986
 1347SOL    HW115674   1.610   2.436  15.774  0.5914 -0.2539  0.1870
 1347SOL    HW215675   1.637   2.450  15.627 -0.4753  0.2591  0.5398
 1348SOL     OW15676   4.418   1.184   3.240  0.2852 -0.2253 -0.1079
 1348SOL    HW115677   4.394   1.202   3.331  0.8273 -0.7524  0.1439
 1348SOL    HW215678   4.343   1.218   3.191  0.5458  2.0759  1.1193
 1349SOL     OW15679   4.330   0.874   7.804  0.1655 -0.6274 -0.3088
 1349SOL    HW115680   4.400   0.926   7.766  1.7966 -0.6386  2.7096
 1349SOL    HW215681   4.254   0.921   7.770  0.3712 -0.2813 -0.2902
 1350SOL     OW15682   0.235   3.780  13.285 -0.2163 -0.3383  0.5559
 1350SOL    HW115683   0.255   3.870  13.311 -2.6986  0.1698  0.7274
 1350SOL    HW215684   0.324   3.744  13.290  0.3980  0.9771 -0.6365
 1351SOL     OW15685   2.612   4.697   5.406  0.4671 -0.2275 -0.1920
 1351SOL    HW115686   2.548   0.030   5.395 -0.1993 -1.0213 -1.3285
 1351SOL    HW215687   2.659   4.698   5.323 -0.5664 -0.2747 -0.7662
 1352SOL     OW15688   3.593   4.290  17.032 -0.0511  1.1280 -0.5750
 1352SOL    HW115689   3.578   4.243  16.950 -1.5034 -0.5305  0.6263
 1352SOL    HW215690   3.580   4.381  17.006 -0.3631  0.9419 -1.0605
 1353SOL     OW15691   1.842   1.135   6.000 -0.3190 -0.0558 -0.4933
 1353SOL    HW115692   1.937   1.127   5.994 -0.1620  1.5419 -0.0496
 1353SOL    HW215693   1.825   1.186   5.921  1.7988 -0.6248 -1.3146
 1354SOL     OW15694   1.731   3.551   3.212 -0.0488 -0.3165 -0.2409
 1354SOL    HW115695   1.762   3.507   3.291 -1.0704 -0.2461  0.1930
 1354SOL    HW215696   1.692   3.478   3.164 -0.9823 -1.1946  1.8850
 1355SOL     OW15697   3.412   0.607   6.191  0.2237 -0.1408  0.2517
 1355SOL    HW115698   3.366   0.529   6.223  1.2837 -0.5885  0.6786
 1355SOL    HW215699   3.462   0.562   6.123  1.8745 -0.1015  1.4348
 1356SOL     OW15700   0.725   2.336   6.413 -0.0538  0.1078  0.3742
 1356SOL    HW115701   0.784   2.265   6.439 -0.1145  0.4189  1.3548
 1356SOL    HW215702   0.652   2.297   6.461 -1.2885 -0.0425 -1.6406
 1357SOL     OW15703   2.082   0.285   5.875 -0.3040 -0.1806  0.0048
 1357SOL    HW115704   2.054   0.194   5.891 -0.3152 -0.3244 -0.8571
 1357SOL    HW215705   2.019   0.313   5.809  0.5789 -0.4081 -0.9209
 1358SOL     OW15706   2.233   1.671   3.917  0.0776  0.4972  0.4804
 1358SOL    HW115707   2.194   1.644   4.000 -0.8911 -0.5770 -0.3219
 1358SOL    HW215708   2.245   1.586   3.875 -0.1111 -0.1835  1.8332
 1359SOL     OW15709   1.834   0.434  10.330  0.2017  0.7194 -0.3262
 1359SOL    HW115710   1.843   0.347  10.292  0.5426  0.1528  1.0405
 1359SOL    HW215711   1.806   0.417  10.420 -1.0523 -1.1939 -1.0733
 1360SOL     OW15712   2.765   0.632   8.232 -0.0642 -0.6703  0.2138
 1360SOL    HW115713   2.810   0.698   8.285  1.6372 -1.1905 -0.5644
 1360SOL    HW215714   2.837   0.607   8.174  0.8184  0.2426  0.9130
 1361SOL     OW15715   1.179   4.180  11.513 -0.5201  0.5041 -0.2761
 1361SOL    HW115716   1.231   4.226  11.447 -0.5065  2.0038  0.7921
 1361SOL    HW215717   1.213   4.219  11.593  0.0831  0.1962 -0.3818
 1362SOL     OW15718   1.038   2.328   7.092  0.0719  0.0208  0.0827
 1362SOL    HW115719   0.996   2.412   7.072  0.7699  0.8827  2.2440
 1362SOL    HW215720   1.111   2.353   7.148 -0.9061  2.3050  0.3653
 1363SOL     OW15721   1.379   0.913   7.772  0.0962  0.4075 -0.4706
 1363SOL    HW115722   1.317   0.842   7.757  0.8420 -0.3739  0.1800
 1363SOL    HW215723   1.396   0.905   7.865  1.0156 -0.3108 -0.6998
 1364SOL     OW15724   4.434   1.922   7.848  0.1110 -0.0343 -0.2466
 1364SOL    HW115725   4.359   1.898   7.794  2.5041 -1.8546 -2.7664
 1364SOL    HW215726   4.506   1.920   7.785  1.8314  1.4186  1.6517
 1365SOL     OW15727   0.235   3.147   5.553  0.2655  0.2868 -0.3332
 1365SOL    HW115728   0.330   3.156   5.542  0.3948  0.6681  0.9952
 1365SOL    HW215729   0.218   3.121   5.463  0.2704 -0.8874  0.0093
 1366SOL     OW15730   0.350   1.518   6.441  0.2622  0.1670 -0.8195
 1366SOL    HW115731   0.415   1.522   6.371 -1.3518  1.1896 -2.2532
 1366SOL    HW215732   0.279   1.546   6.383 -1.6796 -2.7591  0.1603
 1367SOL     OW15733   2.698   0.331   1.091 -0.3626 -0.4314  0.6151
 1367SOL    HW115734   2.672   0.286   1.010  0.0858  0.1764  0.1400
 1367SOL    HW215735   2.615   0.373   1.113  1.0810  1.6359  2.1422
 1368SOL     OW15736   0.668   0.600   7.382  0.1648  0.1015 -0.1144
 1368SOL    HW115737   0.715   0.682   7.397 -0.9744  0.6082  0.7000
 1368SOL    HW215738   0.747   0.548   7.372 -0.6210 -1.2847  0.8832
 1369SOL     OW15739   3.467   3.103   9.968  1.3549  0.4211  0.2993
 1369SOL    HW115740   3.455   3.106  10.063  2.7177  1.2131  0.4569
 1369SOL    HW215741   3.472   3.197   9.950 -0.5688  0.4329 -0.1070
 1370SOL     OW15742   2.113   0.022   1.391  0.5831  0.0625  0.0605
 1370SOL    HW115743   2.130   4.731   1.301  2.0441  1.3364 -0.0686
 1370SOL    HW215744   2.019   0.039   1.395  0.1807 -2.6747  2.3574
 1371SOL     OW15745   2.929   2.187  12.440 -0.7162  0.4724 -0.1577
 1371SOL    HW115746   2.882   2.118  12.486  0.5972 -0.2800  0.0442
 1371SOL    HW215747   2.854   2.222  12.392 -0.7376  1.8764  0.8852
 1372SOL     OW15748   2.523   0.584   8.171 -0.0964 -0.3169  0.1733
 1372SOL    HW115749   2.542   0.520   8.103  0.9218 -2.8800  2.9237
 1372SOL    HW215750   2.611   0.612   8.197 -2.1616  1.8200  4.8735
 1373SOL     OW15751   1.214   2.633   7.566 -0.1500  0.3010 -0.1792
 1373SOL    HW115752   1.260   2.665   7.488  0.2348 -1.6262 -0.7426
 1373SOL    HW215753   1.284   2.585   7.610 -0.9805  0.3750  1.2206
 1374SOL     OW15754   2.406   0.554   6.173 -0.1967  0.1814  0.5226
 1374SOL    HW115755   2.321   0.511   6.184  0.9057 -1.7594  1.4103
 1374SOL    HW215756   2.452   0.482   6.131 -2.0362 -0.3940 -0.5194
 1375SOL     OW15757   2.729   4.707   7.780 -0.5360  0.4185  0.2801
 1375SOL    HW115758   2.661   4.640   7.785  1.1483 -1.1869  1.6659
 1375SOL    HW215759   2.685   0.055   7.785 -1.5298 -0.1554  1.1483
 1376SOL     OW15760   4.014   4.156  10.056  0.1866  0.0976 -0.4736
 1376SOL    HW115761   3.983   4.122  10.140 -1.9719  0.5587 -1.1037
 1376SOL    HW215762   4.063   4.227  10.096  0.0543 -0.0674 -0.0189
 1377SOL     OW15763   2.744   1.177   7.045 -0.2205  0.3115  0.2537
 1377SOL    HW115764   2.679   1.107   7.058 -0.9764  0.5690 -2.1564
 1377SOL    HW215765   2.698   1.217   6.971  1.6770 -0.3710 -1.3031
 1378SOL     OW15766   3.014   2.754   6.975 -0.0634 -0.5510 -0.2295
 1378SOL    HW115767   2.960   2.685   7.015 -0.2220 -0.2638  0.0596
 1378SOL    HW215768   3.104   2.737   7.001  0.4631 -1.2479 -2.5534
 1379SOL     OW15769   2.828   1.928   4.235 -0.4175  0.1543  0.3761
 1379SOL    HW115770   2.779   1.983   4.296 -1.8993 -1.7573  0.9200
 1379SOL    HW215771   2.771   1.948   4.160  1.0418  0.7302 -0.5798
 1380SOL     OW15772   1.959   2.574   5.006 -0.3830 -0.4337 -0.2590
 1380SOL    HW115773   1.926   2.637   5.070 -1.5685  1.1631 -2.4479
 1380SOL    HW215774   1.881   2.565   4.950  0.4165 -1.1955 -1.2668
 1381SOL     OW15775   4.088   2.598   5.707 -0.1149 -0.1830  0.7494
 1381SOL    HW115776   4.132   2.606   5.791 -2.5394  1.0827  1.9090
 1381SOL    HW215777   4.142   2.527   5.672 -1.6393 -0.9934  0.0325
 1382SOL     OW15778   2.207   4.372   2.152  0.2650  0.3889 -0.0783
 1382SOL    HW115779   2.224   4.432   2.225  2.2045  1.5854 -1.5026
 1382SOL    HW215780   2.239   4.421   2.076 -0.8253 -0.0213 -0.8119
 1383SOL     OW15781   4.154   3.595   9.036 -0.4640  0.3436  0.0881
 1383SOL    HW115782   4.164   3.617   8.943 -1.0793 -0.2797 -0.1241
 1383SOL    HW215783   4.244   3.577   9.064 -1.0137  0.9890  2.3191
 1384SOL     OW15784   0.685   3.268   7.699  0.0102  0.1033 -0.1178
 1384SOL    HW115785   0.731   3.288   7.618 -0.4292 -2.2207 -0.9659
 1384SOL    HW215786   0.665   3.353   7.739  1.8837 -0.4925  2.0704
 1385SOL     OW15787   2.587   0.551   5.233 -0.0882 -0.4008  0.8078
 1385SOL    HW115788   2.638   0.607   5.175 -0.7684  1.2021  1.7531
 1385SOL    HW215789   2.500   0.573   5.201 -0.2848 -1.2763  0.7603
 1386SOL     OW15790   2.848   4.380   2.408 -0.4889  0.0308  0.2760
 1386SOL    HW115791   2.879   4.463   2.373  1.1405  0.1529  2.0324
 1386SOL    HW215792   2.820   4.405   2.497 -0.4558  3.0419 -0.5670
 1387SOL     OW15793   3.602   0.335   4.792 -0.4994 -0.1809  0.1899
 1387SOL    HW115794   3.695   0.355   4.808  0.0986  0.0216 -3.6502
 1387SOL    HW215795   3.561   0.325   4.878  0.0536 -1.0601  0.3627
 1388SOL     OW15796   2.775   1.810   1.163 -0.0302  0.0108 -0.1473
 1388SOL    HW115797   2.763   1.894   1.207 -0.1014  0.1053 -0.3483
 1388SOL    HW215798   2.824   1.838   1.086  1.5114  0.6632  1.0649
 1389SOL     OW15799   4.641   3.708   3.211  0.2366 -0.3833 -0.0683
 1389SOL    HW115800   4.734   3.722   3.195  0.4360  0.6737  2.0031
 1389SOL    HW215801   4.608   3.656   3.138 -0.6705  2.1389 -1.4455
 1390SOL     OW15802   4.347   3.304  17.339  0.4342  0.0431  0.1625
 1390SOL    HW115803   4.324   3.381  17.391 -2.5632  0.6051 -2.0128
 1390SOL    HW215804   4.268   3.271  17.297  0.5548 -0.2597  0.1729
 1391SOL     OW15805   4.253   0.319  12.791  0.1773  0.2523 -0.1269
 1391SOL    HW115806   4.248   0.282  12.703 -1.6400 -0.6225  0.3576
 1391SOL    HW215807   4.345   0.347  12.795  0.2188  0.1406 -0.3649
 1392SOL     OW15808   4.470   2.618  12.026  0.3502 -0.3665  0.1439
 1392SOL    HW115809   4.547   2.674  12.025 -0.6895  1.0969  1.8860
 1392SOL    HW215810   4.505   2.548  11.971 -0.9439 -0.1996 -0.9011
 1393SOL     OW15811   3.487   2.876   7.980 -0.1460 -0.1699 -0.0110
 1393SOL    HW115812   3.539   2.912   8.052 -1.2982 -0.2613  0.8819
 1393SOL    HW215813   3.405   2.896   8.026  1.3574 -1.2935  3.1422
 1394SOL     OW15814   3.548   3.723  13.777  0.1719  0.3651  0.1773
 1394SOL    HW115815   3.591   3.640  13.757  0.6622  0.3839  1.1658
 1394SOL    HW215816   3.606   3.782  13.729 -0.9705  1.9928  0.7930
 1395SOL     OW15817   3.974   3.011   7.398 -0.4845  0.0519 -0.4296
 1395SOL    HW115818   3.901   2.949   7.397 -0.4499  0.0203 -0.7772
 1395SOL    HW215819   4.031   2.961   7.457 -1.4737  2.0089  2.2099
 1396SOL     OW15820   3.485   2.326   8.461  0.3999  0.5227 -0.1958
 1396SOL    HW115821   3.466   2.260   8.394  1.0311  0.3564 -0.2137
 1396SOL    HW215822   3.464   2.402   8.406  0.0713  0.7652  0.2709
 1397SOL     OW15823   0.850   2.232   7.351  0.5332 -0.6452  0.7130
 1397SOL    HW115824   0.936   2.260   7.382  0.0152  0.9422  0.7184
 1397SOL    HW215825   0.788   2.281   7.406  0.6622 -0.0959  0.3670
 1398SOL     OW15826   3.746   0.701   4.230  0.9995  0.0847 -0.1944
 1398SOL    HW115827   3.745   0.606   4.228  0.2659  0.0958 -0.1936
 1398SOL    HW215828   3.691   0.724   4.305  2.3165 -3.0788  1.7532
 1399SOL     OW15829   2.746   0.243  15.191 -0.0295  0.4067  0.0138
 1399SOL    HW115830   2.677   0.257  15.126 -0.3467  0.5378  0.3741
 1399SOL    HW215831   2.690   0.231  15.268  0.5311 -1.2118  0.1580
 1400SOL     OW15832   0.770   0.366   3.413  0.3756 -0.4119 -0.0586
 1400SOL    HW115833   0.751   0.353   3.506 -2.4678  1.5597 -0.3723
 1400SOL    HW215834   0.725   0.445   3.383  0.9344 -0.0964 -0.0687
 1401SOL     OW15835   3.384   1.341   5.872  0.0044 -0.2952  0.1228
 1401SOL    HW115836   3.424   1.423   5.845 -2.0345  0.9858  0.9590
 1401SOL    HW215837   3.373   1.365   5.964 -0.7488 -1.1019  0.2533
 1402SOL     OW15838   4.000   0.064   8.287 -0.2163 -0.1407 -0.0321
 1402SOL    HW115839   4.011   0.098   8.376  0.6249 -0.0984 -0.1547
 1402SOL    HW215840   3.970   4.713   8.305 -0.5893 -0.3207 -1.5929
 1403SOL     OW15841   2.845   0.153   4.487  0.0927 -0.4327  0.5210
 1403SOL    HW115842   2.929   0.141   4.532 -0.2239  0.1751  1.2665
 1403SOL    HW215843   2.792   0.089   4.534 -0.8201  0.2148  0.3623
 1404SOL     OW15844   3.996   0.987   9.303 -0.1428  0.2552 -0.6587
 1404SOL    HW115845   4.010   1.080   9.284  1.2380  0.0327 -0.7311
 1404SOL    HW215846   3.902   0.981   9.320  0.1551 -0.2149  0.8096
 1405SOL     OW15847   1.185   3.760   9.820  0.3660  0.1631  0.6335
 1405SOL    HW115848   1.213   3.697   9.887  1.7431 -0.3020 -0.3818
 1405SOL    HW215849   1.257   3.823   9.809 -0.4125  0.8169 -0.7725
 1406SOL     OW15850   1.084   3.250   3.888  0.3654 -0.0449  0.1415
 1406SOL    HW115851   1.082   3.316   3.818 -0.5416  1.0086  1.1618
 1406SOL    HW215852   1.152   3.283   3.947 -0.3325  2.2528 -0.3172
 1407SOL     OW15853   0.330   4.280   9.709 -0.1590 -0.2404 -0.0920
 1407SOL    HW115854   0.276   4.297   9.631  1.8048 -0.7590 -1.5717
 1407SOL    HW215855   0.262   4.314   9.767 -0.8399 -1.7710  0.0247
 1408SOL     OW15856   3.082   2.524   8.693 -1.0462 -0.1020  0.2057
 1408SOL    HW115857   3.072   2.619   8.684 -2.9283 -0.2582  0.6854
 1408SOL    HW215858   3.168   2.527   8.736 -0.7959  0.7011 -0.3421
 1409SOL     OW15859   2.252   2.186  13.029  0.4856 -0.2830  0.0618
 1409SOL    HW115860   2.161   2.162  13.008  1.1246 -1.6203 -1.1936
 1409SOL    HW215861   2.289   2.116  13.081 -1.7740 -2.1304 -0.8197
 1410SOL     OW15862   1.970   1.136   7.512  0.4892 -0.0933 -0.0001
 1410SOL    HW115863   2.042   1.173   7.460  0.5029  0.8481  0.7001
 1410SOL    HW215864   2.022   1.106   7.587 -2.0503 -1.3103  1.2423
 1411SOL     OW15865   2.120   1.089   0.079  0.4627 -0.4385 -0.4373
 1411SOL    HW115866   2.193   1.052   0.130 -0.4636 -0.1866  1.0725
 1411SOL    HW215867   2.075   1.144   0.142  1.1181  0.4011 -0.7016
 1412SOL     OW15868   2.429   2.304   1.199 -0.5072  0.6126 -0.0370
 1412SOL    HW115869   2.438   2.223   1.250  0.3153 -0.5679 -2.0640
 1412SOL    HW215870   2.355   2.279   1.143 -0.1002  1.7347 -1.0790
 1413SOL     OW15871   1.281   1.395  11.370 -0.2449  0.2376  0.6477
 1413SOL    HW115872   1.299   1.327  11.436 -2.1083 -1.1893 -0.3146
 1413SOL    HW215873   1.338   1.468  11.394  1.0982  0.2709 -2.6854
 1414SOL     OW15874   2.967   0.362   4.347 -0.0914  0.6917  0.6766
 1414SOL    HW115875   2.929   0.450   4.359  0.2057  1.1692 -1.9161
 1414SOL    HW215876   2.917   0.307   4.407 -0.9728  1.0126  0.2380
 1415SOL     OW15877   0.314   0.146   5.955  0.2595 -0.4544  0.1053
 1415SOL    HW115878   0.408   0.132   5.956  0.5033  1.0359 -0.9863
 1415SOL    HW215879   0.311   0.235   5.991 -0.1854 -1.3405  2.2469
 1416SOL     OW15880   4.656   3.056   6.748 -0.2351  0.3343  0.1673
 1416SOL    HW115881   4.581   3.110   6.773  1.3180  1.4605  2.2845
 1416SOL    HW215882   4.706   3.063   6.829  2.7060 -2.5987 -1.3875
 1417SOL     OW15883   3.679   3.017   5.504 -0.1576 -0.4227  0.3097
 1417SOL    HW115884   3.744   3.014   5.573  0.1337  1.5087  0.1002
 1417SOL    HW215885   3.640   3.103   5.517 -0.1663 -0.6284  1.6466
 1418SOL     OW15886   4.078   3.501  12.631  0.4880 -0.0816  0.0034
 1418SOL    HW115887   4.026   3.510  12.710  0.4909  1.7132 -0.1991
 1418SOL    HW215888   4.024   3.452  12.569 -0.7785  0.1232  0.9492
 1419SOL     OW15889   0.207   3.308   4.117 -0.2625 -0.3936  0.3506
 1419SOL    HW115890   0.299   3.328   4.135  0.7219 -3.5026 -1.1069
 1419SOL    HW215891   0.164   3.381   4.160  1.8684  0.9824  0.1730
 1420SOL     OW15892   0.624   3.548  15.783  0.6140  0.7556  0.0648
 1420SOL    HW115893   0.535   3.523  15.760  1.2406 -1.0321 -0.4515
 1420SOL    HW215894   0.612   3.640  15.759  0.9447  1.0189  0.8992
 1421SOL     OW15895   1.056   3.526   4.859  0.4459  0.5159  0.1407
 1421SOL    HW115896   1.008   3.458   4.906  1.4554 -0.3968 -0.1517
 1421SOL    HW215897   0.995   3.543   4.787  1.1410 -0.3801 -0.6666
 1422SOL     OW15898   1.487   0.681   3.144 -0.2731  0.0065 -0.2257
 1422SOL    HW115899   1.500   0.775   3.152  1.4790 -0.1605 -1.0253
 1422SOL    HW215900   1.567   0.651   3.188  1.3962 -0.0702 -3.3300
 1423SOL     OW15901   4.020   0.294   3.555  0.3493 -0.9502 -0.1303
 1423SOL    HW115902   3.926   0.313   3.560  0.7291  0.7174  0.6156
 1423SOL    HW215903   4.005   0.203   3.530  0.4613 -0.6965 -1.1334
 1424SOL     OW15904   1.876   1.327   4.236  0.0986  0.2253 -0.4028
 1424SOL    HW115905   1.912   1.381   4.306  0.6530  0.6900 -1.0354
 1424SOL    HW215906   1.918   1.372   4.162 -0.4739 -1.8018 -1.9564
 1425SOL     OW15907   2.319   0.208   4.925 -0.6506  0.0350  0.2372
 1425SOL    HW115908   2.349   0.259   4.850 -0.9485 -0.1731 -0.0223
 1425SOL    HW215909   2.238   0.257   4.935 -1.6441 -1.5425 -0.0931
 1426SOL     OW15910   0.887   1.107   8.378  0.2482  0.4482 -0.5202
 1426SOL    HW115911   0.807   1.103   8.325  0.4229 -0.4279 -0.7238
 1426SOL    HW215912   0.871   1.044   8.448  0.3188  1.1608  0.1329
 1427SOL     OW15913   3.406   3.263   5.769 -0.2690  0.5697  0.4679
 1427SOL    HW115914   3.362   3.186   5.806 -1.5901  1.4899  0.8022
 1427SOL    HW215915   3.335   3.310   5.725  1.3693  2.9684  0.4359
 1428SOL     OW15916   3.232   4.033   0.836 -0.3243 -0.7043  0.6818
 1428SOL    HW115917   3.241   4.094   0.910 -1.4258  1.2675 -0.8341
 1428SOL    HW215918   3.167   3.972   0.872  0.3892 -1.7531  0.1919
 1429SOL     OW15919   1.639   4.335   3.242 -0.6534 -0.4330  1.4893
 1429SOL    HW115920   1.618   4.293   3.325 -2.1567  1.9662  2.3161
 1429SOL    HW215921   1.655   4.257   3.189  3.2218  0.0940  1.9055
 1430SOL     OW15922   1.033   2.963   1.132 -0.7968  0.9097  0.5273
 1430SOL    HW115923   1.088   2.888   1.110 -1.6686 -0.0874  1.7520
 1430SOL    HW215924   0.957   2.945   1.077  0.0884  0.4062 -0.5419
 1431SOL     OW15925   1.002   3.906   6.055 -0.0829 -0.8471  0.0682
 1431SOL    HW115926   1.023   3.873   6.143  1.2551 -1.1129 -0.3648
 1431SOL    HW215927   0.956   3.988   6.074  0.4269 -0.3649 -0.8127
 1432SOL     OW15928   1.826   0.896  11.799  0.4697  0.3247  0.0981
 1432SOL    HW115929   1.830   0.960  11.870 -0.7876  0.2096  0.2671
 1432SOL    HW215930   1.774   0.935  11.729 -0.7565 -0.7524  0.4264
 1433SOL     OW15931   4.505   3.109  17.438  0.1861  0.1672  0.0721
 1433SOL    HW115932   4.594   3.111  17.402  0.8122 -0.6391  1.5625
 1433SOL    HW215933   4.470   3.192  17.406 -1.4635  0.3958  2.4753
 1434SOL     OW15934   1.023   1.083   6.113 -0.4247  0.4374 -0.5980
 1434SOL    HW115935   1.022   1.143   6.188 -0.7289  1.5859 -1.5259
 1434SOL    HW215936   0.938   1.040   6.124  0.3389 -0.7016  0.9117
 1435SOL     OW15937   3.578   0.647  13.146 -0.3384 -0.6094  0.1025
 1435SOL    HW115938   3.662   0.692  13.153 -0.1449 -0.8293 -0.8929
 1435SOL    HW215939   3.518   0.706  13.102  0.2347 -0.6730 -0.7476
 1436SOL     OW15940   2.203   2.674  15.626 -0.1684 -0.2204  0.1351
 1436SOL    HW115941   2.186   2.594  15.577 -2.7267  0.2518  0.2549
 1436SOL    HW215942   2.243   2.724  15.554 -1.3072 -0.1962 -0.4909
 1437SOL     OW15943   2.250   3.630   2.471  0.0310 -0.7090 -0.3577
 1437SOL    HW115944   2.322   3.666   2.421  1.7558 -0.9959  1.9038
 1437SOL    HW215945   2.192   3.706   2.471  1.9647  0.7690 -1.3074
 1438SOL     OW15946   3.924   3.043  10.988 -0.3901  0.1418 -0.6542
 1438SOL    HW115947   3.902   3.113  10.927 -1.8857  0.1907 -0.0653
 1438SOL    HW215948   3.862   2.972  10.974  0.9528 -1.0779 -0.4552
 1439SOL     OW15949   1.733   0.668   5.115 -0.3310  0.3721  0.4670
 1439SOL    HW115950   1.812   0.647   5.164 -1.2569 -2.2252  0.8135
 1439SOL    HW215951   1.710   0.757   5.142 -1.5100  0.5540 -1.0996
 1440SOL     OW15952   3.142   0.692   8.443 -0.1842  0.1561  0.5604
 1440SOL    HW115953   3.202   0.619   8.429  0.9047  1.1299  0.1788
 1440SOL    HW215954   3.109   0.709   8.354  1.1482  0.4199  0.1179
 1441SOL     OW15955   3.064   3.832  11.616  0.0112  0.0587 -0.1890
 1441SOL    HW115956   3.105   3.854  11.532 -0.5745  2.8726  0.2421
 1441SOL    HW215957   3.093   3.906  11.670  0.3465 -0.7619  0.7369
 1442SOL     OW15958   0.816   2.695   6.478  0.1376 -0.4013 -0.1357
 1442SOL    HW115959   0.843   2.648   6.399 -0.1070  0.1758 -0.5609
 1442SOL    HW215960   0.740   2.744   6.447  0.1760  0.1555  0.6706
 1443SOL     OW15961   0.800   3.371  13.409  0.0602  0.3419 -0.1599
 1443SOL    HW115962   0.873   3.363  13.470 -0.7738  1.7134  1.0383
 1443SOL    HW215963   0.758   3.453  13.437  1.4933  0.8745  0.4699
 1444SOL     OW15964   1.283   4.500  16.910 -0.1018  0.5018  0.4279
 1444SOL    HW115965   1.366   4.466  16.878  0.1099  0.9277  0.5241
 1444SOL    HW215966   1.284   4.457  16.995  1.6927 -1.8382 -0.7542
 1445SOL     OW15967   4.017   3.560   4.017 -0.2601 -0.8191 -0.2236
 1445SOL    HW115968   4.081   3.526   3.955 -0.7915 -1.9863 -0.1223
 1445SOL    HW215969   4.063   3.539   4.099 -0.3910  0.4873  0.1871
 1446SOL     OW15970   0.483   2.201   6.512 -0.1602 -0.3302 -0.7756
 1446SOL    HW115971   0.471   2.110   6.484 -1.2539 -0.5694  0.4920
 1446SOL    HW215972   0.395   2.236   6.500 -0.6746 -0.9245  1.2606
 1447SOL     OW15973   3.031   4.693   3.687  0.6464 -0.5709  0.0142
 1447SOL    HW115974   3.086   4.670   3.761 -0.4976  1.5889  1.5384
 1447SOL    HW215975   3.097   4.686   3.618 -2.3863 -1.5493 -2.7565
 1448SOL     OW15976   2.073   0.106   8.152  0.5130 -0.1083 -0.1281
 1448SOL    HW115977   2.052   0.015   8.175  0.0367 -0.0755 -0.4296
 1448SOL    HW215978   2.051   0.152   8.233 -0.5122  1.1645 -1.1395
 1449SOL     OW15979   0.039   0.466  12.851 -0.7406  0.1019  0.0365
 1449SOL    HW115980   0.119   0.518  12.852 -1.3839  1.0477  5.2552
 1449SOL    HW215981   0.063   0.396  12.913 -0.1816  1.0038  0.8430
 1450SOL     OW15982   0.467   4.238   4.198 -0.1285  0.3552  0.2226
 1450SOL    HW115983   0.461   4.304   4.268 -3.3615  1.4058 -1.0786
 1450SOL    HW215984   0.413   4.291   4.140  0.8900  0.0198 -1.0335
 1451SOL     OW15985   1.793   1.634   5.049 -0.2051  0.1995  0.2401
 1451SOL    HW115986   1.776   1.726   5.069  0.0703  0.3372 -0.1657
 1451SOL    HW215987   1.889   1.634   5.057  0.0573  1.7588 -3.2910
 1452SOL     OW15988   1.621   4.314   4.137  0.0789  0.3230  0.1279
 1452SOL    HW115989   1.620   4.368   4.059  0.2339  2.0713  1.3328
 1452SOL    HW215990   1.582   4.230   4.115  1.2333 -0.2262  0.1596
 1453SOL     OW15991   3.796   1.011   2.781  0.4111  0.0491  0.0675
 1453SOL    HW115992   3.862   1.046   2.841  2.3112 -2.0114 -0.8201
 1453SOL    HW215993   3.765   1.089   2.734 -0.6451 -0.1132  0.5000
 1454SOL     OW15994   3.494   0.747  12.088 -0.1937 -0.3696 -0.6522
 1454SOL    HW115995   3.486   0.664  12.135 -0.8595 -0.0874 -0.2688
 1454SOL    HW215996   3.568   0.728  12.031  0.0639 -1.9396  0.2100
 1455SOL     OW15997   1.401   0.299   5.183  0.0285 -0.3493  0.3123
 1455SOL    HW115998   1.356   0.267   5.104 -0.2020  1.6854 -0.3889
 1455SOL    HW215999   1.473   0.237   5.196 -0.4121 -1.1165 -0.8271
 1456SOL     OW16000   3.082   0.483  15.993 -0.6941  0.3272  0.2506
 1456SOL    HW116001   3.046   0.571  16.005  1.0235  1.1746 -0.8190
 1456SOL    HW216002   2.994   0.447  15.992 -0.7373  0.4418 -0.3224
 1457SOL     OW16003   0.630   3.848   7.194  0.2680 -0.5982  0.0999
 1457SOL    HW116004   0.646   3.755   7.213 -1.9243 -1.0219 -0.1825
 1457SOL    HW216005   0.622   3.858   7.099  0.1254 -0.9770  0.0704
 1458SOL     OW16006   0.703   2.912   4.528  0.5948  0.1756 -0.0328
 1458SOL    HW116007   0.632   2.867   4.483  0.1035  1.3268 -0.3912
 1458SOL    HW216008   0.774   2.881   4.471  0.6816  0.4711 -0.0840
 1459SOL     OW16009   0.709   3.329  16.833 -0.3859 -0.1968  0.3166
 1459SOL    HW116010   0.717   3.330  16.929  3.6166  0.8706 -0.0377
 1459SOL    HW216011   0.629   3.377  16.810 -0.7358 -0.6129  0.6591
 1460SOL     OW16012   1.132   4.331   5.095  0.2919 -0.7625  0.7652
 1460SOL    HW116013   1.111   4.377   5.014 -1.1377 -0.6184  1.2286
 1460SOL    HW216014   1.130   4.239   5.072  2.7214  0.2004 -3.4071
 1461SOL     OW16015   0.664   1.152   6.813  0.2704  0.4400 -0.2478
 1461SOL    HW116016   0.663   1.086   6.882 -0.3473  1.3461  0.6136
 1461SOL    HW216017   0.758   1.165   6.803  0.3420 -0.5436 -0.9219
 1462SOL     OW16018   0.217   0.033   8.585  0.4488  0.1623 -0.3282
 1462SOL    HW116019   0.297   0.001   8.542 -0.2161 -0.8870 -0.7989
 1462SOL    HW216020   0.184   0.085   8.512  0.4416 -1.4229 -1.4630
 1463SOL     OW16021   3.318   2.342   7.533  0.0903 -0.3308  0.3118
 1463SOL    HW116022   3.242   2.331   7.476 -0.5222 -1.3243  1.3148
 1463SOL    HW216023   3.386   2.325   7.468  0.7489  2.9928  0.1527
 1464SOL     OW16024   0.179   1.362  13.596  0.0614  0.0741 -0.5164
 1464SOL    HW116025   0.256   1.410  13.624  0.3292 -2.4640  3.0621
 1464SOL    HW216026   0.213   1.276  13.571  1.6711 -0.1173  2.4103
 1465SOL     OW16027   3.545   0.978   4.719  0.0361  0.0286  0.3329
 1465SOL    HW116028   3.597   1.018   4.789 -0.8422 -0.1454  1.0692
 1465SOL    HW216029   3.595   0.899   4.696  0.9897  0.8874 -0.5562
 1466SOL     OW16030   2.251   4.539  15.968 -0.4127 -0.3640 -0.6764
 1466SOL    HW116031   2.291   4.586  15.895  0.6362  1.2876  0.9679
 1466SOL    HW216032   2.160   4.568  15.970 -0.2806 -0.0508  0.5200
 1467SOL     OW16033   1.463   1.098   7.265 -0.1066  0.2611 -0.0062
 1467SOL    HW116034   1.535   1.153   7.236 -0.5345  0.3252 -0.9357
 1467SOL    HW216035   1.499   1.011   7.246  0.5945  0.5935 -0.1776
 1468SOL     OW16036   0.636   3.232  14.929 -0.1465  0.5085 -0.4103
 1468SOL    HW116037   0.711   3.223  14.871 -0.3848  0.4306 -0.7055
 1468SOL    HW216038   0.633   3.328  14.922 -2.4058  0.4616 -0.1329
 1469SOL     OW16039   0.572   0.877  14.933 -0.1754  0.0518  0.0080
 1469SOL    HW116040   0.651   0.856  14.883  1.2768  0.7339  2.0074
 1469SOL    HW216041   0.533   0.791  14.948  1.6528 -0.4570  1.9181
 1470SOL     OW16042   0.213   4.673   6.377  0.4557 -0.0978 -0.7498
 1470SOL    HW116043   0.233   4.670   6.283  0.9223 -2.0638 -0.5748
 1470SOL    HW216044   0.294   4.700   6.420 -0.8353 -0.7614  2.0758
 1471SOL     OW16045   4.686   0.819   2.068 -0.0349 -0.2265 -0.9115
 1471SOL    HW116046   4.637   0.744   2.100  0.2470 -1.4350 -3.3544
 1471SOL    HW216047   4.623   0.891   2.075 -1.2635 -1.3117 -0.9372
 1472SOL     OW16048   3.942   0.920   3.431  0.0065  0.0621  0.1209
 1472SOL    HW116049   4.023   0.879   3.461  0.3482  1.1670  0.7287
 1472SOL    HW216050   3.899   0.924   3.517  2.2451 -1.3637  1.2869
 1473SOL     OW16051   0.551   4.707  11.350 -0.0812  0.2390  0.3205
 1473SOL    HW116052   0.474   0.025  11.360 -0.5515 -0.3203 -0.2547
 1473SOL    HW216053   0.618   0.025  11.309 -0.8618 -0.3075 -1.6455
 1474SOL     OW16054   0.068   1.887   7.095  0.4790 -0.5237 -0.0927
 1474SOL    HW116055   0.118   1.824   7.147 -1.8127  0.0417  2.7653
 1474SOL    HW216056   0.010   1.826   7.049  2.9796 -2.4650 -0.7249
 1475SOL     OW16057   3.143   3.428   1.409  0.2520  0.4311  0.1582
 1475SOL    HW116058   3.099   3.393   1.332 -0.9448  0.9765  0.5821
 1475SOL    HW216059   3.161   3.350   1.461  1.3296 -0.3799 -1.4679
 1476SOL     OW16060   0.690   2.353   5.479  0.5612  0.3175 -0.4803
 1476SOL    HW116061   0.631   2.285   5.448  0.4906  0.8059 -1.4066
 1476SOL    HW216062   0.636   2.432   5.487  0.3907 -0.1500  3.1650
 1477SOL     OW16063   1.409   3.484   8.066  0.3517  0.3618  0.3137
 1477SOL    HW116064   1.389   3.423   7.995 -2.2324  0.3507  1.0190
 1477SOL    HW216065   1.498   3.512   8.050 -0.1034  0.9027 -1.2362
 1478SOL     OW16066   3.328   4.154   3.990  0.4878  0.0154 -0.0722
 1478SOL    HW116067   3.287   4.221   3.935 -0.2730 -1.4460 -1.2907
 1478SOL    HW216068   3.350   4.077   3.938  1.0563 -0.4542  0.8649
 1479SOL     OW16069   4.252   1.070  16.417  0.1409  0.1607  0.5447
 1479SOL    HW116070   4.332   1.109  16.382  0.8855  0.1486  2.2098
 1479SOL    HW216071   4.250   0.984  16.375  0.5894  1.2390 -1.6803
 1480SOL     OW16072   0.688   4.327   6.675  0.0379  0.1717  0.3299
 1480SOL    HW116073   0.608   4.345   6.627  0.6370  0.4903 -0.5621
 1480SOL    HW216074   0.759   4.330   6.610  2.9479  2.0067  3.6164
 1481SOL     OW16075   2.397   0.911   5.073  0.0746  0.5479 -0.6390
 1481SOL    HW116076   2.438   0.983   5.025 -0.6821 -0.4612 -2.7802
 1481SOL    HW216077   2.306   0.937   5.088  0.0219 -0.3825  0.6462
 1482SOL     OW16078   2.379   1.664   5.550 -0.0798  0.2490 -0.4879
 1482SOL    HW116079   2.421   1.582   5.577  0.1916  0.5997  0.1696
 1482SOL    HW216080   2.431   1.682   5.471  0.9739 -0.2816  0.0838
 1483SOL     OW16081   1.750   1.683  17.722 -0.4348 -0.5381 -0.4227
 1483SOL    HW116082   1.729   1.754  17.662 -1.5162  1.4743  2.3470
 1483SOL    HW216083   1.844   1.690  17.704 -0.2691 -1.5378  0.0220
 1484SOL     OW16084   4.728   3.976   8.509 -0.0190  0.7677  0.2569
 1484SOL    HW116085   0.006   4.041   8.440  0.1509  1.0369  0.5513
 1484SOL    HW216086   4.686   4.033   8.574 -1.0772 -1.1809  1.2734
 1485SOL     OW16087   1.328   3.801  13.100  0.4828  0.2840 -0.4094
 1485SOL    HW116088   1.413   3.841  13.081  1.2011 -0.7391  0.6823
 1485SOL    HW216089   1.332   3.712  13.064  1.6133  0.1399  0.0799
 1486SOL     OW16090   3.143   3.786   2.253 -0.4047 -0.8855  0.4936
 1486SOL    HW116091   3.119   3.816   2.166 -0.8093  2.1808  1.6429
 1486SOL    HW216092   3.071   3.833   2.295  1.3706  0.0272  2.5549
 1487SOL     OW16093   2.247   3.879  10.796 -0.0589 -0.1754 -0.2005
 1487SOL    HW116094   2.170   3.833  10.762 -1.0162  0.8643  0.5582
 1487SOL    HW216095   2.225   3.881  10.889  4.2097 -2.2668  0.8036
 1488SOL     OW16096   0.606   3.040  10.214 -0.3183 -0.2977 -0.1827
 1488SOL    HW116097   0.585   2.966  10.157  0.1472 -0.4571 -0.1491
 1488SOL    HW216098   0.565   3.111  10.164 -1.0961 -0.6998 -0.1208
 1489SOL     OW16099   2.382   0.401  10.707  0.2544  0.0822 -0.1762
 1489SOL    HW116100   2.368   0.486  10.666  0.0781 -0.5916 -1.4963
 1489SOL    HW216101   2.422   0.431  10.789 -0.6579 -0.0986  0.3392
 1490SOL     OW16102   1.289   1.166  15.413 -0.0743 -0.2304 -0.5701
 1490SOL    HW116103   1.356   1.228  15.440 -1.0177  0.6325 -0.2011
 1490SOL    HW216104   1.322   1.095  15.468 -1.4329 -1.6547 -1.5893
 1491SOL     OW16105   1.991   0.590   3.962  0.0070  0.3235 -0.1009
 1491SOL    HW116106   1.948   0.597   4.048 -0.4846  0.7058 -0.3794
 1491SOL    HW216107   2.084   0.604   3.981 -0.2864 -0.1213  1.6764
 1492SOL     OW16108   2.843   0.940   3.020  0.4162  0.2132  0.6531
 1492SOL    HW116109   2.763   0.965   2.974  0.4748 -1.1237 -0.1784
 1492SOL    HW216110   2.912   0.975   2.965  0.0608  1.4363  0.9757
 1493SOL     OW16111   2.735   2.724  11.677 -0.0373  0.5146 -0.2804
 1493SOL    HW116112   2.803   2.722  11.609 -0.5066  0.6447 -0.7546
 1493SOL    HW216113   2.662   2.750  11.621 -1.1449  0.2990  1.0785
 1494SOL     OW16114   1.850   2.006  13.467  0.4192 -0.4444  0.1977
 1494SOL    HW116115   1.943   2.026  13.478  0.5216 -0.4332 -0.6319
 1494SOL    HW216116   1.811   2.062  13.534 -0.1267 -1.1301  0.4526
 1495SOL     OW16117   4.494   2.233   9.200 -0.4116  0.0424  0.0775
 1495SOL    HW116118   4.522   2.167   9.137  1.0029 -0.2127  0.9658
 1495SOL    HW216119   4.421   2.277   9.156  0.5640  2.0612  0.5035
 1496SOL     OW16120   0.450   0.395   3.307 -0.0626 -0.3425 -0.8869
 1496SOL    HW116121   0.529   0.441   3.276  0.6897 -1.5824 -0.8125
 1496SOL    HW216122   0.408   0.376   3.223 -1.9150  2.3259 -0.5774
 1497SOL     OW16123   0.245   2.435  11.036  0.2130  0.1093  0.3777
 1497SOL    HW116124   0.268   2.524  11.063 -1.0285  1.1257 -1.9420
 1497SOL    HW216125   0.231   2.392  11.120 -0.6038  0.7491  0.5753
 1498SOL     OW16126   3.600   0.883   5.183 -0.4635 -0.4785 -0.2494
 1498SOL    HW116127   3.691   0.880   5.154  0.2232  0.6055  1.7559
 1498SOL    HW216128   3.602   0.964   5.233 -0.9300 -0.0413 -0.9375
 1499SOL     OW16129   1.331   0.053   5.788  0.4769  0.0495  0.3112
 1499SOL    HW116130   1.354   4.705   5.752 -0.5683  0.4725 -1.3856
 1499SOL    HW216131   1.418   0.093   5.786  0.2677  0.4489 -0.8115
 1500SOL     OW16132   3.727   4.401   4.682 -0.5109 -0.0298 -0.6881
 1500SOL    HW116133   3.733   4.395   4.778  0.3277 -0.5982 -0.7713
 1500SOL    HW216134   3.642   4.437   4.658 -1.2748  1.0257  3.6311
 1501SOL     OW16135   3.072   4.607   6.773 -0.0163 -0.4298 -0.3490
 1501SOL    HW116136   3.155   4.594   6.728 -0.2276 -0.3884 -0.7592
 1501SOL    HW216137   3.018   4.562   6.707 -1.0646 -0.1706  0.3252
 1502SOL     OW16138   0.909   0.720   7.372 -0.3225 -0.2644  0.1562
 1502SOL    HW116139   0.969   0.694   7.302  0.2892 -0.5830  0.7924
 1502SOL    HW216140   0.980   0.721   7.436  1.2152  3.6295 -1.6243
 1503SOL     OW16141   4.736   2.898   9.680  0.0052  0.2037  0.1796
 1503SOL    HW116142   0.021   2.908   9.773 -2.6278 -3.6413  1.2633
 1503SOL    HW216143   0.034   2.810   9.673  1.5247  0.8998 -0.7380
 1504SOL     OW16144   4.253   2.862   6.946 -0.6764  0.0004  0.1352
 1504SOL    HW116145   4.342   2.898   6.940 -0.7142 -0.0821 -0.9940
 1504SOL    HW216146   4.221   2.883   6.858  1.1428 -3.0768 -1.2586
 1505SOL     OW16147   0.193   3.692  15.830  0.5099  0.2454  0.1540
 1505SOL    HW116148   0.243   3.669  15.752  2.0555 -2.0502  1.7837
 1505SOL    HW216149   0.200   3.787  15.839 -0.4545  0.2368  1.0089
 1506SOL     OW16150   1.236   0.852   4.638  0.0182 -0.6839  0.6586
 1506SOL    HW116151   1.194   0.773   4.606  0.6380 -0.9277  0.4502
 1506SOL    HW216152   1.182   0.866   4.716  1.2227  2.2289  0.9981
 1507SOL     OW16153   0.010   2.664   6.979 -0.0425 -0.1075  0.1433
 1507SOL    HW116154   0.104   2.678   6.974  0.1760 -1.0019  1.6485
 1507SOL    HW216155   4.734   2.610   7.057 -0.3139  1.0101  0.8578
 1508SOL     OW16156   2.405   0.519   7.891  0.0417 -0.0878  0.2565
 1508SOL    HW116157   2.468   0.450   7.912 -0.5908 -1.0067 -0.8923
 1508SOL    HW216158   2.357   0.526   7.974 -2.6217  0.3984 -1.3463
 1509SOL     OW16159   4.484   2.234   2.556  0.0860  0.4744 -0.1341
 1509SOL    HW116160   4.390   2.240   2.572 -0.2161  0.1235 -1.7967
 1509SOL    HW216161   4.520   2.254   2.643 -0.5095  0.9561  0.0006
 1510SOL     OW16162   2.861   1.871   7.091 -0.3011  0.1359  0.3862
 1510SOL    HW116163   2.929   1.809   7.066  0.8122  1.9277 -1.0202
 1510SOL    HW216164   2.828   1.833   7.173 -2.8096 -0.6440 -0.9750
 1511SOL     OW16165   1.199   3.607   0.653 -0.6048 -0.2618 -0.0804
 1511SOL    HW116166   1.279   3.605   0.601  1.0943 -1.3592  2.5428
 1511SOL    HW216167   1.231   3.605   0.743 -1.1621 -0.0705  0.1220
 1512SOL     OW16168   2.701   1.329  10.108  0.0992 -0.5247  0.1832
 1512SOL    HW116169   2.714   1.299  10.018 -2.4952  0.1343 -0.4272
 1512SOL    HW216170   2.785   1.299  10.141 -0.8729 -3.1432  0.2214
 1513SOL     OW16171   3.291   1.217   4.659 -0.1038 -0.0146 -0.2007
 1513SOL    HW116172   3.269   1.125   4.669  0.0858 -0.2080 -1.5311
 1513SOL    HW216173   3.277   1.246   4.569 -1.7059  0.0951  0.0862
 1514SOL     OW16174   0.954   0.064   6.926 -0.3721  0.2948 -1.2516
 1514SOL    HW116175   1.039   0.107   6.928 -0.8086  1.1245 -0.4352
 1514SOL    HW216176   0.968   4.737   6.856  0.1183  0.9849 -1.7809
 1515SOL     OW16177   1.284   3.124   7.788 -0.5679 -0.1551  0.3466
 1515SOL    HW116178   1.277   3.038   7.745  0.4724  0.2310 -0.5997
 1515SOL    HW216179   1.196   3.132   7.825 -0.8138 -0.8156 -0.0751
 1516SOL     OW16180   1.457   0.121  14.282  0.5900 -0.5161  0.6089
 1516SOL    HW116181   1.447   0.216  14.270 -1.1883 -0.7848 -0.0318
 1516SOL    HW216182   1.384   0.083  14.234 -0.6418  0.5723  1.6156
 1517SOL     OW16183   2.431   4.121   4.324 -0.2654  0.7986  0.1799
 1517SOL    HW116184   2.446   4.064   4.249 -1.8251  0.9083 -0.2035
 1517SOL    HW216185   2.337   4.111   4.338 -0.1473  0.4558  0.7393
 1518SOL     OW16186   0.789   4.709   4.429 -0.3896 -0.0488  0.2547
 1518SOL    HW116187   0.695   4.723   4.419  0.2705  4.6026  0.3570
 1518SOL    HW216188   0.808   4.684   4.339 -1.3870 -1.1132  0.3430
 1519SOL     OW16189   1.664   0.463   6.085  0.5252  0.3719  0.4834
 1519SOL    HW116190   1.656   0.509   6.168  1.5833  0.2302  0.6688
 1519SOL    HW216191   1.759   0.468   6.077  0.5286 -1.5671 -0.7875
 1520SOL     OW16192   1.307   3.769   2.214  0.0482  0.1274 -0.3611
 1520SOL    HW116193   1.255   3.807   2.286 -2.2212 -1.6144 -1.1105
 1520SOL    HW216194   1.384   3.821   2.239 -0.1351  1.4383 -2.5253
 1521SOL     OW16195   0.790   2.506   4.111  0.5827  0.3383 -0.8168
 1521SOL    HW116196   0.707   2.499   4.158  0.8388 -1.5337 -0.6561
 1521SOL    HW216197   0.844   2.459   4.174 -0.4710  2.1141  1.4406
 1522SOL     OW16198   0.484   4.683  12.809  0.4788 -0.3165 -0.2536
 1522SOL    HW116199   0.389   4.668  12.811  0.4911 -0.1806  2.1076
 1522SOL    HW216200   0.504   4.608  12.865  0.4939  1.0216  1.5369
 1523SOL     OW16201   0.690   1.042  10.327 -0.1543 -0.3215 -0.2107
 1523SOL    HW116202   0.680   1.076  10.415 -1.0262 -1.2250  0.0428
 1523SOL    HW216203   0.775   0.997  10.327  0.2607  0.4618 -0.6150
 1524SOL     OW16204   0.739   2.831  13.049 -0.0715 -0.8840  0.2237
 1524SOL    HW116205   0.813   2.804  12.995 -0.7820  2.1414 -2.2358
 1524SOL    HW216206   0.675   2.759  13.047 -0.9659 -0.0225 -1.6446
 1525SOL     OW16207   1.322   0.688  12.599  0.0330  0.1970  0.0717
 1525SOL    HW116208   1.357   0.695  12.688  0.1156 -2.1472  0.2091
 1525SOL    HW216209   1.361   0.604  12.578  0.2348  0.3419 -0.1350
 1526SOL     OW16210   0.796   0.291   4.201 -0.8094  0.4063 -0.0932
 1526SOL    HW116211   0.865   0.264   4.140 -0.1179  0.9243  0.4602
 1526SOL    HW216212   0.727   0.297   4.135 -0.1001  3.1608 -0.5602
 1527SOL     OW16213   2.237   4.601  11.043  0.6783  0.0017  0.5554
 1527SOL    HW116214   2.297   4.548  10.991  0.6997  0.7323 -0.1544
 1527SOL    HW216215   2.269   4.690  11.025 -0.5188  0.3949  0.3329
 1528SOL     OW16216   3.651   0.348   8.413  0.2937 -0.6058  0.3632
 1528SOL    HW116217   3.695   0.391   8.487  0.1453 -1.3761  0.9092
 1528SOL    HW216218   3.724   0.346   8.351  1.7857  0.5918  2.0722
 1529SOL     OW16219   1.147   1.589   2.559 -0.4195 -0.2019 -0.5277
 1529SOL    HW116220   1.103   1.603   2.475  0.7586 -1.0540 -1.2941
 1529SOL    HW216221   1.212   1.658   2.553 -2.1441  1.3384 -1.4478
 1530SOL     OW16222   1.301   4.278   7.602 -0.5359 -0.1623 -0.5751
 1530SOL    HW116223   1.279   4.307   7.690  0.6196 -0.8316 -0.0655
 1530SOL    HW216224   1.225   4.310   7.554 -2.6640 -3.4394  0.5604
 1531SOL     OW16225   2.997   3.072  14.528 -0.1308 -0.5503  0.1900
 1531SOL    HW116226   3.016   3.164  14.546 -0.2699 -0.5177  0.1766
 1531SOL    HW216227   2.934   3.037  14.592 -0.9320  1.0061  0.2544
 1532SOL     OW16228   3.812   1.686   9.485  0.2605  0.2677  0.0100
 1532SOL    HW116229   3.736   1.656   9.435  1.3471  0.5935 -1.8343
 1532SOL    HW216230   3.810   1.633   9.564  0.0660 -1.7093 -1.3038
 1533SOL     OW16231   2.115   3.803   3.968  0.3586 -0.4526 -0.3259
 1533SOL    HW116232   2.099   3.802   4.062 -0.7946  1.2167 -0.5095
 1533SOL    HW216233   2.172   3.880   3.965  0.7803 -0.7635 -0.3111
 1534SOL     OW16234   3.330   0.671   0.373  0.9214 -0.0122  0.2218
 1534SOL    HW116235   3.349   0.618   0.296 -0.3622  0.3187 -0.3196
 1534SOL    HW216236   3.235   0.685   0.372  1.0445  0.8593  0.1806
 1535SOL     OW16237   4.023   0.630   3.328 -0.6264 -0.2612 -0.3100
 1535SOL    HW116238   3.930   0.617   3.348 -0.7522 -0.2008 -0.8629
 1535SOL    HW216239   4.061   0.591   3.406 -0.7219  0.8105  0.2681
 1536SOL     OW16240   2.987   0.681   3.872  0.6276 -0.2427  0.4198
 1536SOL    HW116241   2.970   0.589   3.892  0.2780 -0.5060 -1.0746
 1536SOL    HW216242   2.947   0.695   3.786  2.1900  0.3770 -0.2015
 1537SOL     OW16243   2.265   3.091   0.401  0.0164  0.5128 -0.2693
 1537SOL    HW116244   2.351   3.076   0.363 -0.0462 -2.4951  0.7261
 1537SOL    HW216245   2.288   3.139   0.481 -2.9078 -0.1944  1.0382
 1538SOL     OW16246   2.956   0.574   9.060 -0.3764  0.1822  0.0065
 1538SOL    HW116247   2.994   0.584   9.147 -0.0077 -1.0388 -0.0132
 1538SOL    HW216248   2.943   0.479   9.062 -0.6126  0.2227  0.7203
 1539SOL     OW16249   4.355   2.498   2.135  0.0586  0.7561 -0.6996
 1539SOL    HW116250   4.371   2.510   2.229  0.2701 -3.7820 -0.1323
 1539SOL    HW216251   4.373   2.586   2.103 -1.1549  1.1482 -0.2938
 1540SOL     OW16252   3.902   3.227  13.745  0.0311  0.1666  0.0576
 1540SOL    HW116253   3.824   3.213  13.799  0.3737 -1.1794  0.1890
 1540SOL    HW216254   3.917   3.309  13.793 -0.7080  0.2014  0.2427
 1541SOL     OW16255   3.317   3.933   2.456 -0.3389 -0.1271 -1.1409
 1541SOL    HW116256   3.256   3.900   2.390  0.3248  0.1876 -1.9246
 1541SOL    HW216257   3.387   3.974   2.405  0.5747  0.1611  0.3544
 1542SOL     OW16258   3.541   1.816   8.657  0.1664  0.7899 -0.1034
 1542SOL    HW116259   3.582   1.762   8.589 -0.1615  2.2532 -1.4743
 1542SOL    HW216260   3.494   1.879   8.601  0.7514  1.4805  0.1883
 1543SOL     OW16261   1.053   0.613   7.155  0.6971 -0.2017  0.0040
 1543SOL    HW116262   1.145   0.639   7.158  1.4245 -2.4834 -2.1429
 1543SOL    HW216263   1.040   0.655   7.070  0.0655  0.1792  0.2945
 1544SOL     OW16264   0.261   3.898   7.408  0.5025 -0.3954  0.4543
 1544SOL    HW116265   0.216   3.816   7.385  1.0214 -0.2250 -1.1505
 1544SOL    HW216266   0.293   3.922   7.321 -0.6207 -0.3030  0.0670
 1545SOL     OW16267   1.976   2.485   2.005 -0.1931  0.1487  0.1649
 1545SOL    HW116268   1.918   2.474   1.930  1.1609 -1.0970 -0.6942
 1545SOL    HW216269   1.982   2.580   2.019 -2.4263  0.4191 -0.8797
 1546SOL     OW16270   1.628   2.741  10.785  0.0634  0.4952 -0.1188
 1546SOL    HW116271   1.542   2.757  10.747  0.3378  0.4389 -0.7673
 1546SOL    HW216272   1.614   2.749  10.879  1.9716  1.0961  0.1106
 1547SOL     OW16273   3.379   4.527   4.163  0.0113  0.4899 -0.4305
 1547SOL    HW116274   3.306   4.589   4.174  0.4980  0.8468  0.8717
 1547SOL    HW216275   3.326   4.451   4.187 -1.1206  1.7299  1.0247
 1548SOL     OW16276   1.842   3.240  16.957 -0.1753 -0.4392  0.1656
 1548SOL    HW116277   1.915   3.278  17.005  0.5695  0.0759 -1.3780
 1548SOL    HW216278   1.867   3.273  16.871  0.5753 -2.8109 -0.5458
 1549SOL     OW16279   0.455   2.944   3.008 -0.1217  0.0578 -0.2372
 1549SOL    HW116280   0.452   2.982   2.920 -0.7637 -0.8158 -0.5901
 1549SOL    HW216281   0.500   2.860   2.999 -0.4573 -0.2650  1.0612
 1550SOL     OW16282   1.750   2.537  17.188  0.0788  0.7732  0.5055
 1550SOL    HW116283   1.786   2.511  17.103  0.0178  0.9516  0.4244
 1550SOL    HW216284   1.658   2.516  17.178  0.6099 -0.7633 -1.1040
 1551SOL     OW16285   0.161   1.764  13.904 -0.1158 -0.0518  0.0946
 1551SOL    HW116286   0.154   1.835  13.968 -1.9851 -1.0423  0.9864
 1551SOL    HW216287   0.256   1.762  13.895 -0.1693  1.6259 -0.8277
 1552SOL     OW16288   2.428   0.350  11.869 -0.2055  0.5941  0.6966
 1552SOL    HW116289   2.464   0.261  11.868  2.9472  1.8636  0.0320
 1552SOL    HW216290   2.429   0.361  11.774  1.0094 -0.8666  0.5448
 1553SOL     OW16291   0.876   1.400   9.402  0.8224  0.0044  0.0540
 1553SOL    HW116292   0.908   1.487   9.424  2.8286 -0.4933 -0.9755
 1553SOL    HW216293   0.813   1.379   9.472  0.1590 -0.8665 -0.8008
 1554SOL     OW16294   4.437   1.078   7.614  0.4180 -0.0439 -0.3077
 1554SOL    HW116295   4.398   1.113   7.694 -0.0496 -2.1905  0.3989
 1554SOL    HW216296   4.486   1.155   7.587  0.1920  0.8572  1.8562
 1555SOL     OW16297   3.943   0.507   8.102  0.2226  0.3761  0.1837
 1555SOL    HW116298   3.860   0.547   8.124 -0.7405 -1.1965 -0.5727
 1555SOL    HW216299   4.007   0.577   8.112 -0.3088  0.8670  0.1003
 1556SOL     OW16300   3.145   0.058   2.654  0.2869 -0.4760  0.7194
 1556SOL    HW116301   3.210   0.108   2.603  0.6522 -3.6213 -1.8744
 1556SOL    HW216302   3.193   0.060   2.737 -1.2381 -1.0251  1.6160
 1557SOL     OW16303   3.001   2.346   7.832  0.1037  0.1723  0.2378
 1557SOL    HW116304   2.950   2.427   7.828 -1.3035 -0.7254  0.2159
 1557SOL    HW216305   2.983   2.332   7.925 -0.3425 -0.8016  0.0070
 1558SOL     OW16306   3.829   4.392   5.466 -0.7777 -0.6520  0.1206
 1558SOL    HW116307   3.861   4.431   5.548 -1.5552 -1.4120  0.7954
 1558SOL    HW216308   3.912   4.353   5.441 -1.3305 -1.8587  0.2022
 1559SOL     OW16309   3.303   4.614  10.003 -0.3056 -0.0423 -0.1984
 1559SOL    HW116310   3.314   4.576   9.916  0.0121  0.1588 -0.2445
 1559SOL    HW216311   3.250   4.542  10.038 -1.9043  1.3315  0.1977
 1560SOL     OW16312   0.635   2.182   4.090  0.2067 -0.5171  0.1749
 1560SOL    HW116313   0.573   2.179   4.163 -1.0756  1.2049 -0.8451
 1560SOL    HW216314   0.720   2.167   4.132  1.2828  2.9475 -0.7684
 1561SOL     OW16315   2.062   1.692   6.398  0.2959  0.3115 -0.0374
 1561SOL    HW116316   2.039   1.770   6.347  2.6973  1.6698  0.9896
 1561SOL    HW216317   2.128   1.726   6.458  1.3874  0.0828 -1.1027
 1562SOL     OW16318   4.204   0.568   4.515  0.0675 -0.1966  0.1304
 1562SOL    HW116319   4.285   0.574   4.465 -1.0003  0.6679 -1.4916
 1562SOL    HW216320   4.147   0.530   4.449 -1.8757  0.1151  1.6393
 1563SOL     OW16321   3.972   2.432   8.277 -0.0947  0.3327  0.1928
 1563SOL    HW116322   3.992   2.519   8.311  1.9502 -0.2741  0.5975
 1563SOL    HW216323   3.909   2.461   8.211 -0.1096 -0.4702 -0.1533
 1564SOL     OW16324   4.378   1.056  16.676  0.0270  0.1318  0.4143
 1564SOL    HW116325   4.363   1.043  16.582  1.6738  0.7044  0.0597
 1564SOL    HW216326   4.355   1.148  16.692  0.4040  0.4747 -1.0123
 1565SOL     OW16327   3.562   0.889   7.747  0.8002 -0.0377 -0.3177
 1565SOL    HW116328   3.630   0.844   7.697  1.6059  2.6798 -1.6216
 1565SOL    HW216329   3.548   0.965   7.691  0.7530 -0.2127 -0.5426
 1566SOL     OW16330   0.756   2.253   1.267 -0.0616 -0.2040 -0.4783
 1566SOL    HW116331   0.697   2.263   1.192 -0.5206  1.4757  0.1013
 1566SOL    HW216332   0.722   2.170   1.298  0.1763 -0.7274 -1.6123
 1567SOL     OW16333   0.843   3.572  14.743 -0.3327  0.0547 -0.0325
 1567SOL    HW116334   0.802   3.607  14.664 -0.7706  0.6850  0.4785
 1567SOL    HW216335   0.919   3.630  14.741  0.5849 -1.2105 -1.2815
 1568SOL     OW16336   1.221   2.181   9.196  0.6401  0.0823 -0.5607
 1568SOL    HW116337   1.308   2.195   9.232  0.5320 -1.1265  0.1547
 1568SOL    HW216338   1.197   2.095   9.231  1.7499 -0.1767 -0.4622
 1569SOL     OW16339   0.332   4.468   5.449 -0.1091 -0.6114 -0.1290
 1569SOL    HW116340   0.355   4.547   5.399 -1.0514  0.3835  0.9882
 1569SOL    HW216341   0.352   4.500   5.538 -1.0396 -1.6944  0.4669
 1570SOL     OW16342   3.964   3.653   4.854 -0.5095 -0.1999  0.0714
 1570SOL    HW116343   3.909   3.729   4.874 -2.2796 -1.2398 -0.8380
 1570SOL    HW216344   4.040   3.667   4.910 -1.3367 -1.8664  1.5930
 1571SOL     OW16345   0.032   3.767   9.818 -0.2123 -0.1211  0.0775
 1571SOL    HW116346   0.126   3.763   9.837 -0.5072 -0.0084  1.5727
 1571SOL    HW216347   0.028   3.797   9.727  2.5434  0.9185  0.2902
 1572SOL     OW16348   4.077   1.164   4.932  0.0503 -0.1941 -0.1568
 1572SOL    HW116349   4.172   1.151   4.923  0.1396  0.2766  0.1293
 1572SOL    HW216350   4.051   1.150   4.841 -2.0227 -0.5235  0.4799
 1573SOL     OW16351   4.091   1.970   0.198 -0.3104  0.5289 -0.4695
 1573SOL    HW116352   4.067   2.058   0.168  3.0937  1.4349 -0.5043
 1573SOL    HW216353   4.020   1.914   0.167  0.5496 -0.9366  0.2713
 1574SOL     OW16354   1.109   2.990   4.002 -0.0651 -0.5545 -0.2299
 1574SOL    HW116355   1.098   3.058   3.936 -0.6674  2.7079  3.2786
 1574SOL    HW216356   1.066   3.029   4.078  3.5378  1.1170  0.9584
 1575SOL     OW16357   2.204   1.252  14.914 -0.1996  0.2429  0.3281
 1575SOL    HW116358   2.227   1.343  14.928 -0.2742 -0.0048  2.1570
 1575SOL    HW216359   2.212   1.229  15.007 -0.3079 -0.0938  0.2570
 1576SOL     OW16360   1.535   1.981   7.793 -0.2560 -0.0228  0.3944
 1576SOL    HW116361   1.594   1.949   7.724  0.6159  1.2470  0.5454
 1576SOL    HW216362   1.561   1.925   7.866 -1.0052 -1.8106 -0.7296
 1577SOL     OW16363   2.506   1.203   6.029 -0.6054 -0.2082 -0.1723
 1577SOL    HW116364   2.558   1.141   6.080 -0.3960 -0.0556 -0.2045
 1577SOL    HW216365   2.561   1.278   6.049  0.2873 -0.7375 -0.6243
 1578SOL     OW16366   1.570   4.727   5.069  0.1723 -0.1520 -0.2303
 1578SOL    HW116367   1.490   4.729   5.015  0.7041 -1.2954 -1.0609
 1578SOL    HW216368   1.615   0.069   5.042 -1.6860  1.1013  0.3236
 1579SOL     OW16369   4.300   1.709   8.328  0.2440 -0.2582 -0.6212
 1579SOL    HW116370   4.270   1.799   8.342  0.9369 -0.2830  0.9241
 1579SOL    HW216371   4.285   1.669   8.413 -3.5567 -0.2078 -1.2535
 1580SOL     OW16372   3.568   4.518   9.486  0.7530  0.5675 -0.1107
 1580SOL    HW116373   3.622   4.466   9.546 -0.0634  1.2047  1.1915
 1580SOL    HW216374   3.630   4.577   9.444  0.9598 -0.3135 -1.0275
 1581SOL     OW16375   2.945   0.275  16.761 -0.3322 -0.1507 -0.4541
 1581SOL    HW116376   3.038   0.253  16.754  0.0501  1.3291 -0.0747
 1581SOL    HW216377   2.950   0.362  16.801 -1.1548 -1.5838  2.7783
 1582SOL     OW16378   0.911   3.541   4.647 -0.0549  0.2037  0.3816
 1582SOL    HW116379   0.818   3.564   4.652  0.0156  1.1050 -2.4961
 1582SOL    HW216380   0.916   3.509   4.557 -3.5978 -0.7480  0.5205
 1583SOL     OW16381   1.628   4.107   3.437  0.3430 -0.6922 -0.1953
 1583SOL    HW116382   1.616   4.013   3.445 -1.8124 -0.3812  0.2267
 1583SOL    HW216383   1.589   4.141   3.517 -1.5975  1.1035 -1.9190
 1584SOL     OW16384   3.500   0.693   8.472 -0.1896 -0.6568  0.5246
 1584SOL    HW116385   3.467   0.604   8.459 -1.1194  0.1015 -2.3317
 1584SOL    HW216386   3.495   0.704   8.567 -1.9397  0.5122  0.3083
 1585SOL     OW16387   0.965   2.396   3.220  0.2515  0.0950 -0.2702
 1585SOL    HW116388   0.923   2.359   3.143 -1.2267  0.9551  0.1073
 1585SOL    HW216389   0.898   2.399   3.289 -0.0967  2.6471 -0.6911
 1586SOL     OW16390   0.933   3.032   9.994  0.1346  0.7939  0.5000
 1586SOL    HW116391   0.994   3.090   9.949  0.2122  0.0988 -0.2850
 1586SOL    HW216392   0.915   3.079  10.075 -0.1938 -0.0337  0.9098
 1587SOL     OW16393   0.034   4.357   7.923 -0.2009 -0.3001 -0.2391
 1587SOL    HW116394   0.126   4.330   7.924  0.2861  1.3924 -0.4927
 1587SOL    HW216395   4.737   4.292   7.862  1.0697 -1.7416  0.5491
 1588SOL     OW16396   0.819   1.975   1.470 -0.3730 -0.3655  0.1933
 1588SOL    HW116397   0.912   1.986   1.487  0.1226 -3.0572 -0.8332
 1588SOL    HW216398   0.793   1.906   1.531 -1.9997  0.7121  0.7234
 1589SOL     OW16399   1.464   2.666   1.569  0.1292 -0.2005 -0.2455
 1589SOL    HW116400   1.495   2.590   1.618  1.3154  1.4267  1.5108
 1589SOL    HW216401   1.413   2.623   1.500 -1.0332  0.1439  0.3858
 1590SOL     OW16402   0.429   2.839  13.101  0.1345  0.1712 -0.4830
 1590SOL    HW116403   0.396   2.879  13.021 -1.5114  0.4786  0.3566
 1590SOL    HW216404   0.522   2.861  13.098  0.2773 -0.2005  1.3948
 1591SOL     OW16405   4.050   3.403   4.830 -0.1463 -0.6565 -0.1485
 1591SOL    HW116406   4.017   3.492   4.817 -0.9686 -0.6005  2.2838
 1591SOL    HW216407   4.122   3.414   4.768 -0.0309  0.3237  0.1475
 1592SOL     OW16408   3.780   3.293  16.838 -0.1471 -0.2186  0.4831
 1592SOL    HW116409   3.866   3.328  16.816 -0.2078  1.1399  2.4817
 1592SOL    HW216410   3.727   3.372  16.825 -0.5467 -0.6056 -0.2866
 1593SOL     OW16411   1.218   1.607   3.503 -0.0435 -0.4048 -0.2084
 1593SOL    HW116412   1.156   1.553   3.551 -0.5571  0.7942  0.4908
 1593SOL    HW216413   1.231   1.545   3.431 -0.9369 -1.4880  0.5783
 1594SOL     OW16414   2.041   1.196   8.669  0.2892  0.6011  0.0713
 1594SOL    HW116415   2.000   1.266   8.721  0.2227  0.8536 -0.3158
 1594SOL    HW216416   2.124   1.185   8.714  1.0149 -0.6382 -1.5823
 1595SOL     OW16417   3.059   0.727   0.317  0.5586  0.5116  0.4094
 1595SOL    HW116418   2.990   0.697   0.257  0.1845  1.5830  0.3052
 1595SOL    HW216419   3.002   0.774   0.378  1.0638  1.3616  0.2259
 1596SOL     OW16420   3.324   4.630   9.128 -0.4320  0.2136  0.0665
 1596SOL    HW116421   3.329   4.549   9.179 -0.0242  0.7309  0.8437
 1596SOL    HW216422   3.257   4.674   9.180 -1.3562 -3.0803  1.6352
 1597SOL     OW16423   1.591   3.347   5.880 -0.0172  0.0915 -0.6034
 1597SOL    HW116424   1.624   3.317   5.795  1.2233 -0.3864  0.0499
 1597SOL    HW216425   1.619   3.438   5.890  1.7337 -0.3703 -1.3095
 1598SOL     OW16426   3.230   3.276   7.248 -0.0927  0.0535  0.0473
 1598SOL    HW116427   3.183   3.351   7.210  0.9839  1.3095  1.2031
 1598SOL    HW216428   3.187   3.264   7.332 -1.3279 -1.7577 -0.8442
 1599SOL     OW16429   2.983   3.811   2.701  0.2050 -0.0666  0.0380
 1599SOL    HW116430   2.898   3.836   2.737 -0.1414  0.3769 -1.0780
 1599SOL    HW216431   2.966   3.726   2.659  0.6119 -0.0535 -0.1511
 1600SOL     OW16432   0.495   4.406   5.212  0.8891 -0.1697 -0.1917
 1600SOL    HW116433   0.450   4.436   5.291  1.4648  1.6696 -0.5483
 1600SOL    HW216434   0.571   4.463   5.218  2.1058 -1.6064 -1.9524
 1601SOL     OW16435   0.818   1.516  14.302  0.0761  0.7561  0.1257
 1601SOL    HW116436   0.777   1.481  14.223  0.7087  0.5425 -0.1076
 1601SOL    HW216437   0.750   1.582  14.317  0.8240  1.5253  0.0829
 1602SOL     OW16438   1.942   1.376   5.184  0.0205  0.1747 -0.2367
 1602SOL    HW116439   2.010   1.400   5.247  1.1980 -1.5300 -0.8616
 1602SOL    HW216440   1.924   1.464   5.152 -2.8667 -0.7501 -1.1581
 1603SOL     OW16441   4.120   0.338  17.503  0.3369  0.1767 -0.1156
 1603SOL    HW116442   4.182   0.411  17.500 -1.0287  1.3431 -0.3381
 1603SOL    HW216443   4.145   0.262  17.450  1.5771  2.3894 -2.7271
 1604SOL     OW16444   2.453   1.250   1.046  0.0786 -0.1850  0.5732
 1604SOL    HW116445   2.515   1.223   1.114  0.3860 -3.6305 -1.1181
 1604SOL    HW216446   2.505   1.321   1.009 -1.9226  1.5529  1.0477
 1605SOL     OW16447   3.173   1.174   3.904  0.4254  0.3164  0.3597
 1605SOL    HW116448   3.200   1.125   3.982  1.1187  0.3826  0.1620
 1605SOL    HW216449   3.252   1.177   3.851  0.6880  0.5656  0.7572
 1606SOL     OW16450   3.733   1.722   3.349  0.6241 -0.5658  0.2596
 1606SOL    HW116451   3.655   1.776   3.363 -2.1904 -4.5382  0.1015
 1606SOL    HW216452   3.771   1.783   3.286 -0.3577 -2.3316 -2.0703
 1607SOL     OW16453   4.167   4.462   8.807  0.2502 -0.5333 -0.1920
 1607SOL    HW116454   4.223   4.385   8.820  0.8625  0.5629  3.6314
 1607SOL    HW216455   4.119   4.439   8.728 -1.2095 -1.0942  0.8562
 1608SOL     OW16456   1.553   2.630  12.932 -0.4444 -0.1228 -0.1057
 1608SOL    HW116457   1.461   2.606  12.945 -1.0682  0.1600 -3.8606
 1608SOL    HW216458   1.579   2.570  12.862  2.6492  0.4329  0.5565
 1609SOL     OW16459   3.061   4.143   5.415  0.3321  0.1958 -0.0821
 1609SOL    HW116460   2.985   4.190   5.449  1.3771  0.9274  1.1950
 1609SOL    HW216461   3.048   4.144   5.320  1.1892 -1.4866 -0.2299
 1610SOL     OW16462   3.836   3.835   8.412  0.7768 -0.0438 -0.3284
 1610SOL    HW116463   3.929   3.847   8.395  0.8371 -0.6254 -0.4016
 1610SOL    HW216464   3.808   3.922   8.439  0.7204  0.5668 -2.3812
 1611SOL     OW16465   1.686   0.923   6.420  0.1889 -0.5926  0.0122
 1611SOL    HW116466   1.600   0.896   6.388 -0.6712  1.2288  0.8183
 1611SOL    HW216467   1.716   0.856   6.481  1.2869  0.1624  0.2954
 1612SOL     OW16468   2.795   0.054   6.441  0.5257  0.1857 -0.0040
 1612SOL    HW116469   2.836   0.095   6.518 -2.1482  0.4009  1.2962
 1612SOL    HW216470   2.721   0.114   6.436  0.8678  0.6807  0.7991
 1613SOL     OW16471   3.020   4.508   6.496  0.0139  0.0708 -0.0023
 1613SOL    HW116472   3.065   4.433   6.457 -0.0716 -0.0425  0.1177
 1613SOL    HW216473   3.045   4.585   6.446  0.3148  0.6453  1.0460
 1614SOL     OW16474   1.034   1.637   8.421  0.1299 -0.0038  0.3417
 1614SOL    HW116475   0.958   1.584   8.396  0.0917  0.3905 -0.3860
 1614SOL    HW216476   1.008   1.728   8.407 -2.3403 -0.6957  0.3534
 1615SOL     OW16477   2.994   1.233  13.237 -0.0462  0.1930  0.0434
 1615SOL    HW116478   2.945   1.159  13.199 -1.6479  1.0153  0.5453
 1615SOL    HW216479   3.074   1.184  13.256  0.6963  1.4024  0.0282
 1616SOL     OW16480   0.201   1.145   3.594 -0.4423 -0.5826 -0.5476
 1616SOL    HW116481   0.180   1.234   3.621  0.2598 -0.6043  0.0524
 1616SOL    HW216482   0.188   1.085   3.668 -2.2854 -1.5317 -1.6228
 1617SOL     OW16483   1.925   1.985   2.677 -0.0123  0.2597 -0.0724
 1617SOL    HW116484   1.909   2.079   2.666  1.3131  0.6889  1.6611
 1617SOL    HW216485   1.855   1.952   2.733 -0.6010 -0.0954 -1.0250
 1618SOL     OW16486   1.675   3.585  14.061 -0.5727  0.2122  0.0067
 1618SOL    HW116487   1.726   3.518  14.016  1.3636  1.9720 -0.4209
 1618SOL    HW216488   1.584   3.566  14.040  0.1253 -2.5230 -0.5889
 1619SOL     OW16489   1.531   0.475   7.813 -0.2124 -0.3822  0.6048
 1619SOL    HW116490   1.458   0.433   7.769  1.0221 -1.9379  0.0448
 1619SOL    HW216491   1.544   0.548   7.753  0.1389 -0.6382  0.3676
 1620SOL     OW16492   0.322   4.019  13.714 -0.6052 -0.2387 -0.1055
 1620SOL    HW116493   0.293   4.031  13.805 -1.6819  0.6272 -0.5674
 1620SOL    HW216494   0.353   4.106  13.692 -2.3253  0.0060 -1.5976
 1621SOL     OW16495   0.644   2.471   8.416 -0.0378 -0.1710 -0.6703
 1621SOL    HW116496   0.711   2.540   8.410 -0.5355  0.1819 -2.1008
 1621SOL    HW216497   0.627   2.482   8.510 -2.1627  0.6673 -1.1486
 1622SOL     OW16498   1.526   3.908   7.115  0.1994  0.0395 -0.3722
 1622SOL    HW116499   1.548   3.993   7.078  0.5827  0.0842 -0.0495
 1622SOL    HW216500   1.513   3.941   7.204  1.4715 -2.6467  0.8083
 1623SOL     OW16501   1.298   1.779   4.752 -0.3822 -0.2658 -0.1161
 1623SOL    HW116502   1.237   1.851   4.742 -0.6077 -0.3693  0.5153
 1623SOL    HW216503   1.265   1.726   4.825 -1.6174 -1.2968 -1.4166
 1624SOL     OW16504   1.310   0.641   2.749 -0.2124  0.0128  0.4310
 1624SOL    HW116505   1.253   0.712   2.722 -0.1960 -0.1840 -0.1157
 1624SOL    HW216506   1.397   0.679   2.753 -0.4907  0.5640  1.3997
 1625SOL     OW16507   0.354   3.877  16.985  0.6613 -0.5102  0.6222
 1625SOL    HW116508   0.411   3.812  17.027 -0.1156 -0.6623  1.4479
 1625SOL    HW216509   0.276   3.821  16.983 -1.6292  2.7541 -0.4300
 1626SOL     OW16510   2.303   4.214   2.505 -0.0888 -0.1149 -0.2125
 1626SOL    HW116511   2.283   4.179   2.418 -1.5898 -1.2213  0.5869
 1626SOL    HW216512   2.283   4.153   2.575 -3.2170  0.3181 -0.7328
 1627SOL     OW16513   3.296   1.573  13.974  0.0352  0.3356  0.2356
 1627SOL    HW116514   3.268   1.495  14.022  0.9666  0.0166  0.2753
 1627SOL    HW216515   3.284   1.640  14.041  1.6934 -0.1494  1.0156
 1628SOL     OW16516   0.200   1.006   2.557  0.4934 -0.6827  0.4490
 1628SOL    HW116517   0.203   1.077   2.492  2.8958 -0.6650  0.5527
 1628SOL    HW216518   0.108   1.006   2.583  0.1759 -0.5940 -0.6467
 1629SOL     OW16519   1.771   4.666   7.340  0.2032  0.8078 -0.7050
 1629SOL    HW116520   1.691   4.705   7.374 -3.7679 -3.6297 -4.8982
 1629SOL    HW216521   1.783   4.731   7.270  0.8492  2.3887  0.8675
 1630SOL     OW16522   0.211   4.322   4.530  0.4595  0.2631  0.2493
 1630SOL    HW116523   0.159   4.275   4.595 -2.5867  0.6116 -1.9377
 1630SOL    HW216524   0.227   4.404   4.575 -2.5482  0.5189  0.8073
 1631SOL     OW16525   4.269   0.439   1.854  0.3023  1.1591  0.0272
 1631SOL    HW116526   4.292   0.384   1.780  0.1364 -0.5206  1.2234
 1631SOL    HW216527   4.313   0.391   1.924  0.6344  0.3506 -0.7458
 1632SOL     OW16528   3.004   1.772  12.495 -0.3549 -0.5064  0.0926
 1632SOL    HW116529   3.048   1.759  12.580  0.4589 -0.1060 -0.2682
 1632SOL    HW216530   2.951   1.849  12.515  0.4798 -0.3736  1.8678
 1633SOL     OW16531   4.574   3.779  16.918  0.2072 -0.2156  0.0685
 1633SOL    HW116532   4.492   3.772  16.869  0.3616  1.9429 -0.5182
 1633SOL    HW216533   4.545   3.741  17.001  1.5288  0.4037  0.8120
 1634SOL     OW16534   1.641   4.271   5.376  0.0789  0.4611  0.5085
 1634SOL    HW116535   1.712   4.236   5.322 -1.2943 -0.9704 -0.3555
 1634SOL    HW216536   1.619   4.354   5.333 -1.1806 -0.2543 -0.2319
 1635SOL     OW16537   1.767   3.615   0.578  0.0382  0.4671 -0.1535
 1635SOL    HW116538   1.836   3.678   0.559  0.8034 -0.3532 -0.1004
 1635SOL    HW216539   1.731   3.622   0.489 -1.5248 -1.0984  0.3607
 1636SOL     OW16540   0.103   3.634   6.186 -0.0741 -0.7357 -0.0051
 1636SOL    HW116541   0.070   3.658   6.099  0.3546  1.3022  0.3856
 1636SOL    HW216542   0.197   3.651   6.176 -0.1803  0.1989  0.5987
 1637SOL     OW16543   2.487   0.005   1.807 -0.4000  0.3836 -0.3135
 1637SOL    HW116544   2.395   0.004   1.833  0.0822 -0.3167  1.3745
 1637SOL    HW216545   2.528   0.038   1.887  2.1283 -1.0110 -1.0254
 1638SOL     OW16546   3.275   2.173   9.142 -0.4505  0.4271 -0.3874
 1638SOL    HW116547   3.352   2.138   9.096  0.3326  2.7326 -0.8692
 1638SOL    HW216548   3.316   2.220   9.214 -0.1340 -0.2691 -0.1151
 1639SOL     OW16549   3.925   1.506   8.434 -0.0733 -0.5009 -0.0098
 1639SOL    HW116550   3.932   1.583   8.490 -2.2266 -0.2429 -0.0940
 1639SOL    HW216551   3.920   1.544   8.346  0.3758  2.8380  1.4014
 1640SOL     OW16552   2.951   1.318   3.893 -0.7618  0.3592  0.0679
 1640SOL    HW116553   2.975   1.354   3.807 -2.8819  0.5078 -0.4603
 1640SOL    HW216554   3.037   1.282   3.916 -1.2769 -1.4496 -0.8580
 1641SOL     OW16555   0.984   3.482   6.494 -0.1985  0.7332 -0.0251
 1641SOL    HW116556   1.050   3.512   6.431  0.5576  1.3355  1.0445
 1641SOL    HW216557   0.900   3.504   6.454 -0.4827  1.3821  0.9382
 1642SOL     OW16558   2.883   2.378   2.671 -0.1909 -0.3187 -0.0512
 1642SOL    HW116559   2.890   2.291   2.709  0.4388  0.7412  2.2327
 1642SOL    HW216560   2.957   2.431   2.699 -0.3843  0.0133 -0.1567
 1643SOL     OW16561   3.690   2.141   6.870  0.5306 -0.4793 -0.2656
 1643SOL    HW116562   3.675   2.233   6.892 -2.4692 -1.4772  1.9052
 1643SOL    HW216563   3.682   2.095   6.954  1.3586 -2.0027 -1.0450
 1644SOL     OW16564   0.142   3.719   2.403 -0.6558 -0.3123  0.0847
 1644SOL    HW116565   0.086   3.642   2.408 -1.0678  0.0207  0.5892
 1644SOL    HW216566   0.076   3.787   2.417 -0.8646 -0.8562  1.7040
 1645SOL     OW16567   4.377   2.011   5.639 -0.1317  0.4970 -0.5060
 1645SOL    HW116568   4.409   2.097   5.613 -0.4170  0.4088 -1.1493
 1645SOL    HW216569   4.283   2.018   5.623 -0.1216 -1.5111 -1.4767
 1646SOL     OW16570   4.040   0.077   1.878 -0.1601  0.1261 -0.5207
 1646SOL    HW116571   4.036   4.729   1.922  0.5280 -0.0755 -0.8599
 1646SOL    HW216572   4.129   0.073   1.844 -1.0416  0.1899 -2.8416
 1647SOL     OW16573   0.987   1.385   7.260  0.2015  0.4618 -0.2851
 1647SOL    HW116574   1.024   1.409   7.345 -0.6822  1.5439 -0.2141
 1647SOL    HW216575   1.052   1.325   7.225  0.2491  1.1337 -1.3602
 1648SOL     OW16576   2.424   2.211   7.451 -0.1792  0.4214  0.4225
 1648SOL    HW116577   2.480   2.226   7.375  1.6597 -0.6509  1.5669
 1648SOL    HW216578   2.339   2.222   7.410 -0.8921 -0.7645  1.5724
 1649SOL     OW16579   2.938   1.728   5.805  0.1678  1.0695  0.3751
 1649SOL    HW116580   3.006   1.682   5.854  1.7852  1.2147 -1.7358
 1649SOL    HW216581   2.971   1.814   5.830  0.2041  1.0252  0.4792
 1650SOL     OW16582   2.634   2.847   0.926  0.1881 -0.1302  0.1233
 1650SOL    HW116583   2.602   2.892   1.004 -0.6460 -2.1603  0.9440
 1650SOL    HW216584   2.634   2.753   0.946 -1.3858  0.2175  1.7425
 1651SOL     OW16585   1.517   4.398  16.798 -0.6327 -0.7762 -0.4033
 1651SOL    HW116586   1.540   4.339  16.869  0.2222 -1.4497 -1.2459
 1651SOL    HW216587   1.585   4.376  16.734 -1.4893  0.5676 -1.7821
 1652SOL     OW16588   3.809   3.407   3.883 -0.1474  0.5783  0.4266
 1652SOL    HW116589   3.829   3.330   3.936 -0.3454 -0.9806 -1.7710
 1652SOL    HW216590   3.876   3.464   3.920  0.1464 -0.4696  1.5054
 1653SOL     OW16591   0.142   1.410   1.878  0.2405  0.3785  0.0085
 1653SOL    HW116592   0.137   1.489   1.932  1.9247  2.5850 -3.1204
 1653SOL    HW216593   0.066   1.422   1.821 -1.6915 -1.8925  2.0949
 1654SOL     OW16594   2.707   4.526   4.823 -0.5462 -0.4055  0.1035
 1654SOL    HW116595   2.761   4.587   4.875 -0.7415  0.7678 -1.0780
 1654SOL    HW216596   2.678   4.467   4.892 -1.9641  0.1810  0.0012
 1655SOL     OW16597   3.800   0.634  15.203 -0.3159 -0.2411 -0.2305
 1655SOL    HW116598   3.718   0.586  15.214  1.0123 -2.3350  0.4916
 1655SOL    HW216599   3.858   0.558  15.191  0.8573  0.5422  0.4937
 1656SOL     OW16600   3.462   2.811   4.901 -0.0873  0.1101  0.3317
 1656SOL    HW116601   3.395   2.786   4.837  1.3687 -0.9810 -0.7575
 1656SOL    HW216602   3.516   2.735   4.924 -1.8845 -0.8932  1.2727
 1657SOL     OW16603   0.797   3.250   6.390  0.4924  0.5539 -0.2341
 1657SOL    HW116604   0.793   3.329   6.337 -0.1168 -0.4627 -1.7008
 1657SOL    HW216605   0.707   3.258   6.421  0.1452  3.5803 -2.0386
 1658SOL     OW16606   0.129   4.621   1.086  0.2481 -0.3688  0.4990
 1658SOL    HW116607   0.067   4.692   1.070  0.3628 -0.2538  0.5617
 1658SOL    HW216608   0.193   4.670   1.138  1.5733  0.0552 -1.5179
 1659SOL     OW16609   2.183   1.033  16.783 -0.4535 -0.6094 -0.3978
 1659SOL    HW116610   2.104   1.068  16.824  2.5826  2.9201  2.4543
 1659SOL    HW216611   2.236   1.109  16.758  1.3652 -1.5961  0.4956
 1660SOL     OW16612   2.155   2.399   2.427 -0.0595 -0.3869 -0.1306
 1660SOL    HW116613   2.149   2.337   2.499  0.1766  1.5501  1.5417
 1660SOL    HW216614   2.248   2.382   2.414 -0.5813 -0.9518 -3.1876
 1661SOL     OW16615   1.204   0.625   4.933  0.2640 -0.1494 -0.2290
 1661SOL    HW116616   1.188   0.713   4.966  0.6762 -0.6158  1.1934
 1661SOL    HW216617   1.270   0.592   4.994 -1.6901  0.3032  2.0842
 1662SOL     OW16618   1.888   1.231   3.446 -0.2966  0.5407 -0.1747
 1662SOL    HW116619   1.906   1.199   3.534  0.8294  0.1997 -0.5368
 1662SOL    HW216620   1.899   1.149   3.398 -1.6401 -0.4898  1.2917
 1663SOL     OW16621   1.392   0.826  16.681 -0.1085  0.7406 -0.5294
 1663SOL    HW116622   1.448   0.750  16.693  1.4316  1.8026 -0.9549
 1663SOL    HW216623   1.453   0.893  16.648 -0.0630  1.2657  0.6432
 1664SOL     OW16624   1.786   0.192  13.724 -0.1521 -0.1451  0.1325
 1664SOL    HW116625   1.781   0.102  13.692 -1.6878 -0.5020  1.4026
 1664SOL    HW216626   1.771   0.164  13.814 -1.9891  0.6958  0.0809
 1665SOL     OW16627   2.076   0.314   7.860  0.5899 -0.8083  0.5356
 1665SOL    HW116628   1.998   0.274   7.821  1.0790 -0.5626 -0.7031
 1665SOL    HW216629   2.083   0.266   7.942  0.5913  0.5116  1.3011
 1666SOL     OW16630   2.092   3.045  11.101 -1.0177  0.6179 -0.0813
 1666SOL    HW116631   2.124   2.989  11.030  1.4519  0.5419  1.0630
 1666SOL    HW216632   2.174   3.047  11.152 -0.1859 -1.2194 -1.3602
 1667SOL     OW16633   3.889   4.414   6.822  0.5196  0.4142 -0.5468
 1667SOL    HW116634   3.891   4.506   6.849 -0.7137  1.0274 -2.5220
 1667SOL    HW216635   3.805   4.376   6.848  0.0317  2.5759  1.0751
 1668SOL     OW16636   3.115   2.154   6.100  0.7821 -0.1498 -0.2522
 1668SOL    HW116637   3.131   2.236   6.146  0.0934  0.2831 -0.7969
 1668SOL    HW216638   3.133   2.091   6.170  1.2808  1.9497  1.5113
 1669SOL     OW16639   3.936   3.287  16.404 -0.2299 -0.0254  0.1572
 1669SOL    HW116640   3.912   3.369  16.360 -0.5628 -0.8761 -1.2581
 1669SOL    HW216641   3.937   3.223  16.332 -2.7220 -1.7362  1.6690
 1670SOL     OW16642   2.200   2.556   2.757  0.6310  0.0616 -0.0907
 1670SOL    HW116643   2.261   2.629   2.770  0.6322 -0.3169  2.0568
 1670SOL    HW216644   2.255   2.495   2.708  2.6597  0.6592  1.4495
 1671SOL     OW16645   1.516   1.951   8.440  0.2555  0.7582  0.5843
 1671SOL    HW116646   1.568   1.892   8.495 -0.0938 -0.4121 -0.3408
 1671SOL    HW216647   1.526   2.029   8.494  2.2001  1.2940 -0.5415
 1672SOL     OW16648   3.943   3.783   8.773 -0.1191 -0.3198  0.2338
 1672SOL    HW116649   3.933   3.796   8.868 -0.1773  0.6239  0.0936
 1672SOL    HW216650   4.006   3.711   8.782 -0.0823 -0.1573  1.3121
 1673SOL     OW16651   3.794   0.937   7.293 -0.1832 -0.1239  0.3042
 1673SOL    HW116652   3.886   0.914   7.295  0.1966  1.4042  0.4174
 1673SOL    HW216653   3.765   0.858   7.339  1.5162 -2.0604 -1.9814
 1674SOL     OW16654   4.268   1.590   1.861  0.2293  0.7084  0.3780
 1674SOL    HW116655   4.297   1.575   1.951  0.2786 -1.3340  0.0297
 1674SOL    HW216656   4.217   1.668   1.883 -1.9449 -0.9268  1.1907
 1675SOL     OW16657   2.127   4.575   1.173 -0.6448 -0.5402 -0.4141
 1675SOL    HW116658   2.207   4.525   1.192  0.8660  1.5151 -1.2390
 1675SOL    HW216659   2.144   4.611   1.085  0.8236  1.7107  0.7840
 1676SOL     OW16660   1.364   2.138  13.465 -0.0215 -0.3063  0.5714
 1676SOL    HW116661   1.396   2.193  13.537 -1.3077  0.8127  0.2932
 1676SOL    HW216662   1.280   2.177  13.442  0.9235 -0.0537 -2.3404
 1677SOL     OW16663   2.455   0.845  12.205 -0.1728  0.2024 -0.0116
 1677SOL    HW116664   2.454   0.763  12.254  0.5922  0.0405 -0.2748
 1677SOL    HW216665   2.516   0.815  12.137  0.0461 -1.4888  0.9387
 1678SOL     OW16666   0.437   2.129   9.890 -0.2552 -0.2906  0.0567
 1678SOL    HW116667   0.413   2.040   9.863 -1.7072 -0.7746  2.9154
 1678SOL    HW216668   0.434   2.121   9.986  1.0776  0.0807  0.1231
 1679SOL     OW16669   0.992   3.470   9.859  0.1902  0.4692  0.1121
 1679SOL    HW116670   1.073   3.480   9.909 -0.4053 -1.3249  1.4406
 1679SOL    HW216671   0.938   3.449   9.935 -2.5015 -0.3079 -2.0554
 1680SOL     OW16672   1.090   2.113   8.195  0.3678 -0.3197  0.0084
 1680SOL    HW116673   1.160   2.165   8.236 -0.8694  1.6874 -0.4453
 1680SOL    HW216674   1.138   2.063   8.129  0.3473 -1.9148  1.2068
 1681SOL     OW16675   0.415   0.512  15.696 -0.4376 -0.0842 -0.4917
 1681SOL    HW116676   0.461   0.430  15.681 -0.5931 -0.2607  0.0065
 1681SOL    HW216677   0.435   0.554  15.612  0.2344 -2.4610 -1.4962
 1682SOL     OW16678   1.192   2.064   6.200 -0.0266  0.0762 -0.1264
 1682SOL    HW116679   1.112   2.071   6.148 -0.9764 -2.5876  0.9339
 1682SOL    HW216680   1.170   2.050   6.291 -0.9301  0.0949 -0.3481
 1683SOL     OW16681   2.128   0.735   5.835 -0.0263 -0.2533  0.3974
 1683SOL    HW116682   2.112   0.754   5.927  2.2967 -1.6295  1.0700
 1683SOL    HW216683   2.190   0.663   5.844  0.6843  0.2216 -0.6721
 1684SOL     OW16684   1.751   2.813   8.368  0.7035 -0.2190  0.6175
 1684SOL    HW116685   1.719   2.723   8.359 -1.5773  0.9486 -3.0026
 1684SOL    HW216686   1.767   2.851   8.281  0.4155 -0.1984  0.5732
 1685SOL     OW16687   0.049   4.115   9.853  0.0394 -0.3641  0.2536
 1685SOL    HW116688   0.014   4.175   9.919 -0.8918  1.1609 -1.6216
 1685SOL    HW216689   0.094   4.051   9.908  3.3987  0.3543 -1.6450
 1686SOL     OW16690   2.664   3.347   2.732  0.1606  0.1213 -0.4549
 1686SOL    HW116691   2.610   3.270   2.711  1.3415 -0.8837  0.1800
 1686SOL    HW216692   2.591   3.408   2.730  0.0232 -0.1295 -3.0540
 1687SOL     OW16693   1.527   4.222   7.476  0.1309 -0.4949  0.4127
 1687SOL    HW116694   1.451   4.232   7.533  1.7279  2.5279  2.0140
 1687SOL    HW216695   1.557   4.312   7.467 -3.4135  0.5057 -1.2042
 1688SOL     OW16696   1.403   4.353  14.523 -0.8723 -0.0509  0.4113
 1688SOL    HW116697   1.349   4.278  14.548  1.4599 -1.7706  0.3371
 1688SOL    HW216698   1.359   4.419  14.575  0.1471 -0.0591  1.3042
 1689SOL     OW16699   3.448   3.304   6.096 -0.0607  0.0549 -0.3839
 1689SOL    HW116700   3.520   3.362   6.071  2.6759 -1.8000  3.0970
 1689SOL    HW216701   3.462   3.225   6.043 -1.6131  0.2391 -1.0615
 1690SOL     OW16702   0.628   2.411   7.986 -0.1940 -0.4708  0.3675
 1690SOL    HW116703   0.621   2.376   7.897  0.9592  1.9150 -0.6582
 1690SOL    HW216704   0.657   2.499   7.965  0.0213 -0.2048  1.8064
 1691SOL     OW16705   2.535   4.263   1.267 -0.4292 -0.0124  0.2130
 1691SOL    HW116706   2.622   4.241   1.235 -0.5978 -0.3686 -0.0034
 1691SOL    HW216707   2.493   4.177   1.262  2.0239 -1.2564  1.1123
 1692SOL     OW16708   0.552   1.846  13.152  0.2345 -0.7935  0.3411
 1692SOL    HW116709   0.544   1.751  13.165  0.8387 -0.8288  0.4279
 1692SOL    HW216710   0.576   1.856  13.060 -1.8724 -0.0087 -0.1371
 1693SOL     OW16711   2.748   4.428   8.655 -0.2594  0.2649 -0.4522
 1693SOL    HW116712   2.842   4.413   8.645 -0.4461 -0.4492 -1.1423
 1693SOL    HW216713   2.751   4.493   8.586  3.0957 -0.5325 -1.0674
 1694SOL     OW16714   0.391   3.779   6.627  0.7523 -0.0457 -0.2927
 1694SOL    HW116715   0.300   3.805   6.641  0.8853 -0.1184  0.7129
 1694SOL    HW216716   0.379   3.715   6.557 -0.6705  0.0095 -0.0944
 1695SOL     OW16717   3.481   2.811   5.479  0.1436  0.4695  0.1763
 1695SOL    HW116718   3.557   2.869   5.469 -0.3217  1.1756  0.7788
 1695SOL    HW216719   3.493   2.798   5.573 -0.9916 -1.1187  0.0933
 1696SOL     OW16720   3.756   0.695   0.186  1.0940  0.4801 -0.4128
 1696SOL    HW116721   3.745   0.662   0.097  0.6813 -1.9722  0.5381
 1696SOL    HW216722   3.712   0.779   0.174 -0.1807 -0.2110 -0.5917
 1697SOL     OW16723   3.510   1.623   1.485  0.3388 -0.6752  0.0881
 1697SOL    HW116724   3.467   1.588   1.564 -0.7593 -1.5282 -0.8785
 1697SOL    HW216725   3.439   1.613   1.421 -0.8345  2.6935  0.8727
 1698SOL     OW16726   4.486   1.964   2.531  0.4898 -0.2973 -0.4149
 1698SOL    HW116727   4.485   1.967   2.627 -2.2156  1.8895 -0.5211
 1698SOL    HW216728   4.460   2.055   2.514  0.3714 -0.6171 -1.9600
 1699SOL     OW16729   4.594   2.410   5.456 -0.0406  0.6665 -0.1470
 1699SOL    HW116730   4.594   2.449   5.368  1.9878 -2.4398 -1.5030
 1699SOL    HW216731   4.667   2.350   5.444 -0.5146  0.5382 -2.3834
 1700SOL     OW16732   3.586   3.564   4.745 -0.1233  0.3120  0.7929
 1700SOL    HW116733   3.564   3.633   4.807  0.5809 -0.3742  1.7908
 1700SOL    HW216734   3.657   3.522   4.793  0.8152  1.1796  0.1639
 1701SOL     OW16735   4.367   2.231  11.303 -0.0732 -0.2350  0.3020
 1701SOL    HW116736   4.431   2.299  11.324 -0.4481 -0.4252  2.1155
 1701SOL    HW216737   4.385   2.170  11.374 -2.2940 -0.1087  0.9622
 1702SOL     OW16738   4.014   3.322  17.441 -0.0972 -0.1491  0.2992
 1702SOL    HW116739   4.013   3.237  17.486  1.9635 -1.9625 -2.9777
 1702SOL    HW216740   4.079   3.359  17.500  0.1182 -2.9087  1.8002
 1703SOL     OW16741   3.514   4.458  10.123  0.5494  0.0363  0.0043
 1703SOL    HW116742   3.475   4.525  10.066  2.2402  0.9518 -0.0543
 1703SOL    HW216743   3.448   4.398  10.158 -0.2837  1.6349  1.1977
 1704SOL     OW16744   4.013   0.232   4.313 -0.0574 -0.1066  0.1002
 1704SOL    HW116745   4.075   0.161   4.326  1.6845  1.5133  0.5752
 1704SOL    HW216746   4.020   0.236   4.218  3.6132 -1.4018  0.3339
 1705SOL     OW16747   4.248   3.764   1.918 -0.4863  0.4150  0.0592
 1705SOL    HW116748   4.188   3.694   1.893 -0.5534  0.8918 -1.0795
 1705SOL    HW216749   4.331   3.742   1.876 -0.0209 -1.0620  1.7656
 1706SOL     OW16750   3.328   3.098   5.032 -0.4019  0.3276  0.3358
 1706SOL    HW116751   3.374   3.104   5.116 -5.2780 -1.3704  3.0904
 1706SOL    HW216752   3.344   3.187   5.001 -1.0309 -0.6171 -2.6738
 1707SOL     OW16753   4.135   2.487  11.211  0.1690 -0.3020 -0.2534
 1707SOL    HW116754   4.055   2.537  11.226  3.2806  4.3549  0.7136
 1707SOL    HW216755   4.195   2.513  11.281  0.8491 -0.6065 -0.7174
 1708SOL     OW16756   3.507   2.737   8.886  0.1741  0.5944 -0.0768
 1708SOL    HW116757   3.508   2.656   8.936  0.3502  0.1405 -0.8215
 1708SOL    HW216758   3.599   2.761   8.890  0.6819 -0.8870 -3.1357
 1709SOL     OW16759   1.131   2.830   2.855 -0.3118 -0.2743  0.5347
 1709SOL    HW116760   1.167   2.910   2.893  0.8719 -0.0657 -1.0038
 1709SOL    HW216761   1.040   2.833   2.884  0.0314 -1.3866  1.7084
 1710SOL     OW16762   0.036   0.379  10.956  0.4999 -0.0648  0.2096
 1710SOL    HW116763   0.075   0.375  10.869  3.1083  1.8236  1.3008
 1710SOL    HW216764   0.018   0.472  10.950  1.2427  0.1804  1.8482
 1711SOL     OW16765   1.771   3.389   4.012 -0.1236  0.1706  0.0510
 1711SOL    HW116766   1.814   3.460   4.059 -1.9354  1.6805 -0.5544
 1711SOL    HW216767   1.808   3.308   4.047 -2.0609  0.5788  3.0935
 1712SOL     OW16768   0.084   0.847   7.315 -0.3472 -0.3463  0.1493
 1712SOL    HW116769   4.737   0.816   7.285  0.3937 -0.0960 -2.2233
 1712SOL    HW216770   0.139   0.788   7.264  1.3449 -0.6349  2.2937
 1713SOL     OW16771   0.900   1.182  10.120  0.0777 -0.4504 -0.5373
 1713SOL    HW116772   0.950   1.213  10.196  0.6566  1.2356 -1.5946
 1713SOL    HW216773   0.849   1.113  10.162  1.6934 -1.0761  0.3804
 1714SOL     OW16774   1.901   3.845   0.878  0.0793  0.3458 -0.0830
 1714SOL    HW116775   1.964   3.787   0.834  0.1123 -1.8966  2.9962
 1714SOL    HW216776   1.895   3.804   0.964  1.7831  0.2437  0.0007
 1715SOL     OW16777   0.592   2.170  12.553  0.5789  0.4315 -0.2080
 1715SOL    HW116778   0.497   2.165  12.545  0.6095 -1.7747  0.8099
 1715SOL    HW216779   0.623   2.080  12.542 -1.8381 -0.4492  0.1895
 1716SOL     OW16780   3.791   4.023   9.877 -0.7687  0.0754 -0.1509
 1716SOL    HW116781   3.747   3.978   9.948  0.2574  1.2018  1.2181
 1716SOL    HW216782   3.875   4.048   9.916  0.4428 -2.3953 -1.2256
 1717SOL     OW16783   2.717   2.981  17.354  0.2764  0.1742  0.1648
 1717SOL    HW116784   2.622   2.996  17.352 -0.3235 -3.4140  2.6697
 1717SOL    HW216785   2.735   2.946  17.266  0.5414  2.5824 -0.7537
 1718SOL     OW16786   0.278   3.413   7.681 -0.0069  0.3397  0.5184
 1718SOL    HW116787   0.292   3.388   7.772 -1.2754  0.2876  0.7001
 1718SOL    HW216788   0.369   3.441   7.672  0.4328 -1.0723  0.6120
 1719SOL     OW16789   1.223   4.371   1.550 -0.0765  0.6223  0.0306
 1719SOL    HW116790   1.191   4.439   1.609 -0.7055 -1.1226  1.7088
 1719SOL    HW216791   1.177   4.292   1.577  1.6119 -0.7673 -1.1783
 1720SOL     OW16792   1.260   3.776   1.584 -0.1335  0.2820 -0.6560
 1720SOL    HW116793   1.232   3.782   1.493 -1.2185 -1.7390 -0.4493
 1720SOL    HW216794   1.348   3.750   1.558  0.8591  2.0916  0.8743
 1721SOL     OW16795   0.368   3.357  16.818  0.1439  0.0295  0.2483
 1721SOL    HW116796   0.418   3.275  16.822  0.3374  0.0665 -1.3100
 1721SOL    HW216797   0.281   3.321  16.801  1.2085 -1.0804 -3.0230
 1722SOL     OW16798   4.595   4.056  14.018 -0.0006  0.0902  0.5320
 1722SOL    HW116799   4.529   4.002  14.062  0.9974 -2.8342 -1.5400
 1722SOL    HW216800   4.572   4.143  14.050 -2.2254  0.2584 -1.5423
 1723SOL     OW16801   2.674   3.924  10.357  0.3289  0.0927  0.0222
 1723SOL    HW116802   2.679   3.846  10.412 -2.0322  0.4026  0.6831
 1723SOL    HW216803   2.766   3.948  10.372  0.6032 -0.7905 -0.2509
 1724SOL     OW16804   0.028   0.918  11.906 -0.5237  0.6293  0.4967
 1724SOL    HW116805   0.113   0.940  11.868  0.2078 -0.1827  1.6692
 1724SOL    HW216806   4.730   0.837  11.869 -1.2391  0.9500  0.4630
 1725SOL     OW16807   1.510   2.188   4.678  0.6377  0.2626 -0.1941
 1725SOL    HW116808   1.501   2.160   4.769 -0.0861 -1.9390 -0.9481
 1725SOL    HW216809   1.473   2.275   4.692  0.5841  0.1731  0.2158
 1726SOL     OW16810   1.779   1.821   7.688 -0.0319  0.2279  0.0053
 1726SOL    HW116811   1.856   1.813   7.744 -0.7451 -0.7332  0.8708
 1726SOL    HW216812   1.742   1.735   7.708  3.2019 -1.3563 -0.8513
 1727SOL     OW16813   3.322   1.845   6.024 -0.2070  0.5768 -0.7531
 1727SOL    HW116814   3.395   1.907   6.019  0.0420  0.3775  0.2355
 1727SOL    HW216815   3.320   1.834   6.119  0.4530 -1.9885 -1.0333
 1728SOL     OW16816   1.459   1.901   1.637  0.0443  0.6766  0.4127
 1728SOL    HW116817   1.472   1.817   1.593  0.1097 -0.3910  2.4870
 1728SOL    HW216818   1.410   1.949   1.570  1.9960  0.6862 -1.0481
 1729SOL     OW16819   4.104   1.145   5.658 -0.1344  0.1827 -0.4630
 1729SOL    HW116820   4.073   1.235   5.668 -2.1560 -0.7449  1.8063
 1729SOL    HW216821   4.020   1.099   5.663 -1.9042  3.3804 -0.4865
 1730SOL     OW16822   2.355   3.308   6.042 -0.0932 -0.3489  0.3842
 1730SOL    HW116823   2.360   3.212   6.041 -1.5008 -0.4036 -0.7420
 1730SOL    HW216824   2.437   3.331   5.999 -0.2230 -0.0227  0.3168
 1731SOL     OW16825   2.993   0.612   7.134  0.4646 -0.5840  0.0600
 1731SOL    HW116826   3.006   0.541   7.071  0.7377 -0.6965  0.2416
 1731SOL    HW216827   3.082   0.647   7.140  0.5688 -0.7589 -0.5144
 1732SOL     OW16828   3.949   0.686   2.821 -0.8935 -0.0327  0.2431
 1732SOL    HW116829   3.892   0.754   2.856 -0.9557 -0.4030  0.8573
 1732SOL    HW216830   3.995   0.664   2.902 -2.7979  1.8548  1.8376
 1733SOL     OW16831   0.042   3.092   8.745  0.4495  0.0045  0.5517
 1733SOL    HW116832   0.056   2.999   8.766 -0.4444 -0.5052 -1.1401
 1733SOL    HW216833   0.081   3.098   8.658 -1.2005  1.0614 -0.1200
 1734SOL     OW16834   3.072   3.810   5.085  0.2933 -0.8044 -0.3009
 1734SOL    HW116835   2.993   3.800   5.138  0.3907  1.8774  0.3715
 1734SOL    HW216836   3.141   3.784   5.147 -1.0747 -1.9061  0.7681
 1735SOL     OW16837   3.192   4.348  16.191 -0.0433 -0.1209 -0.4091
 1735SOL    HW116838   3.216   4.433  16.228 -0.2112  0.0837 -0.7655
 1735SOL    HW216839   3.143   4.304  16.259 -2.0074 -0.2759 -1.9317
 1736SOL     OW16840   1.538   0.707   3.637 -0.8783 -0.8987 -0.5092
 1736SOL    HW116841   1.478   0.774   3.671 -0.7477 -0.7788 -0.5173
 1736SOL    HW216842   1.506   0.632   3.687 -1.4192 -0.9721 -0.9627
 1737SOL     OW16843   3.795   4.254   2.911 -0.2148 -0.1786 -0.7202
 1737SOL    HW116844   3.737   4.324   2.939  0.3063  0.5730 -1.5214
 1737SOL    HW216845   3.872   4.305   2.885 -2.7969  3.4828 -1.1535
 1738SOL     OW16846   4.401   3.830   2.607  0.3805 -0.4138  0.8443
 1738SOL    HW116847   4.343   3.902   2.587 -1.1359 -1.0761  2.8075
 1738SOL    HW216848   4.365   3.798   2.690 -1.2353  1.7110  0.9352
 1739SOL     OW16849   0.654   3.925   6.897  0.3468  0.7755  0.2460
 1739SOL    HW116850   0.735   3.927   6.846  0.4880  0.3010  0.4488
 1739SOL    HW216851   0.634   4.018   6.889 -1.3384  0.5341  1.5675
 1740SOL     OW16852   4.600   3.863   4.310  0.2417 -0.0004  0.2957
 1740SOL    HW116853   4.548   3.785   4.291  0.5364 -0.0061 -0.4898
 1740SOL    HW216854   4.534   3.931   4.295 -1.9635 -2.3764 -0.7536
 1741SOL     OW16855   1.508   0.206   4.133  0.3251  0.2895  0.2450
 1741SOL    HW116856   1.569   0.145   4.175  0.9465 -0.0744 -1.1685
 1741SOL    HW216857   1.481   0.253   4.212  2.2967  1.0111  0.4937
 1742SOL     OW16858   1.579   0.642  16.751  0.0498 -0.0055  0.1716
 1742SOL    HW116859   1.510   0.580  16.776 -1.1253  1.7581  1.2782
 1742SOL    HW216860   1.631   0.593  16.687  0.6081  1.2491 -0.3369
 1743SOL     OW16861   4.344   3.094   8.576 -0.6735 -0.0856  0.2371
 1743SOL    HW116862   4.361   3.102   8.669  2.7006 -1.3491 -0.2730
 1743SOL    HW216863   4.413   3.151   8.541 -0.7686  0.0107  0.2060
 1744SOL     OW16864   4.605   1.720   1.603  0.2936  0.4639 -0.2411
 1744SOL    HW116865   4.581   1.811   1.588 -0.0280  0.2339 -1.1347
 1744SOL    HW216866   4.668   1.740   1.672 -1.2487  0.2455  1.2593
 1745SOL     OW16867   4.705   2.712   9.329  0.2567  0.3977  0.0860
 1745SOL    HW116868   4.616   2.689   9.357 -1.0456  1.8294 -2.7618
 1745SOL    HW216869   4.692   2.805   9.309 -0.3619  0.5692  1.2819
 1746SOL     OW16870   1.593   3.520   0.785  0.0061  0.4078 -0.0795
 1746SOL    HW116871   1.647   3.549   0.712  0.5738 -1.8201 -0.5510
 1746SOL    HW216872   1.534   3.591   0.812 -0.6466  0.3176 -1.2840
 1747SOL     OW16873   0.561   2.914   7.135 -0.0747  0.3486  0.2491
 1747SOL    HW116874   0.565   2.980   7.205  0.6930 -1.2099  1.6654
 1747SOL    HW216875   0.651   2.911   7.102 -0.1238 -0.9023  0.2304
 1748SOL     OW16876   1.582   3.409   9.215 -0.0627 -0.0027  0.4024
 1748SOL    HW116877   1.641   3.477   9.183  0.0334 -0.2875 -0.0245
 1748SOL    HW216878   1.650   3.348   9.244 -0.3422 -1.2621 -1.5779
 1749SOL     OW16879   2.596   2.124  12.607  0.3450 -0.5564 -0.2596
 1749SOL    HW116880   2.532   2.109  12.676  1.5050 -4.7063 -0.1007
 1749SOL    HW216881   2.654   2.054  12.638  0.0929  0.1388  1.7630
 1750SOL     OW16882   2.054   0.238  10.611  0.1403  0.4728  0.2795
 1750SOL    HW116883   1.965   0.208  10.631 -0.0003 -0.8984 -2.3937
 1750SOL    HW216884   2.053   0.300  10.684 -2.1060  2.1036 -1.1157
 1751SOL     OW16885   3.527   1.980  17.063 -0.0636 -0.3932 -0.0595
 1751SOL    HW116886   3.556   1.890  17.074 -0.8367 -0.5351  0.8461
 1751SOL    HW216887   3.436   1.964  17.087 -0.3936  0.0831 -1.0054
 1752SOL     OW16888   0.788   3.694   4.390 -0.0389  0.4861  0.0685
 1752SOL    HW116889   0.734   3.755   4.439  0.5524 -0.9489  2.4901
 1752SOL    HW216890   0.871   3.737   4.371  0.9815 -1.1927  0.6820
 1753SOL     OW16891   0.598   3.803   8.456 -0.1201 -0.2820 -0.4966
 1753SOL    HW116892   0.649   3.760   8.388  0.2273  0.8868 -0.9746
 1753SOL    HW216893   0.644   3.877   8.496 -1.5384 -0.0980  0.8128
 1754SOL     OW16894   4.388   0.048   4.067  0.5006 -0.0812  0.0771
 1754SOL    HW116895   4.304   0.013   4.039  0.6673  0.4526 -1.0950
 1754SOL    HW216896   4.392   0.001   4.150 -1.1560  1.5285  1.0664
 1755SOL     OW16897   0.485   1.825   6.390  0.0291  0.2797 -0.3525
 1755SOL    HW116898   0.434   1.744   6.389  2.9014 -1.5496  0.6438
 1755SOL    HW216899   0.541   1.826   6.469  0.5277 -0.1956 -0.7029
 1756SOL     OW16900   4.075   1.938  11.679 -0.3284  0.3763  0.1800
 1756SOL    HW116901   3.990   1.956  11.639  1.4612  1.8044 -2.9900
 1756SOL    HW216902   4.052   1.867  11.739 -0.2738  0.4906  0.3358
 1757SOL     OW16903   1.310   2.517   8.121 -0.3699 -0.3867 -0.3542
 1757SOL    HW116904   1.221   2.510   8.156 -0.3160  1.7995  0.2347
 1757SOL    HW216905   1.369   2.510   8.196  0.5532  2.1526 -0.8539
 1758SOL     OW16906   1.867   0.183  10.235 -0.0053  0.1494 -0.1471
 1758SOL    HW116907   1.781   0.142  10.244  0.2258 -0.5310 -0.9144
 1758SOL    HW216908   1.908   0.124  10.298  1.1222 -1.8277 -2.6940
 1759SOL     OW16909   4.638   3.751  15.215  0.1506  0.0825  1.1805
 1759SOL    HW116910   4.566   3.775  15.157  0.1470 -1.2364  0.6323
 1759SOL    HW216911   4.648   3.659  15.189 -0.5896 -0.2308  1.9855
 1760SOL     OW16912   4.292   1.804   4.730 -0.3098  0.3113  0.2239
 1760SOL    HW116913   4.297   1.767   4.818 -1.9643  1.4918  0.8278
 1760SOL    HW216914   4.248   1.888   4.745  0.3181  0.3723  1.7949
 1761SOL     OW16915   0.418   1.603  10.257  0.0779 -1.0011 -0.0071
 1761SOL    HW116916   0.459   1.543  10.195 -0.7882 -0.2626 -1.2882
 1761SOL    HW216917   0.360   1.550  10.312 -0.6907  0.7583  0.9137
 1762SOL     OW16918   3.803   0.935  12.154 -0.8481  0.0204 -0.2813
 1762SOL    HW116919   3.711   0.957  12.137 -0.0829  1.0063 -3.0975
 1762SOL    HW216920   3.800   0.912  12.247  0.9842 -0.8027 -0.4410
 1763SOL     OW16921   4.255   1.923   9.609 -0.1274 -0.2310 -0.2001
 1763SOL    HW116922   4.283   1.992   9.549  1.2186 -1.4351 -0.9653
 1763SOL    HW216923   4.204   1.866   9.551 -0.4489 -0.5030  0.3548
 1764SOL     OW16924   0.664   2.564   1.656  0.1768  0.0991 -0.0374
 1764SOL    HW116925   0.616   2.587   1.735  0.6129  2.1200 -0.3710
 1764SOL    HW216926   0.624   2.624   1.593 -1.2418 -0.6638  0.1228
 1765SOL     OW16927   2.392   4.384   7.440 -0.9499 -0.0939 -0.2447
 1765SOL    HW116928   2.416   4.361   7.350  1.1109  0.4079  0.1753
 1765SOL    HW216929   2.310   4.337   7.453 -0.7734 -0.3606 -0.0953
 1766SOL     OW16930   1.435   3.007   6.502 -0.3356  0.1066  0.4680
 1766SOL    HW116931   1.429   2.960   6.585  1.3280  0.0076  0.5354
 1766SOL    HW216932   1.343   3.029   6.488 -0.4851 -1.7452 -1.3483
 1767SOL     OW16933   2.966   4.279   4.625  0.3021 -0.7207 -0.0221
 1767SOL    HW116934   2.878   4.291   4.589  0.1743 -0.9771  0.2045
 1767SOL    HW216935   3.020   4.234   4.561  0.5451  0.3106 -0.5471
 1768SOL     OW16936   2.760   1.640   6.472  0.0031 -0.2130  0.0764
 1768SOL    HW116937   2.734   1.548   6.482 -0.0018 -0.1930  0.2421
 1768SOL    HW216938   2.681   1.679   6.509  0.5222 -0.2251  1.1974
 1769SOL     OW16939   3.703   3.997   2.207  0.1335  0.7138 -0.2991
 1769SOL    HW116940   3.648   4.060   2.161  2.2678  2.4558 -0.4639
 1769SOL    HW216941   3.726   4.033   2.293 -0.1743 -0.9397  0.4794
 1770SOL     OW16942   3.126   3.074   8.428  0.3412 -0.1706  0.3577
 1770SOL    HW116943   3.127   3.088   8.523 -0.5268  1.4596  0.1193
 1770SOL    HW216944   3.217   3.066   8.399  0.3479 -2.4833  1.0874
 1771SOL     OW16945   4.104   2.507  12.818  0.6415  0.2396  0.2909
 1771SOL    HW116946   4.068   2.433  12.867  0.6751 -0.3539 -0.5757
 1771SOL    HW216947   4.125   2.569  12.888 -0.0352  0.5012  0.2598
 1772SOL     OW16948   1.751   4.247  13.337  0.2128 -0.4046  0.0926
 1772SOL    HW116949   1.813   4.219  13.270  0.0557 -0.4196 -0.0467
 1772SOL    HW216950   1.716   4.162  13.362  1.4820 -1.3169 -1.2906
 1773SOL     OW16951   2.960   0.362  14.360  0.3563 -0.0254 -0.0449
 1773SOL    HW116952   2.994   0.338  14.273  0.3703 -0.6954  0.1442
 1773SOL    HW216953   2.874   0.322  14.356 -0.3828  1.7470 -1.9029
 1774SOL     OW16954   1.751   1.336   6.733 -0.2062 -0.1560  0.1419
 1774SOL    HW116955   1.765   1.258   6.680  0.8536 -0.7342  1.2683
 1774SOL    HW216956   1.827   1.349   6.790 -1.4373  0.9590  1.5445
 1775SOL     OW16957   1.499   1.159  10.744 -0.0702 -0.2671 -0.6269
 1775SOL    HW116958   1.578   1.121  10.706 -0.3211  0.1436 -1.5684
 1775SOL    HW216959   1.524   1.162  10.836 -1.6690 -1.4418 -0.1479
 1776SOL     OW16960   3.551   3.279   5.538 -0.4933  0.3950  0.7470
 1776SOL    HW116961   3.533   3.280   5.632 -1.0851  2.5969  0.6153
 1776SOL    HW216962   3.476   3.325   5.500 -1.3815 -2.5639 -1.0816
 1777SOL     OW16963   0.679   2.577  12.237  0.0653 -0.0260 -0.0153
 1777SOL    HW116964   0.751   2.514  12.229 -0.8567 -1.2827  1.4836
 1777SOL    HW216965   0.635   2.562  12.320  0.7347  0.7336  0.4815
 1778SOL     OW16966   4.475   4.669   7.533  0.0407 -0.2064 -0.4107
 1778SOL    HW116967   4.445   4.608   7.600  2.1444 -0.3483  0.3820
 1778SOL    HW216968   4.533   4.614   7.481  0.2495  0.8860 -1.3333
 1779SOL     OW16969   3.532   0.230   2.970 -0.6081 -0.0497  0.3683
 1779SOL    HW116970   3.563   0.299   3.028 -0.6362  0.3961 -0.1453
 1779SOL    HW216971   3.598   0.227   2.900 -3.2876 -2.5238 -2.0527
 1780SOL     OW16972   0.091   0.567   0.355 -0.0042  0.5572 -0.6409
 1780SOL    HW116973   0.120   0.496   0.411 -0.8037 -1.3797 -2.6836
 1780SOL    HW216974   0.021   0.595   0.414  0.6193 -1.2434  0.9464
 1781SOL     OW16975   2.053   3.175   5.375  0.3210  0.6212 -0.3417
 1781SOL    HW116976   2.101   3.177   5.458 -0.5167  2.3873  0.0862
 1781SOL    HW216977   1.983   3.237   5.393 -0.3337 -0.5883  1.2473
 1782SOL     OW16978   0.867   0.771  10.096  0.1024  0.0778  0.2730
 1782SOL    HW116979   0.889   0.802  10.184  0.6229  0.3138  0.0632
 1782SOL    HW216980   0.945   0.718  10.081 -0.0006  0.4045 -1.3724
 1783SOL     OW16981   4.416   0.161   2.329 -0.4086  0.0083  0.8725
 1783SOL    HW116982   4.437   0.174   2.237  1.1784 -1.3868  1.0382
 1783SOL    HW216983   4.354   0.089   2.328  0.2635 -0.4942 -2.9061
 1784SOL     OW16984   2.849   4.021   9.464 -0.1083  0.1795 -0.0979
 1784SOL    HW116985   2.862   4.043   9.372  1.7864 -1.3210 -0.1898
 1784SOL    HW216986   2.916   3.952   9.464 -0.4037 -0.1142  1.5852
 1785SOL     OW16987   2.825   1.766   4.913  0.5444 -0.1893 -0.2075
 1785SOL    HW116988   2.785   1.695   4.863  0.6418 -1.5863  1.6931
 1785SOL    HW216989   2.757   1.791   4.976  1.0559 -1.2140  0.7622
 1786SOL     OW16990   0.664   2.569   2.027 -0.3721 -0.7386  0.8779
 1786SOL    HW116991   0.703   2.626   2.093 -1.2416  0.0307  0.7396
 1786SOL    HW216992   0.611   2.629   1.974 -0.7368  0.7106  2.8867
 1787SOL     OW16993   2.822   0.200   8.789  0.0021  0.2705 -0.0071
 1787SOL    HW116994   2.844   0.115   8.752 -1.3312  0.5838 -1.5019
 1787SOL    HW216995   2.727   0.191   8.798 -0.1591  2.0412  0.1360
 1788SOL     OW16996   3.070   0.313   6.294  0.4368  0.3143 -0.3968
 1788SOL    HW116997   3.088   0.244   6.358 -1.6368  0.6455  0.5700
 1788SOL    HW216998   3.032   0.382   6.348 -2.9233 -1.4387 -0.5037
 1789SOL     OW16999   4.607   2.564  16.739 -0.0312  0.3967 -0.1898
 1789SOL    HW117000   4.623   2.659  16.736  0.1175  0.3736 -0.1284
 1789SOL    HW217001   4.619   2.545  16.646 -2.5370  0.9245 -0.6386
 1790SOL     OW17002   0.849   1.361  10.394  0.1074 -0.2381 -0.6046
 1790SOL    HW117003   0.932   1.315  10.408 -0.2358 -0.5946  0.2284
 1790SOL    HW217004   0.873   1.449  10.424 -1.5562 -0.4696  1.3332
 1791SOL     OW17005   0.278   0.265   9.133  0.1461 -0.1031 -0.0773
 1791SOL    HW117006   0.349   0.211   9.167 -0.4347 -0.5141  0.4746
 1791SOL    HW217007   0.278   0.340   9.193  2.2011 -1.6137  1.7809
 1792SOL     OW17008   1.177   3.604   4.537 -0.2637  0.3537  0.0192
 1792SOL    HW117009   1.225   3.658   4.474 -3.0972 -0.2242 -2.6392
 1792SOL    HW217010   1.110   3.672   4.548 -0.3662  0.3104 -0.3342
 1793SOL     OW17011   1.328   0.725   1.957  0.3465 -0.1594  0.2563
 1793SOL    HW117012   1.309   0.760   2.044 -0.1425 -1.7449  0.7899
 1793SOL    HW217013   1.416   0.756   1.937  0.4545 -0.7419 -0.1595
 1794SOL     OW17014   3.110   4.244   7.098  0.0657  0.1142 -0.1519
 1794SOL    HW117015   3.173   4.290   7.041 -0.4158 -1.9746 -2.3925
 1794SOL    HW217016   3.043   4.312   7.108  0.8926  0.6999  1.3646
 1795SOL     OW17017   3.991   0.939   6.711 -0.5084 -0.0853 -0.0264
 1795SOL    HW117018   4.081   0.910   6.725 -0.7966 -0.6167  0.7293
 1795SOL    HW217019   3.975   1.003   6.780  1.0159  2.2079 -1.7933
 1796SOL     OW17020   1.813   4.155   5.211 -0.0846  0.0298  0.0990
 1796SOL    HW117021   1.852   4.071   5.236 -1.3907 -0.1213  1.6704
 1796SOL    HW217022   1.816   4.144   5.116 -1.6854  0.2500  0.0252
 1797SOL     OW17023   3.714   0.917   1.686 -0.1209  0.2765  0.4178
 1797SOL    HW117024   3.789   0.865   1.715 -0.2634 -1.3152 -2.0426
 1797SOL    HW217025   3.754   1.003   1.674  1.7082 -0.8986 -1.9239
 1798SOL     OW17026   4.433   3.215   6.801 -0.0003 -0.1378 -0.0632
 1798SOL    HW117027   4.386   3.246   6.724  1.0183  0.6706 -0.3611
 1798SOL    HW217028   4.362   3.205   6.864 -2.2419  0.8283 -2.4524
 1799SOL     OW17029   2.196   2.082   2.324 -0.3476 -0.4361 -0.1251
 1799SOL    HW117030   2.137   2.117   2.391  1.0336 -0.9634  1.3565
 1799SOL    HW217031   2.144   2.072   2.244 -0.4028  0.6405 -0.2180
 1800SOL     OW17032   3.956   4.178   7.412 -0.2922 -0.5418 -0.0480
 1800SOL    HW117033   4.001   4.135   7.485  0.2785 -1.6487 -1.0564
 1800SOL    HW217034   3.956   4.265   7.451 -0.8208 -0.4811 -0.1836
 1801SOL     OW17035   2.993   4.138  11.235  0.8716  0.1552  0.4216
 1801SOL    HW117036   2.978   4.228  11.204 -0.1348 -0.6703 -1.4823
 1801SOL    HW217037   3.002   4.157  11.328 -0.1621  0.8450  0.3939
 1802SOL     OW17038   4.514   4.109  15.204 -0.0849 -0.2709  0.4822
 1802SOL    HW117039   4.422   4.125  15.225 -0.1793 -0.7825  0.4565
 1802SOL    HW217040   4.554   4.183  15.251 -1.6015  0.2756  0.8935
 1803SOL     OW17041   1.036   4.161   1.620 -0.2938 -0.3461  0.3452
 1803SOL    HW117042   1.011   4.221   1.690  1.3830  1.1494 -0.3376
 1803SOL    HW217043   0.960   4.151   1.563 -0.0820 -2.2379  0.4226
 1804SOL     OW17044   1.252   1.536   4.593 -0.5523 -0.5508  0.0883
 1804SOL    HW117045   1.259   1.610   4.652  0.0219 -0.3666 -0.2114
 1804SOL    HW217046   1.209   1.578   4.518 -0.9363  0.2973  0.7838
 1805SOL     OW17047   1.137   1.157   7.579  0.3072  0.4032 -0.6787
 1805SOL    HW117048   1.230   1.173   7.597 -0.0986  0.8131  1.0189
 1805SOL    HW217049   1.120   1.237   7.528 -0.3330 -1.4020 -3.2955
 1806SOL     OW17050   3.689   2.209   4.688  0.6625  0.2692  0.0234
 1806SOL    HW117051   3.766   2.263   4.707  0.8034 -0.3375  1.1825
 1806SOL    HW217052   3.617   2.272   4.701  0.0323  0.0059 -2.3472
 1807SOL     OW17053   3.941   1.064   5.988  0.0623 -0.3865 -0.4754
 1807SOL    HW117054   3.998   0.993   5.959  2.3496  2.4744 -2.9306
 1807SOL    HW217055   3.904   1.086   5.902  1.8288  3.6322 -0.1969
 1808SOL     OW17056   3.041   0.507   3.387 -0.7136  0.0373 -0.5388
 1808SOL    HW117057   3.121   0.558   3.395  1.3308 -3.1177 -1.1860
 1808SOL    HW217058   2.975   0.570   3.357  0.8503  2.4607  1.1456
 1809SOL     OW17059   2.820   4.032   5.888  0.1459 -0.7266  0.3935
 1809SOL    HW117060   2.849   4.077   5.967 -3.1888  1.1935  0.5330
 1809SOL    HW217061   2.884   3.961   5.886  0.1182 -0.7464  0.1204
 1810SOL     OW17062   3.028   3.917   4.555 -0.1114  0.1791  0.4686
 1810SOL    HW117063   3.055   3.923   4.646 -0.7206  0.6970  0.6171
 1810SOL    HW217064   3.051   3.825   4.550 -0.7341  0.2228 -3.0404
 1811SOL     OW17065   0.469   2.476  14.686  0.0322  0.6318 -0.2709
 1811SOL    HW117066   0.549   2.463  14.736  0.6325 -2.3897 -2.0515
 1811SOL    HW217067   0.488   2.447  14.596 -1.1421 -0.4408 -0.1752
 1812SOL     OW17068   1.517   0.159   6.551 -0.1464 -0.4148  0.4288
 1812SOL    HW117069   1.480   0.078   6.584  2.2887 -1.1355  1.4052
 1812SOL    HW217070   1.444   0.221   6.546  0.4075  0.3878  2.1392
 1813SOL     OW17071   2.532   4.094   6.045  0.4481  0.1734  0.1465
 1813SOL    HW117072   2.617   4.136   6.029  0.1633  0.6942  0.0067
 1813SOL    HW217073   2.556   4.036   6.117 -2.3128  0.7277  1.4823
 1814SOL     OW17074   1.749   4.447   5.757  0.3710 -0.0820  0.1303
 1814SOL    HW117075   1.838   4.476   5.779  0.6421 -2.1398  1.7253
 1814SOL    HW217076   1.716   4.409   5.838  1.6785  1.9551  1.6148
 1815SOL     OW17077   0.056   2.314   2.643  0.1024 -0.2692  0.1417
 1815SOL    HW117078   0.033   2.222   2.632 -0.2165 -0.0487 -0.9823
 1815SOL    HW217079   0.072   2.340   2.552 -0.7828  0.2930  0.1446
 1816SOL     OW17080   0.170   1.873   8.508  0.2086 -0.2819  0.1998
 1816SOL    HW117081   0.244   1.933   8.522  0.4534 -0.7435  0.8860
 1816SOL    HW217082   0.167   1.860   8.413 -0.1746  1.5244 -0.0311
 1817SOL     OW17083   2.663   3.456  11.532 -0.1830  0.6241 -0.5435
 1817SOL    HW117084   2.713   3.395  11.478 -1.1805  0.7311 -1.5944
 1817SOL    HW217085   2.740   3.501  11.566  0.9997  0.1247 -2.5850
 1818SOL     OW17086   0.547   1.592   4.178 -0.4195 -0.0940 -0.0524
 1818SOL    HW117087   0.521   1.622   4.265 -0.2325 -0.0626 -0.0085
 1818SOL    HW217088   0.613   1.655   4.151  0.1928 -0.9256 -0.5079
 1819SOL     OW17089   0.063   4.519  13.078  0.1754  0.2682 -0.4133
 1819SOL    HW117090   0.003   4.458  13.034  1.7410 -1.0208 -0.7830
 1819SOL    HW217091   0.036   4.509  13.169  3.9939 -2.3534  0.4362
 1820SOL     OW17092   3.301   0.429   6.891  0.0574 -0.1438  0.4364
 1820SOL    HW117093   3.378   0.469   6.851 -0.5727  0.4699 -0.1764
 1820SOL    HW217094   3.317   0.339   6.864  3.2887 -0.3577  3.2085
 1821SOL     OW17095   0.856   3.691  16.994 -0.5163  0.4412 -0.1985
 1821SOL    HW117096   0.828   3.687  16.902  0.7052  0.6733 -0.5801
 1821SOL    HW217097   0.789   3.635  17.033  0.2527 -0.7050 -0.5182
 1822SOL     OW17098   4.032   1.668   8.188  0.3166  0.0698  0.1892
 1822SOL    HW117099   3.985   1.752   8.192  0.4177  0.1337  0.0366
 1822SOL    HW217100   4.107   1.683   8.245  1.3883 -0.1734 -1.1524
 1823SOL     OW17101   1.121   3.527   5.186  0.2202 -0.7665 -0.0718
 1823SOL    HW117102   1.210   3.540   5.153 -0.2853  1.7119 -0.5249
 1823SOL    HW217103   1.114   3.600   5.248 -0.6014 -1.3607  0.5328
 1824SOL     OW17104   4.355   1.965   8.825 -0.1214  0.0437  0.0013
 1824SOL    HW117105   4.437   1.979   8.873 -0.3766 -0.6527  0.6511
 1824SOL    HW217106   4.362   1.871   8.808 -1.6557  0.0878 -0.8961
 1825SOL     OW17107   4.469   3.729   1.789 -0.5328 -0.5970  0.4755
 1825SOL    HW117108   4.538   3.791   1.808 -0.5959 -0.2919 -0.3015
 1825SOL    HW217109   4.492   3.722   1.696 -1.2929 -0.3384  0.2690
 1826SOL     OW17110   2.314   1.862   2.453 -0.8445  0.7412  0.1763
 1826SOL    HW117111   2.295   1.943   2.406 -0.8448  1.2997  1.1346
 1826SOL    HW217112   2.242   1.801   2.437 -1.2542  0.8844  1.4070
 1827SOL     OW17113   4.279   4.256  17.735 -0.1353 -0.2483 -0.6684
 1827SOL    HW117114   4.363   4.271  17.691 -0.1518 -1.1004 -1.0017
 1827SOL    HW217115   4.280   4.321   0.056  0.2861 -1.1733  0.1804
 1828SOL     OW17116   3.407   4.531   7.548 -0.8215 -0.1565 -0.5643
 1828SOL    HW117117   3.398   4.612   7.597  0.8588 -1.3738  1.8167
 1828SOL    HW217118   3.424   4.466   7.617 -0.7480 -0.4030 -0.8126
 1829SOL     OW17119   1.451   2.105   5.526  0.3105 -0.4338  0.3543
 1829SOL    HW117120   1.380   2.146   5.574 -0.6405 -0.9654 -0.5941
 1829SOL    HW217121   1.428   2.012   5.525 -0.9846 -0.1055  0.0307
 1830SOL     OW17122   4.081   0.345   6.405 -0.6669  0.2535  0.3542
 1830SOL    HW117123   4.110   0.297   6.482 -1.8959 -0.7880  0.1632
 1830SOL    HW217124   4.070   0.435   6.436  1.3077  0.5710  0.1216
 1831SOL     OW17125   1.133   4.414  17.339 -0.3414  0.0325 -0.1829
 1831SOL    HW117126   1.122   4.398  17.433 -0.4167  2.0014  0.1439
 1831SOL    HW217127   1.050   4.450  17.306 -1.4427 -0.5347  1.9177
 1832SOL     OW17128   2.723   1.836   7.322  0.4301  0.2980  0.6065
 1832SOL    HW117129   2.728   1.742   7.339  1.3738  0.2511  0.0514
 1832SOL    HW217130   2.709   1.867   7.411  0.6802 -0.2802  0.8463
 1833SOL     OW17131   4.448   0.055   2.855 -0.0189 -0.1831  0.5860
 1833SOL    HW117132   4.407   0.004   2.785  0.8639  0.8738 -0.7134
 1833SOL    HW217133   4.391   0.132   2.847  0.4962  0.1865  0.4574
 1834SOL     OW17134   4.187   2.995   4.435 -0.0490  0.0901 -0.1070
 1834SOL    HW117135   4.201   2.976   4.342  0.2377 -2.3556  0.4168
 1834SOL    HW217136   4.199   2.911   4.479 -0.9587 -0.4955 -0.9677
 1835SOL     OW17137   3.532   0.479   7.128  0.0821  0.7601  0.7009
 1835SOL    HW117138   3.548   0.392   7.166 -0.6206  0.5499  0.5243
 1835SOL    HW217139   3.436   0.480   7.134  0.0848 -0.8722  0.8766
 1836SOL     OW17140   2.285   0.604   6.697  0.1847 -0.0009  0.6001
 1836SOL    HW117141   2.350   0.570   6.636 -1.4468 -0.7739 -0.7167
 1836SOL    HW217142   2.338   0.623   6.774  1.3248 -1.5190  0.2057
 1837SOL     OW17143   2.899   3.023   4.026 -0.3413 -0.2323 -0.3058
 1837SOL    HW117144   2.851   3.031   3.943  1.0216  3.1653 -0.7632
 1837SOL    HW217145   2.928   3.114   4.024  0.4387 -0.4334  1.6830
 1838SOL     OW17146   0.865   3.928   6.715 -0.0194  0.2852  0.2632
 1838SOL    HW117147   0.953   3.892   6.703 -0.4399 -0.6870  0.0769
 1838SOL    HW217148   0.820   3.866   6.659  1.5834  0.3890 -1.1576
 1839SOL     OW17149   0.847   1.122   1.322  0.5545  0.0389 -0.1236
 1839SOL    HW117150   0.823   1.064   1.250 -1.3879  0.9493 -0.2191
 1839SOL    HW217151   0.785   1.075   1.378 -0.3078  1.0966 -0.1738
 1840SOL     OW17152   4.695   2.974   9.313 -0.2931 -0.3579  0.6820
 1840SOL    HW117153   4.730   3.037   9.249 -2.2878  0.1179  0.0463
 1840SOL    HW217154   4.652   3.033   9.375 -0.9602  0.0702 -0.1752
 1841SOL     OW17155   2.199   2.229   8.755  0.5136 -0.1462 -0.1745
 1841SOL    HW117156   2.293   2.210   8.758  0.3298 -0.7539  1.8001
 1841SOL    HW217157   2.155   2.144   8.751  0.4288 -0.1830  1.7153
 1842SOL     OW17158   0.766   4.138   6.373  0.5334  0.6756  0.2973
 1842SOL    HW117159   0.671   4.128   6.369  0.6914 -0.2845 -1.1706
 1842SOL    HW217160   0.795   4.088   6.449 -1.0451  0.3639  0.6996
 1843SOL     OW17161   1.604   0.196  14.501  0.6998  0.1597  0.3513
 1843SOL    HW117162   1.553   0.163  14.428  2.4753 -1.2287 -0.2725
 1843SOL    HW217163   1.589   0.290  14.489  1.0032  0.4049  1.8713
 1844SOL     OW17164   0.891   0.754   2.156  0.3769  0.7902 -0.2794
 1844SOL    HW117165   0.933   0.840   2.148  0.7666  0.6415  0.1674
 1844SOL    HW217166   0.800   0.773   2.132 -0.3560  0.0543  1.9851
 1845SOL     OW17167   1.259   2.422   6.825 -0.4596  0.5363 -0.1775
 1845SOL    HW117168   1.284   2.388   6.739  0.6695  0.9435 -0.0169
 1845SOL    HW217169   1.171   2.457   6.812 -0.5822 -0.1357 -1.1892
 1846SOL     OW17170   3.092   2.946   4.716  0.7454 -0.1763 -0.2566
 1846SOL    HW117171   3.028   2.876   4.699  0.1633  0.7211 -1.6885
 1846SOL    HW217172   3.174   2.902   4.695  0.8826 -0.0346 -0.0120
 1847SOL     OW17173   1.949   0.639   5.276  0.0747  0.2277  0.7115
 1847SOL    HW117174   1.943   0.648   5.371  0.9728  1.0953  0.6883
 1847SOL    HW217175   2.043   0.653   5.265  0.2486  0.5033  2.5410
 1848SOL     OW17176   4.725   4.682   8.731  0.5895 -0.0138 -0.0666
 1848SOL    HW117177   0.051   4.714   8.667  0.2547  0.6551 -0.0651
 1848SOL    HW217178   0.027   4.688   8.818  0.5021 -0.3370 -0.0044
 1849SOL     OW17179   1.783   2.706   5.924 -0.6756 -0.1219 -0.6270
 1849SOL    HW117180   1.854   2.763   5.896 -0.2569  0.0201  0.7265
 1849SOL    HW217181   1.730   2.692   5.846  0.8435  2.8415 -2.2102
 1850SOL     OW17182   2.085   3.372  15.281 -0.5121 -0.2568 -0.1001
 1850SOL    HW117183   2.028   3.380  15.205  1.0894 -0.5337 -1.3236
 1850SOL    HW217184   2.086   3.276  15.286 -0.0591 -0.2162  0.6683
 1851SOL     OW17185   3.080   4.292   5.918 -0.0944 -0.7221  0.3631
 1851SOL    HW117186   2.993   4.327   5.899  0.4414 -0.3837 -1.4577
 1851SOL    HW217187   3.112   4.280   5.829 -1.6312 -0.9948 -0.1531
 1852SOL     OW17188   2.788   2.213  11.553  0.2350  0.5698 -0.4129
 1852SOL    HW117189   2.720   2.158  11.590  0.1096  1.4192  0.6355
 1852SOL    HW217190   2.795   2.175  11.465 -1.5991  1.7858 -1.0842
 1853SOL     OW17191   4.737   3.718   5.675  0.2379  0.5483 -0.2211
 1853SOL    HW117192   0.056   3.752   5.606  1.5046  3.2653  2.1681
 1853SOL    HW217193   4.711   3.635   5.635 -0.3114 -0.2131  1.7218
 1854SOL     OW17194   1.437   0.973  11.233 -0.0897  0.5640  0.2967
 1854SOL    HW117195   1.416   1.063  11.206 -0.0193  0.6399  0.4939
 1854SOL    HW217196   1.434   0.978  11.329  0.8397 -2.0615  0.4610
 1855SOL     OW17197   4.616   0.147   2.515  0.2959  0.2695 -0.1526
 1855SOL    HW117198   4.545   0.117   2.458  1.0663  1.1691 -1.5776
 1855SOL    HW217199   4.641   0.229   2.475 -0.6025  0.7478  0.2555
 1856SOL     OW17200   0.386   4.688   5.305 -0.4518  0.2984 -0.1636
 1856SOL    HW117201   0.372   0.038   5.269 -1.2002  0.0034 -0.5851
 1856SOL    HW217202   0.468   4.674   5.258 -0.2047  0.8049  0.1153
 1857SOL     OW17203   3.569   2.375   7.936  0.2616  0.0544  0.1112
 1857SOL    HW117204   3.585   2.455   7.885  0.4201  0.6787  1.1573
 1857SOL    HW217205   3.475   2.366   7.921  0.6310  0.5930 -2.5546
 1858SOL     OW17206   1.538   1.228  11.812 -0.2458 -0.1039  0.3845
 1858SOL    HW117207   1.609   1.172  11.782  1.7916  1.5468  2.0996
 1858SOL    HW217208   1.521   1.194  11.900 -2.5732  1.1687  0.4293
 1859SOL     OW17209   4.013   1.985  13.265 -0.5323 -0.6906  0.6067
 1859SOL    HW117210   3.969   2.063  13.299  0.7317  0.7077 -0.9047
 1859SOL    HW217211   4.097   1.986  13.310 -0.0725 -0.1882 -0.2527
 1860SOL     OW17212   0.590   2.327   6.180  0.1041  0.2386  0.7003
 1860SOL    HW117213   0.632   2.321   6.265  0.0232 -0.9649  0.6574
 1860SOL    HW217214   0.590   2.420   6.156  1.3423  0.2191  0.6037
 1861SOL     OW17215   2.764   3.255   8.867 -0.4283 -0.0289 -0.1694
 1861SOL    HW117216   2.707   3.319   8.825 -1.0028 -0.9693 -0.8309
 1861SOL    HW217217   2.784   3.303   8.948  0.1192 -0.6397  0.0563
 1862SOL     OW17218   0.045   3.282   3.428 -0.1464  0.3520  0.1583
 1862SOL    HW117219   0.033   3.195   3.389 -0.2827  1.5290 -2.4617
 1862SOL    HW217220   0.033   3.337   3.350  0.4374  1.4325  0.8316
 1863SOL     OW17221   1.117   2.146  16.202 -0.4655 -0.4485  0.1618
 1863SOL    HW117222   1.027   2.157  16.231  0.2346  0.9212  1.8644
 1863SOL    HW217223   1.105   2.144  16.107 -1.3178  0.3259  0.2598
 1864SOL     OW17224   2.344   4.426   3.488  0.0279 -0.1300 -0.0075
 1864SOL    HW117225   2.301   4.399   3.407  0.6518 -1.1892  0.0246
 1864SOL    HW217226   2.430   4.435   3.448 -1.2186  1.9625 -2.2998
 1865SOL     OW17227   2.239   3.055   8.242 -0.1412  0.2458 -0.0578
 1865SOL    HW117228   2.199   3.001   8.174 -0.7955  0.5366  0.0985
 1865SOL    HW217229   2.318   3.093   8.204 -0.3571 -0.9819 -1.7465
 1866SOL     OW17230   4.213   3.138  10.309  0.9313  0.1759 -0.2686
 1866SOL    HW117231   4.288   3.194  10.288 -0.2910  1.5480 -0.9817
 1866SOL    HW217232   4.245   3.050  10.328 -0.1609 -0.4175 -1.2171
 1867SOL     OW17233   0.506   0.687   2.039 -0.2417  0.2553 -0.1222
 1867SOL    HW117234   0.579   0.637   2.002  1.4898  2.4139  0.3594
 1867SOL    HW217235   0.541   0.741   2.110 -1.0607 -0.6606  0.9851
 1868SOL     OW17236   2.581   3.601   7.856 -0.9305 -0.1310  0.6532
 1868SOL    HW117237   2.568   3.546   7.779  1.2284  0.8066 -0.3768
 1868SOL    HW217238   2.621   3.684   7.830 -1.8939  0.0694 -0.1819
 1869SOL     OW17239   4.434   2.340   1.924  0.0678  0.8537 -0.2915
 1869SOL    HW117240   4.395   2.392   1.994 -0.2145 -1.7245  1.4889
 1869SOL    HW217241   4.491   2.400   1.876  1.9142 -1.1345 -0.6234
 1870SOL     OW17242   1.257   0.812  11.121 -0.0866 -0.2452  0.1105
 1870SOL    HW117243   1.225   0.762  11.196 -1.7504  0.0806 -0.3942
 1870SOL    HW217244   1.330   0.859  11.162 -1.2068 -0.7479  2.6926
 1871SOL     OW17245   3.065   2.748   3.097  0.5548 -0.7363 -0.0540
 1871SOL    HW117246   3.009   2.800   3.040  0.8715 -1.0932 -0.6915
 1871SOL    HW217247   3.061   2.660   3.059 -3.1339 -0.4952 -0.2492
 1872SOL     OW17248   4.065   0.277   7.965  0.4415  0.1516 -0.1647
 1872SOL    HW117249   4.022   0.276   7.879  1.9597  1.4897 -0.9325
 1872SOL    HW217250   4.002   0.338   8.005 -0.1583 -1.9821  2.1515
 1873SOL     OW17251   0.210   3.613   4.485 -0.1647  0.0706  0.4159
 1873SOL    HW117252   0.240   3.564   4.562  0.8056 -0.5017 -0.3324
 1873SOL    HW217253   0.140   3.660   4.531 -2.4655 -0.0096 -3.0259
 1874SOL     OW17254   3.673   2.337   2.273 -0.0462  0.2144  0.5604
 1874SOL    HW117255   3.686   2.266   2.335 -0.7468  0.6206  1.1669
 1874SOL    HW217256   3.579   2.353   2.276 -0.3116 -1.2093 -0.1068
 1875SOL     OW17257   4.548   1.857   7.625 -0.3051  0.7834 -0.5773
 1875SOL    HW117258   4.611   1.813   7.569  1.0820  0.9350  0.8792
 1875SOL    HW217259   4.466   1.854   7.575  0.3011  1.0714 -1.5953
 1876SOL     OW17260   4.571   0.222   1.292 -0.2753 -0.4534  0.1679
 1876SOL    HW117261   4.588   0.147   1.236 -0.4632 -0.2623 -0.1403
 1876SOL    HW217262   4.660   0.256   1.300 -0.2704 -0.4455  0.0727
 1877SOL     OW17263   0.665   1.843   6.162 -0.3001  0.1495 -0.8292
 1877SOL    HW117264   0.752   1.803   6.167 -0.5334 -0.4217 -1.2352
 1877SOL    HW217265   0.630   1.805   6.242 -1.5414  0.9668 -0.9999
 1878SOL     OW17266   3.360   4.469   2.851 -0.4321  0.0089 -0.3312
 1878SOL    HW117267   3.332   4.532   2.917  1.1581 -0.7556  1.0655
 1878SOL    HW217268   3.284   4.411   2.856  2.4792 -4.1955 -4.1683
 1879SOL     OW17269   3.663   0.436   3.872 -1.0867  0.4770 -0.4752
 1879SOL    HW117270   3.572   0.419   3.848 -1.1648  1.8846 -1.1357
 1879SOL    HW217271   3.697   0.346   3.870 -0.1706  0.8446 -1.9098
 1880SOL     OW17272   1.498   4.290   4.511  0.2518  0.3165 -0.4183
 1880SOL    HW117273   1.485   4.195   4.516 -2.2550  0.7587  1.1666
 1880SOL    HW217274   1.585   4.304   4.548  0.6516 -0.0030 -1.2224
 1881SOL     OW17275   4.143   1.860  14.720 -0.1655 -0.6856 -0.2833
 1881SOL    HW117276   4.104   1.926  14.776 -0.8388 -0.9446 -0.4426
 1881SOL    HW217277   4.210   1.903  14.668  0.0797 -0.0968  0.5316
 1882SOL     OW17278   1.030   2.211   2.252  0.4011  0.2189  0.1449
 1882SOL    HW117279   1.034   2.246   2.164 -1.4221  1.5852  0.6027
 1882SOL    HW217280   1.088   2.137   2.236 -0.3375 -0.3987  0.2890
 1883SOL     OW17281   4.056   4.237   1.431 -0.2931 -0.2965  0.7654
 1883SOL    HW117282   3.996   4.311   1.424 -1.2917 -1.1052  0.7658
 1883SOL    HW217283   4.052   4.236   1.527 -0.3890 -0.7389  0.7572
 1884SOL     OW17284   4.183   2.135   7.431 -0.0909 -0.0163 -0.7068
 1884SOL    HW117285   4.224   2.115   7.347 -1.1097  0.3413 -1.2872
 1884SOL    HW217286   4.268   2.124   7.475  0.4298  0.2282 -1.6496
 1885SOL     OW17287   3.075   2.775  15.533 -0.3333  0.1415  0.0013
 1885SOL    HW117288   3.004   2.749  15.473  0.6370 -0.3167 -0.9611
 1885SOL    HW217289   3.023   2.837  15.584 -2.3607 -1.2682 -0.3496
 1886SOL     OW17290   4.189   0.621  17.492 -0.5310  0.1351 -0.2520
 1886SOL    HW117291   4.216   0.706  17.526 -0.4377  0.4813 -1.1927
 1886SOL    HW217292   4.257   0.601  17.428 -0.2461 -0.6613  0.2991
 1887SOL     OW17293   1.919   2.405   0.569  0.4566 -0.4180 -0.3920
 1887SOL    HW117294   1.940   2.489   0.528 -1.6628  1.0812  1.5707
 1887SOL    HW217295   1.989   2.342   0.556 -0.3873 -1.4620  0.0883
 1888SOL     OW17296   2.743   2.096   9.399 -0.0232  0.2378  0.1035
 1888SOL    HW117297   2.785   2.032   9.341  1.7431  0.4380  1.1810
 1888SOL    HW217298   2.656   2.055   9.401 -0.1694  0.4972 -1.0605
 1889SOL     OW17299   3.845   0.600   3.759  0.1860  0.0760  0.2762
 1889SOL    HW117300   3.794   0.543   3.818 -0.1493  0.6870  0.5815
 1889SOL    HW217301   3.844   0.681   3.809 -1.6017  1.0297 -1.3207
 1890SOL     OW17302   4.555   1.825   4.660  0.8678 -0.0308 -0.0708
 1890SOL    HW117303   4.562   1.909   4.614 -1.8623  0.2137 -0.0298
 1890SOL    HW217304   4.465   1.798   4.644  0.0811  3.2201 -1.0477
 1891SOL     OW17305   4.452   1.753   8.633  0.4028  0.1208 -0.9130
 1891SOL    HW117306   4.540   1.762   8.669 -0.0431  1.3868 -0.1275
 1891SOL    HW217307   4.452   1.826   8.571 -0.7032  0.7682 -0.1453
 1892SOL     OW17308   1.001   2.845  14.756  0.6625  0.0498  0.5598
 1892SOL    HW117309   0.936   2.873  14.820  1.1362 -0.2193  1.1654
 1892SOL    HW217310   1.026   2.926  14.713 -1.4884 -0.1222 -0.9664
 1893SOL     OW17311   0.663   3.074   7.984  0.7391  0.1516 -0.4502
 1893SOL    HW117312   0.590   3.125   7.951  0.3051 -0.3664 -0.2996
 1893SOL    HW217313   0.651   2.987   7.945 -1.1361  0.2323 -0.0354
 1894SOL     OW17314   0.685   0.244   7.186  0.1639 -0.0763  0.0690
 1894SOL    HW117315   0.750   0.188   7.230 -0.3832 -0.3148  0.5753
 1894SOL    HW217316   0.743   0.279   7.119  0.0181  0.6973  0.3492
 1895SOL     OW17317   2.410   2.367   2.282  0.0803 -0.3234  0.6455
 1895SOL    HW117318   2.404   2.461   2.303 -0.4994 -0.3392  0.5708
 1895SOL    HW217319   2.349   2.349   2.210  0.7350  0.5336 -0.1222
 1896SOL     OW17320   3.885   1.561   8.946  0.1798  0.0598  0.2233
 1896SOL    HW117321   3.919   1.544   9.034  0.5842  0.5091  0.1512
 1896SOL    HW217322   3.791   1.552   8.961  0.3043 -1.1150  0.3324
 1897SOL     OW17323   3.168   3.811   9.221  0.2049  0.0291 -0.4335
 1897SOL    HW117324   3.078   3.779   9.215  0.3679 -0.0249 -2.4323
 1897SOL    HW217325   3.213   3.740   9.176  1.0659 -1.3812  2.6271
 1898SOL     OW17326   0.369   4.280   6.340 -0.3452 -0.0001 -0.5226
 1898SOL    HW117327   0.314   4.216   6.295  2.4715 -2.5642 -0.3505
 1898SOL    HW217328   0.366   4.356   6.282 -1.7964 -0.5284 -1.1199
 1899SOL     OW17329   2.198   0.676   8.062  0.0962  0.1929 -0.0970
 1899SOL    HW117330   2.172   0.752   8.010  0.2788  0.5529  0.3392
 1899SOL    HW217331   2.253   0.719   8.128  0.2414 -2.7517  1.6683
 1900SOL     OW17332   3.551   2.558   9.876  0.2580  0.0314 -0.0012
 1900SOL    HW117333   3.550   2.531   9.784  1.3094 -1.3384  0.3950
 1900SOL    HW217334   3.630   2.612   9.880  1.6199 -2.1039  1.5193
 1901SOL     OW17335   3.219   4.159   6.753  0.5411  0.3049 -0.4154
 1901SOL    HW117336   3.199   4.247   6.784 -0.8232 -0.4243  0.7876
 1901SOL    HW217337   3.143   4.149   6.696 -0.4097  3.2161  0.3673
 1902SOL     OW17338   0.055   2.051   2.524 -0.5043 -0.4170 -0.1131
 1902SOL    HW117339   0.127   2.054   2.461 -0.4763  0.6706 -0.0358
 1902SOL    HW217340   4.717   2.031   2.470 -1.7946  1.9688  0.8117
 1903SOL     OW17341   0.664   2.613   7.088 -0.1645  0.0793  0.9364
 1903SOL    HW117342   0.605   2.686   7.070  0.1062 -0.2995 -1.5001
 1903SOL    HW217343   0.647   2.607   7.182  0.3574 -0.3930  1.0047
 1904SOL     OW17344   4.311   3.281   5.287 -0.3075  0.2205 -0.4786
 1904SOL    HW117345   4.308   3.375   5.270  2.3007  0.3863 -0.0929
 1904SOL    HW217346   4.362   3.277   5.368 -0.1791 -2.0845 -0.6703
 1905SOL     OW17347   1.801   2.514   4.497  0.5617  0.3722 -0.2515
 1905SOL    HW117348   1.776   2.448   4.432 -2.6251 -1.2276  2.6049
 1905SOL    HW217349   1.887   2.549   4.473  2.0298 -1.7387  2.0019
 1906SOL     OW17350   0.495   0.875   0.794  0.1504 -0.1913 -0.3725
 1906SOL    HW117351   0.402   0.863   0.773  0.3157 -0.9695 -0.6926
 1906SOL    HW217352   0.527   0.905   0.709 -0.1330 -2.1102 -1.1680
 1907SOL     OW17353   0.004   0.414   5.951 -0.2291  0.3763  0.2812
 1907SOL    HW117354   4.665   0.361   5.925  0.3356 -0.3777  0.1604
 1907SOL    HW217355   0.019   0.374   6.036 -2.6022 -1.0609  0.0450
 1908SOL     OW17356   0.003   1.582   9.521 -0.2355 -0.3905 -0.3586
 1908SOL    HW117357   4.694   1.666   9.524 -2.0830 -1.3766 -1.3173
 1908SOL    HW217358   4.661   1.533   9.499  0.8918 -1.0842 -2.8581
 1909SOL     OW17359   1.512   4.366   7.820 -0.5127 -0.4408 -0.5289
 1909SOL    HW117360   1.438   4.387   7.876  0.0728  1.1707 -0.3616
 1909SOL    HW217361   1.553   4.306   7.882 -0.9370 -0.7302 -0.5286
 1910SOL     OW17362   2.002   4.358   1.329  0.4124 -0.3661  0.1318
 1910SOL    HW117363   2.066   4.370   1.399  0.8332 -0.7704 -0.1840
 1910SOL    HW217364   2.009   4.439   1.279 -0.1053  0.3196  1.1731
 1911SOL     OW17365   2.695   0.017   3.468 -0.1514 -0.4039 -0.2847
 1911SOL    HW117366   2.739   0.098   3.443 -1.0823  0.2050  0.0405
 1911SOL    HW217367   2.604   0.023   3.439 -0.0630  2.6560  0.1380
 1912SOL     OW17368   2.749   1.677   4.361 -0.3189 -0.4464 -0.2599
 1912SOL    HW117369   2.776   1.757   4.316 -1.0311 -0.4471 -0.6974
 1912SOL    HW217370   2.774   1.712   4.446 -1.3081  0.6130 -0.4014
 1913SOL     OW17371   2.812   2.667   7.409 -0.4520  0.7312  0.2723
 1913SOL    HW117372   2.901   2.656   7.444 -0.2066 -0.0362 -0.5988
 1913SOL    HW217373   2.833   2.755   7.379  0.8315  0.5166  0.5242
 1914SOL     OW17374   4.308   3.544  16.271 -0.3006 -0.0632  0.4314
 1914SOL    HW117375   4.379   3.555  16.333 -0.9038 -2.6027  1.5665
 1914SOL    HW217376   4.235   3.519  16.327 -0.3054  4.7039  2.4874
 1915SOL     OW17377   1.518   1.345   7.088  0.2049  0.5421  0.2650
 1915SOL    HW117378   1.553   1.414   7.144  0.1831  1.9257 -1.3999
 1915SOL    HW217379   1.481   1.395   7.015  1.3922 -0.9461 -1.3439
 1916SOL     OW17380   0.950   3.950   2.944  0.0935 -0.1124  0.0974
 1916SOL    HW117381   0.980   3.860   2.958 -0.5188 -0.2079  0.8536
 1916SOL    HW217382   1.017   3.992   2.999  1.3597 -0.4415 -1.2017
 1917SOL     OW17383   2.341   1.809   0.391 -0.3459  0.4584 -0.5875
 1917SOL    HW117384   2.266   1.766   0.350 -0.4842  1.1518 -1.0671
 1917SOL    HW217385   2.354   1.762   0.473  1.7009  1.8789 -0.0935
 1918SOL     OW17386   4.675   0.725  11.133  0.1550  0.2356  0.1654
 1918SOL    HW117387   4.581   0.724  11.149 -0.0371 -0.1890 -0.9803
 1918SOL    HW217388   4.693   0.819  11.131 -0.9991  0.4450 -0.4024
 1919SOL     OW17389   0.149   1.136   1.980 -0.0431 -0.5201  0.4442
 1919SOL    HW117390   0.157   1.140   2.075  0.3201 -1.9884  0.4878
 1919SOL    HW217391   0.155   1.228   1.955 -2.2086 -0.6152 -0.4758
 1920SOL     OW17392   3.591   1.292  17.544 -0.5400 -0.4512 -0.2653
 1920SOL    HW117393   3.512   1.346  17.537  0.5865  1.1579 -0.5494
 1920SOL    HW217394   3.575   1.224  17.480 -0.9383 -0.1827 -0.4521
 1921SOL     OW17395   0.334   0.769   7.213 -0.1075 -0.5742  0.2348
 1921SOL    HW117396   0.415   0.723   7.191 -0.1466  0.1219 -1.3674
 1921SOL    HW217397   0.364   0.822   7.287 -1.8988  2.4013 -1.1945
 1922SOL     OW17398   0.978   4.317   6.316  0.0454 -0.1105 -0.0266
 1922SOL    HW117399   0.897   4.271   6.295  1.4156 -1.9618 -1.2947
 1922SOL    HW217400   1.043   4.249   6.301  0.5145  0.1770  0.6745
 1923SOL     OW17401   2.905   4.050   8.900 -0.6704  0.5612  0.4311
 1923SOL    HW117402   2.867   4.019   8.817  0.1257  0.2735  0.1749
 1923SOL    HW217403   2.858   4.131   8.920 -1.0767  1.0471 -2.4388
 1924SOL     OW17404   1.567   4.461  16.045 -0.2189 -0.5128 -0.6466
 1924SOL    HW117405   1.474   4.451  16.068  0.7194 -2.3002  2.3573
 1924SOL    HW217406   1.569   4.524  15.973 -1.7469  0.3749  0.0798
 1925SOL     OW17407   0.942   1.278   6.918 -0.3472 -0.4541 -0.0685
 1925SOL    HW117408   1.011   1.243   6.861  2.3810 -0.4733  3.2821
 1925SOL    HW217409   0.992   1.341   6.969 -0.3025 -0.9557  0.5051
 1926SOL     OW17410   2.022   2.115   4.533  0.5205 -0.2765  0.1120
 1926SOL    HW117411   1.929   2.109   4.554  0.9030  0.7009  2.1025
 1926SOL    HW217412   2.058   2.144   4.617  3.2171  1.1112 -1.5082
 1927SOL     OW17413   0.371   1.838   9.758 -0.1337  0.0385  0.1737
 1927SOL    HW117414   0.426   1.777   9.807 -1.2449  0.6316  2.1547
 1927SOL    HW217415   0.430   1.858   9.685  0.2006 -1.5069  0.0193
 1928SOL     OW17416   0.376   2.074   8.489 -0.3807  0.1088 -0.3169
 1928SOL    HW117417   0.454   2.026   8.461 -1.0039 -1.4343  0.5440
 1928SOL    HW217418   0.421   2.114   8.563  0.8338 -0.0105 -0.9926
 1929SOL     OW17419   3.817   2.520   9.723 -0.2162 -0.0221  0.6226
 1929SOL    HW117420   3.871   2.585   9.769  2.0781 -0.0266 -2.0491
 1929SOL    HW217421   3.881   2.465   9.677  1.3560  1.5205  0.9440
 1930SOL     OW17422   1.988   1.673  17.584 -0.3890 -0.3565  0.3009
 1930SOL    HW117423   2.063   1.696  17.639 -0.7214  0.3819  0.4492
 1930SOL    HW217424   2.019   1.724  17.509 -1.6840 -0.3346 -0.2059
 1931SOL     OW17425   2.768   2.881  17.075  0.1330  0.4854 -0.1914
 1931SOL    HW117426   2.812   2.904  16.993 -0.8907  0.8371 -0.6350
 1931SOL    HW217427   2.677   2.891  17.046 -0.3320 -0.5339  0.9265
 1932SOL     OW17428   1.299   4.455   1.843  0.6954  0.2518 -0.5444
 1932SOL    HW117429   1.387   4.471   1.807  0.6194  2.1966  0.1207
 1932SOL    HW217430   1.275   4.546   1.858 -1.1050 -0.7011  2.2819
 1933SOL     OW17431   1.309   0.391   7.675 -0.9485 -0.0756  0.1722
 1933SOL    HW117432   1.285   0.402   7.583  0.0860  1.2591  0.0526
 1933SOL    HW217433   1.226   0.366   7.715 -0.9438  0.8688  0.7684
 1934SOL     OW17434   3.430   3.316  15.092  0.1523 -0.1826 -0.1270
 1934SOL    HW117435   3.384   3.398  15.109  1.1454 -0.3160  3.2369
 1934SOL    HW217436   3.504   3.327  15.153  1.4025 -0.6106 -1.5668
 1935SOL     OW17437   3.107   2.519   2.739  0.3816  0.7068  0.0083
 1935SOL    HW117438   3.086   2.595   2.685 -0.4059 -0.6459 -1.6131
 1935SOL    HW217439   3.195   2.500   2.704 -0.0869 -1.6671  0.1331
 1936SOL     OW17440   0.090   3.295   7.442  0.5110  0.8118 -0.0085
 1936SOL    HW117441   0.055   3.364   7.386  0.7104  0.2039 -0.8772
 1936SOL    HW217442   0.174   3.329   7.470  0.0141  1.5484  0.5904
 1937SOL     OW17443   1.335   2.481  12.562 -0.0820  0.2728  0.3538
 1937SOL    HW117444   1.298   2.526  12.638 -1.2480 -0.3176  0.1340
 1937SOL    HW217445   1.336   2.546  12.492  1.8199  3.1193  3.0069
 1938SOL     OW17446   1.238   2.775   5.568 -0.0401 -0.2040  0.3242
 1938SOL    HW117447   1.310   2.739   5.620 -0.8202 -2.2548 -0.0124
 1938SOL    HW217448   1.267   2.867   5.570 -0.8579  0.1002 -1.6073
 1939SOL     OW17449   2.661   3.698   6.102 -0.8170 -0.3733  0.1688
 1939SOL    HW117450   2.630   3.776   6.148 -2.4324 -1.9885  1.7851
 1939SOL    HW217451   2.608   3.705   6.023  2.3876  1.1088 -1.8819
 1940SOL     OW17452   2.408   1.552  17.396 -0.5182  0.1412  0.4824
 1940SOL    HW117453   2.361   1.470  17.382  0.1448 -0.0145 -0.8137
 1940SOL    HW217454   2.397   1.601  17.314 -2.6202  1.7457  1.7125
 1941SOL     OW17455   2.891   4.676   7.503  0.0619  0.4056  0.1627
 1941SOL    HW117456   2.962   4.655   7.564  1.5042  1.2496 -1.2335
 1941SOL    HW217457   2.814   4.687   7.559 -0.6495 -0.5861 -0.6284
 1942SOL     OW17458   1.835   3.485  16.627 -0.3963 -0.3051 -0.0079
 1942SOL    HW117459   1.809   3.393  16.629  1.5260 -0.8653 -0.2119
 1942SOL    HW217460   1.776   3.515  16.696  0.0689 -0.5305  0.4834
 1943SOL     OW17461   1.749   0.815   1.420 -0.4407  0.0050 -0.3970
 1943SOL    HW117462   1.679   0.841   1.480  0.0589  0.6010 -0.0628
 1943SOL    HW217463   1.820   0.832   1.483  0.9159 -0.1109 -1.9003
 1944SOL     OW17464   4.101   0.908   9.590 -0.7308  0.1161 -0.1722
 1944SOL    HW117465   4.095   0.906   9.494 -1.1832  0.5686 -0.1541
 1944SOL    HW217466   4.174   0.971   9.587 -0.4947 -0.2497 -2.0662
 1945SOL     OW17467   4.558   3.242   8.473 -0.4275 -0.7080  0.3841
 1945SOL    HW117468   4.570   3.254   8.379 -1.1378 -0.9369  0.2632
 1945SOL    HW217469   4.604   3.317   8.511  0.5130 -0.5525 -1.0635
 1946SOL     OW17470   0.097   2.765   3.805  0.4364  0.2327  0.3913
 1946SOL    HW117471   0.083   2.674   3.832 -1.7028  0.0106 -1.5208
 1946SOL    HW217472   0.006   2.789   3.818  0.7867  1.0409  1.3286
 1947SOL     OW17473   3.424   1.600   5.028 -0.1969 -0.2819  0.2116
 1947SOL    HW117474   3.413   1.598   4.932  2.6431 -0.5135 -0.0958
 1947SOL    HW217475   3.424   1.691   5.057 -0.1576 -0.3047  0.2815
 1948SOL     OW17476   2.408   1.121   3.463  0.4911  0.5719 -0.6327
 1948SOL    HW117477   2.359   1.167   3.395  2.7969 -1.9107 -3.9756
 1948SOL    HW217478   2.482   1.102   3.407  0.6389 -1.8582  0.3817
 1949SOL     OW17479   0.902   0.598  11.697 -0.0209 -0.0880 -0.2023
 1949SOL    HW117480   0.839   0.527  11.692  1.3311 -1.3351  0.5822
 1949SOL    HW217481   0.935   0.593  11.607 -0.9565 -0.8367 -0.5017
 1950SOL     OW17482   1.308   2.872   1.609 -0.3059 -0.0150 -0.4401
 1950SOL    HW117483   1.382   2.814   1.592  1.2755  2.1542 -0.8854
 1950SOL    HW217484   1.236   2.812   1.630  1.7988 -1.7334  1.9748
 1951SOL     OW17485   2.149   0.139  12.161  0.0425 -0.4120  0.0862
 1951SOL    HW117486   2.152   0.096  12.246  3.3823 -1.8369 -0.7526
 1951SOL    HW217487   2.234   0.109  12.127 -0.4533 -0.2033 -1.3372
 1952SOL     OW17488   1.315   4.059   3.339  1.1985  0.0480  0.1777
 1952SOL    HW117489   1.295   4.140   3.292 -0.8158 -1.0462 -0.8223
 1952SOL    HW217490   1.379   4.093   3.402  0.9385  1.5142 -0.3510
 1953SOL     OW17491   2.991   1.185   9.420  0.1823  0.1134  0.0577
 1953SOL    HW117492   2.904   1.157   9.393 -0.1878  3.5356 -2.2405
 1953SOL    HW217493   3.043   1.118   9.376 -0.0300 -0.1231  0.1690
 1954SOL     OW17494   2.477   0.890   3.704 -0.1580 -0.0411 -0.1345
 1954SOL    HW117495   2.489   0.956   3.637  0.0492 -1.4392 -1.4648
 1954SOL    HW217496   2.527   0.934   3.773  1.5253 -1.5501 -0.3822
 1955SOL     OW17497   1.953   4.113   6.509  0.0213 -0.2531 -0.3311
 1955SOL    HW117498   1.948   4.169   6.586  0.8799 -0.9273  0.2058
 1955SOL    HW217499   1.942   4.025   6.545 -0.1617  0.9168  2.4720
 1956SOL     OW17500   4.519   0.382  14.967  0.3239  0.0098 -0.4979
 1956SOL    HW117501   4.591   0.441  14.943 -0.1823  0.0628 -1.8829
 1956SOL    HW217502   4.525   0.388  15.062 -0.7760 -0.5325 -0.3930
 1957SOL     OW17503   1.883   0.890   3.910 -0.0576 -0.0910  0.1343
 1957SOL    HW117504   1.917   0.889   3.999 -1.1127 -1.0781  0.5333
 1957SOL    HW217505   1.897   0.800   3.880 -2.2479 -0.4567  0.1723
 1958SOL     OW17506   4.220   1.743  13.248  0.1044 -0.2445 -0.2764
 1958SOL    HW117507   4.220   1.657  13.291 -0.1183 -0.4282 -0.6497
 1958SOL    HW217508   4.155   1.730  13.179  2.6435 -0.6997 -2.5695
 1959SOL     OW17509   0.262   2.090   2.336 -0.3022  0.6377 -0.2310
 1959SOL    HW117510   0.346   2.047   2.352  1.1944  2.9573 -1.9078
 1959SOL    HW217511   0.262   2.099   2.241  2.7856  0.6277 -0.2255
 1960SOL     OW17512   2.576   1.404   0.841 -0.3674  0.0518  0.2377
 1960SOL    HW117513   2.504   1.430   0.784 -1.3188  1.2364  1.9632
 1960SOL    HW217514   2.588   1.490   0.883  0.4847  0.6525 -1.2238
 1961SOL     OW17515   4.499   0.449  12.790 -0.0140 -0.0040  0.8004
 1961SOL    HW117516   4.591   0.465  12.812  0.0770  1.9700 -1.0010
 1961SOL    HW217517   4.496   0.490  12.703 -0.0424  1.5126  1.5112
 1962SOL     OW17518   1.563   1.784   7.992 -0.3576 -0.5342  0.2246
 1962SOL    HW117519   1.526   1.786   8.081 -2.2572 -1.4724 -0.5400
 1962SOL    HW217520   1.639   1.731   8.014  0.1602 -0.1278 -0.5743
 1963SOL     OW17521   2.026   1.975   3.380 -0.0769 -0.2286  0.3896
 1963SOL    HW117522   2.028   1.886   3.344 -1.2501 -1.1917  2.7135
 1963SOL    HW217523   1.951   2.002   3.326 -1.3354  0.3747  2.4413
 1964SOL     OW17524   3.837   4.025   3.815 -0.5006 -0.1118  0.0447
 1964SOL    HW117525   3.765   4.013   3.753  0.8259 -1.7836 -1.1854
 1964SOL    HW217526   3.876   4.109   3.792  0.4747  0.1036  2.5912
 1965SOL     OW17527   0.211   2.778  12.029 -0.0564 -0.1754 -0.3396
 1965SOL    HW117528   0.152   2.824  12.089 -0.2955  0.3023 -0.9532
 1965SOL    HW217529   0.292   2.762  12.078 -1.7344 -1.3705  2.1031
 1966SOL     OW17530   0.539   4.630  15.545 -0.0608 -0.2530 -0.5725
 1966SOL    HW117531   0.535   4.703  15.607  1.3581 -1.2749  0.7423
 1966SOL    HW217532   0.559   4.680  15.466 -1.8991  0.4415 -0.5790
 1967SOL     OW17533   0.330   3.326   8.600  0.4986  0.3448 -0.3195
 1967SOL    HW117534   0.371   3.391   8.542  1.5742  0.0485  0.0958
 1967SOL    HW217535   0.372   3.341   8.685  1.4224 -1.6023 -0.4266
 1968SOL     OW17536   2.581   0.925  15.374 -0.3555  0.3519 -0.3125
 1968SOL    HW117537   2.539   0.887  15.451 -2.5375  2.5132 -0.4185
 1968SOL    HW217538   2.512   0.984  15.342 -1.0045  1.2533  2.6953
 1969SOL     OW17539   4.731   4.431  17.363 -0.1682  0.0561 -0.1145
 1969SOL    HW117540   0.088   4.424  17.350  0.3803  2.8416  2.3050
 1969SOL    HW217541   4.723   4.438  17.458 -0.2869  0.7366 -0.1763
 1970SOL     OW17542   1.439   1.088   9.630 -0.0689  0.1853  0.2286
 1970SOL    HW117543   1.522   1.052   9.660  1.2840  2.1848 -1.1107
 1970SOL    HW217544   1.447   1.176   9.667  0.5583 -0.2948  1.2154
 1971SOL     OW17545   3.162   0.292   3.569 -0.4647  0.1054  0.1407
 1971SOL    HW117546   3.231   0.276   3.504 -0.6886  0.1897 -0.1177
 1971SOL    HW217547   3.182   0.383   3.589 -2.4638  0.4650  0.4485
 1972SOL     OW17548   3.619   4.439   9.172  0.0668  0.3463  0.4560
 1972SOL    HW117549   3.711   4.466   9.179  1.1564 -3.3135  0.0358
 1972SOL    HW217550   3.595   4.497   9.099  0.5263 -1.2427 -0.9417
 1973SOL     OW17551   3.465   3.499   2.839 -0.3230  0.0049 -0.0181
 1973SOL    HW117552   3.416   3.525   2.761 -0.1712  1.7650  0.4661
 1973SOL    HW217553   3.558   3.506   2.815 -0.6235 -0.6043 -1.3460
 1974SOL     OW17554   4.302   0.674   2.517  0.5747 -0.7306 -0.1011
 1974SOL    HW117555   4.361   0.660   2.591  0.1506 -0.6556  0.2504
 1974SOL    HW217556   4.360   0.641   2.448  0.1247  1.2459 -1.4392
 1975SOL     OW17557   0.641   1.041   3.352  0.1031 -0.0479  0.0383
 1975SOL    HW117558   0.552   1.064   3.379 -1.4107 -3.0277 -2.2921
 1975SOL    HW217559   0.693   1.091   3.414 -0.0256 -0.5540  0.5529
 1976SOL     OW17560   1.118   0.141   2.370  0.0198  0.8298  0.5617
 1976SOL    HW117561   1.179   0.075   2.338  1.3363  2.0872  0.4699
 1976SOL    HW217562   1.148   0.215   2.317  1.5188 -0.3478 -0.2276
 1977SOL     OW17563   0.022   4.074  15.037  0.1591  0.1238  0.7173
 1977SOL    HW117564   0.043   4.161  15.001  1.8157 -0.7920 -0.5406
 1977SOL    HW217565   4.676   4.089  15.082  0.3008 -1.2445  1.4239
 1978SOL     OW17566   4.203   0.053   8.057  0.1129  0.8832 -0.5405
 1978SOL    HW117567   4.153   0.119   8.009  0.4606  0.8709 -0.9247
 1978SOL    HW217568   4.150   0.046   8.136  1.8121 -0.7070  0.4560
 1979SOL     OW17569   3.314   0.497  15.404 -0.7277 -0.0352 -0.2230
 1979SOL    HW117570   3.267   0.436  15.347 -1.2260  1.6813 -1.6304
 1979SOL    HW217571   3.314   0.437  15.479 -1.6223  2.1592  1.5285
 1980SOL     OW17572   2.690   3.700   0.271  0.3437 -0.3600  0.5032
 1980SOL    HW117573   2.742   3.622   0.292 -1.2448 -1.8032 -0.9481
 1980SOL    HW217574   2.617   3.656   0.227  0.5431 -1.2324  1.0353
 1981SOL     OW17575   2.749   2.050  14.427  0.7519 -0.1778 -0.5948
 1981SOL    HW117576   2.793   2.134  14.424  0.4868 -0.0366 -0.5194
 1981SOL    HW217577   2.686   2.071  14.357 -1.4234  0.5858  1.5937
 1982SOL     OW17578   2.626   3.449   8.734 -0.1926  1.0169  0.2500
 1982SOL    HW117579   2.555   3.487   8.785 -0.1722 -0.8325  1.6443
 1982SOL    HW217580   2.577   3.402   8.667 -0.8030  1.3303  0.4820
 1983SOL     OW17581   1.474   4.658   4.727 -0.4740  0.1854 -0.4208
 1983SOL    HW117582   1.549   4.714   4.746  0.0408 -0.3037 -1.0213
 1983SOL    HW217583   1.485   4.651   4.633  0.6797 -1.1587 -0.1877
 1984SOL     OW17584   0.518   1.399   7.304 -0.0141 -0.3232  0.6212
 1984SOL    HW117585   0.528   1.365   7.393 -1.8260  0.0764  0.9957
 1984SOL    HW217586   0.607   1.432   7.291  0.2711 -1.6427 -0.7412
 1985SOL     OW17587   2.763   1.565   7.376  0.1334  0.1935 -0.2061
 1985SOL    HW117588   2.777   1.536   7.286  0.9425 -1.4449  0.4563
 1985SOL    HW217589   2.684   1.519   7.404  0.1006  0.2239 -0.2482
 1986SOL     OW17590   3.717   3.600   2.960  0.2282 -0.8800  1.1953
 1986SOL    HW117591   3.659   3.676   2.973  1.1102  0.4186 -2.4043
 1986SOL    HW217592   3.747   3.601   3.051  0.1024 -0.0222  1.2311
 1987SOL     OW17593   3.510   4.731   3.277  0.1020 -0.0584 -0.1278
 1987SOL    HW117594   3.579   4.694   3.222  0.5475  0.1865  0.2689
 1987SOL    HW217595   3.437   4.702   3.223 -0.6311  2.4164 -0.4234
 1988SOL     OW17596   2.444   1.921   4.524  0.4259  0.4770 -0.6309
 1988SOL    HW117597   2.420   2.009   4.554 -0.1310  0.0708  0.0898
 1988SOL    HW217598   2.455   1.940   4.430 -0.8426 -1.1024 -1.0882
 1989SOL     OW17599   1.461   0.238   3.529 -0.5335 -0.0264  0.0031
 1989SOL    HW117600   1.368   0.218   3.523 -0.7805  0.6801  1.4762
 1989SOL    HW217601   1.511   0.190   3.463  2.3937  3.2330 -0.1766
 1990SOL     OW17602   3.586   2.357  11.411 -0.0948 -0.0727 -0.6004
 1990SOL    HW117603   3.591   2.304  11.331  1.7459  0.8034 -1.0745
 1990SOL    HW217604   3.498   2.392  11.397  0.5667  1.0461 -2.0153
 1991SOL     OW17605   1.627   2.425   8.684 -0.0915  0.2033 -0.2439
 1991SOL    HW117606   1.685   2.412   8.609 -0.6819  0.4149 -0.7389
 1991SOL    HW217607   1.669   2.498   8.729 -1.7064 -0.2913  2.1036
 1992SOL     OW17608   3.649   1.769   6.204  0.5622 -0.3810 -0.4113
 1992SOL    HW117609   3.654   1.865   6.197  0.0355 -0.3096  0.1772
 1992SOL    HW217610   3.561   1.758   6.240  0.4013  2.0792 -0.0625
 1993SOL     OW17611   2.129   0.670   7.301  0.2282 -0.6019 -0.0945
 1993SOL    HW117612   2.126   0.575   7.316  1.4547 -0.7987 -1.0547
 1993SOL    HW217613   2.218   0.690   7.331  0.5829  1.9401 -2.8211
 1994SOL     OW17614   2.097   1.779   7.669 -0.1163  0.4713 -0.1151
 1994SOL    HW117615   2.042   1.783   7.748 -1.0641  1.5039 -0.8195
 1994SOL    HW217616   2.128   1.868   7.656 -1.1877  0.5223 -2.4685
 1995SOL     OW17617   4.162   1.601   5.585  0.0934  0.3217  0.3048
 1995SOL    HW117618   4.107   1.531   5.621 -1.5208  2.4271  1.8797
 1995SOL    HW217619   4.130   1.607   5.495  0.5889  0.4802  0.1401
 1996SOL     OW17620   3.048   1.823   0.383 -0.3405 -0.1223  0.5204
 1996SOL    HW117621   3.061   1.878   0.306 -0.4160  2.0583  2.0331
 1996SOL    HW217622   2.977   1.880   0.412  0.4546  0.3742  1.5289
 1997SOL     OW17623   3.386   3.771   6.117  0.2931  0.2649  0.3374
 1997SOL    HW117624   3.439   3.850   6.128 -1.4190  1.2577  1.4196
 1997SOL    HW217625   3.404   3.743   6.027 -0.3651 -0.2076  0.3554
 1998SOL     OW17626   4.564   1.322   4.290 -0.2172  0.2226 -0.1048
 1998SOL    HW117627   4.653   1.290   4.279 -0.9847 -1.4968 -1.4348
 1998SOL    HW217628   4.509   1.248   4.266 -2.1980  1.6163  0.1089
 1999SOL     OW17629   4.719   4.375  13.319 -0.0497  0.3598 -0.7643
 1999SOL    HW117630   4.715   4.309  13.388 -3.5030  2.2302  0.8301
 1999SOL    HW217631   0.035   4.443  13.360  1.0538  0.2937 -2.0970
 2000SOL     OW17632   1.285   2.683   2.022 -0.3579  0.3410  0.5472
 2000SOL    HW117633   1.360   2.728   1.984 -0.4394  0.3948  0.4487
 2000SOL    HW217634   1.264   2.617   1.955 -2.0269  1.9633 -0.5144
 2001SOL     OW17635   0.549   1.663   2.521  0.4193  0.4783 -0.5721
 2001SOL    HW117636   0.636   1.704   2.517  0.0567  1.6231  2.7941
 2001SOL    HW217637   0.542   1.646   2.615  1.6066  0.4433 -0.4947
 2002SOL     OW17638   2.951   0.295   9.025  0.4227  0.3376  0.1961
 2002SOL    HW117639   2.905   0.231   9.079 -0.9015  0.2247 -1.0710
 2002SOL    HW217640   2.911   0.279   8.939  0.6535 -0.2602  0.1990
 2003SOL     OW17641   2.039   2.094   1.278 -0.0607 -0.4789 -0.0748
 2003SOL    HW117642   2.111   2.110   1.217 -0.6141  2.1094 -0.0284
 2003SOL    HW217643   2.081   2.041   1.346  1.4380  0.2786 -0.4100
 2004SOL     OW17644   1.393   0.547   8.054  0.1556  0.4775 -0.1658
 2004SOL    HW117645   1.481   0.557   8.091  0.4717  2.1220 -1.3609
 2004SOL    HW217646   1.415   0.486   7.983 -1.7341 -0.4139  0.0340
 2005SOL     OW17647   1.603   3.844   9.671  0.4144  0.2445 -0.7919
 2005SOL    HW117648   1.659   3.863   9.747  0.0059  0.6177 -0.5878
 2005SOL    HW217649   1.561   3.929   9.663 -2.2854 -0.9711  0.5240
 2006SOL     OW17650   1.148   1.761  12.513 -0.3749  0.2994  0.1102
 2006SOL    HW117651   1.162   1.791  12.424 -3.5598  2.2800  0.2473
 2006SOL    HW217652   1.176   1.837  12.563  2.2481 -0.8207  0.3227
 2007SOL     OW17653   2.533   2.930   2.206  0.0508  0.0225 -0.0447
 2007SOL    HW117654   2.501   3.000   2.263  0.4401  0.4035 -0.2906
 2007SOL    HW217655   2.612   2.971   2.171 -1.0630  1.6536 -0.6458
 2008SOL     OW17656   0.453   3.083   7.658  0.0308 -0.3780  0.0722
 2008SOL    HW117657   0.542   3.112   7.680 -0.1022  0.3654 -0.3910
 2008SOL    HW217658   0.425   3.067   7.748 -0.8537 -0.3920 -0.2068
 2009SOL     OW17659   1.279   4.034   9.465  0.4664  0.0870  0.1756
 2009SOL    HW117660   1.254   3.944   9.483 -0.8064  0.3551 -0.2782
 2009SOL    HW217661   1.199   4.071   9.427 -0.7039 -2.4827  0.1439
 2010SOL     OW17662   4.246   4.368   7.935  0.3015  0.0703 -0.6633
 2010SOL    HW117663   4.218   4.277   7.922  1.6370 -0.2898 -1.0499
 2010SOL    HW217664   4.160   4.410   7.936 -0.3526 -1.3118  1.0650
 2011SOL     OW17665   3.029   0.378  17.383 -0.1186 -0.1850  0.4925
 2011SOL    HW117666   3.016   0.383  17.288 -1.3941  0.3667  0.7010
 2011SOL    HW217667   2.972   0.309  17.417 -1.1323  1.1986  1.5465
 2012SOL     OW17668   1.551   1.359   1.626  0.7566 -0.0287  0.2486
 2012SOL    HW117669   1.617   1.305   1.582  0.0500 -0.6308 -0.0692
 2012SOL    HW217670   1.607   1.436   1.630 -2.1141  2.1835 -1.9268
 2013SOL     OW17671   3.295   0.172   5.902  0.6650  0.3017 -0.4402
 2013SOL    HW117672   3.223   0.208   5.954 -0.5056 -1.7568 -0.6514
 2013SOL    HW217673   3.373   0.195   5.954  0.8755  0.0145 -0.6301
 2014SOL     OW17674   4.507   0.928   1.633  0.5692  0.6813 -0.3294
 2014SOL    HW117675   4.603   0.930   1.628  0.5967  0.7012  0.1640
 2014SOL    HW217676   4.481   0.963   1.548 -2.3274  0.6357  0.5460
 2015SOL     OW17677   4.293   0.347   9.480  0.1391 -0.1869  0.2805
 2015SOL    HW117678   4.244   0.396   9.414 -2.8592 -3.3495  0.1384
 2015SOL    HW217679   4.234   0.347   9.556  0.5205  0.6666  0.5751
 2016SOL     OW17680   1.322   1.261   2.050  0.1524  0.6918  0.4723
 2016SOL    HW117681   1.308   1.279   1.957 -0.0842  1.6133  0.6939
 2016SOL    HW217682   1.413   1.290   2.049  0.2530  0.3037 -1.6211
 2017SOL     OW17683   0.404   1.285   5.742 -0.6191  0.6294  0.2840
 2017SOL    HW117684   0.430   1.321   5.658 -0.2235 -0.7800 -0.1926
 2017SOL    HW217685   0.311   1.278   5.722 -0.6937  2.0798  0.1340
 2018SOL     OW17686   1.255   3.446   2.757  0.3156 -0.7150 -0.4238
 2018SOL    HW117687   1.180   3.461   2.700 -0.6698 -0.1593  1.0119
 2018SOL    HW217688   1.271   3.355   2.734 -1.5507 -1.1782  0.1121
 2019SOL     OW17689   2.924   2.511   5.772  0.1238 -0.0318  0.1609
 2019SOL    HW117690   2.847   2.537   5.823 -0.3069 -1.5846  0.3104
 2019SOL    HW217691   2.890   2.461   5.697 -2.0732  1.7806 -0.0681
 2020SOL     OW17692   2.902   4.194   2.995  0.0296 -0.1534  0.0687
 2020SOL    HW117693   2.873   4.285   2.998 -1.6308 -0.7172  0.8823
 2020SOL    HW217694   2.861   4.160   2.916 -1.6096  1.3814  0.2598
 2021SOL     OW17695   3.182   2.892  10.101 -0.1691 -0.5143  0.1163
 2021SOL    HW117696   3.155   2.873  10.190  0.2550  0.9869  0.5685
 2021SOL    HW217697   3.233   2.813  10.082  0.1540 -0.2401 -0.1685
 2022SOL     OW17698   1.482   0.456   1.565 -0.4939  0.4437 -0.0606
 2022SOL    HW117699   1.427   0.532   1.584  0.1494  0.9300 -0.1353
 2022SOL    HW217700   1.566   0.488   1.598  0.2185 -0.2085 -1.2056
 2023SOL     OW17701   2.965   1.402  14.616  0.8674 -0.2480  0.0682
 2023SOL    HW117702   2.887   1.350  14.598 -0.2722  0.7885  1.9396
 2023SOL    HW217703   2.929   1.490  14.601 -1.6574 -0.8202  2.7298
 2024SOL     OW17704   2.859   4.301   5.520  0.1365 -0.5874  0.5661
 2024SOL    HW117705   2.883   4.391   5.542  0.5772 -0.0546 -2.0951
 2024SOL    HW217706   2.787   4.313   5.458  1.0458  0.8811 -0.1907
 2025SOL     OW17707   0.058   2.002  16.053  0.1177 -0.0146  0.2928
 2025SOL    HW117708   4.703   1.989  16.072  0.9638 -3.2685  2.1423
 2025SOL    HW217709   0.086   2.049  16.132 -1.3499  1.1341  0.1383
 2026SOL     OW17710   2.675   4.674   4.597  0.7805  0.0953 -0.6584
 2026SOL    HW117711   2.721   4.630   4.668 -0.2745 -3.1664 -2.0273
 2026SOL    HW217712   2.597   4.694   4.649  1.2071  0.4463 -0.1622
 2027SOL     OW17713   4.461   4.624  15.400 -0.1411  0.0481  0.0729
 2027SOL    HW117714   4.441   4.713  15.371  0.3776  0.2603  0.3623
 2027SOL    HW217715   4.432   4.561  15.333 -0.7652 -0.0785  0.4645
 2028SOL     OW17716   2.752   2.409   3.484  0.3241  0.0007  0.5319
 2028SOL    HW117717   2.688   2.433   3.551 -0.2583  1.4579 -0.5708
 2028SOL    HW217718   2.720   2.462   3.412 -2.3822 -2.2860  0.0730
 2029SOL     OW17719   0.728   4.349   3.728 -0.0686  0.0893  0.5391
 2029SOL    HW117720   0.678   4.315   3.654  1.7927 -1.2268 -0.1186
 2029SOL    HW217721   0.785   4.412   3.686  1.8364 -2.7381 -1.1287
 2030SOL     OW17722   0.604   0.309   7.918 -0.0089 -0.4825 -0.2632
 2030SOL    HW117723   0.599   0.226   7.965 -0.5291  0.5703  1.5406
 2030SOL    HW217724   0.576   0.379   7.976  1.5154  0.9955 -1.2964
 2031SOL     OW17725   1.746   3.703   9.447  0.2134  0.6482 -0.4010
 2031SOL    HW117726   1.748   3.647   9.525  3.6306 -0.1796 -1.0710
 2031SOL    HW217727   1.683   3.764   9.485 -0.8810 -0.9131  0.2976
 2032SOL     OW17728   1.353   3.869   9.078 -0.2010  0.1161 -0.7179
 2032SOL    HW117729   1.269   3.838   9.113  0.4748  0.4405  1.1876
 2032SOL    HW217730   1.398   3.787   9.099 -0.9233 -0.0381  0.2114
 2033SOL     OW17731   3.477   2.472   5.738  0.0803 -0.1116  0.1325
 2033SOL    HW117732   3.439   2.515   5.662  1.1581  1.1469  0.3091
 2033SOL    HW217733   3.512   2.548   5.785 -0.7997 -0.3814  1.2225
 2034SOL     OW17734   2.698   3.116   7.698 -0.1380  0.3794  0.0626
 2034SOL    HW117735   2.730   3.189   7.647  3.4049 -2.0553 -1.2056
 2034SOL    HW217736   2.609   3.146   7.716 -0.0932 -0.6938  2.0819
 2035SOL     OW17737   1.365   1.825   5.521 -0.5726 -0.1191 -0.2645
 2035SOL    HW117738   1.353   1.772   5.600 -0.7207 -1.2723 -1.0582
 2035SOL    HW217739   1.417   1.768   5.463 -1.0109 -1.4455  0.6422
 2036SOL     OW17740   2.455   0.866  14.800  0.0962  0.4222 -0.3036
 2036SOL    HW117741   2.385   0.801  14.790 -1.4236  1.5264  2.8042
 2036SOL    HW217742   2.527   0.813  14.833 -0.5373 -0.2157  0.0743
 2037SOL     OW17743   0.366   0.683  14.921 -0.2211  0.1185  0.5582
 2037SOL    HW117744   0.330   0.630  14.850  1.3109 -1.7203  1.1746
 2037SOL    HW217745   0.299   0.658  14.985  0.5338 -1.2628  0.8007
 2038SOL     OW17746   0.848   2.735   4.887  0.5580  0.2489  0.2408
 2038SOL    HW117747   0.826   2.699   4.973 -0.1185 -2.3577 -1.0199
 2038SOL    HW217748   0.911   2.806   4.904  0.4878  0.4248 -0.2359
 2039SOL     OW17749   1.304   2.526  13.428 -0.0658 -0.2715 -0.6305
 2039SOL    HW117750   1.367   2.568  13.487  0.0102  0.7614 -1.4465
 2039SOL    HW217751   1.227   2.580  13.450  0.5396 -0.4606  1.9658
 2040SOL     OW17752   1.998   1.924   0.080  0.5122  0.0942 -0.3498
 2040SOL    HW117753   1.906   1.938   0.056  0.4363  0.9632  0.4639
 2040SOL    HW217754   2.035   1.904  17.742  0.5085 -0.3700 -0.2460
 2041SOL     OW17755   0.797   2.945   7.006  0.3750 -0.3356 -0.0005
 2041SOL    HW117756   0.826   3.023   7.053 -0.1481 -0.9767  1.3930
 2041SOL    HW217757   0.882   2.903   7.006  0.3621 -0.3572  0.4087
 2042SOL     OW17758   1.690   3.753   4.540  0.1744 -0.1872 -0.2202
 2042SOL    HW117759   1.638   3.726   4.616  0.1167 -0.2305 -0.2753
 2042SOL    HW217760   1.770   3.708   4.567 -0.2715  0.3025  1.9748
 2043SOL     OW17761   0.918   3.326  10.570 -0.7165  0.1182  0.0372
 2043SOL    HW117762   0.946   3.242  10.607 -0.4777  0.4911  0.6910
 2043SOL    HW217763   0.823   3.321  10.557 -0.8802  0.2467  1.1606
 2044SOL     OW17764   3.978   4.436   2.857  0.0387 -0.2448  0.0453
 2044SOL    HW117765   4.067   4.409   2.875  0.2362 -1.2024 -2.3720
 2044SOL    HW217766   3.988   4.524   2.821  0.1956  0.2875  1.3758
 2045SOL     OW17767   2.125   3.990  15.213 -0.4910  0.4738 -0.1286
 2045SOL    HW117768   2.181   4.067  15.205 -0.7133  0.9827  3.2830
 2045SOL    HW217769   2.186   3.938  15.265  0.0117  1.3336  0.1482
 2046SOL     OW17770   4.468   3.065   8.014 -0.0337 -0.6459  0.2012
 2046SOL    HW117771   4.532   3.055   7.944 -1.4254  0.9776 -1.2972
 2046SOL    HW217772   4.388   3.034   7.971 -0.2911  2.1519 -1.3320
 2047SOL     OW17773   0.986   3.326   8.896 -0.1994  0.7065  0.0948
 2047SOL    HW117774   1.050   3.292   8.833 -0.6089 -0.0133  0.0624
 2047SOL    HW217775   0.907   3.340   8.844 -1.1703 -2.9845  0.6206
 2048SOL     OW17776   3.413   1.837   5.134 -0.9412 -0.2402 -0.8363
 2048SOL    HW117777   3.330   1.882   5.154 -0.4404  1.0293 -1.6310
 2048SOL    HW217778   3.460   1.898   5.190  1.3386 -3.0791  0.3012
 2049SOL     OW17779   4.338   2.321   5.532 -0.1094 -0.3635  0.1785
 2049SOL    HW117780   4.404   2.381   5.496 -1.2766  0.4686 -0.5433
 2049SOL    HW217781   4.290   2.304   5.452  0.3454  0.4678 -0.2687
 2050SOL     OW17782   0.844   4.063   0.103  0.5584  0.5167 -0.4609
 2050SOL    HW117783   0.801   3.977   0.109  2.4538 -0.4817 -1.2338
 2050SOL    HW217784   0.785   4.107   0.042 -2.0610 -1.4973  0.5998
 2051SOL     OW17785   3.754   3.429  12.390 -0.0900 -0.0528  0.3195
 2051SOL    HW117786   3.733   3.480  12.469  2.3209 -0.2697  1.0933
 2051SOL    HW217787   3.734   3.338  12.414  0.6603 -0.3306 -0.1350
 2052SOL     OW17788   2.038   0.143   3.321 -0.6562  0.4890  0.1910
 2052SOL    HW117789   2.015   0.131   3.413 -0.5952  0.8074  0.2457
 2052SOL    HW217790   2.090   0.223   3.323  0.0509  0.0199  0.5287
 2053SOL     OW17791   3.311   3.284   2.964  0.1414 -0.0674 -0.2727
 2053SOL    HW117792   3.339   3.353   2.904 -2.3720  0.8111 -0.4018
 2053SOL    HW217793   3.339   3.205   2.918  0.1041 -0.1541 -0.1453
 2054SOL     OW17794   2.631   3.362   6.708 -0.2312 -0.0669 -0.1401
 2054SOL    HW117795   2.667   3.447   6.682 -1.1703  0.6996  1.0597
 2054SOL    HW217796   2.665   3.301   6.643  1.5187 -0.4075  1.0948
 2055SOL     OW17797   0.741   2.852   3.584  0.0728 -0.7574 -0.5876
 2055SOL    HW117798   0.713   2.912   3.515  0.8005 -2.2308 -2.1718
 2055SOL    HW217799   0.720   2.902   3.663  0.0121 -0.2889 -0.8941
 2056SOL     OW17800   3.166   3.484  17.013  0.1327 -0.1643  0.3765
 2056SOL    HW117801   3.192   3.434  16.936 -0.4263  0.6807 -0.3519
 2056SOL    HW217802   3.086   3.521  16.975 -0.4488 -0.1922  1.5566
 2057SOL     OW17803   4.271   0.709   4.723  0.0897 -0.1743 -0.0406
 2057SOL    HW117804   4.356   0.747   4.701  0.1867 -2.1376 -3.0014
 2057SOL    HW217805   4.251   0.661   4.643 -2.4378  0.3998  0.2708
 2058SOL     OW17806   4.142   1.348   6.784  0.1043 -0.7893  0.2762
 2058SOL    HW117807   4.091   1.427   6.769  0.6236 -0.0978  2.1050
 2058SOL    HW217808   4.079   1.292   6.828 -0.5169 -2.0392 -2.1935
 2059SOL     OW17809   0.082   0.360  13.116  0.1267  0.6334 -0.8362
 2059SOL    HW117810   0.072   0.308  13.195 -1.1181  2.2591  0.0738
 2059SOL    HW217811   0.068   0.447  13.153 -1.6303 -0.0215  0.0458
 2060SOL     OW17812   3.585   1.252   4.615  0.9259  0.3813  0.1086
 2060SOL    HW117813   3.505   1.209   4.645 -0.9192  2.5725 -1.6034
 2060SOL    HW217814   3.562   1.340   4.647  2.0142  1.0640 -1.0055
 2061SOL     OW17815   3.250   0.901  12.051  0.6471 -0.3395 -0.2328
 2061SOL    HW117816   3.312   0.855  12.109  0.4678 -0.1032  0.1451
 2061SOL    HW217817   3.252   0.989  12.087 -1.7066 -1.0762  1.6919
 2062SOL     OW17818   0.232   2.481   4.679 -0.3840  0.2150  0.3338
 2062SOL    HW117819   0.267   2.412   4.623  0.1925  0.0186  0.9297
 2062SOL    HW217820   0.293   2.549   4.651 -0.3720 -1.0009 -2.5040
 2063SOL     OW17821   0.443   4.278  13.612 -0.2390  0.3618 -0.2306
 2063SOL    HW117822   0.534   4.296  13.588 -0.1595 -0.7557 -0.7835
 2063SOL    HW217823   0.401   4.314  13.534 -1.5570  0.5265  0.5547
 2064SOL     OW17824   0.096   1.094   9.568  0.2878 -0.6562 -0.1933
 2064SOL    HW117825   0.167   1.055   9.618  0.9263  2.1138  1.0702
 2064SOL    HW217826   0.130   1.073   9.481  2.5487 -1.1897  0.8306
 2065SOL     OW17827   3.125   0.474   9.262  0.7496  0.0877 -1.0567
 2065SOL    HW117828   3.107   0.398   9.318 -0.3101  0.1049 -1.3778
 2065SOL    HW217829   3.214   0.447   9.241  1.5782  1.4304  0.6737
 2066SOL     OW17830   4.093   2.672  10.692  0.3022 -0.5601 -0.9288
 2066SOL    HW117831   4.095   2.736  10.764  1.7182 -1.2408 -0.3704
 2066SOL    HW217832   4.163   2.612  10.718  0.4736  0.2415  0.5176
 2067SOL     OW17833   0.725   3.400   4.908  0.1066 -0.4772  0.1082
 2067SOL    HW117834   0.731   3.451   4.989 -0.7000  1.0843 -0.8207
 2067SOL    HW217835   0.693   3.316   4.942  1.5759 -0.6057  1.1698
 2068SOL     OW17836   0.027   3.196   0.636  0.8820  0.2710  0.0290
 2068SOL    HW117837   4.733   3.257   0.569 -1.0519  0.8363  1.4720
 2068SOL    HW217838   4.702   3.219   0.705  0.7194  1.1780 -0.4194
 2069SOL     OW17839   4.214   2.189   8.753  0.0922  0.0666 -0.1676
 2069SOL    HW117840   4.283   2.126   8.775 -1.5157 -1.1762  1.3768
 2069SOL    HW217841   4.268   2.260   8.719  2.1573 -2.9044 -3.1194
 2070SOL     OW17842   3.620   3.266  12.707 -0.5535 -0.8364  0.0643
 2070SOL    HW117843   3.674   3.232  12.635 -0.1738 -0.4106  0.1512
 2070SOL    HW217844   3.588   3.351  12.679  1.9331  0.6857  1.8541
 2071SOL     OW17845   0.744   0.117   1.190  0.5938  0.7652 -0.1510
 2071SOL    HW117846   0.713   0.034   1.226 -2.1589  1.1706 -1.5856
 2071SOL    HW217847   0.743   0.168   1.271 -0.7026  1.2718 -0.4802
 2072SOL     OW17848   1.438   3.156   6.914  0.1479  0.2059  0.5502
 2072SOL    HW117849   1.347   3.140   6.939  0.1826 -2.4816 -1.1121
 2072SOL    HW217850   1.431   3.246   6.880 -1.2426  0.6240  1.9560
 2073SOL     OW17851   1.849   2.939   8.819 -0.7052  0.0691 -0.6861
 2073SOL    HW117852   1.825   2.939   8.727  0.2764 -1.9637 -0.9508
 2073SOL    HW217853   1.880   3.028   8.832 -0.7021  0.1608 -1.3278
 2074SOL     OW17854   3.620   0.510   0.319  0.2845 -0.1513 -0.1115
 2074SOL    HW117855   3.572   0.515   0.235  1.0079 -1.2002 -0.5740
 2074SOL    HW217856   3.685   0.578   0.299 -0.5141  0.2830 -1.3223
 2075SOL     OW17857   2.833   2.436  11.899  0.8076  0.5560  0.1874
 2075SOL    HW117858   2.797   2.467  11.816  0.5082  2.6023  1.0941
 2075SOL    HW217859   2.785   2.492  11.959  0.0641  0.3124 -0.1801
 2076SOL     OW17860   2.700   3.886   3.008 -0.4904 -0.0262 -0.3716
 2076SOL    HW117861   2.607   3.910   3.000 -0.3707 -0.1190 -1.8806
 2076SOL    HW217862   2.705   3.826   2.934 -1.1244  0.1673 -0.5800
 2077SOL     OW17863   3.381   2.648   4.354  0.3496  0.2901 -0.4361
 2077SOL    HW117864   3.306   2.628   4.409 -0.0198  0.4771 -0.8751
 2077SOL    HW217865   3.384   2.577   4.290 -0.4209 -0.6502  0.5852
 2078SOL     OW17866   2.059   4.431   6.398  0.9737  0.1802  0.3199
 2078SOL    HW117867   2.045   4.355   6.455  2.5872 -0.8380 -0.6352
 2078SOL    HW217868   1.973   4.416   6.359 -0.1780 -1.3312  3.3850
 2079SOL     OW17869   0.784   1.221   8.704 -0.2076  0.1375 -0.4128
 2079SOL    HW117870   0.736   1.302   8.684  0.3927 -0.2616 -3.4241
 2079SOL    HW217871   0.712   1.163   8.727  0.5182 -0.0345  1.3771
 2080SOL     OW17872   3.645   1.981   4.547 -0.3953  0.0726  0.3293
 2080SOL    HW117873   3.737   1.974   4.520 -0.6891  0.2965 -0.7401
 2080SOL    HW217874   3.648   2.063   4.597  1.3875 -0.0248  0.3834
 2081SOL     OW17875   4.624   2.492   7.175 -0.4635 -0.3265  0.2438
 2081SOL    HW117876   4.659   2.540   7.250 -1.3571  1.1728 -0.2929
 2081SOL    HW217877   4.578   2.419   7.216  0.7462 -1.7863 -0.9952
 2082SOL     OW17878   2.895   3.918   5.472  0.5108  0.2143 -0.1772
 2082SOL    HW117879   2.933   4.005   5.480 -1.6550  1.3205 -1.7907
 2082SOL    HW217880   2.832   3.932   5.543  1.4480  0.0766  0.6751
 2083SOL     OW17881   2.596   3.204   5.176 -0.0481  0.2849  0.3118
 2083SOL    HW117882   2.678   3.157   5.192  0.1468  0.6895  0.5008
 2083SOL    HW217883   2.611   3.293   5.208  2.2708  0.7733 -2.2169
 2084SOL     OW17884   4.033   2.955   6.480  0.1459 -0.4105 -0.1125
 2084SOL    HW117885   4.088   2.938   6.556 -0.4692  0.0368  0.4365
 2084SOL    HW217886   3.953   2.922   6.521 -0.2726 -0.8700 -1.3011
 2085SOL     OW17887   0.047   0.884   9.379  0.1508 -0.0448 -0.4122
 2085SOL    HW117888   0.112   0.898   9.310  2.2372  0.7204  1.7467
 2085SOL    HW217889   0.106   0.857   9.449 -0.7963 -0.8712  0.0604
 2086SOL     OW17890   2.447   1.129  17.201 -0.6485  0.7101 -0.0262
 2086SOL    HW117891   2.511   1.109  17.270  0.4792  0.0411 -1.2778
 2086SOL    HW217892   2.442   1.045  17.157 -0.9571  0.7890 -0.1418
 2087SOL     OW17893   4.294   0.094   6.194  0.1944  0.4884 -0.1902
 2087SOL    HW117894   4.291   0.074   6.101 -1.1750 -0.1338 -0.0256
 2087SOL    HW217895   4.374   0.145   6.202  0.2054  0.2302  1.4441
 2088SOL     OW17896   0.361   2.541   8.645  0.2405 -0.0879 -0.3645
 2088SOL    HW117897   0.450   2.509   8.630  0.3880  0.7956 -1.3871
 2088SOL    HW217898   0.315   2.469   8.689 -1.7132  1.6331  0.3793
 2089SOL     OW17899   0.443   3.063   4.272 -0.1959  0.3050 -0.3938
 2089SOL    HW117900   0.394   3.072   4.354  0.0253 -0.3772 -0.1885
 2089SOL    HW217901   0.470   3.155   4.265  3.5273 -0.6381  1.6114
 2090SOL     OW17902   3.764   2.936   7.651 -0.0026  0.0786 -0.1229
 2090SOL    HW117903   3.684   2.988   7.645 -0.4417 -0.3224  2.2205
 2090SOL    HW217904   3.755   2.892   7.567 -1.8749 -2.4762  1.4257
 2091SOL     OW17905   2.764   4.341  15.428 -0.3721 -0.2739  0.1830
 2091SOL    HW117906   2.761   4.391  15.510 -0.0674 -0.4613  0.3070
 2091SOL    HW217907   2.857   4.323  15.415 -0.2476 -0.0552  0.7803
 2092SOL     OW17908   0.725   0.956  16.538  0.0760  0.4834  0.3712
 2092SOL    HW117909   0.799   0.911  16.497  1.6916  0.9902  2.7638
 2092SOL    HW217910   0.653   0.892  16.532 -0.3461  0.9497  0.4881
 2093SOL     OW17911   2.693   2.518  13.186 -0.4736 -1.0779  0.5318
 2093SOL    HW117912   2.648   2.598  13.159  0.5895 -0.1066  1.6517
 2093SOL    HW217913   2.670   2.458  13.114 -0.6388 -1.4351  0.8794
 2094SOL     OW17914   1.781   1.299  13.373 -0.9613  0.1764 -0.3131
 2094SOL    HW117915   1.836   1.377  13.364  0.4433 -0.6846  0.8932
 2094SOL    HW217916   1.834   1.243  13.430 -0.3545  0.7257 -0.3385
 2095SOL     OW17917   4.054   3.362   6.236  0.4077 -0.5164 -1.2179
 2095SOL    HW117918   3.991   3.354   6.164 -3.0135  1.8427  1.4819
 2095SOL    HW217919   4.138   3.356   6.192  1.4775 -0.6455  0.8298
 2096SOL     OW17920   1.247   4.580   3.056 -0.2170 -0.2161 -0.1750
 2096SOL    HW117921   1.168   4.613   3.098  0.4561  1.0548  0.0828
 2096SOL    HW217922   1.226   4.594   2.964  0.6379 -1.5386 -0.5779
 2097SOL     OW17923   4.410   2.831   3.305 -1.0475  0.2752 -0.3925
 2097SOL    HW117924   4.432   2.808   3.215  1.6992  0.5779  0.2012
 2097SOL    HW217925   4.440   2.921   3.321 -0.2976  0.2163 -1.4725
 2098SOL     OW17926   2.762   1.004   4.177 -0.6531  0.3434  0.0859
 2098SOL    HW117927   2.757   1.081   4.121 -0.0589  0.1385 -0.2591
 2098SOL    HW217928   2.748   1.043   4.263 -0.5658  0.1824  0.1742
 2099SOL     OW17929   2.054   2.444   4.286 -0.0048 -0.6154  0.2945
 2099SOL    HW117930   2.054   2.436   4.191  1.8153  2.1331  0.0520
 2099SOL    HW217931   2.076   2.536   4.302 -0.8660 -0.0859 -1.6166
 2100SOL     OW17932   0.245   4.031   9.507  1.0992  0.3052  0.1022
 2100SOL    HW117933   0.235   3.948   9.460  2.5477  0.1419  0.0751
 2100SOL    HW217934   0.153   4.052   9.526  0.8017  0.8317 -1.9063
 2101SOL     OW17935   0.762   3.119   0.947  0.1426 -0.7652 -0.2013
 2101SOL    HW117936   0.758   3.201   0.997 -3.0642 -1.9595  1.4686
 2101SOL    HW217937   0.751   3.151   0.857 -0.2850  0.9249  0.4445
 2102SOL     OW17938   2.929   4.551  16.824  0.4383  0.7004  0.1493
 2102SOL    HW117939   3.015   4.578  16.857  1.1559 -1.3911 -0.0703
 2102SOL    HW217940   2.888   4.508  16.899  0.2149  0.9989  0.2007
 2103SOL     OW17941   3.327   2.213   5.730 -0.1671  0.0506  0.7033
 2103SOL    HW117942   3.388   2.283   5.754  0.8580 -0.8584  0.7655
 2103SOL    HW217943   3.239   2.248   5.743  0.1945  1.0768  0.3674
 2104SOL     OW17944   1.219   4.674   8.748 -0.6358  0.2327 -0.5119
 2104SOL    HW117945   1.185   0.024   8.768 -3.2994 -1.2095  1.3914
 2104SOL    HW217946   1.136   4.632   8.773 -1.4032  2.3784  0.5482
 2105SOL     OW17947   0.600   2.000   5.947 -0.9375 -0.2410  0.3477
 2105SOL    HW117948   0.542   2.055   6.000  1.6468  0.1191  2.7906
 2105SOL    HW217949   0.636   1.937   6.009 -1.0504 -0.3961  0.2562
 2106SOL     OW17950   3.746   2.685   2.925  0.3388  0.1950 -0.6096
 2106SOL    HW117951   3.815   2.736   2.883  2.0683 -1.7813 -0.1517
 2106SOL    HW217952   3.670   2.737   2.899  0.2096  0.0592 -0.5031
 2107SOL     OW17953   2.892   3.387  15.838 -0.0472  0.7417 -0.5435
 2107SOL    HW117954   2.950   3.463  15.847  2.5464 -1.4536  1.7692
 2107SOL    HW217955   2.928   3.356  15.755 -1.6020  0.5687 -1.1370
 2108SOL     OW17956   2.625   3.677   5.552  0.0388 -0.5899 -0.0817
 2108SOL    HW117957   2.554   3.629   5.597 -1.1484  0.9679 -0.2880
 2108SOL    HW217958   2.576   3.736   5.496  0.3239  0.7765  1.1126
 2109SOL     OW17959   3.608   4.408   3.013 -0.0875  0.7002 -0.3361
 2109SOL    HW117960   3.525   4.414   2.964  0.9060 -0.7237 -2.1884
 2109SOL    HW217961   3.588   4.383   3.103 -1.0093  2.0766 -0.1528
 2110SOL     OW17962   4.111   1.891   7.825  0.8876  0.1423  0.1631
 2110SOL    HW117963   4.087   1.941   7.747  1.5179 -0.4715 -0.4310
 2110SOL    HW217964   4.135   1.965   7.880  0.2612  0.6970 -0.3019
 2111SOL     OW17965   2.234   2.363   3.344 -0.3227  0.2404  0.5068
 2111SOL    HW117966   2.274   2.285   3.306 -0.4261 -0.1034  1.0985
 2111SOL    HW217967   2.199   2.403   3.265  2.8783  1.3350 -0.3514
 2112SOL     OW17968   3.680   2.169   3.389 -0.0444  0.2853  0.1204
 2112SOL    HW117969   3.608   2.177   3.327 -0.6781 -0.0049  0.8175
 2112SOL    HW217970   3.755   2.177   3.330 -1.5147  1.6269 -1.5779
 2113SOL     OW17971   2.658   0.252  10.270  0.3833  0.1606 -0.8779
 2113SOL    HW117972   2.604   0.194  10.217  0.0089 -0.3699  0.0941
 2113SOL    HW217973   2.610   0.334  10.285  1.7266  1.2862 -2.6685
 2114SOL     OW17974   3.270   1.172   0.034 -0.0359 -0.7787  0.1731
 2114SOL    HW117975   3.281   1.078   0.037 -2.0449 -0.8945  4.0367
 2114SOL    HW217976   3.298   1.199   0.122 -1.0912 -1.9207  0.8595
 2115SOL     OW17977   1.276   2.479   9.370 -0.4015 -0.2709  0.2798
 2115SOL    HW117978   1.314   2.391   9.360 -0.1881 -0.4352  2.5686
 2115SOL    HW217979   1.269   2.503   9.277 -1.1926  2.9038  1.1895
 2116SOL     OW17980   4.138   0.764  13.477  0.0359  0.1071 -0.7831
 2116SOL    HW117981   4.217   0.814  13.494  1.7987 -2.8479 -0.3030
 2116SOL    HW217982   4.136   0.697  13.546  0.2892 -1.4444 -2.2817
 2117SOL     OW17983   0.978   4.379   3.123  0.3518  0.3350  0.1792
 2117SOL    HW117984   0.908   4.382   3.188  2.5613 -2.8897  2.6533
 2117SOL    HW217985   0.996   4.469   3.096  0.9136 -0.4994 -2.2164
 2118SOL     OW17986   0.861   1.280   5.298  0.1224 -0.1532  0.2271
 2118SOL    HW117987   0.823   1.287   5.211 -0.7136  0.6065  0.6483
 2118SOL    HW217988   0.855   1.187   5.318 -0.7232 -0.0497  0.4222
 2119SOL     OW17989   3.884   4.568   8.282  0.4558 -0.4959  0.4783
 2119SOL    HW117990   3.813   4.606   8.335  1.1628  0.0024  1.0717
 2119SOL    HW217991   3.857   4.573   8.191 -1.1745 -1.1562  0.9240
 2120SOL     OW17992   2.043   4.726   7.894  0.1911 -0.2399 -0.1803
 2120SOL    HW117993   2.084   0.030   7.969  0.7117 -0.0708 -0.5548
 2120SOL    HW217994   1.954   4.733   7.928  0.6678  1.8513  0.6310
 2121SOL     OW17995   0.629   4.377   8.161 -0.3853 -0.8033  0.2740
 2121SOL    HW117996   0.621   4.428   8.081 -0.9048 -1.3360 -0.0125
 2121SOL    HW217997   0.692   4.311   8.131 -0.4196 -1.2193  1.0925
 2122SOL     OW17998   4.645   0.289   4.118  0.1937  0.2576  0.0538
 2122SOL    HW117999   4.587   0.358   4.148 -0.5227 -0.4025  0.1742
 2122SOL    HW218000   4.643   0.226   4.190  0.5706 -1.9688 -1.8750
 2123SOL     OW18001   0.299   0.075  11.365  0.1787  0.3738 -0.0515
 2123SOL    HW118002   0.232   0.090  11.431 -1.2237  0.0945 -1.4037
 2123SOL    HW218003   0.265   0.147  11.313  0.7847  0.0047 -0.9724
 2124SOL     OW18004   3.863   2.760   7.883 -0.5029  0.2241  0.3091
 2124SOL    HW118005   3.830   2.848   7.898  1.1293  0.1108  4.4402
 2124SOL    HW218006   3.781   2.741   7.836  0.5734  1.1149 -1.9343
 2125SOL     OW18007   1.882   0.016  14.338 -0.0990  0.1304  0.7026
 2125SOL    HW118008   1.940   4.682  14.312 -0.1993 -0.1628  1.2818
 2125SOL    HW218009   1.940   0.089  14.361  3.5356 -2.2811 -0.8356
 2126SOL     OW18010   0.495   1.873  15.271  0.1341  0.0991  0.2770
 2126SOL    HW118011   0.572   1.841  15.224  0.6268  2.5308 -0.5616
 2126SOL    HW218012   0.430   1.864  15.200  2.4713 -1.4675 -1.6721
 2127SOL     OW18013   3.472   2.692   6.339 -0.1892  0.0996  0.3879
 2127SOL    HW118014   3.388   2.693   6.294  0.7265  1.4410 -1.2911
 2127SOL    HW218015   3.450   2.745   6.416  1.7072  1.8382 -0.2382
 2128SOL     OW18016   2.513   1.493   8.500 -0.1601  0.1447 -0.1069
 2128SOL    HW118017   2.492   1.502   8.407 -1.2917  0.7374  0.2057
 2128SOL    HW218018   2.519   1.397   8.509  0.6720  0.2948  0.9742
 2129SOL     OW18019   3.350   2.796   2.663 -0.0575 -0.7027 -0.4565
 2129SOL    HW118020   3.413   2.792   2.591  1.5494  0.2220  0.8975
 2129SOL    HW218021   3.285   2.740   2.621  0.6009 -1.6717 -0.1864
 2130SOL     OW18022   1.145   4.591   6.057  0.4657  0.3561  0.2031
 2130SOL    HW118023   1.098   4.622   5.980 -0.8039  0.5299  1.0556
 2130SOL    HW218024   1.199   4.670   6.066  2.0201 -0.9351  2.4907
 2131SOL     OW18025   0.568   1.421   5.274  0.1054  0.1573 -0.0883
 2131SOL    HW118026   0.602   1.372   5.199  0.0890  0.7924 -0.5116
 2131SOL    HW218027   0.612   1.506   5.263 -0.8599  0.9232  1.9857
 2132SOL     OW18028   3.999   1.320  12.077 -0.1041 -0.6632  0.2934
 2132SOL    HW118029   4.039   1.242  12.038 -1.0742 -0.4441 -1.1024
 2132SOL    HW218030   3.909   1.293  12.062  0.2245 -0.1668 -2.5811
 2133SOL     OW18031   2.569   0.940   7.987  0.2282  0.3045 -0.3041
 2133SOL    HW118032   2.605   0.858   7.952  0.4301  0.1403  0.2930
 2133SOL    HW218033   2.504   0.906   8.048 -1.6412  1.3636 -1.7137
 2134SOL     OW18034   4.177   0.520   4.882 -0.3532 -0.0171 -0.2862
 2134SOL    HW118035   4.206   0.594   4.828 -0.5616 -1.2316 -2.0476
 2134SOL    HW218036   4.188   0.554   4.971  0.7461  0.4007 -0.5830
 2135SOL     OW18037   0.022   2.216   1.560  0.2688 -0.0295  0.0276
 2135SOL    HW118038   0.017   2.223   1.465 -1.5170  0.5692  0.1622
 2135SOL    HW218039   4.678   2.168   1.573 -0.1806  0.9710  0.9600
 2136SOL     OW18040   1.563   0.891  10.844  0.1504 -0.1284 -0.5329
 2136SOL    HW118041   1.590   0.967  10.895 -0.3771  1.8673 -3.2450
 2136SOL    HW218042   1.468   0.894  10.854  0.0397 -1.9827 -0.9117
 2137SOL     OW18043   1.071   3.549  10.601 -0.1068  0.4601 -0.1919
 2137SOL    HW118044   1.002   3.483  10.606  0.5642 -0.2038  0.3854
 2137SOL    HW218045   1.146   3.502  10.639  0.3202 -0.0488 -1.6706
 2138SOL     OW18046   3.313   3.747  13.250 -0.0852  0.4786  0.0132
 2138SOL    HW118047   3.389   3.766  13.304 -0.0087 -1.3352  0.5392
 2138SOL    HW218048   3.340   3.767  13.160  1.7630  2.1050  0.9435
 2139SOL     OW18049   0.817   2.864   9.189 -0.0071 -0.2837  0.3876
 2139SOL    HW118050   0.889   2.871   9.126  1.5672  1.1519  2.3504
 2139SOL    HW218051   0.834   2.780   9.231  0.6959 -0.4617 -0.2591
 2140SOL     OW18052   1.626   0.277   1.393 -0.3034 -0.0714  0.4291
 2140SOL    HW118053   1.579   0.341   1.446  1.8065  0.3941  1.7127
 2140SOL    HW218054   1.671   0.340   1.337 -0.4237  0.6906  1.1990
 2141SOL     OW18055   1.864   1.737   2.046 -0.0037 -0.6340 -0.4740
 2141SOL    HW118056   1.882   1.806   1.982  1.3102 -0.0193  0.5602
 2141SOL    HW218057   1.807   1.678   1.996 -0.6031  1.7516 -2.6064
 2142SOL     OW18058   0.053   2.058  11.674  0.0181 -0.2017  0.0110
 2142SOL    HW118059   0.116   2.038  11.743  0.8496  3.1804  0.2397
 2142SOL    HW218060   0.061   1.997  11.600  0.8244 -0.9548  0.7170
 2143SOL     OW18061   2.951   0.961   0.007  0.4483  0.0529  0.6258
 2143SOL    HW118062   2.945   0.995   0.097 -0.2123 -0.8471  0.9218
 2143SOL    HW218063   2.962   1.050  17.721 -0.3800  0.6863  1.9851
 2144SOL     OW18064   0.657   1.011   8.251 -0.5240 -0.5882 -0.1706
 2144SOL    HW118065   0.605   1.026   8.330  1.5668  0.0527  1.0906
 2144SOL    HW218066   0.590   1.027   8.184  1.2685  0.3945 -1.7061
 2145SOL     OW18067   2.664   2.282  14.992  0.0618  0.3314  0.4728
 2145SOL    HW118068   2.644   2.362  14.944 -2.1355 -0.8240 -0.5389
 2145SOL    HW218069   2.641   2.305  15.082 -0.7274  0.3658  0.2651
 2146SOL     OW18070   3.388   2.675   3.417  0.2359 -0.0396  0.2407
 2146SOL    HW118071   3.483   2.673   3.421  0.2344 -0.4607  0.0469
 2146SOL    HW218072   3.367   2.729   3.494  0.0786  0.0955  0.1045
 2147SOL     OW18073   3.823   2.746   8.574  0.3166  0.0062 -0.1780
 2147SOL    HW118074   3.918   2.746   8.560  0.1352 -0.0522 -1.4291
 2147SOL    HW218075   3.796   2.655   8.562 -0.5691  0.2987 -0.3804
 2148SOL     OW18076   0.145   0.177   2.934  0.3434  0.2193  0.6038
 2148SOL    HW118077   0.136   0.163   2.840  0.1093  0.8477  0.5357
 2148SOL    HW218078   0.087   0.104   2.953 -1.8054  1.4789 -1.1210
 2149SOL     OW18079   1.656   2.168   2.799  0.1407 -1.0612  0.0162
 2149SOL    HW118080   1.587   2.173   2.732  0.7428  0.8451 -0.4439
 2149SOL    HW218081   1.680   2.075   2.798  1.2229 -0.8006  1.9506
 2150SOL     OW18082   2.530   0.113   8.123  0.7555  0.5093  0.1822
 2150SOL    HW118083   2.572   0.038   8.079 -0.1610  1.4811 -2.3303
 2150SOL    HW218084   2.571   0.103   8.209  0.3328 -2.8030  0.0063
 2151SOL     OW18085   0.211   1.825   4.442 -0.7775  0.5976  0.1614
 2151SOL    HW118086   0.296   1.857   4.410  0.5619 -0.8995  2.2578
 2151SOL    HW218087   0.231   1.817   4.535  0.1724 -3.0609 -0.3783
 2152SOL     OW18088   0.829   1.503   0.190 -0.3671 -0.2031  0.6037
 2152SOL    HW118089   0.882   1.522   0.112  0.1090  0.0088  0.9838
 2152SOL    HW218090   0.881   1.549   0.255  1.0815  0.1201 -0.7595
 2153SOL     OW18091   0.981   4.671   3.137 -0.4348  0.0524  0.6230
 2153SOL    HW118092   0.982   0.019   3.181 -0.0208  0.6823 -0.6098
 2153SOL    HW218093   0.955   4.706   3.052 -2.2517 -0.1407  1.0894
 2154SOL     OW18094   4.539   2.371   3.505  0.4067  0.7016  0.2787
 2154SOL    HW118095   4.477   2.373   3.577 -2.2221 -0.5650 -1.9613
 2154SOL    HW218096   4.527   2.457   3.464 -1.9274 -1.0936 -2.7960
 2155SOL     OW18097   1.209   2.951  16.687  0.3469  0.2287  0.6523
 2155SOL    HW118098   1.262   3.029  16.698 -0.2035  1.1706 -3.4578
 2155SOL    HW218099   1.129   2.995  16.660  0.1763  0.6610  1.8836
 2156SOL     OW18100   1.743   1.920   5.014  0.8069  0.0357  0.1978
 2156SOL    HW118101   1.653   1.937   4.987  1.4686  0.0206 -2.0078
 2156SOL    HW218102   1.771   2.008   5.038  1.0021 -0.5464  2.1255
 2157SOL     OW18103   2.880   2.972  16.183 -0.2459 -0.1216 -0.0151
 2157SOL    HW118104   2.859   3.023  16.262 -0.2862 -3.2036  1.9632
 2157SOL    HW218105   2.906   3.036  16.117  0.6027 -0.0212  0.4146
 2158SOL     OW18106   0.865   3.202   9.685  0.1689 -0.0966 -0.0810
 2158SOL    HW118107   0.940   3.174   9.737  0.9423  2.1673 -0.0187
 2158SOL    HW218108   0.887   3.171   9.596 -1.4795  1.0733 -0.8986
 2159SOL     OW18109   1.166   2.007  12.691 -0.0708 -0.6027 -0.2585
 2159SOL    HW118110   1.144   2.087  12.644  1.4897  0.5570  0.9840
 2159SOL    HW218111   1.228   2.046  12.753 -0.0330  0.3984 -0.9277
 2160SOL     OW18112   4.735   2.276   4.504 -0.0045  0.5977 -0.1426
 2160SOL    HW118113   0.088   2.307   4.509 -0.2012  0.9796  1.1238
 2160SOL    HW218114   4.731   2.253   4.597 -1.2255 -0.2573 -0.4045
 2161SOL     OW18115   3.074   2.542  17.690 -0.1631 -0.3930 -0.0789
 2161SOL    HW118116   3.156   2.592  17.683 -1.3439  1.7655  1.4379
 2161SOL    HW218117   3.097   2.450  17.679  2.0008  0.2027 -0.6428
 2162SOL     OW18118   1.546   1.587  17.104  0.2894 -0.6774 -0.0352
 2162SOL    HW118119   1.459   1.617  17.079  0.6335  0.7161  0.4356
 2162SOL    HW218120   1.582   1.574  17.016 -0.9323  1.9626 -0.9375
 2163SOL     OW18121   4.101   3.593  10.297 -0.3325 -0.2620 -0.1262
 2163SOL    HW118122   4.071   3.564  10.211  1.4243 -0.9161 -0.5359
 2163SOL    HW218123   4.195   3.605  10.284 -0.3322  0.7431  0.8720
 2164SOL     OW18124   4.073   0.077  10.378 -0.1872 -0.0165  0.3313
 2164SOL    HW118125   4.106   0.086  10.467  1.7557  0.6280 -0.4596
 2164SOL    HW218126   4.156   0.064  10.332 -0.4721  2.0055 -0.7303
 2165SOL     OW18127   4.078   3.936   1.771  0.0095 -0.0804 -0.0104
 2165SOL    HW118128   3.996   3.893   1.798 -0.8826  3.0072  2.3444
 2165SOL    HW218129   4.132   3.871   1.815  2.0741  1.8029  0.2493
 2166SOL     OW18130   0.577   1.527   3.068 -0.0078  0.0383 -0.0143
 2166SOL    HW118131   0.509   1.592   3.083  0.3612  0.3503  0.3146
 2166SOL    HW218132   0.619   1.525   3.154  0.6488 -0.8799 -0.3542
 2167SOL     OW18133   4.186   1.280   3.858  0.0887  0.1702  0.3893
 2167SOL    HW118134   4.126   1.207   3.842 -0.3442  0.0730  2.3946
 2167SOL    HW218135   4.131   1.357   3.846  2.6447  1.2363 -4.1557
 2168SOL     OW18136   3.332   2.683   8.433  0.2458 -0.2575 -0.1691
 2168SOL    HW118137   3.320   2.620   8.503  0.4710 -0.6095 -0.4441
 2168SOL    HW218138   3.408   2.655   8.382  1.4364  0.5016  1.1895
 2169SOL     OW18139   2.736   1.152   4.826  0.0702 -0.1750  0.1847
 2169SOL    HW118140   2.688   1.235   4.824  3.0853  1.5452 -1.1659
 2169SOL    HW218141   2.817   1.174   4.780 -1.1886  0.2921 -1.8526
 2170SOL     OW18142   2.037   0.961  17.112  0.0470  0.0481 -0.3692
 2170SOL    HW118143   2.097   0.943  17.185  2.3404  0.2598 -2.1804
 2170SOL    HW218144   2.051   1.055  17.106 -0.1466  0.1837  1.2721
 2171SOL     OW18145   3.304   2.645  15.570 -0.4338 -0.1676  0.2614
 2171SOL    HW118146   3.385   2.665  15.523 -1.9143  1.3808 -1.6598
 2171SOL    HW218147   3.249   2.724  15.568 -0.8642 -0.4851 -0.4262
 2172SOL     OW18148   4.469   3.445   5.953  0.8270  0.5257 -0.0002
 2172SOL    HW118149   4.384   3.476   5.986  0.0736 -0.9378 -0.5839
 2172SOL    HW218150   4.513   3.530   5.955 -1.2545  1.6425 -0.8365
 2173SOL     OW18151   4.461   3.489   2.344 -0.3953  0.3081 -0.0741
 2173SOL    HW118152   4.372   3.492   2.310  0.3500  2.2392 -1.8706
 2173SOL    HW218153   4.484   3.582   2.345 -1.0122  0.4641 -1.7577
 2174SOL     OW18154   3.895   0.834  11.273  0.3614  0.1939 -0.0961
 2174SOL    HW118155   3.946   0.857  11.196  0.9438 -2.6294 -0.5631
 2174SOL    HW218156   3.832   0.906  11.268  1.6188  1.4008  1.3126
 2175SOL     OW18157   3.245   4.115   2.191  0.7478 -0.0166  0.0638
 2175SOL    HW118158   3.221   4.035   2.143  1.4679 -0.6839  0.8159
 2175SOL    HW218159   3.250   4.183   2.124 -0.2662 -0.4426 -0.4580
 2176SOL     OW18160   3.848   0.018  12.313  0.3652 -0.0816  0.4036
 2176SOL    HW118161   3.837   4.728  12.222 -2.6028  2.8551 -0.1032
 2176SOL    HW218162   3.852   0.113  12.304 -0.0622 -0.2961 -2.2010
 2177SOL     OW18163   1.360   4.118   2.485  0.3166  0.0888  0.2844
 2177SOL    HW118164   1.330   4.174   2.413 -1.0257  0.9343  1.5065
 2177SOL    HW218165   1.296   4.127   2.555  0.5672  2.5479  0.1874
 2178SOL     OW18166   3.429   0.876   1.734  0.0525 -0.3769 -0.1489
 2178SOL    HW118167   3.512   0.886   1.687  0.6228 -0.7873  0.7631
 2178SOL    HW218168   3.372   0.834   1.669  0.4658 -0.5742 -0.3904
 2179SOL     OW18169   1.423   3.783   5.191 -0.0606  0.0747 -0.4682
 2179SOL    HW118170   1.385   3.756   5.274 -2.2165  1.1880 -1.0942
 2179SOL    HW218171   1.439   3.876   5.204 -1.1788  0.3350 -0.8806
 2180SOL     OW18172   3.738   4.222   7.766 -0.2827 -0.5379  0.2488
 2180SOL    HW118173   3.723   4.134   7.731  2.1721  0.1430 -2.4753
 2180SOL    HW218174   3.772   4.268   7.690 -0.9610  0.7195  0.7108
 2181SOL     OW18175   1.535   2.363   3.145 -0.4659 -0.0892 -0.0406
 2181SOL    HW118176   1.461   2.377   3.086 -0.7329  0.2679  0.3838
 2181SOL    HW218177   1.607   2.378   3.083 -0.1507  0.4498  0.4557
 2182SOL     OW18178   1.561   1.417   1.936  0.1887  0.1203  0.1953
 2182SOL    HW118179   1.588   1.509   1.943  2.3158 -0.4227 -0.7925
 2182SOL    HW218180   1.638   1.377   1.895 -0.1296  0.4354 -0.7147
 2183SOL     OW18181   3.604   3.931   1.842 -0.4420 -0.6149  0.2578
 2183SOL    HW118182   3.524   3.886   1.812  0.0636 -0.1684 -1.7878
 2183SOL    HW218183   3.620   3.977   1.759 -1.1988 -0.0081  0.4512
 2184SOL     OW18184   2.198   2.114   5.029 -0.4877  0.0615 -0.4896
 2184SOL    HW118185   2.109   2.147   5.042 -0.4048 -0.0776  0.4660
 2184SOL    HW218186   2.240   2.200   5.037 -0.2711 -0.1859  1.0906
 2185SOL     OW18187   4.237   0.353   8.883  0.2527  0.1239 -0.2422
 2185SOL    HW118188   4.149   0.389   8.888  0.8054  1.2818  1.1734
 2185SOL    HW218189   4.277   0.392   8.805 -0.9184 -0.8960 -1.3501
 2186SOL     OW18190   3.365   1.334   8.922 -0.3154 -0.4638  0.4104
 2186SOL    HW118191   3.337   1.377   8.841 -0.1967 -0.9279  0.1260
 2186SOL    HW218192   3.344   1.245   8.895 -1.8968  0.2622 -0.7857
 2187SOL     OW18193   4.686   1.714   7.457 -0.3863  0.1088 -0.4671
 2187SOL    HW118194   4.622   1.699   7.387 -0.3435  0.4507 -0.5777
 2187SOL    HW218195   4.736   1.635   7.433 -0.9431  0.6823 -3.5376
 2188SOL     OW18196   2.672   3.334  16.044  0.1750 -0.2288 -0.0015
 2188SOL    HW118197   2.748   3.284  16.071 -2.0542 -3.3001  0.5449
 2188SOL    HW218198   2.711   3.394  15.980 -0.1334 -0.2602 -0.2210
 2189SOL     OW18199   3.465   3.957   5.018 -0.3404  0.2236 -0.1854
 2189SOL    HW118200   3.458   3.969   5.112 -1.4657  0.5139 -0.3075
 2189SOL    HW218201   3.406   4.024   4.982 -2.9511 -2.4675 -0.9012
 2190SOL     OW18202   3.224   4.412   1.722 -0.0372  0.9149 -0.2865
 2190SOL    HW118203   3.154   4.349   1.741 -0.1003  1.3470  0.9412
 2190SOL    HW218204   3.216   4.428   1.628  1.1503  1.9752 -0.1953
 2191SOL     OW18205   2.259   1.283   6.092 -0.0404  0.2824  0.2600
 2191SOL    HW118206   2.237   1.376   6.101  2.0505  0.9298 -1.3707
 2191SOL    HW218207   2.346   1.289   6.051 -1.6194  0.0098 -3.1478
 2192SOL     OW18208   1.740   4.608   1.481 -0.4262  0.0453  0.7908
 2192SOL    HW118209   1.646   4.622   1.491 -0.2565  1.7089  0.0644
 2192SOL    HW218210   1.744   4.513   1.466  1.8638  0.5923 -2.0954
 2193SOL     OW18211   3.077   0.287   6.025  0.5380  0.3819  0.0760
 2193SOL    HW118212   3.055   0.294   6.118 -0.5601 -1.0232 -0.0801
 2193SOL    HW218213   3.035   0.203   6.004  2.8771 -1.4722  2.7717
 2194SOL     OW18214   0.031   2.888   4.636  1.3366 -0.1006 -0.4713
 2194SOL    HW118215   0.091   2.908   4.707 -2.1598 -0.1914  2.5449
 2194SOL    HW218216   0.060   2.951   4.570 -2.7038  0.9419 -1.2459
 2195SOL     OW18217   4.691   3.906   2.464 -0.5272 -0.1920  0.3345
 2195SOL    HW118218   4.617   3.951   2.505 -1.1187 -2.0993  1.3333
 2195SOL    HW218219   4.645   3.856   2.397  0.3016 -1.5523  0.7887
 2196SOL     OW18220   0.067   3.106   4.462  0.2735 -0.5645 -0.2345
 2196SOL    HW118221   0.065   3.126   4.369  3.2847 -1.2600 -0.4369
 2196SOL    HW218222   0.155   3.131   4.491 -0.1337  1.3753 -0.6562
 2197SOL     OW18223   3.925   3.912   9.250 -0.5173  0.1239  0.0493
 2197SOL    HW118224   3.845   3.893   9.300  0.0938 -2.5249  0.0051
 2197SOL    HW218225   3.967   3.987   9.293  0.1695  0.0774 -0.5474
 2198SOL     OW18226   0.152   3.526  14.999 -0.4618  0.3316 -0.1013
 2198SOL    HW118227   0.203   3.605  15.017 -1.7939  1.6394 -2.0231
 2198SOL    HW218228   0.061   3.545  15.021 -0.6071  0.9453 -1.2671
 2199SOL     OW18229   2.116   1.069   5.976  0.2367  0.0558  0.2107
 2199SOL    HW118230   2.192   1.127   5.982 -0.1640  0.7566 -1.6176
 2199SOL    HW218231   2.142   1.005   6.042  0.6856  0.4076  0.3761
 2200SOL     OW18232   3.628   1.374   2.177 -0.0752 -0.2495 -0.4400
 2200SOL    HW118233   3.612   1.337   2.091 -0.8645 -0.1508 -0.3334
 2200SOL    HW218234   3.718   1.406   2.176  0.1942 -0.9437  1.0022
 2201SOL     OW18235   2.817   3.069   5.226 -0.2546 -0.3955  0.0277
 2201SOL    HW118236   2.828   2.983   5.267 -0.2697 -0.8929 -1.0006
 2201SOL    HW218237   2.909   3.094   5.221 -0.4225  0.1153 -0.5045
 2202SOL     OW18238   0.976   2.098  16.598 -0.4021  0.3637  0.0874
 2202SOL    HW118239   0.958   2.081  16.506  0.6851 -2.5826  0.4319
 2202SOL    HW218240   0.942   2.021  16.642  2.2838  0.6639  2.7332
 2203SOL     OW18241   1.887   2.437   0.833 -0.5074 -0.0233  0.2974
 2203SOL    HW118242   1.896   2.410   0.742  1.3837 -0.5979  0.6655
 2203SOL    HW218243   1.888   2.532   0.821  0.3158  0.1401  1.6356
 2204SOL     OW18244   2.118   3.459   8.416  0.0415  0.3942 -0.8827
 2204SOL    HW118245   2.182   3.526   8.441  0.7795 -0.1263 -1.3562
 2204SOL    HW218246   2.038   3.501   8.448  0.2367  0.5295 -0.5710
 2205SOL     OW18247   3.808   3.371   4.943 -0.5306 -0.6014  0.3099
 2205SOL    HW118248   3.872   3.395   4.876  0.4449 -0.4692  1.3064
 2205SOL    HW218249   3.743   3.321   4.892 -1.6447  0.7063  0.4468
 2206SOL     OW18250   1.352   0.956   5.106 -0.1317 -0.1662  0.0942
 2206SOL    HW118251   1.346   0.958   5.011 -0.3434  1.1028  0.1258
 2206SOL    HW218252   1.326   1.045   5.130 -0.5941  0.2676 -2.0766
 2207SOL     OW18253   2.533   2.431   7.929  0.3749  0.2610  0.1666
 2207SOL    HW118254   2.462   2.448   7.991 -0.5633 -3.4135  0.0650
 2207SOL    HW218255   2.588   2.508   7.947  1.0046  0.1199 -1.1360
 2208SOL     OW18256   0.234   2.802   7.950 -0.2323 -0.0204  0.6337
 2208SOL    HW118257   0.139   2.813   7.944 -0.5069 -2.2985  0.9357
 2208SOL    HW218258   0.245   2.707   7.960  1.7347  0.2737  1.3415
 2209SOL     OW18259   2.068   2.246   4.750 -0.3446  0.1614 -0.3076
 2209SOL    HW118260   2.051   2.247   4.844  0.3925 -1.7373 -0.1484
 2209SOL    HW218261   2.000   2.309   4.726  0.7770  2.0407  1.5179
 2210SOL     OW18262   2.667   0.800  17.175 -0.3079  0.3779  0.3036
 2210SOL    HW118263   2.684   0.874  17.233 -0.1936  0.9908 -0.5158
 2210SOL    HW218264   2.573   0.809  17.155 -0.8761 -0.2008  2.7573
 2211SOL     OW18265   4.139   3.296  12.864  0.3515  0.3336 -0.3037
 2211SOL    HW118266   4.079   3.269  12.794  0.8768  0.4637 -0.8077
 2211SOL    HW218267   4.083   3.283  12.940 -0.4838  0.6796 -0.8691
 2212SOL     OW18268   0.116   3.139   9.106  0.0771  0.1531 -0.7127
 2212SOL    HW118269   0.131   3.230   9.133  2.5268 -0.0355 -1.4356
 2212SOL    HW218270   0.078   3.146   9.018 -1.2303  2.8915  0.0525
 2213SOL     OW18271   3.409   4.594   6.955  0.7123  0.3842  0.5305
 2213SOL    HW118272   3.470   4.585   6.882 -0.2789 -0.5953 -0.1891
 2213SOL    HW218273   3.463   4.543   7.014  1.6231 -0.3624 -0.9418
 2214SOL     OW18274   2.039   2.986   0.440 -0.8387 -0.4402  0.5013
 2214SOL    HW118275   2.056   2.954   0.528  0.4259  1.2885  0.8768
 2214SOL    HW218276   2.122   3.030   0.421  0.1263 -2.5938 -0.3110
 2215SOL     OW18277   1.210   4.063   5.101  0.0939  0.3245  0.3507
 2215SOL    HW118278   1.305   4.053   5.096  0.0993  2.0220 -2.9220
 2215SOL    HW218279   1.186   3.985   5.052  0.4925 -0.2754  1.1015
 2216SOL     OW18280   0.430   0.532   6.922 -0.3287 -0.1332  0.0397
 2216SOL    HW118281   0.509   0.494   6.883  1.1061  1.0914  1.7646
 2216SOL    HW218282   0.480   0.568   6.994  0.1600  0.5066 -0.6189
 2217SOL     OW18283   1.366   0.155  10.879 -0.0283 -0.0518  0.1713
 2217SOL    HW118284   1.410   0.191  10.956  0.9057  0.5112 -0.6295
 2217SOL    HW218285   1.327   0.077  10.919 -0.8323  0.7644  0.9809
 2218SOL     OW18286   2.201   0.362   7.423  0.7027  0.0506  0.0564
 2218SOL    HW118287   2.216   0.388   7.514  0.8076 -4.6110  1.3865
 2218SOL    HW218288   2.260   0.287   7.414 -0.3886 -0.7846 -0.0464
 2219SOL     OW18289   0.026   4.240   8.323  0.1489 -1.0464  0.2346
 2219SOL    HW118290   0.029   4.180   8.249 -0.1632 -2.9462  1.7589
 2219SOL    HW218291   4.723   4.318   8.285 -1.3390 -1.4838  0.9016
 2220SOL     OW18292   2.689   4.436   9.691 -0.7995  0.2807 -0.3888
 2220SOL    HW118293   2.653   4.416   9.778 -1.3715  2.1859 -0.1734
 2220SOL    HW218294   2.720   4.349   9.665  0.8938  0.8973 -0.4247
 2221SOL     OW18295   0.905   0.011   9.580  0.2262 -0.2869  0.1067
 2221SOL    HW118296   0.904   4.655   9.599  0.4727 -0.0120  1.4334
 2221SOL    HW218297   0.811   0.028   9.574  0.3422 -0.0891 -1.3349
 2222SOL     OW18298   1.599   2.451  12.705 -0.4011  0.0613  0.5357
 2222SOL    HW118299   1.649   2.369  12.704  0.4161  0.5655  0.1231
 2222SOL    HW218300   1.541   2.436  12.631 -0.5066 -0.2352  0.6782
 2223SOL     OW18301   1.292   1.573   6.022  0.1401  0.6986  0.2959
 2223SOL    HW118302   1.286   1.654   5.972  1.7273 -1.0949 -2.7661
 2223SOL    HW218303   1.351   1.586   6.097 -0.9033 -2.2832  1.6292
 2224SOL     OW18304   1.262   1.397   3.336 -0.8715  0.1864  0.2546
 2224SOL    HW118305   1.340   1.348   3.307 -0.4629 -0.8651  3.1305
 2224SOL    HW218306   1.207   1.319   3.330 -0.2141 -0.1993 -0.9260
 2225SOL     OW18307   1.116   1.270   9.638 -0.4927 -0.0076 -0.5345
 2225SOL    HW118308   1.104   1.301   9.548  0.8307 -0.7657 -0.9924
 2225SOL    HW218309   1.171   1.337   9.679 -2.1026  0.8264  0.2285
 2226SOL     OW18310   0.559   2.468   4.269  0.0191 -0.8929  0.1765
 2226SOL    HW118311   0.484   2.524   4.293 -1.3257 -2.8839  0.5750
 2226SOL    HW218312   0.549   2.397   4.331  1.5681 -0.7152  0.6187
 2227SOL     OW18313   1.327   3.617   7.224  0.3041 -0.2704 -0.6459
 2227SOL    HW118314   1.277   3.693   7.197  0.9657  1.1989  2.2980
 2227SOL    HW218315   1.333   3.560   7.147  0.7852  0.5967 -1.2417
 2228SOL     OW18316   1.756   2.602  10.594  0.2114  0.1108 -0.0302
 2228SOL    HW118317   1.726   2.645  10.674 -0.5247  0.2932 -0.4098
 2228SOL    HW218318   1.684   2.546  10.565 -0.4002  1.1359 -0.4753
 2229SOL     OW18319   1.931   1.487  11.233  0.2625  0.0264 -0.0319
 2229SOL    HW118320   1.964   1.493  11.143 -0.5108  1.9537 -0.1930
 2229SOL    HW218321   1.982   1.559  11.270 -0.1449  0.1107  0.3642
 2230SOL     OW18322   1.810   2.574   7.560 -0.2712  0.1477  0.4341
 2230SOL    HW118323   1.769   2.519   7.626  1.2161 -0.7235  0.6256
 2230SOL    HW218324   1.885   2.523   7.529 -2.8416 -2.1537 -2.0403
 2231SOL     OW18325   0.442   3.828  13.547 -0.5956  0.5040  0.4659
 2231SOL    HW118326   0.470   3.874  13.468 -1.1858 -3.5580 -2.1432
 2231SOL    HW218327   0.397   3.896  13.597  0.7862  1.2177  0.7480
 2232SOL     OW18328   2.654   4.616  11.792 -0.2727  0.4955  0.2200
 2232SOL    HW118329   2.685   4.558  11.862 -1.6645 -1.1839 -0.5891
 2232SOL    HW218330   2.718   4.607  11.722  0.1131 -0.6216  0.7150
 2233SOL     OW18331   4.069   4.010   7.581 -0.0932 -0.0798  0.2470
 2233SOL    HW118332   4.132   3.941   7.602 -0.5769 -0.6066 -0.0284
 2233SOL    HW218333   3.987   3.961   7.588 -0.3830  0.2380 -0.8875
 2234SOL     OW18334   4.335   3.256   7.513 -0.0591  0.1216  0.3800
 2234SOL    HW118335   4.258   3.289   7.466  0.1631  1.5702  1.0095
 2234SOL    HW218336   4.340   3.161   7.502  0.7954  0.4196 -1.8335
 2235SOL     OW18337   4.403   3.782  12.276  0.0835 -0.2225  0.0635
 2235SOL    HW118338   4.381   3.847  12.343 -0.7479  1.0299 -1.4372
 2235SOL    HW218339   4.344   3.710  12.299  0.8739 -0.6440  0.7710
 2236SOL     OW18340   4.324   0.431   7.168 -0.2538  0.1601 -0.5825
 2236SOL    HW118341   4.334   0.525   7.155 -3.4204  0.5258 -0.5386
 2236SOL    HW218342   4.303   0.401   7.079  1.5955 -1.7229 -0.3796
 2237SOL     OW18343   2.872   1.390  17.142  0.8030 -0.7382  0.5590
 2237SOL    HW118344   2.935   1.366  17.074  1.0511 -0.0752  0.5616
 2237SOL    HW218345   2.912   1.465  17.185  4.6255 -1.2413 -2.1307
 2238SOL     OW18346   3.585   2.084   2.527 -0.4186 -0.6127 -0.3907
 2238SOL    HW118347   3.507   2.108   2.577  0.9484  2.8689  0.0293
 2238SOL    HW218348   3.615   2.019   2.591 -2.5786  0.8377  2.1185
 2239SOL     OW18349   4.334   0.543   3.096 -0.0824 -1.0703  0.9604
 2239SOL    HW118350   4.388   0.499   3.160 -0.7905  0.1717  2.4094
 2239SOL    HW218351   4.408   0.599   3.070 -0.8063 -1.2199 -1.4817
 2240SOL     OW18352   1.093   3.614  10.362  0.3521 -0.1273 -0.3025
 2240SOL    HW118353   1.188   3.618  10.370  0.4078 -0.1367 -0.9418
 2240SOL    HW218354   1.079   3.600  10.456 -0.2466  2.8746  0.0812
 2241SOL     OW18355   0.580   2.442   9.053  0.6652  0.8952 -0.0337
 2241SOL    HW118356   0.603   2.479   9.138  0.1938 -0.5256  0.7058
 2241SOL    HW218357   0.492   2.479   9.047  1.0231  1.8157  0.3832
 2242SOL     OW18358   0.413   2.734   7.008  0.4458 -0.2303 -0.5063
 2242SOL    HW118359   0.338   2.706   7.060  1.5425 -0.2961  1.0475
 2242SOL    HW218360   0.443   2.813   7.053 -1.7003  1.6795 -2.4202
 2243SOL     OW18361   4.550   1.959  15.423 -0.2893 -0.3433  0.2213
 2243SOL    HW118362   4.462   1.996  15.434  0.3070  0.7965  1.1429
 2243SOL    HW218363   4.581   2.022  15.358  1.2795 -1.2226  0.1111
 2244SOL     OW18364   0.575   2.192   8.631  0.2608 -0.1889  0.4168
 2244SOL    HW118365   0.562   2.285   8.648  0.5910 -0.1633  0.5280
 2244SOL    HW218366   0.583   2.164   8.723  0.0329 -2.7954 -0.3534
 2245SOL     OW18367   3.081   2.398   6.216  0.5813  0.1550 -0.2764
 2245SOL    HW118368   3.009   2.342   6.245 -0.1914  2.1346  1.6891
 2245SOL    HW218369   3.047   2.485   6.239 -1.3021 -1.1417  1.7756
 2246SOL     OW18370   1.017   1.473   6.098  0.3513 -0.2598  0.1275
 2246SOL    HW118371   1.002   1.406   6.031 -1.2391  0.5614 -0.3413
 2246SOL    HW218372   1.098   1.516   6.072 -0.0224  1.1927  1.3785
 2247SOL     OW18373   3.156   2.330   3.276  0.5496  0.8720 -0.4618
 2247SOL    HW118374   3.245   2.356   3.302  0.0169  3.2490 -1.0307
 2247SOL    HW218375   3.144   2.361   3.187  0.4878  1.9820 -0.0701
 2248SOL     OW18376   4.063   4.236   1.712 -0.0938 -0.2485  0.4921
 2248SOL    HW118377   4.058   4.150   1.755 -1.1314 -0.5329 -0.2081
 2248SOL    HW218378   3.980   4.277   1.734  1.5359  1.6893  2.9882
 2249SOL     OW18379   3.822   4.104   8.469  0.3191 -0.4726  0.5052
 2249SOL    HW118380   3.872   4.148   8.538  0.6190  1.2544 -0.8103
 2249SOL    HW218381   3.818   4.165   8.396 -0.1432 -0.0897  0.8474
 2250SOL     OW18382   4.538   1.709  15.478 -0.0838 -0.4043  0.0588
 2250SOL    HW118383   4.542   1.799  15.443  0.4370  0.5069  2.4780
 2250SOL    HW218384   4.606   1.671  15.422 -2.4081 -2.0881 -1.6117
 2251SOL     OW18385   2.374   2.656   5.677  0.0924  0.1053  0.0798
 2251SOL    HW118386   2.441   2.720   5.701  0.1687  0.0234  0.0869
 2251SOL    HW218387   2.318   2.705   5.617 -1.4409 -1.1855  0.4704
 2252SOL     OW18388   1.283   0.106   9.023 -0.3250  0.0945  0.1810
 2252SOL    HW118389   1.230   0.142   8.952  2.8962 -0.5784 -2.5525
 2252SOL    HW218390   1.265   0.013   9.013 -2.0349  0.3460  0.9279
 2253SOL     OW18391   1.842   0.565   5.822 -0.4802 -0.3151  0.5797
 2253SOL    HW118392   1.905   0.577   5.893 -2.0039 -2.1635  2.2658
 2253SOL    HW218393   1.767   0.617   5.851 -0.9783 -1.3521  1.1637
 2254SOL     OW18394   2.671   3.186   8.477  0.0807 -0.2423 -0.7183
 2254SOL    HW118395   2.607   3.247   8.514 -0.9883 -1.7466 -0.0903
 2254SOL    HW218396   2.600   3.126   8.454 -0.1514  0.5145 -1.9188
 2255SOL     OW18397   2.802   1.955   0.663 -0.2090 -0.2516 -0.0688
 2255SOL    HW118398   2.816   1.997   0.578 -1.4759  0.9160  0.3004
 2255SOL    HW218399   2.755   1.878   0.632 -0.4073  0.4073 -1.4126
 2256SOL     OW18400   2.510   3.893   8.904  0.0400  0.3423  0.0238
 2256SOL    HW118401   2.415   3.887   8.891 -0.3074  1.3227  2.2636
 2256SOL    HW218402   2.546   3.903   8.815 -1.8790  0.6333 -0.7229
 2257SOL     OW18403   0.985   4.251  14.680 -0.4151 -0.2636 -0.3550
 2257SOL    HW118404   1.036   4.242  14.760  0.7560 -1.9493 -1.2860
 2257SOL    HW218405   0.971   4.345  14.666  2.4898  0.4326  1.5454
 2258SOL     OW18406   1.097   1.488  17.467  0.3971  0.7481  0.4240
 2258SOL    HW118407   1.104   1.438  17.386  1.0979  2.3871 -0.5207
 2258SOL    HW218408   1.148   1.564  17.438 -0.6478  1.6379  0.8939
 2259SOL     OW18409   1.804   4.040   8.464 -0.3948  0.3116 -0.0321
 2259SOL    HW118410   1.772   3.951   8.479 -0.5621  0.1146 -1.4932
 2259SOL    HW218411   1.842   4.065   8.548 -1.4844  1.3691  0.1366
 2260SOL     OW18412   2.678   1.388   6.481 -0.8715  0.1147  0.2687
 2260SOL    HW118413   2.757   1.365   6.432  0.6380  2.6615  1.4734
 2260SOL    HW218414   2.710   1.350   6.563  0.4547  1.8454  0.5685
 2261SOL     OW18415   0.993   0.647   2.435 -0.2176  0.1273 -0.0471
 2261SOL    HW118416   0.950   0.612   2.356  0.2674 -0.4170 -0.0738
 2261SOL    HW218417   0.941   0.607   2.504 -1.9475 -0.5528 -1.7263
 2262SOL     OW18418   1.224   2.724   7.299  0.1517 -0.3635 -0.5535
 2262SOL    HW118419   1.200   2.805   7.256  1.9633  0.0192 -0.8395
 2262SOL    HW218420   1.163   2.656   7.269 -0.3088  0.4187 -1.3514
 2263SOL     OW18421   1.934   2.804   0.257 -0.6204 -0.0152  0.1865
 2263SOL    HW118422   1.979   2.852   0.327  0.2541  0.2099 -0.5320
 2263SOL    HW218423   1.972   2.718   0.272 -0.8052 -0.2534 -0.6935
 2264SOL     OW18424   1.709   4.199   5.643  0.1449  0.2905  0.0526
 2264SOL    HW118425   1.701   4.239   5.556 -0.1928  0.0853 -0.0112
 2264SOL    HW218426   1.743   4.274   5.691 -0.3699 -0.1977  1.1747
 2265SOL     OW18427   2.437   1.272   2.834 -0.3268  0.3072  0.1579
 2265SOL    HW118428   2.395   1.190   2.809 -2.0309  1.6340 -1.3670
 2265SOL    HW218429   2.529   1.247   2.843  0.0271  0.9803 -1.4557
 2266SOL     OW18430   2.200   4.467   6.130  0.3307  0.4404  0.0321
 2266SOL    HW118431   2.129   4.498   6.187 -0.3035 -0.9510  0.0166
 2266SOL    HW218432   2.239   4.548   6.098 -0.5573  0.6065 -0.6246
 2267SOL     OW18433   1.448   1.664   1.486 -0.2759 -0.2507  0.2033
 2267SOL    HW118434   1.508   1.613   1.432 -1.8384  0.9852 -2.6561
 2267SOL    HW218435   1.363   1.640   1.450 -0.8364  1.3929  0.4381
 2268SOL     OW18436   2.599   3.475  12.434  0.0326  0.2212  0.4296
 2268SOL    HW118437   2.515   3.510  12.461  0.6900  0.3660  2.2375
 2268SOL    HW218438   2.574   3.396  12.385  0.0706  0.0942  0.6170
 2269SOL     OW18439   4.380   4.512   6.368  0.1068  0.2192 -0.1916
 2269SOL    HW118440   4.324   4.589   6.379  1.2292  0.9286  0.5106
 2269SOL    HW218441   4.446   4.554   6.313  1.8531  1.8455  3.1524
 2270SOL     OW18442   2.932   2.712  16.178  0.3946  0.0981 -0.1077
 2270SOL    HW118443   2.890   2.798  16.169  1.0304  0.3822 -0.3771
 2270SOL    HW218444   2.989   2.730  16.253 -0.0378  0.8188  0.0559
 2271SOL     OW18445   2.578   1.971   7.560 -0.0298 -0.1247  0.0801
 2271SOL    HW118446   2.561   2.062   7.584 -1.5765  0.2217 -2.3845
 2271SOL    HW218447   2.498   1.932   7.597 -0.5847  0.6931 -0.2481
 2272SOL     OW18448   4.476   0.620  16.528  0.3676 -0.1427 -0.0267
 2272SOL    HW118449   4.396   0.619  16.477 -0.3398  0.4933  1.0659
 2272SOL    HW218450   4.531   0.570  16.468  2.1137 -0.6722  1.9813
 2273SOL     OW18451   0.951   1.415  17.010  0.0294  0.0442 -0.1166
 2273SOL    HW118452   0.957   1.374  16.924 -1.3824 -1.0368  0.2976
 2273SOL    HW218453   0.899   1.491  16.984 -0.0985 -0.2626 -0.7538
 2274SOL     OW18454   0.379   2.033  11.585 -0.4384 -0.2025 -0.1725
 2274SOL    HW118455   0.340   2.063  11.667 -1.8477 -0.7947 -0.6277
 2274SOL    HW218456   0.401   2.109  11.531  0.1608  0.3338  0.8217
 2275SOL     OW18457   1.370   4.633   6.544  0.7608  0.2946 -0.3307
 2275SOL    HW118458   1.351   4.541   6.564 -0.7252  1.0597  1.8335
 2275SOL    HW218459   1.332   4.655   6.459  0.8724 -0.8816 -0.6785
 2276SOL     OW18460   1.829   1.858   4.442  0.3343 -0.1090 -0.1881
 2276SOL    HW118461   1.800   1.778   4.398 -0.9825  1.4706 -2.1729
 2276SOL    HW218462   1.746   1.876   4.487  0.4894  0.2699 -0.0613
 2277SOL     OW18463   2.695   2.766   8.376 -0.1096 -0.0215 -0.0079
 2277SOL    HW118464   2.790   2.754   8.375  0.1259  1.8562  1.8411
 2277SOL    HW218465   2.671   2.799   8.462 -1.9021 -2.2890  0.3747
 2278SOL     OW18466   4.717   2.277   1.306 -0.4677 -0.2164  0.1033
 2278SOL    HW118467   4.668   2.234   1.236 -0.8673 -1.0079  0.8674
 2278SOL    HW218468   4.652   2.290   1.375  1.7290  0.7573  1.9499
 2279SOL     OW18469   4.093   1.992   2.091  0.1009  0.0507 -0.2372
 2279SOL    HW118470   4.039   2.023   2.018 -0.7938 -1.8063 -0.3579
 2279SOL    HW218471   4.172   2.007   2.040  0.6850 -1.0220  0.3587
 2280SOL     OW18472   4.730   3.176   3.892  0.3310 -0.4291  0.1346
 2280SOL    HW118473   0.028   3.126   3.818 -0.2947 -1.2406  0.3850
 2280SOL    HW218474   0.067   3.227   3.923  0.5208  0.2912 -1.5296
 2281SOL     OW18475   1.699   4.049  10.707 -0.1168  0.4806  0.2308
 2281SOL    HW118476   1.762   4.000  10.760 -0.2326 -2.4914 -2.3890
 2281SOL    HW218477   1.738   4.136  10.704 -1.1172  0.9600  0.9703
 2282SOL     OW18478   4.126   0.317   9.706  0.5824 -0.2572 -0.5831
 2282SOL    HW118479   4.091   0.392   9.753 -1.8128 -2.0221  0.4507
 2282SOL    HW218480   4.047   0.264   9.695  0.0263  0.4953 -0.2787
 2283SOL     OW18481   2.897   4.595   2.236 -0.0479 -0.5540 -0.2572
 2283SOL    HW118482   2.875   4.686   2.255 -0.2443 -1.2944  3.0644
 2283SOL    HW218483   2.852   4.583   2.152  3.3830 -1.6429 -1.9245
 2284SOL     OW18484   0.175   3.516  13.614 -0.2023  0.1765  0.4565
 2284SOL    HW118485   0.181   3.562  13.698 -0.7724  0.0314  0.5788
 2284SOL    HW218486   0.136   3.438  13.654 -1.8402  2.1909  2.8001
 2285SOL     OW18487   4.616   3.078  16.264  0.7039 -0.4320  0.3101
 2285SOL    HW118488   4.591   3.165  16.234 -0.4932  0.4170  3.7106
 2285SOL    HW218489   4.661   3.055  16.183 -0.2359 -0.2767 -0.2549
 2286SOL     OW18490   3.773   1.346  12.747  0.0923  0.4432  0.5131
 2286SOL    HW118491   3.833   1.369  12.676 -0.9014  0.5324 -0.2975
 2286SOL    HW218492   3.817   1.270  12.784  0.0093  0.5464  0.8268
 2287SOL     OW18493   1.505   3.982   7.357 -0.3660  0.3834  0.5335
 2287SOL    HW118494   1.513   4.073   7.382  0.8179  0.1746  0.9130
 2287SOL    HW218495   1.474   3.937   7.435  0.4036 -0.6202  0.2684
 2288SOL     OW18496   4.246   2.841   8.554 -0.5490  0.2930 -0.5027
 2288SOL    HW118497   4.267   2.935   8.556  3.6294 -0.6805  1.7658
 2288SOL    HW218498   4.305   2.811   8.485 -0.2255  0.5443 -0.3352
 2289SOL     OW18499   2.666   4.020  15.361  0.0429 -0.5156  0.2017
 2289SOL    HW118500   2.653   4.000  15.453 -1.8936 -0.8448 -0.1553
 2289SOL    HW218501   2.747   3.979  15.329 -0.1558 -2.2179  1.9334
 2290SOL     OW18502   0.984   0.566   8.550 -0.1812 -0.2445 -0.1401
 2290SOL    HW118503   0.960   0.658   8.536 -0.3812 -0.4292 -0.9597
 2290SOL    HW218504   0.937   0.551   8.633  1.1921 -0.4943  0.5853
 2291SOL     OW18505   2.020   1.136   2.881  0.6469 -0.0120  0.0376
 2291SOL    HW118506   2.085   1.206   2.882 -0.1724  0.7562 -0.1513
 2291SOL    HW218507   2.020   1.089   2.964 -0.1828 -2.2284 -1.2082
 2292SOL     OW18508   3.599   2.443   0.284 -0.1752 -1.0331 -0.0426
 2292SOL    HW118509   3.587   2.355   0.318 -1.5793 -1.6480 -2.1037
 2292SOL    HW218510   3.576   2.430   0.192  1.1864 -1.6814 -0.2953
 2293SOL     OW18511   0.603   3.913   0.155 -0.0974  0.2812  0.6228
 2293SOL    HW118512   0.566   3.953   0.076 -2.0547 -0.4202  1.2018
 2293SOL    HW218513   0.576   3.969   0.227  1.1008  0.7447  0.7194
 2294SOL     OW18514   1.591   2.827   6.376  0.2404  0.5217 -0.0151
 2294SOL    HW118515   1.657   2.885   6.340  0.6079 -0.1743 -0.4721
 2294SOL    HW218516   1.527   2.892   6.403  0.1128  1.5497 -2.8729
 2295SOL     OW18517   3.846   2.125   3.957 -0.3301 -0.0369  0.3131
 2295SOL    HW118518   3.751   2.115   3.963 -0.3754 -0.4475 -0.9672
 2295SOL    HW218519   3.855   2.193   3.890 -2.9736  0.2857  0.2715
 2296SOL     OW18520   4.097   0.480   0.492  0.7144  0.5996 -0.0851
 2296SOL    HW118521   4.055   0.545   0.435  1.7642  0.5123 -0.9586
 2296SOL    HW218522   4.143   0.423   0.430 -1.0948 -1.2952  0.3504
 2297SOL     OW18523   0.553   1.267   4.497 -0.1267  1.1512  0.1878
 2297SOL    HW118524   0.521   1.335   4.557 -0.6363  0.9755  0.1107
 2297SOL    HW218525   0.499   1.279   4.420 -0.0237 -1.9073 -0.3473
 2298SOL     OW18526   4.571   2.834   3.845 -0.4578 -0.1800 -0.0086
 2298SOL    HW118527   4.542   2.835   3.754  0.4177 -1.6413 -0.3053
 2298SOL    HW218528   4.562   2.926   3.872 -1.1356 -0.6691  1.4126
 2299SOL     OW18529   3.290   0.909  16.078  0.6384 -0.1717 -0.3641
 2299SOL    HW118530   3.300   0.822  16.038  2.2568  0.3219 -1.0304
 2299SOL    HW218531   3.227   0.895  16.149  0.7826  0.3129 -0.1440
 2300SOL     OW18532   4.406   2.618   4.334  0.5122  0.5393  0.0286
 2300SOL    HW118533   4.473   2.561   4.297 -0.1249  1.9513 -3.3448
 2300SOL    HW218534   4.408   2.690   4.270 -0.9219  0.3910 -0.1778
 2301SOL     OW18535   1.417   0.765   2.245  0.0814 -0.4568 -0.5599
 2301SOL    HW118536   1.380   0.716   2.318  2.1943  1.3073  1.6919
 2301SOL    HW218537   1.512   0.760   2.254  0.0155 -1.1576 -0.2557
 2302SOL     OW18538   1.151   1.021  17.742 -0.0363  0.6190  0.6066
 2302SOL    HW118539   1.153   1.020  17.647 -1.0495  0.4446  0.5808
 2302SOL    HW218540   1.242   1.038   0.015 -0.2624 -0.9924  2.8869
 2303SOL     OW18541   4.060   0.575   4.026  0.4325 -0.2887  0.1775
 2303SOL    HW118542   3.982   0.521   4.036  1.2188 -1.2884  0.9213
 2303SOL    HW218543   4.110   0.516   3.970  1.9899  2.4744 -1.3463
 2304SOL     OW18544   4.351   0.318  13.620 -0.3015  0.0785 -0.0742
 2304SOL    HW118545   4.356   0.333  13.715 -0.5503  1.2415 -0.2474
 2304SOL    HW218546   4.368   0.404  13.583 -1.9764  0.6227  0.3989
 2305SOL     OW18547   1.885   3.074   2.377 -0.4725 -0.4253 -0.8699
 2305SOL    HW118548   1.958   3.059   2.438 -1.4631  0.5205  0.5532
 2305SOL    HW218549   1.894   3.015   2.303  0.9248  0.5556 -1.4938
 2306SOL     OW18550   2.612   0.553   8.612  0.1250  0.2421 -0.7415
 2306SOL    HW118551   2.526   0.511   8.603  0.3329 -1.0386  2.8909
 2306SOL    HW218552   2.622   0.563   8.707 -0.6024  1.7401 -0.8235
 2307SOL     OW18553   1.892   0.841   8.888 -0.2303 -0.8697 -0.2070
 2307SOL    HW118554   1.952   0.860   8.816 -2.4567 -0.5835 -1.9668
 2307SOL    HW218555   1.819   0.899   8.866 -2.3466 -3.0293  1.0127
 2308SOL     OW18556   3.840   2.119  12.242 -0.0986  0.0338  0.5660
 2308SOL    HW118557   3.806   2.129  12.153  0.0671  0.5400  0.5573
 2308SOL    HW218558   3.934   2.120  12.228 -0.2876 -0.0690 -0.6610
 2309SOL     OW18559   0.866   1.640   8.067 -0.3368 -0.1503  0.1566
 2309SOL    HW118560   0.944   1.586   8.078 -0.9383 -0.9200  0.5809
 2309SOL    HW218561   0.887   1.690   7.988  0.5304  2.5872  2.1032
 2310SOL     OW18562   1.289   2.214   5.758  0.0257  0.1933 -0.1821
 2310SOL    HW118563   1.366   2.197   5.811  1.3672 -0.1496 -2.2109
 2310SOL    HW218564   1.215   2.238   5.813 -0.9367 -0.1629 -1.2961
 2311SOL     OW18565   3.298   1.972  13.857  0.4625  0.2185 -1.0344
 2311SOL    HW118566   3.204   1.954  13.858  0.8182 -1.5349  1.5300
 2311SOL    HW218567   3.304   2.025  13.937 -1.0770  0.9342 -1.3935
 2312SOL     OW18568   3.765   4.321   4.240  0.4428 -0.0018 -0.1569
 2312SOL    HW118569   3.808   4.337   4.156 -1.7283  0.1985 -1.2343
 2312SOL    HW218570   3.686   4.375   4.233  1.0345  0.6127 -2.3446
 2313SOL     OW18571   1.230   2.470   4.082  0.0615 -0.0491 -0.3536
 2313SOL    HW118572   1.313   2.504   4.048  0.1601 -0.5608 -0.6218
 2313SOL    HW218573   1.181   2.551   4.095  0.6320  0.2316  0.0465
 2314SOL     OW18574   1.187   1.192   7.955  0.0711 -0.6295 -0.5145
 2314SOL    HW118575   1.151   1.276   7.925  1.7146  0.8864  1.7845
 2314SOL    HW218576   1.107   1.140   7.943  0.1734 -0.7689 -0.5921
 2315SOL     OW18577   0.552   1.000  10.062 -0.3035 -0.6971  0.1746
 2315SOL    HW118578   0.623   0.949  10.023 -0.9251 -0.5236 -1.1978
 2315SOL    HW218579   0.571   1.002  10.156 -1.5032 -1.8237  0.4370
 2316SOL     OW18580   3.609   3.241   9.366  0.3010 -0.2122  0.1078
 2316SOL    HW118581   3.545   3.255   9.436  0.7208  1.4003  0.1618
 2316SOL    HW218582   3.566   3.293   9.298  0.7365  0.3047  0.2260
 2317SOL     OW18583   4.520   3.013   4.359 -0.5843  0.2230  0.6109
 2317SOL    HW118584   4.585   3.049   4.299 -0.9488 -0.0934  0.0273
 2317SOL    HW218585   4.468   3.091   4.378 -0.1500  0.0379  2.6024
 2318SOL     OW18586   1.968   1.449   8.726  0.1227 -0.4288 -0.1864
 2318SOL    HW118587   1.932   1.535   8.701  0.9575 -0.4374 -1.4397
 2318SOL    HW218588   1.901   1.414   8.784 -0.3770 -0.1092 -0.5618
 2319SOL     OW18589   4.699   2.650   6.020 -0.5755  0.1391  0.1319
 2319SOL    HW118590   0.005   2.593   6.084 -1.2418  1.0388  1.3727
 2319SOL    HW218591   4.734   2.609   5.941  0.6736  0.5537  0.4814
 2320SOL     OW18592   1.964   0.304  17.695  0.3571  0.0683  0.5127
 2320SOL    HW118593   1.941   0.322  17.604 -0.0220  0.8211  0.7561
 2320SOL    HW218594   2.057   0.328  17.691  0.4056 -0.0978  0.6736
 2321SOL     OW18595   3.590   2.805  11.825 -0.1117  0.0862 -0.4891
 2321SOL    HW118596   3.632   2.884  11.792  2.0998 -0.5166  0.9275
 2321SOL    HW218597   3.577   2.756  11.744 -0.3483  2.5176 -1.9483
 2322SOL     OW18598   4.616   2.526   4.580 -0.3040  0.2232 -0.3748
 2322SOL    HW118599   4.603   2.472   4.658  2.1121 -1.4925 -1.1608
 2322SOL    HW218600   4.649   2.464   4.514  1.5390 -0.4522  1.1899
 2323SOL     OW18601   1.101   2.890  16.128 -0.1160  0.3036 -0.5190
 2323SOL    HW118602   1.055   2.952  16.072  0.1832 -0.2594 -1.3929
 2323SOL    HW218603   1.043   2.814  16.132 -0.0965  0.3492  0.5140
 2324SOL     OW18604   3.805   2.902   0.215 -0.3488  0.1908 -0.2116
 2324SOL    HW118605   3.742   2.896   0.287 -0.2573  1.1806 -0.0482
 2324SOL    HW218606   3.886   2.892   0.265 -0.8613  0.7253  0.7336
 2325SOL     OW18607   2.835   3.602   8.672  0.4436  0.9253  0.4284
 2325SOL    HW118608   2.909   3.587   8.730 -0.0492 -4.1957 -0.2607
 2325SOL    HW218609   2.773   3.535   8.701 -0.7782  2.2224  0.8484
 2326SOL     OW18610   4.021   3.931   5.348 -0.0582  0.1369 -0.0419
 2326SOL    HW118611   3.942   3.966   5.390  0.1727  0.1255  0.4050
 2326SOL    HW218612   4.022   3.987   5.271  0.3000  1.1468  0.6886
 2327SOL     OW18613   2.600   3.814   3.294  0.5281  0.2316 -0.9096
 2327SOL    HW118614   2.695   3.818   3.279  0.9061 -1.0518  1.2774
 2327SOL    HW218615   2.568   3.874   3.226 -0.3147  0.7023 -0.0867
 2328SOL     OW18616   1.573   2.332   6.577 -0.3789  0.0748 -0.3138
 2328SOL    HW118617   1.631   2.379   6.518  0.7254 -2.2233 -1.0798
 2328SOL    HW218618   1.588   2.241   6.553 -0.4486  0.0190 -0.1500
 2329SOL     OW18619   4.131   3.042   0.251  0.2326 -0.3398  0.9982
 2329SOL    HW118620   4.096   3.130   0.242  0.7131 -0.0327  2.1934
 2329SOL    HW218621   4.173   3.040   0.165 -1.7146 -0.9113  0.0641
 2330SOL     OW18622   2.064   3.448   7.048  0.3136 -0.1101  0.2597
 2330SOL    HW118623   2.012   3.370   7.032 -2.5184  1.7507  0.3608
 2330SOL    HW218624   2.023   3.487   7.126 -3.0282 -1.1258 -0.9939
 2331SOL     OW18625   0.675   0.923   2.460  0.5567  0.0986  0.0743
 2331SOL    HW118626   0.732   0.996   2.437 -0.0619  0.5892  0.0949
 2331SOL    HW218627   0.672   0.874   2.377  0.7718 -3.0677  1.9097
 2332SOL     OW18628   1.097   0.595  10.075 -0.0071 -0.0354  0.2010
 2332SOL    HW118629   1.137   0.535  10.012  2.9860 -0.0193  2.0885
 2332SOL    HW218630   1.070   0.535  10.144  0.0424  0.4171  0.6143
 2333SOL     OW18631   0.981   2.797   5.853  0.3148  0.0477 -0.2815
 2333SOL    HW118632   0.922   2.763   5.920 -1.1168  2.7899 -0.1350
 2333SOL    HW218633   1.062   2.753   5.878  0.5775  0.8064  0.1882
 2334SOL     OW18634   0.158   4.237   7.392  0.0270 -0.0489  0.2217
 2334SOL    HW118635   0.169   4.310   7.331 -1.8490  0.4262  0.4411
 2334SOL    HW218636   0.246   4.213   7.420  0.6233 -0.3056 -1.8881
 2335SOL     OW18637   4.270   2.875   5.107  0.2469 -0.2552 -0.0380
 2335SOL    HW118638   4.298   2.897   5.018  0.0677 -2.2062 -0.5603
 2335SOL    HW218639   4.250   2.959   5.149 -2.6777 -0.1270 -1.6640
 2336SOL     OW18640   0.767   1.010   4.910  0.2954 -0.3648 -0.3899
 2336SOL    HW118641   0.727   0.929   4.942  1.7577 -0.9230  0.0193
 2336SOL    HW218642   0.741   1.004   4.819 -0.2164 -0.3040 -0.2487
 2337SOL     OW18643   4.265   3.648   4.871 -0.1594 -0.0409  0.0186
 2337SOL    HW118644   4.319   3.683   4.800  1.6055 -0.6359  1.0769
 2337SOL    HW218645   4.332   3.606   4.925 -0.2439  1.7024  1.4952
 2338SOL     OW18646   4.643   2.521   4.273  0.6474  0.1860  0.2010
 2338SOL    HW118647   4.704   2.476   4.215 -1.5977 -1.8415 -0.5664
 2338SOL    HW218648   4.706   2.575   4.320  2.8741 -2.6145  0.4602
 2339SOL     OW18649   1.322   2.392   5.298 -0.2136 -0.2110 -0.1800
 2339SOL    HW118650   1.294   2.482   5.284  3.1951  0.8166 -0.2185
 2339SOL    HW218651   1.324   2.382   5.393  0.5736 -1.2502 -0.3052
 2340SOL     OW18652   2.113   4.435   3.897 -0.1060  0.2894 -0.7022
 2340SOL    HW118653   2.132   4.526   3.878  0.5789  0.5965  1.4756
 2340SOL    HW218654   2.178   4.423   3.966 -0.8087  2.8445  0.4040
 2341SOL     OW18655   2.402   0.968   5.921  0.2677 -0.4655  0.6895
 2341SOL    HW118656   2.449   0.894   5.959  1.5859  0.2701  0.4642
 2341SOL    HW218657   2.438   1.042   5.971  0.7986 -1.2749  1.5007
 2342SOL     OW18658   0.155   3.168   6.624  0.3063 -0.1584 -0.3661
 2342SOL    HW118659   0.206   3.097   6.585  0.6778 -0.5289  0.7716
 2342SOL    HW218660   0.078   3.121   6.654  1.6651 -2.1257  0.0538
 2343SOL     OW18661   3.941   3.742   9.042  0.0873 -0.1666 -0.1911
 2343SOL    HW118662   4.006   3.672   9.038  2.6084  2.1569  0.3802
 2343SOL    HW218663   3.958   3.790   9.123  2.8101  0.3728 -1.0786
 2344SOL     OW18664   0.697   2.120   7.152  0.0021 -0.1557 -0.1492
 2344SOL    HW118665   0.756   2.151   7.221 -0.3450  1.5919 -0.6409
 2344SOL    HW218666   0.614   2.157   7.182  0.4356  0.0894  0.7537
 2345SOL     OW18667   3.287   4.430   8.925  0.0178 -0.0037 -0.1611
 2345SOL    HW118668   3.310   4.465   9.011  0.8948 -1.7909  0.3292
 2345SOL    HW218669   3.213   4.489   8.908 -1.4981 -2.0522 -0.7873
 2346SOL     OW18670   2.541   0.948   4.478  0.4146  0.1785  0.0815
 2346SOL    HW118671   2.595   0.943   4.399 -0.1045 -1.1120 -0.1939
 2346SOL    HW218672   2.528   1.042   4.484  2.0517  0.4640 -0.7425
 2347SOL     OW18673   2.922   2.744  11.490 -0.1765  0.3227 -0.2230
 2347SOL    HW118674   2.933   2.650  11.501 -1.1807  0.3206  0.7438
 2347SOL    HW218675   2.996   2.766  11.432  0.2044 -1.1819 -0.2970
 2348SOL     OW18676   0.066   4.545   9.364 -0.5807  0.0893  0.0255
 2348SOL    HW118677   0.134   4.613   9.362 -0.1453 -0.2718  3.5600
 2348SOL    HW218678   0.036   4.534   9.454 -1.8690 -0.4657 -0.4782
 2349SOL     OW18679   4.542   2.709   3.095 -0.4563 -0.6469  0.3212
 2349SOL    HW118680   4.633   2.712   3.067 -0.3908  0.8743  0.7183
 2349SOL    HW218681   4.530   2.614   3.103 -2.6568 -0.4239 -0.3809
 2350SOL     OW18682   4.407   1.696   3.031  0.1405 -0.3816 -0.3150
 2350SOL    HW118683   4.359   1.759   3.085  1.2035 -0.0355  0.2425
 2350SOL    HW218684   4.335   1.639   3.003 -0.5676  0.6002 -0.4913
 2351SOL     OW18685   0.388   0.468   2.168  0.0487  0.0152  0.8774
 2351SOL    HW118686   0.407   0.528   2.095 -1.0788 -0.5996  0.0846
 2351SOL    HW218687   0.396   0.525   2.244 -0.1652 -0.9227  1.5872
 2352SOL     OW18688   2.321   0.269   1.417  0.5738  0.3368 -0.0935
 2352SOL    HW118689   2.285   0.257   1.329  0.8925 -0.3829 -0.1275
 2352SOL    HW218690   2.262   0.340   1.442  0.3905 -0.1805  0.9212
 2353SOL     OW18691   0.081   4.553   2.357 -0.6593 -0.1125 -0.3237
 2353SOL    HW118692   0.120   4.469   2.334  2.8757  1.2176  0.8020
 2353SOL    HW218693   0.161   4.596   2.386  0.6859 -1.6633 -1.7384
 2354SOL     OW18694   4.299   1.838   0.051  0.2479 -0.0422 -0.7050
 2354SOL    HW118695   4.240   1.764   0.062  0.4726 -0.3573 -1.6760
 2354SOL    HW218696   4.240   1.906   0.085  1.0000 -0.0187  0.5490
 2355SOL     OW18697   2.892   3.000  16.852 -1.0424 -0.3701 -0.3340
 2355SOL    HW118698   2.979   2.972  16.877 -1.2991  0.3728  1.3782
 2355SOL    HW218699   2.909   3.041  16.767 -0.6951 -0.8173 -0.4775
 2356SOL     OW18700   0.582   0.856   7.782 -0.3532 -0.1471  0.2120
 2356SOL    HW118701   0.522   0.857   7.856 -0.4618 -0.7780  0.1280
 2356SOL    HW218702   0.631   0.776   7.801  0.7544  0.3296 -0.5800
 2357SOL     OW18703   4.260   1.421   0.815  0.1487 -0.1064 -0.2841
 2357SOL    HW118704   4.277   1.422   0.909  0.2707 -2.2916 -0.2763
 2357SOL    HW218705   4.346   1.392   0.783 -0.0246 -0.7969 -0.1212
 2358SOL     OW18706   2.332   0.813   2.572  0.0888  0.1582 -0.4944
 2358SOL    HW118707   2.260   0.857   2.527 -0.5554 -0.1733  0.2166
 2358SOL    HW218708   2.308   0.723   2.592 -1.5744  0.9084  0.8900
 2359SOL     OW18709   1.732   4.580  12.090  0.1874 -0.1875 -0.1950
 2359SOL    HW118710   1.810   4.526  12.101 -0.5331 -1.1396  0.1382
 2359SOL    HW218711   1.686   4.578  12.174  1.6513  0.6286  0.6226
 2360SOL     OW18712   4.598   3.085  14.551  0.1379 -0.7448 -0.2757
 2360SOL    HW118713   4.631   3.009  14.504 -1.4983  0.2790 -3.0917
 2360SOL    HW218714   4.507   3.082  14.521  0.5135 -1.4165 -1.3247
 2361SOL     OW18715   4.550   1.996   9.033  0.5062 -0.0104  0.5229
 2361SOL    HW118716   4.644   2.011   9.035  0.8596 -2.1106 -0.5995
 2361SOL    HW218717   4.549   1.915   9.084 -1.1101  0.7160  1.6480
 2362SOL     OW18718   1.805   3.074  16.595 -0.4613 -0.2582  0.8791
 2362SOL    HW118719   1.791   2.983  16.620  0.3358 -0.4493  0.6023
 2362SOL    HW218720   1.740   3.119  16.650  2.2151  3.7626  0.7507
 2363SOL     OW18721   3.631   0.685   4.740  0.0251  0.4645 -0.3802
 2363SOL    HW118722   3.713   0.662   4.697  0.3961 -0.2968  0.7447
 2363SOL    HW218723   3.637   0.667   4.833 -0.5297  2.5827  0.0714
 2364SOL     OW18724   3.330   3.888  13.773 -0.1567 -0.9261 -0.8322
 2364SOL    HW118725   3.278   3.852  13.701  0.1452  1.1335 -2.0690
 2364SOL    HW218726   3.399   3.821  13.778 -0.8239 -1.5532 -0.0575
 2365SOL     OW18727   2.058   4.267   5.523 -0.3573  0.1361  0.1758
 2365SOL    HW118728   2.149   4.295   5.531 -1.0816  2.4789  0.1361
 2365SOL    HW218729   2.015   4.321   5.590 -1.3693  1.1848 -1.3186
 2366SOL     OW18730   1.577   0.846   9.023 -0.3334  0.0171 -0.0086
 2366SOL    HW118731   1.575   0.754   9.050  0.3440 -0.5535 -1.9062
 2366SOL    HW218732   1.625   0.880   9.099  2.7120 -2.0528 -1.0077
 2367SOL     OW18733   0.226   2.993   5.992 -0.1984  0.1411 -0.1644
 2367SOL    HW118734   0.169   3.026   5.922 -0.9164 -0.2153  0.2512
 2367SOL    HW218735   0.161   2.990   6.062 -1.1025  4.4981 -0.8228
 2368SOL     OW18736   2.590   0.518   1.349 -0.1586  0.0000 -0.2076
 2368SOL    HW118737   2.552   0.470   1.276  0.6248 -1.2400  0.1888
 2368SOL    HW218738   2.526   0.588   1.360  0.6713  1.0402 -1.9987
 2369SOL     OW18739   4.508   1.412   9.018  0.1143  0.5374 -0.2942
 2369SOL    HW118740   4.568   1.338   9.017 -2.6079 -1.6239 -1.1408
 2369SOL    HW218741   4.543   1.465   8.946 -0.3329  1.4320  0.1435
 2370SOL     OW18742   2.383   1.008   7.706  0.3323 -0.0739  0.0922
 2370SOL    HW118743   2.289   1.000   7.722 -0.2354  0.9525 -2.7283
 2370SOL    HW218744   2.387   0.986   7.613  0.9841  4.4632 -0.9462
 2371SOL     OW18745   2.299   2.357   3.997 -0.1491 -0.1187 -0.0083
 2371SOL    HW118746   2.389   2.357   4.029 -0.6208 -3.1469  1.3373
 2371SOL    HW218747   2.265   2.276   4.035  0.5887  0.6452  2.2363
 2372SOL     OW18748   3.913   3.814   3.630 -0.3404 -0.7363 -0.4221
 2372SOL    HW118749   3.849   3.822   3.701 -0.2569 -1.3526 -0.2809
 2372SOL    HW218750   3.963   3.895   3.632 -2.5572  0.6607 -1.9033
 2373SOL     OW18751   0.794   0.921   0.025 -0.3120 -0.6971  0.4607
 2373SOL    HW118752   0.769   0.975  17.700  2.4788  0.9077  0.6907
 2373SOL    HW218753   0.832   0.841  17.736 -0.3259 -0.8147  0.6937
 2374SOL     OW18754   2.766   3.213   3.312 -0.1596 -0.3856  0.2654
 2374SOL    HW118755   2.773   3.117   3.318 -1.9968 -0.5425 -0.1412
 2374SOL    HW218756   2.678   3.220   3.274 -0.3232 -0.9229  0.5419
 2375SOL     OW18757   0.195   0.425   0.567  0.7148 -0.0969 -0.2503
 2375SOL    HW118758   0.231   0.393   0.649  0.1452 -2.9621 -1.1310
 2375SOL    HW218759   0.206   0.520   0.575 -0.0654  0.0951 -1.4026
 2376SOL     OW18760   3.283   2.835   9.198  0.2340 -0.1853  0.4756
 2376SOL    HW118761   3.292   2.852   9.292 -1.7055  0.4346  0.5503
 2376SOL    HW218762   3.365   2.786   9.185  0.1595  0.1013 -1.1026
 2377SOL     OW18763   3.347   3.965   7.491 -1.0094  0.3412  0.5533
 2377SOL    HW118764   3.373   4.044   7.443  2.1919  0.9821  3.3261
 2377SOL    HW218765   3.308   3.905   7.427 -2.5623  2.9399 -0.9246
 2378SOL     OW18766   0.873   1.450   2.976 -0.0192 -0.0313  0.1767
 2378SOL    HW118767   0.802   1.390   2.951  0.4710 -0.8243  0.7066
 2378SOL    HW218768   0.938   1.436   2.907  0.2401 -1.9014  0.8025
 2379SOL     OW18769   0.328   2.532   3.850  0.9757 -0.0352 -0.4320
 2379SOL    HW118770   0.278   2.497   3.776 -1.0844  0.4988  0.7258
 2379SOL    HW218771   0.409   2.555   3.804  1.7063 -0.7322  0.5179
 2380SOL     OW18772   2.121   3.227  14.723 -0.1215 -0.3330 -0.1635
 2380SOL    HW118773   2.179   3.197  14.793  0.6682 -2.4329 -1.6975
 2380SOL    HW218774   2.101   3.314  14.756  1.3408 -0.4721  1.0853
 2381SOL     OW18775   1.736   0.491   1.697 -0.1598  0.4307 -0.1819
 2381SOL    HW118776   1.772   0.404   1.679 -1.1071  0.0675 -0.3298
 2381SOL    HW218777   1.756   0.509   1.788 -0.7599 -0.2709  0.0856
 2382SOL     OW18778   0.414   0.831   8.724 -0.4652 -0.2476 -0.7657
 2382SOL    HW118779   0.326   0.847   8.689 -2.0616  2.2839  4.4639
 2382SOL    HW218780   0.424   0.738   8.702  1.7987 -0.7350  2.4306
 2383SOL     OW18781   1.746   4.341  17.343 -0.0183  0.0699 -0.1476
 2383SOL    HW118782   1.789   4.287  17.409  1.5490  0.9482 -0.4618
 2383SOL    HW218783   1.710   4.409  17.401  3.3808  1.3642  0.4292
 2384SOL     OW18784   2.689   4.558   8.442  0.3751  0.4227  0.3776
 2384SOL    HW118785   2.665   4.643   8.407 -0.4249  0.4319  0.9356
 2384SOL    HW218786   2.620   4.506   8.399  0.2906 -0.3214  1.4056
 2385SOL     OW18787   3.812   1.544   6.266  0.1694 -0.3726 -0.0820
 2385SOL    HW118788   3.807   1.491   6.345 -1.2450  0.8862  0.6628
 2385SOL    HW218789   3.737   1.602   6.280  1.9076  1.6259  0.8832
 2386SOL     OW18790   0.473   1.776  16.384  0.1772 -0.6165 -0.2761
 2386SOL    HW118791   0.407   1.763  16.452 -0.0798 -1.7105 -0.7417
 2386SOL    HW218792   0.477   1.696  16.332  1.5703 -0.9757  0.3954
 2387SOL     OW18793   0.152   0.650   8.336  0.2858 -1.0298 -0.0261
 2387SOL    HW118794   0.186   0.572   8.293  0.9825  0.2540 -1.8137
 2387SOL    HW218795   0.233   0.700   8.339 -0.1571 -0.4875  2.4266
 2388SOL     OW18796   1.702   0.775   0.604  0.1802 -0.3753 -0.0227
 2388SOL    HW118797   1.775   0.714   0.611 -2.4001 -3.5036 -0.5214
 2388SOL    HW218798   1.633   0.720   0.566  1.0024 -2.2953  1.2534
 2389SOL     OW18799   4.731   0.545  10.212 -0.4220  0.6556  0.5152
 2389SOL    HW118800   4.673   0.615  10.242 -2.1016 -1.1123  1.3663
 2389SOL    HW218801   0.020   0.594  10.134 -1.3223  0.8843  0.3576
 2390SOL     OW18802   3.844   1.449  10.069  0.5389 -0.2904  0.3395
 2390SOL    HW118803   3.851   1.371  10.013  0.1942 -0.4173  0.4714
 2390SOL    HW218804   3.918   1.502  10.039  0.0241  0.1018 -0.2244
 2391SOL     OW18805   1.841   4.459   3.880  0.4690  0.1210  0.6500
 2391SOL    HW118806   1.828   4.391   3.813 -0.3313 -0.5944  1.5273
 2391SOL    HW218807   1.934   4.478   3.868 -0.1054  2.2075 -0.3564
 2392SOL     OW18808   3.755   3.643   6.623 -0.4622  0.1462  0.1436
 2392SOL    HW118809   3.784   3.734   6.636  2.4412 -0.4875 -1.8520
 2392SOL    HW218810   3.669   3.631   6.663 -0.4895  0.0215  0.0465
 2393SOL     OW18811   3.226   1.141  13.340  0.2569  0.2078 -0.1302
 2393SOL    HW118812   3.277   1.062  13.357  1.1965  0.6889 -0.6942
 2393SOL    HW218813   3.276   1.186  13.272 -1.4412  0.0548 -1.4958
 2394SOL     OW18814   3.527   1.373   1.913 -0.3631 -0.3256 -0.4212
 2394SOL    HW118815   3.559   1.387   1.823 -2.9822 -0.4635 -1.3855
 2394SOL    HW218816   3.472   1.296   1.897 -0.7908 -0.6452  2.7570
 2395SOL     OW18817   4.724   4.013   9.614 -0.3068 -0.1571 -0.2261
 2395SOL    HW118818   4.640   4.049   9.586  0.3117  1.7385  0.3505
 2395SOL    HW218819   0.007   4.064   9.692  1.6217  0.2439 -0.9904
 2396SOL     OW18820   1.086   4.675  10.891  0.3286  0.4007  0.0106
 2396SOL    HW118821   1.110   4.643  10.977  0.6943  0.1567 -0.1847
 2396SOL    HW218822   1.063   0.031  10.897 -1.4332 -0.0491  0.2549
 2397SOL     OW18823   4.385   1.520   7.838 -0.6276  0.1618 -1.1576
 2397SOL    HW118824   4.296   1.553   7.851 -0.5130 -1.0871  2.6760
 2397SOL    HW218825   4.377   1.453   7.906 -2.4082  0.8358 -0.6994
 2398SOL     OW18826   4.516   2.907  17.698 -0.5188  0.3675  0.0311
 2398SOL    HW118827   4.606   2.878  17.687 -0.5126  0.1944  0.5549
 2398SOL    HW218828   4.500   2.906  17.604  0.8737 -0.0107 -0.1982
 2399SOL     OW18829   1.411   0.318   9.670 -0.1039 -0.0891 -0.6954
 2399SOL    HW118830   1.367   0.353   9.592  0.2470  0.9406 -0.4424
 2399SOL    HW218831   1.362   0.237   9.678  1.5314 -1.0678 -0.6077
 2400SOL     OW18832   0.760   0.292   2.557 -0.2894 -0.4575  0.1615
 2400SOL    HW118833   0.760   0.387   2.544  1.0004 -0.3519  1.0218
 2400SOL    HW218834   0.709   0.293   2.638  2.2836  1.2995  1.7462
 2401SOL     OW18835   4.120   2.138   7.992 -0.0259 -0.0091 -0.3452
 2401SOL    HW118836   4.184   2.135   8.063 -1.4324  1.4118  0.9814
 2401SOL    HW218837   4.041   2.153   8.043 -0.7061 -1.2121 -1.0483
 2402SOL     OW18838   4.016   0.191   2.352  0.1133  0.3322  0.6113
 2402SOL    HW118839   4.052   0.167   2.438  0.2362  2.0353  1.0331
 2402SOL    HW218840   3.939   0.135   2.351 -1.4548  2.4987  0.1571
 2403SOL     OW18841   0.217   0.033   9.302 -0.2430  0.5661  0.4012
 2403SOL    HW118842   0.147   0.097   9.302 -2.0198 -1.3944 -0.4548
 2403SOL    HW218843   0.233   0.013   9.210 -0.4656  0.0202  0.4785
 2404SOL     OW18844   1.637   1.339  17.237 -0.6930  0.3543  0.5635
 2404SOL    HW118845   1.615   1.411  17.179  0.0392 -0.3466 -0.5956
 2404SOL    HW218846   1.549   1.306  17.258 -1.6782  0.9871 -2.6974
 2405SOL     OW18847   1.297   0.844  10.859 -0.3905 -0.7728  0.0555
 2405SOL    HW118848   1.217   0.879  10.819  1.2921  2.0220 -0.8683
 2405SOL    HW218849   1.275   0.847  10.951 -0.5599  0.7622 -0.0449
 2406SOL     OW18850   2.900   1.109   1.925  0.2894  0.1020  0.0786
 2406SOL    HW118851   2.940   1.097   2.011  1.4495 -1.5019 -0.6746
 2406SOL    HW218852   2.946   1.043   1.873  1.5894  1.5067 -0.5513
 2407SOL     OW18853   1.812   1.035   0.425  0.0925 -0.6917 -0.8445
 2407SOL    HW118854   1.818   0.966   0.492  1.9630  0.1813 -0.1096
 2407SOL    HW218855   1.720   1.059   0.441 -0.4993 -2.7468 -1.1662
 2408SOL     OW18856   2.865   0.022  14.526  0.4577  0.1802  0.1285
 2408SOL    HW118857   2.790   0.040  14.469  0.2388 -0.3822  0.2314
 2408SOL    HW218858   2.825   0.015  14.613  0.5675 -2.4896 -0.0332
 2409SOL     OW18859   4.168   2.729  10.964 -0.0746 -0.0160  0.3981
 2409SOL    HW118860   4.250   2.695  11.000  0.4551 -1.3971 -2.1548
 2409SOL    HW218861   4.103   2.734  11.035  0.2587  0.9279  0.6439
 2410SOL     OW18862   1.936   4.658   9.208 -0.0158  0.0452  0.3439
 2410SOL    HW118863   1.892   4.718   9.147 -2.4469 -1.0940  0.9485
 2410SOL    HW218864   2.012   4.701   9.246  0.5349 -1.8649  1.4118
 2411SOL     OW18865   0.787   2.283   5.716  0.7295 -0.3871  0.2114
 2411SOL    HW118866   0.874   2.314   5.691  1.7982 -1.0439  3.0449
 2411SOL    HW218867   0.740   2.305   5.636 -0.5980  1.5930  1.5299
 2412SOL     OW18868   2.230   1.643  17.739 -0.0458  0.1283 -0.3935
 2412SOL    HW118869   2.243   1.549  17.729  0.1736  0.2122 -0.8747
 2412SOL    HW218870   2.315   1.675   0.020 -0.5876 -0.5917  2.0017
 2413SOL     OW18871   2.162   2.904   6.745 -0.2029  0.4825  0.0036
 2413SOL    HW118872   2.168   2.996   6.721 -1.7504  0.2726 -1.2016
 2413SOL    HW218873   2.220   2.923   6.819 -2.5753  2.4116  1.3607
 2414SOL     OW18874   4.150   2.727   3.281  0.1502 -0.4870  0.0673
 2414SOL    HW118875   4.239   2.759   3.297 -0.1355  0.3711 -0.0760
 2414SOL    HW218876   4.106   2.811   3.284 -0.7142 -0.9653  0.5691
 2415SOL     OW18877   2.518   0.568  17.427  0.2990  0.2082 -0.0348
 2415SOL    HW118878   2.438   0.555  17.377  0.1382 -0.4496  0.3988
 2415SOL    HW218879   2.479   0.558  17.514 -0.1075 -0.6889 -0.3321
 2416SOL     OW18880   3.042   3.623  12.657 -0.8774  0.0266 -0.0418
 2416SOL    HW118881   2.952   3.649  12.640 -0.9714 -1.0823 -1.2402
 2416SOL    HW218882   3.024   3.591  12.746  3.0168  0.0416  0.7705
 2417SOL     OW18883   4.067   2.401   8.610 -0.1699 -0.2955  0.2792
 2417SOL    HW118884   4.136   2.413   8.544  0.4450 -1.2812  0.7463
 2417SOL    HW218885   4.082   2.477   8.667  1.7647 -0.4727  0.0337
 2418SOL     OW18886   3.878   2.645   9.051  0.3239  0.3042 -0.4253
 2418SOL    HW118887   3.836   2.720   9.009  1.4002  1.9852  1.4976
 2418SOL    HW218888   3.837   2.571   9.005 -0.3624  1.2303 -1.2835
 2419SOL     OW18889   2.515   4.092   9.106  0.8723  0.0554  0.4022
 2419SOL    HW118890   2.606   4.101   9.135  0.2420 -0.3874  2.5242
 2419SOL    HW218891   2.520   4.019   9.045  0.4807  0.2433  0.1474
 2420SOL     OW18892   3.615   3.387   3.587 -0.4294 -0.0687 -0.4631
 2420SOL    HW118893   3.578   3.365   3.501 -1.4969 -0.1199  0.0081
 2420SOL    HW218894   3.690   3.436   3.552  1.7548 -1.1378  2.7285
 2421SOL     OW18895   3.588   3.956  16.149 -0.2799 -0.0768  0.2607
 2421SOL    HW118896   3.590   3.969  16.244  0.8386  0.0052  0.2269
 2421SOL    HW218897   3.519   4.013  16.115 -0.4108  0.5959  1.6246
 2422SOL     OW18898   2.833   1.741   3.496  0.4986  0.3562 -1.1647
 2422SOL    HW118899   2.829   1.697   3.412 -1.4161 -0.2777 -0.7385
 2422SOL    HW218900   2.825   1.834   3.475  1.0381  0.6098 -0.2283
 2423SOL     OW18901   1.758   2.821   3.753 -0.4686 -0.0786  0.7528
 2423SOL    HW118902   1.812   2.830   3.831  0.5212  0.1778  0.0356
 2423SOL    HW218903   1.741   2.730   3.728 -0.5863  0.6994 -2.0119
 2424SOL     OW18904   0.643   0.049   3.320  0.7794 -0.4781  0.2610
 2424SOL    HW118905   0.734   0.078   3.321  0.3278  0.8958  1.1088
 2424SOL    HW218906   0.637   0.036   3.225  1.8517  0.4894  0.0663
 2425SOL     OW18907   4.155   0.838   3.562 -0.1492 -0.0887  0.5961
 2425SOL    HW118908   4.117   0.750   3.568  0.3343 -0.3988 -0.9621
 2425SOL    HW218909   4.182   0.853   3.652  1.7618  0.4950 -0.0703
 2426SOL     OW18910   0.123   3.877   2.934 -0.3567  0.2130 -0.0538
 2426SOL    HW118911   0.165   3.856   2.850  2.4109  0.7951  1.1587
 2426SOL    HW218912   0.031   3.882   2.908  0.1620 -0.9765 -2.1593
 2427SOL     OW18913   1.893   1.236  11.351 -0.2568  0.3198 -0.1460
 2427SOL    HW118914   1.900   1.323  11.312  1.6617 -0.8322 -2.3831
 2427SOL    HW218915   1.891   1.267  11.442 -2.0856 -1.5297  0.4481
 2428SOL     OW18916   1.497   4.642  11.407  0.4855  0.4819 -0.4319
 2428SOL    HW118917   1.406   4.625  11.382  0.9083 -1.0275 -0.9570
 2428SOL    HW218918   1.512   4.736  11.406  1.0876  0.3810 -1.4851
 2429SOL     OW18919   2.439   1.122   8.480  0.5034  0.4674 -0.1755
 2429SOL    HW118920   2.507   1.078   8.429  1.6823  0.9167  1.0027
 2429SOL    HW218921   2.494   1.161   8.548  0.4649 -0.8013  0.5833
 2430SOL     OW18922   4.529   2.383   5.983 -0.6767 -0.3625  0.1300
 2430SOL    HW118923   4.554   2.438   5.910  0.3008 -1.2673 -0.2215
 2430SOL    HW218924   4.517   2.292   5.954 -0.6695  0.0652 -1.1883
 2431SOL     OW18925   1.909   2.454   9.808  0.6336  0.1092 -0.2789
 2431SOL    HW118926   1.892   2.368   9.845  0.3184 -0.2713 -1.2963
 2431SOL    HW218927   1.986   2.487   9.854 -0.4516  1.4747  0.5703
 2432SOL     OW18928   1.666   3.257   7.728 -0.3843  0.3133 -0.0117
 2432SOL    HW118929   1.750   3.300   7.747  0.6512 -1.6886 -0.0905
 2432SOL    HW218930   1.673   3.232   7.636  0.6456  3.1650 -0.7404
 2433SOL     OW18931   4.180   1.279   2.518  0.4087 -0.2916 -0.7036
 2433SOL    HW118932   4.145   1.313   2.600 -2.9323 -0.5975 -1.9742
 2433SOL    HW218933   4.199   1.186   2.534  0.2002 -0.1435  0.3872
 2434SOL     OW18934   1.650   2.295  14.699 -0.1850  0.1154 -0.4664
 2434SOL    HW118935   1.667   2.202  14.684  0.7436  0.4342 -1.3981
 2434SOL    HW218936   1.556   2.298  14.718 -0.3488  0.9270 -1.4431
 2435SOL     OW18937   1.790   2.501   7.954 -0.6002  0.2852 -0.2946
 2435SOL    HW118938   1.794   2.477   8.047  0.4096 -2.5664 -1.0889
 2435SOL    HW218939   1.727   2.572   7.941  1.4006  1.3794 -3.8921
 2436SOL     OW18940   4.721   2.077   4.100 -0.1646 -0.0223  0.0111
 2436SOL    HW118941   4.711   2.086   4.005  0.1931 -0.0265 -0.0274
 2436SOL    HW218942   4.631   2.084   4.130 -0.3103 -1.3184 -0.1196
 2437SOL     OW18943   3.152   2.569   4.549  0.1331  0.2318 -0.0436
 2437SOL    HW118944   3.179   2.481   4.524 -2.6851 -1.0071  1.3366
 2437SOL    HW218945   3.063   2.551   4.580  0.1814  0.8520  0.4597
 2438SOL     OW18946   4.528   2.186   7.941  0.0239 -0.3726 -0.3567
 2438SOL    HW118947   4.528   2.191   8.037  0.9722 -2.0111 -0.2764
 2438SOL    HW218948   4.471   2.114   7.914  1.7334 -1.0722 -2.0594
 2439SOL     OW18949   3.108   3.956   2.005  0.5079 -0.4313 -0.4087
 2439SOL    HW118950   3.024   4.002   2.004 -0.1797 -1.6925 -0.7921
 2439SOL    HW218951   3.125   3.949   1.912 -2.0472  0.1613 -0.9313
 2440SOL     OW18952   1.050   3.896   4.519  0.4019  0.0292  0.1758
 2440SOL    HW118953   1.095   3.975   4.488 -1.1987  0.1229 -1.8832
 2440SOL    HW218954   1.004   3.934   4.594 -0.2274 -0.6696  0.1395
 2441SOL     OW18955   1.732   1.884   1.487  0.4025  0.3042 -0.1778
 2441SOL    HW118956   1.782   1.948   1.538  4.3281 -0.6507 -2.7571
 2441SOL    HW218957   1.656   1.865   1.541 -0.5797  3.4771 -0.4248
 2442SOL     OW18958   0.099   2.917   8.232 -0.1433 -0.4057 -0.3676
 2442SOL    HW118959   0.021   2.944   8.282 -0.2047  0.4838 -0.9416
 2442SOL    HW218960   0.090   2.825   8.256 -1.2121 -0.0066  0.7952
 2443SOL     OW18961   2.271   2.226   8.089 -0.1241 -0.2274  0.0687
 2443SOL    HW118962   2.186   2.225   8.133 -0.5638 -3.4146 -0.8958
 2443SOL    HW218963   2.282   2.321   8.086 -3.0298  0.1687  2.0886
 2444SOL     OW18964   0.071   1.244   4.163  0.3522  0.1854 -0.2147
 2444SOL    HW118965   0.151   1.276   4.120 -1.1102  2.8166 -0.9821
 2444SOL    HW218966   0.057   1.169   4.106 -3.3217  1.4155 -0.9283
 2445SOL     OW18967   3.053   0.081  16.972 -0.6439 -0.6962  0.2532
 2445SOL    HW118968   3.062   0.166  17.015  4.2958  1.0924 -4.2913
 2445SOL    HW218969   2.965   0.082  16.934 -0.2949  0.4353 -0.5189
 2446SOL     OW18970   1.423   0.551   5.977  0.1042  0.7322  0.4124
 2446SOL    HW118971   1.438   0.645   5.986 -0.8218  0.9546 -0.2787
 2446SOL    HW218972   1.510   0.518   5.997 -0.9883 -1.3504  1.7958
 2447SOL     OW18973   2.805   4.551  10.036 -0.2638 -0.1030  0.0481
 2447SOL    HW118974   2.839   4.606   9.966  4.6675 -2.4281  0.6177
 2447SOL    HW218975   2.861   4.590  10.104 -1.3350 -1.0762  1.5124
 2448SOL     OW18976   4.422   3.776   3.513  0.2024 -0.3497 -0.0832
 2448SOL    HW118977   4.435   3.706   3.577 -1.3532 -1.0041 -0.4704
 2448SOL    HW218978   4.490   3.758   3.448 -1.3967 -1.8714 -1.3206
 2449SOL     OW18979   3.487   1.351  12.090  0.9325  0.0666 -0.4207
 2449SOL    HW118980   3.527   1.409  12.155  2.2507 -1.2669 -0.0503
 2449SOL    HW218981   3.490   1.273  12.145  1.7570  1.5425  1.6114
 2450SOL     OW18982   0.359   1.204   6.572 -0.5045  0.5205 -0.2285
 2450SOL    HW118983   0.385   1.120   6.534 -2.9636 -0.5708  0.5412
 2450SOL    HW218984   0.379   1.255   6.494  4.2287 -1.0170 -0.0418
 2451SOL     OW18985   3.565   0.866  17.170  0.3038  0.3503 -0.6152
 2451SOL    HW118986   3.587   0.833  17.083 -2.1220 -0.1268 -1.0389
 2451SOL    HW218987   3.559   0.784  17.219 -1.6159 -0.5723 -2.3813
 2452SOL     OW18988   3.493   3.647   6.705 -0.1247  0.4587  0.5155
 2452SOL    HW118989   3.483   3.666   6.799 -3.7008 -0.0471  0.2559
 2452SOL    HW218990   3.457   3.730   6.675 -1.7725 -0.6983 -0.7436
 2453SOL     OW18991   2.828   2.757  10.971  0.0752  0.0755  0.8963
 2453SOL    HW118992   2.788   2.795  10.892 -0.5173 -2.2792  0.0582
 2453SOL    HW218993   2.754   2.773  11.029  0.2567 -0.3521  1.2452
 2454SOL     OW18994   2.348   2.398   5.963  0.7633  0.4763  0.3314
 2454SOL    HW118995   2.314   2.424   5.878  1.9241  0.4982 -0.1322
 2454SOL    HW218996   2.420   2.460   5.979  0.2134  1.5808 -1.4917
 2455SOL     OW18997   0.984   0.378   6.277 -0.8284  0.1328  0.5125
 2455SOL    HW118998   0.922   0.357   6.347  1.2325  0.3722  2.3876
 2455SOL    HW218999   1.045   0.428   6.330 -2.2879  1.8325  0.6080
 2456SOL     OW19000   3.381   0.228   3.376  0.4421  0.0212 -0.1119
 2456SOL    HW119001   3.326   0.160   3.340  0.2745  0.0702  0.0524
 2456SOL    HW219002   3.457   0.170   3.386  0.0336 -0.5716 -0.4834
 2457SOL     OW19003   0.048   2.588   2.358 -1.0919 -0.3547  0.3104
 2457SOL    HW119004   0.120   2.637   2.398 -0.2534  0.0394 -1.6558
 2457SOL    HW219005   0.077   2.497   2.360  0.0137 -0.0497 -1.8100
 2458SOL     OW19006   1.310   1.796   6.952  0.2741  0.1842 -0.1380
 2458SOL    HW119007   1.247   1.769   7.018  2.1222 -2.4325  0.5237
 2458SOL    HW219008   1.382   1.824   7.009 -0.2179  2.1023 -0.4659
 2459SOL     OW19009   4.583   4.186   7.114  0.0953  0.4182 -0.2478
 2459SOL    HW119010   4.583   4.255   7.048  2.8205 -0.3956 -1.0970
 2459SOL    HW219011   4.587   4.111   7.054 -0.9376 -0.6456  0.9987
 2460SOL     OW19012   0.722   3.666  16.338  0.2677  0.2920  0.0342
 2460SOL    HW119013   0.761   3.589  16.296  0.3136  0.8034 -0.8813
 2460SOL    HW219014   0.685   3.622  16.414  1.3072  0.6296  0.7263
 2461SOL     OW19015   4.540   3.723   5.975 -0.1619 -0.6826  0.6852
 2461SOL    HW119016   4.546   3.766   6.060 -0.3978  0.1658  0.2727
 2461SOL    HW219017   4.635   3.718   5.967 -0.3863 -1.3379 -1.6151
 2462SOL     OW19018   0.352   2.085  13.068 -0.3167 -0.0225 -0.4565
 2462SOL    HW119019   0.401   2.167  13.074 -0.3988  0.0134 -0.2557
 2462SOL    HW219020   0.403   2.006  13.083 -1.7712 -0.7127  0.8717
 2463SOL     OW19021   2.445   4.466   3.787  0.6345  0.1093  0.2466
 2463SOL    HW119022   2.426   4.470   3.693 -0.0878  1.8049  0.4682
 2463SOL    HW219023   2.432   4.556   3.818  0.1172 -0.3437  1.3193
 2464SOL     OW19024   2.495   2.738  12.495  0.2145  0.4678  0.0994
 2464SOL    HW119025   2.508   2.674  12.426 -0.6289  1.3467 -0.8715
 2464SOL    HW219026   2.479   2.693  12.578  0.5074 -1.5899 -0.9506
 2465SOL     OW19027   1.976   3.725   3.309  0.4978 -0.3497  0.5388
 2465SOL    HW119028   2.005   3.812   3.282 -1.5008 -0.0737 -0.7782
 2465SOL    HW219029   1.882   3.735   3.326  0.5244  0.1115  0.4351
 2466SOL     OW19030   0.173   2.058   4.269 -0.3531 -0.3858 -0.4124
 2466SOL    HW119031   0.108   2.067   4.200  0.0652  0.9099 -0.6303
 2466SOL    HW219032   0.125   2.008   4.335 -0.1582  0.2239  0.1794
 2467SOL     OW19033   0.855   3.812   4.097 -0.5625  0.0048  0.1564
 2467SOL    HW119034   0.795   3.778   4.031  0.3600  0.8601 -1.1323
 2467SOL    HW219035   0.804   3.890   4.118  0.2087  0.2345  1.1854
 2468SOL     OW19036   3.106   4.146   4.410  0.2601  0.4020 -0.3689
 2468SOL    HW119037   3.184   4.125   4.360 -0.8403 -2.2711 -0.9371
 2468SOL    HW219038   3.086   4.061   4.451  1.5893 -1.1174 -2.9002
 2469SOL     OW19039   0.365   4.194   8.678 -0.0927 -0.4388  0.4193
 2469SOL    HW119040   0.329   4.106   8.680  0.2450 -0.5464  2.3991
 2469SOL    HW219041   0.398   4.192   8.768  1.8840 -1.4276 -0.3310
 2470SOL     OW19042   2.083   0.625   4.365  0.1216  0.4425 -0.6523
 2470SOL    HW119043   1.999   0.634   4.321  0.4724  0.1357 -1.3725
 2470SOL    HW219044   2.124   0.711   4.376  0.4522 -0.3194  4.0566
 2471SOL     OW19045   2.263   3.697   3.306  0.4572 -0.1468  0.0903
 2471SOL    HW119046   2.274   3.667   3.396  0.3128 -0.6256 -0.0544
 2471SOL    HW219047   2.168   3.706   3.300  0.4456 -0.9331 -0.9023
 2472SOL     OW19048   0.622   1.462   6.983  0.5374  0.2970 -0.6805
 2472SOL    HW119049   0.652   1.395   7.044 -0.3295  1.8952  1.4891
 2472SOL    HW219050   0.576   1.524   7.040  0.7059  0.5185 -0.7848
 2473SOL     OW19051   4.054   4.038   8.249 -0.4613  0.3421 -0.2160
 2473SOL    HW119052   3.977   4.050   8.304 -0.2672  1.7413 -0.2546
 2473SOL    HW219053   4.022   4.046   8.159  1.4046  1.7431 -0.7516
 2474SOL     OW19054   1.937   3.553   7.257 -0.3909 -0.6359  0.2067
 2474SOL    HW119055   1.949   3.636   7.303 -0.9868  0.3172 -1.3576
 2474SOL    HW219056   1.856   3.524   7.298  0.0006 -2.9091 -0.6137
 2475SOL     OW19057   2.214   4.012  14.964 -0.3608 -0.0067  0.0831
 2475SOL    HW119058   2.134   3.996  15.013 -0.4277 -0.1330 -0.0653
 2475SOL    HW219059   2.256   3.926  14.960 -0.0527  0.1745 -0.5865
 2476SOL     OW19060   2.587   3.267  13.498  0.4339 -0.3808 -0.1842
 2476SOL    HW119061   2.548   3.333  13.555 -0.0468 -0.4280 -0.4587
 2476SOL    HW219062   2.616   3.315  13.420  1.6997 -0.5310  0.1864
 2477SOL     OW19063   0.952   0.996  17.195 -0.6471  0.1733  0.1068
 2477SOL    HW119064   0.894   0.928  17.161 -1.5895  1.0515 -0.0067
 2477SOL    HW219065   0.893   1.070  17.204  1.3739  1.9307 -0.9718
 2478SOL     OW19066   0.493   0.500  13.517 -0.0789 -0.3614 -0.4009
 2478SOL    HW119067   0.585   0.518  13.496  0.0539  0.5499  0.9982
 2478SOL    HW219068   0.503   0.445  13.594  0.3258  0.0071 -0.1941
 2479SOL     OW19069   3.996   1.008  10.667  0.3159 -0.1653  0.0719
 2479SOL    HW119070   3.976   0.955  10.744 -1.9087 -0.3801 -0.6645
 2479SOL    HW219071   4.031   0.939  10.610  0.3328 -0.0042 -0.1145
 2480SOL     OW19072   4.353   1.300   1.543 -0.2540  0.5639 -0.3511
 2480SOL    HW119073   4.406   1.378   1.537 -0.1390  0.5642  0.6804
 2480SOL    HW219074   4.275   1.329   1.592  0.6249 -0.1091  1.4551
 2481SOL     OW19075   1.298   3.492   4.755 -0.1427 -0.5043 -0.1758
 2481SOL    HW119076   1.261   3.524   4.673 -0.4805 -0.4273  0.0093
 2481SOL    HW219077   1.224   3.517   4.809  0.6191 -0.2987  0.7558
 2482SOL     OW19078   3.233   0.826   1.533  0.9452 -0.0505  0.8235
 2482SOL    HW119079   3.167   0.761   1.555 -1.4956  1.4725 -2.0939
 2482SOL    HW219080   3.275   0.797   1.452 -0.2462  1.0086 -0.1854
 2483SOL     OW19081   0.358   3.815   5.892  0.0544  0.1046  0.0087
 2483SOL    HW119082   0.413   3.887   5.860 -0.1022  0.5098  0.6573
 2483SOL    HW219083   0.380   3.753   5.822 -0.1397 -1.1959  1.1077
 2484SOL     OW19084   3.445   2.460  10.576 -0.1214 -0.1247  0.4187
 2484SOL    HW119085   3.388   2.430  10.505  0.3548 -1.6369  0.6795
 2484SOL    HW219086   3.415   2.411  10.653 -3.8744  0.1035 -0.9155
 2485SOL     OW19087   3.859   3.130   5.685 -0.0123 -0.4292 -0.5271
 2485SOL    HW119088   3.941   3.157   5.644 -0.0831 -1.0825 -1.0987
 2485SOL    HW219089   3.824   3.210   5.723 -0.0573  0.6241 -2.7858
 2486SOL     OW19090   2.544   1.483   1.921 -0.3945  0.3319 -0.3634
 2486SOL    HW119091   2.519   1.483   2.013  1.0872 -1.8461  0.0442
 2486SOL    HW219092   2.608   1.412   1.921  0.6186  1.2499  1.4839
 2487SOL     OW19093   0.704   3.487   6.293  0.1486 -0.1874 -0.3606
 2487SOL    HW119094   0.651   3.526   6.362 -0.4713 -1.6295 -0.0202
 2487SOL    HW219095   0.736   3.569   6.254  2.3715 -0.6286  0.5951
 2488SOL     OW19096   3.127   3.906  11.350 -0.1224  0.5111  0.5508
 2488SOL    HW119097   3.094   3.995  11.366 -1.3294  0.3227 -0.9426
 2488SOL    HW219098   3.048   3.854  11.338  1.4989 -2.0218  0.9365
 2489SOL     OW19099   2.024   1.412  10.684 -0.5760 -0.0252  0.2217
 2489SOL    HW119100   1.934   1.397  10.713 -1.0265  0.5799 -0.8754
 2489SOL    HW219101   2.057   1.322  10.681 -1.3483 -0.3668  1.9449
 2490SOL     OW19102   2.152   3.214   8.752  0.1506 -0.2087 -0.3990
 2490SOL    HW119103   2.184   3.193   8.664 -2.0197 -0.3311 -1.1430
 2490SOL    HW219104   2.186   3.303   8.760 -0.1670  0.1823 -3.4039
 2491SOL     OW19105   1.629   3.023   2.443 -0.1841 -0.3990  0.0836
 2491SOL    HW119106   1.610   2.929   2.440 -1.1926 -0.3385  4.2210
 2491SOL    HW219107   1.716   3.026   2.404 -0.6942 -1.9355 -1.1563
 2492SOL     OW19108   1.927   4.029   8.052 -0.2877  0.0380  0.7728
 2492SOL    HW119109   1.905   4.082   7.975 -0.9017 -0.2756  0.7343
 2492SOL    HW219110   1.839   4.018   8.087  0.6471 -1.3333  2.7238
 2493SOL     OW19111   4.487   4.369   7.591  0.4616 -0.4162 -0.4776
 2493SOL    HW119112   4.496   4.314   7.513  1.9926 -1.5927  0.5377
 2493SOL    HW219113   4.510   4.301   7.655  1.9997 -0.3977 -1.0272
 2494SOL     OW19114   2.378   0.080   7.084 -0.1918  0.1935 -0.2358
 2494SOL    HW119115   2.368   4.724   7.069 -0.1825  0.0415  0.7091
 2494SOL    HW219116   2.452   0.103   7.028 -1.4809  0.2561 -1.9203
 2495SOL     OW19117   0.659   4.350   0.456  0.2003  0.2331 -0.0572
 2495SOL    HW119118   0.677   4.374   0.365 -2.5703 -3.3128 -1.4920
 2495SOL    HW219119   0.751   4.345   0.482 -0.0697  1.9265  1.2629
 2496SOL     OW19120   1.093   1.497  11.214  0.0225  0.6028  0.0460
 2496SOL    HW119121   1.158   1.464  11.277 -0.7819 -0.9540  0.0372
 2496SOL    HW219122   1.021   1.443  11.245  0.9449  0.1136  1.3528
 2497SOL     OW19123   4.113   1.042   3.155 -0.2558 -0.3079  0.4023
 2497SOL    HW119124   4.088   1.134   3.163 -0.7978 -0.3296 -1.0872
 2497SOL    HW219125   4.053   1.008   3.222 -0.7965 -0.3509 -0.1012
 2498SOL     OW19126   1.217   1.410   8.327 -0.0018  0.1969 -0.1023
 2498SOL    HW119127   1.187   1.326   8.294  1.2009 -0.3443  0.1742
 2498SOL    HW219128   1.148   1.463   8.366  0.7450  2.4697 -1.8457
 2499SOL     OW19129   2.924   1.870   1.509  0.9075 -0.0342 -0.4141
 2499SOL    HW119130   2.910   1.953   1.554  1.5233  0.8651 -1.8746
 2499SOL    HW219131   2.973   1.891   1.430  0.9100  0.1662 -0.3595
 2500SOL     OW19132   2.380   1.083   5.350  0.8923  0.1057  0.6775
 2500SOL    HW119133   2.285   1.074   5.338  1.1096 -0.1439 -0.9081
 2500SOL    HW219134   2.375   1.151   5.416 -0.3276  0.2829  0.4077
 2501SOL     OW19135   2.578   2.349  13.019  0.2638  0.3745  0.3184
 2501SOL    HW119136   2.593   2.254  13.011 -0.4616  0.0884  2.1982
 2501SOL    HW219137   2.563   2.370  12.927  1.5339  1.4650  0.3616
 2502SOL     OW19138   3.046   4.101   5.147 -0.2572  0.1397 -0.2924
 2502SOL    HW119139   3.032   4.145   5.064 -0.3020  0.3384 -0.1795
 2502SOL    HW219140   3.092   4.026   5.108  0.3902  0.6770 -0.5573
 2503SOL     OW19141   3.048   3.883   7.727 -0.0032  0.0095  0.5764
 2503SOL    HW119142   3.043   3.948   7.657  0.4254 -0.9006 -0.3256
 2503SOL    HW219143   3.124   3.834   7.693  2.1554  1.8266  2.7667
 2504SOL     OW19144   2.910   1.055   9.110 -0.1011 -0.0628  0.1329
 2504SOL    HW119145   2.967   1.095   9.043 -0.2854  1.3203  0.7928
 2504SOL    HW219146   2.979   1.002   9.147 -1.1566 -0.1464  1.9853
 2505SOL     OW19147   3.222   0.990  16.825 -0.7753  0.2798 -0.1966
 2505SOL    HW119148   3.139   1.033  16.844  0.1688  2.1490 -0.2498
 2505SOL    HW219149   3.264   1.060  16.775 -3.9975  1.1390 -1.6990
 2506SOL     OW19150   2.794   1.021   5.113  0.6163  0.4990 -0.0671
 2506SOL    HW119151   2.838   1.058   5.036 -0.0631 -0.9515 -1.1534
 2506SOL    HW219152   2.741   1.097   5.138  1.3430  0.7906  0.5922
 2507SOL     OW19153   0.055   0.968   1.623 -0.3507 -0.6067 -0.4624
 2507SOL    HW119154   0.108   1.030   1.573  1.3941 -0.3035  1.7591
 2507SOL    HW219155   0.104   0.965   1.705  1.0125  1.9273 -1.1897
 2508SOL     OW19156   4.306   1.645  12.087 -0.2445 -0.1070  0.3752
 2508SOL    HW119157   4.323   1.567  12.140 -2.3180  0.7003  2.2439
 2508SOL    HW219158   4.224   1.614  12.049 -0.9443 -0.1648  1.9331
 2509SOL     OW19159   1.505   1.599  17.598 -0.0488 -0.0618  0.5092
 2509SOL    HW119160   1.536   1.511  17.573 -0.4685  0.8564 -3.2784
 2509SOL    HW219161   1.576   1.623  17.658 -1.7240  3.4063  1.0263
 2510SOL     OW19162   0.027   3.676   3.532  0.5903 -0.3212  0.3404
 2510SOL    HW119163   0.047   3.685   3.439 -1.2073 -1.0934 -0.1314
 2510SOL    HW219164   0.101   3.723   3.570  0.5610  1.4701 -1.8133
 2511SOL     OW19165   4.685   1.480   6.149 -0.2772 -0.5596  0.0399
 2511SOL    HW119166   0.037   1.513   6.156 -0.3776 -0.6424  1.5081
 2511SOL    HW219167   4.650   1.464   6.236  1.5592 -0.8186  0.7324
 2512SOL     OW19168   1.176   4.013   5.367 -0.2431 -0.2877  0.0022
 2512SOL    HW119169   1.177   4.041   5.275  1.6492  1.8756  0.6676
 2512SOL    HW219170   1.270   4.014   5.387  0.0550  0.2955 -1.4417
 2513SOL     OW19171   3.243   4.310   4.225 -0.0092  0.3685  0.3174
 2513SOL    HW119172   3.246   4.255   4.147  1.4735 -0.4553  0.9641
 2513SOL    HW219173   3.179   4.268   4.283  0.9016 -0.2470  0.8606
 2514SOL     OW19174   0.255   1.593   2.861 -0.1616  0.0170  0.2408
 2514SOL    HW119175   0.339   1.622   2.825 -0.0605  0.5830  0.9332
 2514SOL    HW219176   0.207   1.665   2.819 -0.2770  0.5596  1.2987
 2515SOL     OW19177   0.385   1.516  13.678  0.3152 -0.4102  0.2072
 2515SOL    HW119178   0.374   1.600  13.724 -1.9582 -1.1267  0.9631
 2515SOL    HW219179   0.453   1.539  13.615 -0.3408 -0.2483 -0.4520
 2516SOL     OW19180   0.024   4.599   3.344  0.1980  0.2646 -0.2007
 2516SOL    HW119181   0.009   4.634   3.431  0.8978 -0.3541  0.1692
 2516SOL    HW219182   4.701   4.647   3.288 -0.0064  1.8383  1.3716
 2517SOL     OW19183   3.488   4.339  13.395 -0.0244 -0.0759  0.4407
 2517SOL    HW119184   3.436   4.411  13.358  1.1732  0.2441 -0.5985
 2517SOL    HW219185   3.512   4.377  13.480 -1.2251 -2.0363  1.6726
 2518SOL     OW19186   1.990   3.542   4.891 -0.0459  0.2937 -0.0405
 2518SOL    HW119187   2.054   3.486   4.934 -1.0321  0.4002  1.5588
 2518SOL    HW219188   2.019   3.630   4.916 -5.4942  1.5137  2.1546
 2519SOL     OW19189   2.468   0.560   7.222 -0.2758 -0.5906  0.4044
 2519SOL    HW119190   2.436   0.618   7.291  0.3206  1.3168 -0.8867
 2519SOL    HW219191   2.511   0.486   7.264  0.0290 -0.4575  0.3326
 2520SOL     OW19192   0.217   1.488  10.450  0.3398 -0.2199  0.6251
 2520SOL    HW119193   0.292   1.524  10.497  0.1596 -0.5873  1.1923
 2520SOL    HW219194   0.148   1.546  10.483  1.5049  0.6565  1.5053
 2521SOL     OW19195   0.566   2.294   9.383  0.2396  0.0925 -0.2856
 2521SOL    HW119196   0.600   2.383   9.395  1.3388 -0.5491  1.4161
 2521SOL    HW219197   0.614   2.242   9.448  1.0334  0.9440 -0.1932
 2522SOL     OW19198   1.278   2.287   4.275 -0.2323  0.0305  0.2815
 2522SOL    HW119199   1.237   2.354   4.221 -0.8360 -1.0986 -0.6568
 2522SOL    HW219200   1.354   2.336   4.306  1.9368 -2.4899 -1.0555
 2523SOL     OW19201   0.895   3.078   4.164  0.9501  0.1195  0.1026
 2523SOL    HW119202   0.810   3.086   4.122 -0.0278 -0.2304  1.9827
 2523SOL    HW219203   0.925   3.168   4.151 -0.5434  0.2723 -2.2584
 2524SOL     OW19204   2.969   0.950  14.170 -0.1213 -0.1874 -0.0697
 2524SOL    HW119205   3.015   0.990  14.243  2.1806 -0.9527 -1.0877
 2524SOL    HW219206   2.957   0.858  14.194  2.1303 -0.8281 -1.3651
 2525SOL     OW19207   0.262   1.027  11.838 -0.0091  0.1537 -0.2534
 2525SOL    HW119208   0.287   1.116  11.813 -0.5719  0.4507  0.2232
 2525SOL    HW219209   0.330   1.000  11.900  1.5803  1.7226 -1.3341
 2526SOL     OW19210   3.597   0.795  13.421 -0.5552 -0.0417  0.0234
 2526SOL    HW119211   3.580   0.816  13.513 -1.5909  2.3544 -0.7188
 2526SOL    HW219212   3.692   0.802  13.430 -0.5643  0.7591 -0.5508
 2527SOL     OW19213   4.384   2.431   9.497  0.4065 -0.0229 -0.8138
 2527SOL    HW119214   4.297   2.430   9.458  0.6502  1.6199 -1.3657
 2527SOL    HW219215   4.369   2.358   9.558  4.0924 -2.2203 -2.5421
 2528SOL     OW19216   1.214   3.016  16.338  0.0482  1.1519 -0.2913
 2528SOL    HW119217   1.151   2.996  16.407  2.5463  0.3695  1.7734
 2528SOL    HW219218   1.165   2.988  16.261 -1.0015 -1.5414  1.3658
 2529SOL     OW19219   0.822   2.590   5.115  0.0453 -0.4025 -0.2446
 2529SOL    HW119220   0.885   2.527   5.149  0.4897  0.7463  1.0656
 2529SOL    HW219221   0.749   2.534   5.089  0.3373  0.7255 -3.5070
 2530SOL     OW19222   0.203   0.622   3.174 -0.3609 -0.4731  0.1050
 2530SOL    HW119223   0.145   0.603   3.248  0.7865 -1.7395  0.6966
 2530SOL    HW219224   0.170   0.569   3.102  1.9989  0.6086 -1.7727
 2531SOL     OW19225   1.953   0.001   1.676 -0.3840  0.0969 -0.4262
 2531SOL    HW119226   2.000   4.698   1.749 -0.5133  2.0150  0.7210
 2531SOL    HW219227   1.863   4.707   1.689  0.5112 -2.1767  0.1832
 2532SOL     OW19228   1.184   2.958   2.250  0.1698  0.1167 -0.6741
 2532SOL    HW119229   1.092   2.948   2.274  0.9172 -1.1578  1.7861
 2532SOL    HW219230   1.217   2.868   2.244  0.9790  0.3652  0.0449
 2533SOL     OW19231   0.368   1.663   6.670  0.0346  0.2083 -0.0529
 2533SOL    HW119232   0.445   1.633   6.718  1.2003  0.1171 -1.9864
 2533SOL    HW219233   0.362   1.614   6.588 -2.2147 -0.6227  0.6169
 2534SOL     OW19234   2.953   1.317   5.752  0.1441  0.3075 -0.4734
 2534SOL    HW119235   2.882   1.381   5.760 -0.8899 -0.8373 -0.5868
 2534SOL    HW219236   3.007   1.332   5.830  2.5372 -2.7273 -1.5412
 2535SOL     OW19237   0.723   4.337  13.128 -0.2645 -0.2230  0.3622
 2535SOL    HW119238   0.709   4.324  13.222  0.3652 -1.4676  0.2823
 2535SOL    HW219239   0.810   4.300  13.114 -0.0118 -0.1613  1.7029
 2536SOL     OW19240   0.564   0.165   0.127  0.1306  0.0026  0.0246
 2536SOL    HW119241   0.618   0.235   0.089  1.7071  0.4068  3.0097
 2536SOL    HW219242   0.538   0.208   0.208 -0.7122  0.7094 -0.6308
 2537SOL     OW19243   3.387   0.763  15.070 -0.4861 -0.3584 -0.8171
 2537SOL    HW119244   3.373   0.845  15.024 -1.4411 -0.9361 -1.5537
 2537SOL    HW219245   3.390   0.787  15.163  0.6537  0.0381 -0.9562
 2538SOL     OW19246   0.574   3.170   6.985  0.7806 -0.0089  0.1078
 2538SOL    HW119247   0.663   3.176   7.020  0.3801 -0.4570  1.1809
 2538SOL    HW219248   0.580   3.088   6.935 -1.5147  0.1719 -0.4400
 2539SOL     OW19249   1.952   4.458   4.764 -0.2808  0.2241  0.6361
 2539SOL    HW119250   2.044   4.433   4.757 -0.0959  0.8596  0.8358
 2539SOL    HW219251   1.938   4.474   4.857  0.2509  0.4788  0.6731
 2540SOL     OW19252   1.894   2.070  11.599  0.6961 -0.1298 -0.0838
 2540SOL    HW119253   1.985   2.098  11.589  0.5863 -0.1744 -1.2057
 2540SOL    HW219254   1.849   2.147  11.634  1.4191  1.0331 -1.6694
 2541SOL     OW19255   3.295   4.378   0.700  0.0862  0.4767  0.1483
 2541SOL    HW119256   3.376   4.414   0.735 -0.6828  2.1485  0.2159
 2541SOL    HW219257   3.325   4.368   0.610  1.1046 -1.0126  0.6627
 2542SOL     OW19258   4.384   0.395  13.874 -0.2086  0.4512 -0.2440
 2542SOL    HW119259   4.344   0.326  13.928 -0.6209 -0.5116 -1.8065
 2542SOL    HW219260   4.460   0.427  13.923  0.6779 -2.0360 -0.0226
 2543SOL     OW19261   0.387   0.931   4.335 -0.2551  0.1139 -0.4933
 2543SOL    HW119262   0.370   1.021   4.362  0.7657 -0.3634  1.7388
 2543SOL    HW219263   0.397   0.940   4.241  0.2198  2.3058 -0.2263
 2544SOL     OW19264   0.077   2.280   8.642  0.2927  0.0932 -0.1252
 2544SOL    HW119265   0.047   2.365   8.675 -0.5712 -0.4127  0.3860
 2544SOL    HW219266   0.155   2.271   8.698 -0.5355 -0.6826  0.9043
 2545SOL     OW19267   3.031   4.549   2.748 -0.1187 -0.5679 -0.1868
 2545SOL    HW119268   3.023   4.642   2.729  0.4018 -0.7373 -1.2247
 2545SOL    HW219269   3.093   4.525   2.679  1.7103  0.9737  0.9285
 2546SOL     OW19270   0.052   1.588   5.869  0.4823  0.2620 -0.3040
 2546SOL    HW119271   4.721   1.564   5.932 -1.9647  4.3442 -1.3762
 2546SOL    HW219272   0.010   1.670   5.843 -1.3183 -0.4360  0.3879
 2547SOL     OW19273   0.946   0.676   5.122 -0.1212 -0.1604  0.3959
 2547SOL    HW119274   0.863   0.628   5.123  0.4171 -1.0779  1.1227
 2547SOL    HW219275   0.954   0.690   5.028 -0.7590  0.4297  0.4284
 2548SOL     OW19276   2.840   1.611   3.807 -0.3422  0.2911  0.2836
 2548SOL    HW119277   2.907   1.656   3.756 -0.6088  0.2525 -0.1003
 2548SOL    HW219278   2.832   1.528   3.760  1.5312  0.5078 -0.4479
 2549SOL     OW19279   0.779   1.517   2.138 -0.2693 -0.1713  0.0686
 2549SOL    HW119280   0.839   1.481   2.073  3.0512  1.3894  2.2447
 2549SOL    HW219281   0.807   1.607   2.123 -0.5288 -0.0577  0.2797
 2550SOL     OW19282   1.937   0.891  16.389  0.4038  0.4259 -0.3624
 2550SOL    HW119283   1.857   0.838  16.390  1.3373 -0.9010  3.0962
 2550SOL    HW219284   1.991   0.835  16.333  0.7023  0.4026 -0.0498
 2551SOL     OW19285   1.732   1.670  17.316 -0.2591 -0.1753  0.6270
 2551SOL    HW119286   1.666   1.646  17.251 -1.4121  0.5570  1.5166
 2551SOL    HW219287   1.759   1.585  17.351 -0.7655 -0.6492 -0.1422
 2552SOL     OW19288   2.297   4.700   9.759  0.0075  0.1431 -0.4350
 2552SOL    HW119289   2.361   0.001   9.699  1.0574  1.5327  1.5793
 2552SOL    HW219290   2.271   0.037   9.812  0.1240 -0.2385  0.1577
 2553SOL     OW19291   2.278   3.632  10.586  0.1008  0.1109 -0.0061
 2553SOL    HW119292   2.337   3.614  10.660 -1.4341  1.3993  1.5162
 2553SOL    HW219293   2.343   3.649  10.518 -1.0042 -3.0637 -1.8747
 2554SOL     OW19294   2.495   3.721  12.939  0.6113  0.0331  0.1837
 2554SOL    HW119295   2.479   3.650  13.001 -1.1828 -0.6954 -1.1230
 2554SOL    HW219296   2.541   3.674  12.870 -0.0811 -0.3455 -0.0153
 2555SOL     OW19297   3.041   2.185   9.339  0.0247 -0.0954  0.0077
 2555SOL    HW119298   3.125   2.228   9.356  0.3238 -0.2366 -1.1411
 2555SOL    HW219299   3.038   2.113   9.403  0.9105 -0.5464 -0.4612
 2556SOL     OW19300   0.153   4.613  11.956  0.1926  0.6018 -0.6070
 2556SOL    HW119301   0.244   4.602  11.983 -0.4276 -0.7915  0.9019
 2556SOL    HW219302   0.134   4.676  12.026  2.1654  0.4102  0.1001
 2557SOL     OW19303   3.943   1.251   6.184  0.4831 -0.0395 -0.3298
 2557SOL    HW119304   3.912   1.323   6.129  0.1560 -1.1397 -1.5852
 2557SOL    HW219305   3.941   1.179   6.121 -1.3479  0.4795 -0.8673
 2558SOL     OW19306   0.852   3.139  10.238  0.1792 -0.3487  0.3257
 2558SOL    HW119307   0.843   3.132  10.333  1.7943 -0.7979  0.4444
 2558SOL    HW219308   0.765   3.107  10.216 -0.8341  1.8817  1.1937
 2559SOL     OW19309   0.584   1.608  13.494 -0.0846 -0.0452  0.3270
 2559SOL    HW119310   0.571   1.602  13.399 -0.1866  0.1067  0.3311
 2559SOL    HW219311   0.590   1.702  13.508 -2.4899  0.0219  0.9133
 2560SOL     OW19312   4.309   0.869   3.091  0.0676  0.0173 -0.5338
 2560SOL    HW119313   4.242   0.927   3.128 -1.0520 -0.4593 -1.8317
 2560SOL    HW219314   4.340   0.826   3.171 -1.5236 -1.3801 -0.6767
 2561SOL     OW19315   0.251   4.533   7.335 -0.1418  0.4611  0.4326
 2561SOL    HW119316   0.233   4.527   7.429 -2.6852 -1.5889 -0.2111
 2561SOL    HW219317   0.177   4.587   7.307 -0.4159  0.5070  1.2398
 2562SOL     OW19318   0.409   0.071   5.601 -0.3252  0.4290  0.1428
 2562SOL    HW119319   0.447   0.144   5.552  0.8093  1.0201  1.8683
 2562SOL    HW219320   0.322   0.056   5.566 -0.4165 -2.3749  1.5254
 2563SOL     OW19321   3.465   1.090  15.522  0.3004 -0.0873  0.1257
 2563SOL    HW119322   3.433   1.070  15.609 -3.0399  1.6950 -0.6642
 2563SOL    HW219323   3.382   1.105  15.476 -0.0843  1.9333  1.4981
 2564SOL     OW19324   4.548   3.423   6.894 -0.3639 -0.0144 -0.0924
 2564SOL    HW119325   4.638   3.414   6.861 -0.5407 -1.1688 -0.2646
 2564SOL    HW219326   4.508   3.341   6.867  2.2493 -1.1508 -0.5395
 2565SOL     OW19327   3.488   1.110  14.701  0.1969 -0.5361  0.6423
 2565SOL    HW119328   3.582   1.116  14.687 -0.0363 -1.2319 -1.1150
 2565SOL    HW219329   3.459   1.186  14.651  1.8648  0.4359  1.1589
 2566SOL     OW19330   1.323   1.444   8.834  0.6879 -0.0671 -0.1344
 2566SOL    HW119331   1.304   1.531   8.800  0.2279 -0.7992 -1.7484
 2566SOL    HW219332   1.378   1.459   8.911 -0.5616 -0.7836  0.9179
 2567SOL     OW19333   1.057   2.488  13.829  0.1490  0.2629 -0.3232
 2567SOL    HW119334   1.046   2.403  13.872  0.0878  0.7162  0.5458
 2567SOL    HW219335   1.009   2.546  13.887  2.0763  1.1819  0.3592
 2568SOL     OW19336   4.268   0.790   5.481  0.0376  0.4368 -0.2457
 2568SOL    HW119337   4.339   0.758   5.425 -1.5021  0.4004 -2.1640
 2568SOL    HW219338   4.289   0.749   5.565  2.8861  0.4937 -0.9278
 2569SOL     OW19339   1.996   3.617  15.388 -0.3939 -0.1277  0.4516
 2569SOL    HW119340   2.009   3.641  15.296  0.9606 -1.1263  0.3903
 2569SOL    HW219341   2.044   3.534  15.388  3.7566  2.3279  1.9040
 2570SOL     OW19342   3.564   4.414   1.650  0.3672 -0.1573 -0.4501
 2570SOL    HW119343   3.500   4.387   1.716  2.2312 -0.0991  1.4149
 2570SOL    HW219344   3.649   4.393   1.688  0.0269 -0.8737 -0.0848
 2571SOL     OW19345   3.538   0.764   4.031 -0.6007 -0.3229  0.4320
 2571SOL    HW119346   3.450   0.732   4.050 -1.1973  0.1249 -1.5328
 2571SOL    HW219347   3.583   0.720   4.103 -1.3851  1.2156  1.8445
 2572SOL     OW19348   2.443   1.627  17.115 -0.2059  0.9808  0.5215
 2572SOL    HW119349   2.479   1.540  17.096 -1.4619  0.4344  0.6114
 2572SOL    HW219350   2.391   1.655  17.039  1.2297  0.7854 -0.5262
 2573SOL     OW19351   1.409   4.201   3.619 -0.4099  0.4709  0.1199
 2573SOL    HW119352   1.347   4.274   3.617 -0.7093  0.2380  0.9136
 2573SOL    HW219353   1.391   4.142   3.692  0.3032  1.9772  1.5039
 2574SOL     OW19354   2.288   1.700   1.037  0.0468  0.4051 -0.3865
 2574SOL    HW119355   2.265   1.766   0.971  0.2669  0.6605 -0.2078
 2574SOL    HW219356   2.249   1.621   1.000  0.4936  0.3024 -0.6367
 2575SOL     OW19357   1.810   2.245   1.221 -0.3036  0.0811  0.6449
 2575SOL    HW119358   1.864   2.260   1.143 -0.0256  0.0055  0.8243
 2575SOL    HW219359   1.870   2.185   1.264 -1.6026 -2.8589 -1.6472
 2576SOL     OW19360   2.560   0.281  12.257 -0.2788 -0.7941  0.2335
 2576SOL    HW119361   2.557   0.363  12.306 -0.5908 -0.0319 -1.0800
 2576SOL    HW219362   2.638   0.241  12.297 -1.1746 -1.2118  1.5633
 2577SOL     OW19363   3.800   0.523   9.738 -0.9346  0.7051  0.5164
 2577SOL    HW119364   3.811   0.568   9.821 -2.0792  0.3876  0.8318
 2577SOL    HW219365   3.856   0.577   9.682  0.2163  1.2353  2.1790
 2578SOL     OW19366   4.603   1.942   9.383 -0.3271 -0.0430  0.4531
 2578SOL    HW119367   4.603   1.878   9.312  0.0959  0.0473  0.3718
 2578SOL    HW219368   4.603   1.887   9.462 -0.8835  1.1657  1.2851
 2579SOL     OW19369   0.449   4.476   3.574 -0.5728 -0.2642  0.2804
 2579SOL    HW119370   0.467   4.390   3.612 -0.8531 -0.8851 -1.0072
 2579SOL    HW219371   0.418   4.463   3.484 -1.7749  2.0702  0.3527
 2580SOL     OW19372   2.547   4.466   7.648  0.4573 -0.2566 -0.3423
 2580SOL    HW119373   2.494   4.447   7.570 -1.9879  0.3957  1.1700
 2580SOL    HW219374   2.607   4.392   7.649  0.3039 -0.3278  2.4407
 2581SOL     OW19375   3.430   1.970  16.464 -0.2384 -1.1072  0.2873
 2581SOL    HW119376   3.374   2.022  16.521  0.1266  0.4445 -0.7490
 2581SOL    HW219377   3.483   2.039  16.423  0.1606  0.3050  3.2172
 2582SOL     OW19378   2.810   3.487  16.482 -0.2285  0.0528  0.4377
 2582SOL    HW119379   2.876   3.425  16.513 -0.1202  0.1593  0.4239
 2582SOL    HW219380   2.729   3.445  16.510  0.4681 -0.5988  1.4872
 2583SOL     OW19381   0.550   0.682   9.657 -0.1220  0.1035 -0.8596
 2583SOL    HW119382   0.624   0.649   9.607 -1.2011 -1.3751 -1.4748
 2583SOL    HW219383   0.579   0.767   9.689 -2.1082  0.6293 -0.4267
 2584SOL     OW19384   0.997   1.157   4.545  0.7046 -0.0442  0.2493
 2584SOL    HW119385   0.990   1.064   4.521 -2.0525  0.4667 -0.9672
 2584SOL    HW219386   0.919   1.183   4.497  1.2917  1.5891  0.1940
 2585SOL     OW19387   2.199   3.866   6.426  0.3126 -0.3239 -0.0336
 2585SOL    HW119388   2.118   3.816   6.434 -0.7661  1.8418  2.7128
 2585SOL    HW219389   2.164   3.949   6.393 -1.0916 -1.6571 -1.9090
 2586SOL     OW19390   2.821   3.524   8.361 -0.2654 -0.4640  0.0960
 2586SOL    HW119391   2.898   3.484   8.400  0.3745  0.5137 -0.1697
 2586SOL    HW219392   2.759   3.490   8.425 -1.7136  0.2246 -0.9426
 2587SOL     OW19393   4.509   1.795   1.981 -0.0325  0.1634 -0.1531
 2587SOL    HW119394   4.422   1.783   1.943  0.4164  2.4538 -1.8637
 2587SOL    HW219395   4.530   1.701   1.980 -0.3462  0.0736  1.1993
 2588SOL     OW19396   1.757   1.313   5.840 -0.1668  0.0650  0.1501
 2588SOL    HW119397   1.761   1.342   5.749  0.7473 -0.0067  0.1706
 2588SOL    HW219398   1.671   1.347   5.864  1.2254  3.6285  0.0962
 2589SOL     OW19399   4.338   3.447   4.464  0.4909  0.2232  0.2868
 2589SOL    HW119400   4.420   3.397   4.458  0.3266 -0.1503  1.1918
 2589SOL    HW219401   4.283   3.379   4.503  3.9013 -2.0123  1.1832
 2590SOL     OW19402   0.428   4.279   2.885 -0.3496 -0.4851 -0.3116
 2590SOL    HW119403   0.373   4.201   2.880 -0.6280 -0.4419  1.8854
 2590SOL    HW219404   0.373   4.348   2.848 -0.8607 -0.8872 -0.3122
 2591SOL     OW19405   4.054   0.121  16.161  0.1584  0.2943  0.8303
 2591SOL    HW119406   4.119   0.166  16.216  0.1853  0.5456  0.5950
 2591SOL    HW219407   3.976   0.177  16.165  0.6886  1.2215 -1.8260
 2592SOL     OW19408   4.072   3.591  10.008  0.0725 -0.4488  0.1862
 2592SOL    HW119409   4.127   3.669  10.004 -0.1057 -0.3146  0.3361
 2592SOL    HW219410   4.110   3.528   9.947  2.2129 -0.9882  2.0903
 2593SOL     OW19411   3.635   4.598  17.009  0.2837 -0.0056 -0.0323
 2593SOL    HW119412   3.615   4.661  16.939  3.3308 -1.6217 -2.3627
 2593SOL    HW219413   3.678   4.646  17.080  0.7168  2.1122 -1.7281
 2594SOL     OW19414   3.488   3.068   6.479 -0.4648 -0.0420 -1.0670
 2594SOL    HW119415   3.420   3.116   6.431  0.1195  0.7222 -1.1174
 2594SOL    HW219416   3.498   3.126   6.554  1.1700 -1.1778 -0.4164
 2595SOL     OW19417   1.333   0.150   9.299 -0.1433  0.5351 -0.0823
 2595SOL    HW119418   1.330   0.127   9.206  0.6585 -0.8256  0.2316
 2595SOL    HW219419   1.277   0.084   9.340 -1.1807  0.6738 -1.2710
 2596SOL     OW19420   3.778   0.846   3.919  0.0350 -0.1611 -0.1376
 2596SOL    HW119421   3.699   0.831   3.971  1.3830 -1.4264  1.5635
 2596SOL    HW219422   3.839   0.880   3.984  0.7320  0.3947 -1.0881
 2597SOL     OW19423   0.665   4.643   3.808  0.5535 -0.2561 -0.0296
 2597SOL    HW119424   0.606   4.677   3.742  0.4739  0.4645  0.4163
 2597SOL    HW219425   0.651   4.549   3.794 -1.9697  0.2522 -0.8526
 2598SOL     OW19426   0.734   4.691   8.607 -0.3034 -0.1646  0.3189
 2598SOL    HW119427   0.752   0.044   8.632 -2.1712  0.9122 -2.2046
 2598SOL    HW219428   0.786   4.694   8.526 -2.3339 -2.1003 -1.0645
 2599SOL     OW19429   0.987   3.187  13.053  0.4770 -0.3316 -0.4406
 2599SOL    HW119430   1.010   3.173  13.145  0.2518  2.8676  0.1240
 2599SOL    HW219431   1.074   3.184  13.014  0.6654  0.0406 -0.0581
 2600SOL     OW19432   3.332   0.347   9.542  0.0852  0.5485 -0.7742
 2600SOL    HW119433   3.382   0.274   9.506 -1.5655 -1.3685  0.8254
 2600SOL    HW219434   3.399   0.378   9.603  0.8749  1.8024 -2.2806
 2601SOL     OW19435   2.708   4.659  17.527  1.2147 -0.5112 -0.5913
 2601SOL    HW119436   2.735   4.568  17.517  0.4642 -0.8467  0.3990
 2601SOL    HW219437   2.613   4.648  17.522  0.8044  3.1537 -1.0234
 2602SOL     OW19438   3.859   4.678  16.012  0.1905  0.8431 -0.2636
 2602SOL    HW119439   3.928   4.735  15.977  1.2359  1.7113  3.2235
 2602SOL    HW219440   3.867   4.594  15.967  1.4229  0.6325  0.3331
 2603SOL     OW19441   1.090   1.256  10.353  0.3634 -0.2142 -1.2183
 2603SOL    HW119442   1.105   1.189  10.420  0.2302  1.5957  0.6331
 2603SOL    HW219443   1.173   1.303  10.360 -0.4685  0.9127  1.3818
 2604SOL     OW19444   2.170   1.442  16.893  0.1350 -0.1824 -0.0831
 2604SOL    HW119445   2.110   1.514  16.875 -0.9201 -0.8362  0.8173
 2604SOL    HW219446   2.255   1.474  16.862 -0.4693 -0.2366 -1.7976
 2605SOL     OW19447   3.319   0.932   0.416 -0.2872 -0.2789  0.4031
 2605SOL    HW119448   3.338   0.839   0.408  0.7759 -0.0229 -0.0216
 2605SOL    HW219449   3.326   0.964   0.326 -1.1245  0.2011  0.5114
 2606SOL     OW19450   0.393   3.237  15.063  0.2439  0.1229  0.3721
 2606SOL    HW119451   0.480   3.225  15.025  0.7392  0.1154  1.5054
 2606SOL    HW219452   0.340   3.254  14.985  1.4330 -1.2551 -0.7391
 2607SOL     OW19453   1.171   2.446   2.596  0.1040  0.1408  0.8108
 2607SOL    HW119454   1.092   2.418   2.549 -0.9113  2.7307  0.9638
 2607SOL    HW219455   1.218   2.501   2.534 -3.3896  3.0930  0.7248
 2608SOL     OW19456   3.707   1.086   8.655  0.1682  0.2017 -0.6814
 2608SOL    HW119457   3.721   1.180   8.645 -2.1206  0.4319 -1.7377
 2608SOL    HW219458   3.772   1.041   8.601  1.5560  2.5496 -0.9579
 2609SOL     OW19459   1.867   0.754  17.235 -0.0791  0.3136  0.2149
 2609SOL    HW119460   1.838   0.715  17.152  2.5923 -2.5238  0.6271
 2609SOL    HW219461   1.908   0.837  17.210 -1.2634  0.8189 -0.0747
 2610SOL     OW19462   1.597   4.010   2.646  0.6277 -0.2907 -0.4170
 2610SOL    HW119463   1.510   4.023   2.608  1.8295  0.1872 -2.9860
 2610SOL    HW219464   1.615   3.919   2.621 -0.6204 -1.4185  2.7740
 2611SOL     OW19465   3.722   3.967   5.333 -0.7680  0.1562 -0.3102
 2611SOL    HW119466   3.628   3.971   5.347 -0.9497 -0.6588 -1.3284
 2611SOL    HW219467   3.740   3.987   5.241 -2.8818  0.7860 -0.5794
 2612SOL     OW19468   3.485   0.518   9.717 -0.1136  0.8010  0.3091
 2612SOL    HW119469   3.437   0.586   9.671 -0.5556 -0.2065 -0.7187
 2612SOL    HW219470   3.574   0.545   9.694  0.6870 -2.1468 -0.1148
 2613SOL     OW19471   3.674   3.553   9.432  0.8165  0.3457  0.0742
 2613SOL    HW119472   3.762   3.515   9.428  0.9355  0.5949  0.3465
 2613SOL    HW219473   3.648   3.536   9.341  0.9058 -0.8431  0.2744
 2614SOL     OW19474   3.136   1.026   6.609  0.5755  0.4255 -0.7161
 2614SOL    HW119475   3.180   0.942   6.622  0.3214  0.1997 -1.3298
 2614SOL    HW219476   3.099   1.057   6.692 -3.0828 -0.1039 -2.1843
 2615SOL     OW19477   2.855   3.784   8.053 -0.7539  0.9749  0.0382
 2615SOL    HW119478   2.782   3.769   7.992  1.2676  1.2687 -2.4433
 2615SOL    HW219479   2.882   3.694   8.069  0.3629  1.3114  0.0474
 2616SOL     OW19480   2.627   4.308   6.740  0.0654  0.3093 -0.3074
 2616SOL    HW119481   2.657   4.396   6.718 -1.3236  0.6831 -0.7258
 2616SOL    HW219482   2.534   4.322   6.721  0.1601  1.4249  0.0334
 2617SOL     OW19483   1.308   1.965   6.737 -0.4339 -0.1805  0.4430
 2617SOL    HW119484   1.326   1.916   6.817 -1.3147 -1.8454 -0.3772
 2617SOL    HW219485   1.215   1.987   6.745 -0.3106 -0.4686  2.7942
 2618SOL     OW19486   2.566   1.620  16.243 -0.4478 -0.3528  0.0682
 2618SOL    HW119487   2.654   1.649  16.220 -0.3661 -2.2633 -1.9183
 2618SOL    HW219488   2.522   1.617  16.159  1.1075 -0.1354 -0.7639
 2619SOL     OW19489   1.700   0.104  11.958  0.3279 -0.5984 -0.7284
 2619SOL    HW119490   1.746   0.179  11.995 -0.9655  1.3146 -2.9770
 2619SOL    HW219491   1.752   0.033  11.995  1.9590 -0.3792 -2.5805
 2620SOL     OW19492   3.388   1.090  17.061  0.2079 -0.4375 -0.5861
 2620SOL    HW119493   3.374   1.002  17.095 -1.2394 -0.9289 -2.4460
 2620SOL    HW219494   3.382   1.084  16.965  0.6496  1.3176 -0.7243
 2621SOL     OW19495   2.243   3.148   9.729 -0.0560  0.2858 -0.3009
 2621SOL    HW119496   2.251   3.130   9.635  0.0400  0.5255 -0.3379
 2621SOL    HW219497   2.335   3.167   9.745 -0.2814  0.6025  0.6012
 2622SOL     OW19498   0.129   1.277   8.463  0.0719  0.7517  0.0440
 2622SOL    HW119499   0.049   1.304   8.419 -0.8551 -1.1958  0.5177
 2622SOL    HW219500   0.192   1.344   8.435  0.1498 -0.4681 -2.7136
 2623SOL     OW19501   3.523   2.098   2.085  0.2482  0.1485  0.0724
 2623SOL    HW119502   3.563   2.034   2.026  1.5753  0.5208  0.5478
 2623SOL    HW219503   3.443   2.117   2.036  0.3126 -1.0289 -0.4870
 2624SOL     OW19504   1.800   3.946   5.912  0.0241 -0.4238  0.5075
 2624SOL    HW119505   1.793   3.869   5.856  2.3045 -0.5187  0.3334
 2624SOL    HW219506   1.879   3.993   5.883 -1.2528  0.8126 -0.9754
 2625SOL     OW19507   0.226   4.583  17.583  0.2146 -0.4200 -0.6169
 2625SOL    HW119508   0.268   4.589  17.669 -1.6633  0.9250  0.2080
 2625SOL    HW219509   0.137   4.559  17.610 -0.0897  0.5034 -0.8110
 2626SOL     OW19510   4.268   1.330   8.948  0.0638  0.3205  0.2833
 2626SOL    HW119511   4.263   1.246   8.994  0.0658 -0.0085 -0.3130
 2626SOL    HW219512   4.361   1.348   8.960  0.5216 -1.6575 -0.1966
 2627SOL     OW19513   2.539   4.147  10.412  0.2318  0.0376 -0.0377
 2627SOL    HW119514   2.586   4.064  10.411  2.7301  1.4484  0.1697
 2627SOL    HW219515   2.555   4.177  10.501 -2.7645  1.8707 -0.1022
 2628SOL     OW19516   4.461   0.038   8.738 -0.5280 -0.2173 -0.0182
 2628SOL    HW119517   4.449   0.110   8.676  3.0240 -0.4170 -0.8967
 2628SOL    HW219518   4.556   0.037   8.736 -0.4617  0.2384  3.3712
 2629SOL     OW19519   4.008   0.820  14.703  0.4274  0.4405 -0.0126
 2629SOL    HW119520   4.094   0.789  14.674 -0.8473 -1.2646 -2.0117
 2629SOL    HW219521   4.003   0.899  14.650 -1.4152 -1.5051 -2.7380
 2630SOL     OW19522   0.129   3.408   9.185  0.2147 -0.2601 -0.1118
 2630SOL    HW119523   0.220   3.431   9.205 -0.1754  2.6975 -1.7920
 2630SOL    HW219524   0.090   3.474   9.128  3.0311  1.3221 -0.2010
 2631SOL     OW19525   0.252   2.888   4.404 -0.1383  0.1293  0.5694
 2631SOL    HW119526   0.272   2.851   4.319 -1.9758 -1.5231  0.8563
 2631SOL    HW219527   0.170   2.845   4.430 -0.6967  0.2436 -1.0038
 2632SOL     OW19528   2.454   1.863   8.342 -0.0878  0.6232  0.3523
 2632SOL    HW119529   2.465   1.934   8.404  1.3481  0.4370  0.3128
 2632SOL    HW219530   2.426   1.794   8.402  1.8037  0.2777  0.8320
 2633SOL     OW19531   0.342   3.498  14.633 -0.1394 -0.0070 -0.1371
 2633SOL    HW119532   0.394   3.554  14.690 -1.2374  1.1862 -0.3135
 2633SOL    HW219533   0.282   3.564  14.600 -0.4077 -0.7798 -1.2026
 2634SOL     OW19534   0.195   0.189   1.572  0.4263 -0.1252 -0.2155
 2634SOL    HW119535   0.162   0.272   1.607  0.5813  1.0167 -2.8009
 2634SOL    HW219536   0.200   0.137   1.652 -0.8734  0.2645  0.1165
 2635SOL     OW19537   4.600   3.645  11.240 -0.5690  0.0283 -0.8830
 2635SOL    HW119538   4.663   3.689  11.298  0.3998 -1.2461 -0.9708
 2635SOL    HW219539   4.533   3.713  11.239 -0.2117  0.4118  0.4066
 2636SOL     OW19540   3.230   2.105   8.563  0.2908 -0.5395 -0.5796
 2636SOL    HW119541   3.167   2.087   8.633  0.2377 -0.2920 -0.5655
 2636SOL    HW219542   3.184   2.179   8.523 -2.2031 -1.8020 -0.0083
 2637SOL     OW19543   3.798   4.057   5.078 -0.4000  0.4434 -0.3587
 2637SOL    HW119544   3.893   4.066   5.086 -0.5627  2.5986 -0.9509
 2637SOL    HW219545   3.792   4.099   4.992 -0.7512  1.2101  0.0390
 2638SOL     OW19546   4.408   1.521   9.252 -0.3227  0.3816  0.0301
 2638SOL    HW119547   4.444   1.475   9.328  1.2681 -2.1560 -2.2702
 2638SOL    HW219548   4.448   1.483   9.174 -0.2232  2.3211 -0.8531
 2639SOL     OW19549   1.838   0.200   7.785  0.5892  0.7840 -0.0176
 2639SOL    HW119550   1.815   0.116   7.746 -1.0484  1.2093  0.0155
 2639SOL    HW219551   1.756   0.204   7.835  1.8312  1.8635  1.9525
 2640SOL     OW19552   0.349   1.670   3.108  0.1031 -0.3135 -0.1052
 2640SOL    HW119553   0.336   1.764   3.123 -0.9163  0.0862 -3.5120
 2640SOL    HW219554   0.284   1.658   3.039 -0.5273  0.0903  0.4163
 2641SOL     OW19555   4.138   1.190   7.125 -0.2776  0.0959 -0.1818
 2641SOL    HW119556   4.139   1.182   7.220 -1.6909 -2.1473 -0.3287
 2641SOL    HW219557   4.081   1.265   7.110  2.0338  1.3995 -2.4517
 2642SOL     OW19558   2.660   1.261   5.438 -0.3386  0.6236  0.3203
 2642SOL    HW119559   2.684   1.352   5.420 -1.5876  1.1805  1.5265
 2642SOL    HW219560   2.608   1.237   5.361  1.5120  0.9427 -1.0505
 2643SOL     OW19561   2.787   4.445   3.001 -0.0343 -0.0337  0.3344
 2643SOL    HW119562   2.704   4.454   3.048  0.9491  1.1469  1.8501
 2643SOL    HW219563   2.831   4.516   3.047 -2.0660  1.1780  0.4324
 2644SOL     OW19564   1.986   2.159   6.691  0.5771 -0.2491 -0.6768
 2644SOL    HW119565   1.897   2.131   6.671 -0.2391  2.2972 -0.6894
 2644SOL    HW219566   1.970   2.201   6.775  0.2387 -0.0310 -0.8470
 2645SOL     OW19567   2.330   2.058   9.031 -0.5169  0.0186 -0.4979
 2645SOL    HW119568   2.389   1.983   9.024  1.3336  1.5303 -1.3240
 2645SOL    HW219569   2.369   2.122   8.971  0.3941 -0.0258  0.0341
 2646SOL     OW19570   4.079   2.781   1.383 -0.2525  0.4053 -0.2564
 2646SOL    HW119571   4.133   2.818   1.313  0.8052 -0.8446 -0.1040
 2646SOL    HW219572   4.062   2.850   1.446  1.2650  0.0560  0.5535
 2647SOL     OW19573   1.571   2.760  12.411  0.4048 -0.4445 -0.1263
 2647SOL    HW119574   1.495   2.770  12.469  0.1777  1.2150 -0.6941
 2647SOL    HW219575   1.548   2.680  12.365 -0.7090  0.0941 -0.5178
 2648SOL     OW19576   2.538   2.271   4.464 -0.4242  0.2795  0.5702
 2648SOL    HW119577   2.481   2.221   4.406  0.5833  1.1490 -1.1590
 2648SOL    HW219578   2.473   2.311   4.521 -0.8010  0.5239 -0.0356
 2649SOL     OW19579   2.335   0.938   6.605 -0.1091  0.0534  0.2066
 2649SOL    HW119580   2.410   0.880   6.592 -1.6089 -2.1929  1.6028
 2649SOL    HW219581   2.375   1.020   6.576 -2.5163  1.0597 -0.2507
 2650SOL     OW19582   4.338   0.220   6.717 -0.5236 -0.0738  0.4204
 2650SOL    HW119583   4.384   0.295   6.678 -2.5375 -0.1423 -2.1116
 2650SOL    HW219584   4.405   0.153   6.699 -1.3103 -0.8276  0.3084
 2651SOL     OW19585   1.969   0.184   8.437 -0.0308  0.2264  0.1703
 2651SOL    HW119586   2.047   0.171   8.491 -0.5496  0.3401  0.9331
 2651SOL    HW219587   1.906   0.217   8.501  0.1523  3.4193 -1.2900
 2652SOL     OW19588   0.511   4.093  17.184 -0.0212  0.5208 -0.7542
 2652SOL    HW119589   0.487   4.035  17.112 -1.1719 -0.7219  0.6230
 2652SOL    HW219590   0.607   4.085  17.180  0.1485  2.0107  0.4234
 2653SOL     OW19591   1.887   3.376   6.109  0.4819  0.8672  0.7534
 2653SOL    HW119592   1.955   3.330   6.059 -2.2009 -0.9407 -1.1625
 2653SOL    HW219593   1.925   3.405   6.192 -0.4677  2.9659  0.4472
 2654SOL     OW19594   1.745   1.577   1.564  0.1841  0.2941 -0.3164
 2654SOL    HW119595   1.818   1.629   1.530  0.2765  0.2316 -0.2163
 2654SOL    HW219596   1.706   1.548   1.482 -2.1707  1.0600  0.5295
 2655SOL     OW19597   3.597   3.993   8.140 -0.2786  0.0509  0.1837
 2655SOL    HW119598   3.504   3.981   8.118  0.3456 -1.2575 -1.8151
 2655SOL    HW219599   3.600   4.082   8.174  1.7689  0.3875 -0.8891
 2656SOL     OW19600   2.709   1.405   3.053  0.3596 -0.2900 -0.2248
 2656SOL    HW119601   2.685   1.384   2.963  3.0874  0.0883 -1.0433
 2656SOL    HW219602   2.750   1.488   3.026  2.4955 -0.8305  1.3430
 2657SOL     OW19603   1.376   1.687   3.704 -0.8451  0.3381 -0.3749
 2657SOL    HW119604   1.300   1.648   3.661  0.5425 -3.6424  0.8060
 2657SOL    HW219605   1.431   1.705   3.628  2.9882 -1.7712  1.9112
 2658SOL     OW19606   4.332   1.282   3.483  0.2199 -0.0714  0.1961
 2658SOL    HW119607   4.268   1.354   3.486 -0.0562 -0.1830 -3.5007
 2658SOL    HW219608   4.276   1.216   3.525  0.9986 -0.6496  0.3156
 2659SOL     OW19609   0.345   3.301   6.777 -0.4185  0.2563  0.2183
 2659SOL    HW119610   0.340   3.234   6.846 -3.2698  0.7671  0.5010
 2659SOL    HW219611   0.255   3.313   6.748 -0.6027  0.7609  0.9826
 2660SOL     OW19612   1.547   0.370   8.940  0.1650  0.0768 -0.4468
 2660SOL    HW119613   1.541   0.433   9.012 -0.0366 -1.0026  0.4724
 2660SOL    HW219614   1.631   0.396   8.901 -0.8645  1.1808 -1.9302
 2661SOL     OW19615   3.240   3.816  11.045 -0.0807 -0.4995 -0.0929
 2661SOL    HW119616   3.197   3.893  11.082  1.3307 -0.2861  1.1321
 2661SOL    HW219617   3.325   3.838  11.007 -0.0616 -1.1301 -0.4188
 2662SOL     OW19618   2.578   2.632  12.763 -0.1913  0.0421 -0.0605
 2662SOL    HW119619   2.576   2.540  12.736  2.3563 -0.5962  1.9341
 2662SOL    HW219620   2.530   2.620  12.845 -1.2061 -0.2715 -0.7015
 2663SOL     OW19621   0.521   1.892  13.418 -0.3375  0.0613 -0.5640
 2663SOL    HW119622   0.525   1.876  13.324  2.4558 -1.1912 -0.2210
 2663SOL    HW219623   0.442   1.844  13.441 -0.1215  0.4193  0.9040
 2664SOL     OW19624   3.374   4.661   8.656  0.1659 -0.1251  0.4502
 2664SOL    HW119625   3.340   4.700   8.736  0.0016 -0.8220  0.7199
 2664SOL    HW219626   3.440   4.722   8.622 -0.0052  0.5153  1.2614
 2665SOL     OW19627   1.545   0.678   4.790  0.6239  0.4992  0.0738
 2665SOL    HW119628   1.585   0.750   4.742 -0.9391  1.0059 -0.4799
 2665SOL    HW219629   1.498   0.714   4.865 -0.3926 -0.7260  0.0351
 2666SOL     OW19630   3.580   3.981   8.656 -0.3535 -0.1005  0.4544
 2666SOL    HW119631   3.502   3.994   8.602 -0.6149  0.8568  1.0614
 2666SOL    HW219632   3.650   4.009   8.598 -0.9002  0.3082 -0.0108
 2667SOL     OW19633   0.767   2.443   3.451  0.3649  0.0659  0.0660
 2667SOL    HW119634   0.812   2.526   3.469 -1.3368  1.6360 -2.8950
 2667SOL    HW219635   0.814   2.375   3.499  0.1442  0.2637  0.5608
 2668SOL     OW19636   2.129   4.664   9.476  0.5743 -0.6346  0.4150
 2668SOL    HW119637   2.100   4.689   9.563 -1.0706 -0.9483 -0.0486
 2668SOL    HW219638   2.165   4.578   9.495  0.6422 -0.5095  0.8550
 2669SOL     OW19639   2.622   2.407   6.597 -0.4725 -0.1884 -0.4879
 2669SOL    HW119640   2.585   2.331   6.642 -0.7168  0.4365  0.3709
 2669SOL    HW219641   2.545   2.464   6.602 -0.8311 -0.8236  1.2539
 2670SOL     OW19642   0.666   1.366  10.151  0.5564 -0.3200  0.4232
 2670SOL    HW119643   0.755   1.344  10.177  1.9217  2.5768 -1.9432
 2670SOL    HW219644   0.635   1.286  10.108 -1.3224  0.7332 -0.2005
 2671SOL     OW19645   2.340   0.449   8.585  0.1265 -0.4675  0.1115
 2671SOL    HW119646   2.250   0.469   8.611 -0.7083 -3.1253 -0.7838
 2671SOL    HW219647   2.325   0.454   8.491  2.6230 -2.0269 -0.3513
 2672SOL     OW19648   3.431   4.450   5.516 -0.5539 -0.1156  0.2046
 2672SOL    HW119649   3.480   4.436   5.434 -0.0333  0.6821  0.3728
 2672SOL    HW219650   3.491   4.512   5.558 -0.0631  1.4570 -2.7989
 2673SOL     OW19651   3.749   2.991   2.413  0.2000  0.2237  0.1646
 2673SOL    HW119652   3.798   2.951   2.485  1.9500  2.6707  0.3439
 2673SOL    HW219653   3.769   2.940   2.335 -0.8576 -1.8853  1.2928
 2674SOL     OW19654   0.058   2.841   0.357 -0.2159  0.3250  0.3664
 2674SOL    HW119655   0.114   2.791   0.298  1.1028 -0.4921  2.3104
 2674SOL    HW219656   0.116   2.895   0.410 -2.5784  0.9129  2.3880
 2675SOL     OW19657   0.806   0.021  16.931 -0.3920  0.4485 -0.0054
 2675SOL    HW119658   0.794   0.097  16.874  0.9114 -0.2267 -1.1575
 2675SOL    HW219659   0.744   4.693  16.897  2.0890 -2.8549  1.8437
 2676SOL     OW19660   4.716   2.890  14.042  0.4879 -0.1515  0.2950
 2676SOL    HW119661   0.018   2.853  13.963 -0.1749 -1.5255  0.6039
 2676SOL    HW219662   4.716   2.820  14.108  2.1013 -0.2176  0.2201
 2677SOL     OW19663   4.394   2.153   3.845  0.0663 -0.4299  0.1618
 2677SOL    HW119664   4.448   2.126   3.770  1.4992  0.0933  0.9923
 2677SOL    HW219665   4.308   2.127   3.812  0.0601 -2.0178  1.4389
 2678SOL     OW19666   2.170   1.354   3.291  0.0962  0.0080 -0.5464
 2678SOL    HW119667   2.212   1.365   3.376 -0.6716 -1.5017  0.0339
 2678SOL    HW219668   2.240   1.306   3.248  0.9577 -0.0587  0.9423
 2679SOL     OW19669   0.162   2.474   6.135 -0.6511 -0.5890 -0.0286
 2679SOL    HW119670   0.203   2.391   6.114 -0.5184 -0.9497  1.6229
 2679SOL    HW219671   0.204   2.488   6.220 -0.6591 -0.3082 -0.0688
 2680SOL     OW19672   3.207   1.807  14.098 -0.0984 -0.1946 -0.3670
 2680SOL    HW119673   3.180   1.867  14.028  1.4289  0.1282 -0.6663
 2680SOL    HW219674   3.137   1.813  14.164 -1.5599  2.3896 -2.1528
 2681SOL     OW19675   4.139   0.290   7.407 -0.1659 -0.4550 -0.1321
 2681SOL    HW119676   4.169   0.316   7.494 -1.1708  0.7135 -0.1430
 2681SOL    HW219677   4.200   0.221   7.379  1.4211 -0.1332  2.4626
 2682SOL     OW19678   2.828   3.240   4.601  0.8911 -0.4612 -0.5563
 2682SOL    HW119679   2.864   3.208   4.684  2.2179 -0.2863 -1.0640
 2682SOL    HW219680   2.883   3.185   4.544  2.0753  0.4558 -0.2947
 2683SOL     OW19681   3.934   3.260   8.092 -0.0486  0.1911  0.5132
 2683SOL    HW119682   4.028   3.251   8.101 -0.1788 -0.8999  0.7738
 2683SOL    HW219683   3.928   3.319   8.017 -1.9113 -1.9334 -1.0445
 2684SOL     OW19684   3.974   2.281   4.455 -0.1984  0.2944  0.0748
 2684SOL    HW119685   3.925   2.361   4.473 -0.5394 -0.1437  1.1151
 2684SOL    HW219686   3.990   2.295   4.362  0.3952  0.1868  0.1611
 2685SOL     OW19687   3.629   3.996   3.643 -0.0939 -0.0174  0.3725
 2685SOL    HW119688   3.540   3.979   3.674 -0.0210  1.4574  1.3629
 2685SOL    HW219689   3.616   3.998   3.548 -0.0397 -3.7504  0.2719
 2686SOL     OW19690   2.011   0.981   2.652 -0.0501 -0.3810  0.0694
 2686SOL    HW119691   2.029   0.909   2.713  0.8191  1.1979  1.6553
 2686SOL    HW219692   2.034   1.055   2.708  1.8846  0.3969 -1.7389
 2687SOL     OW19693   0.515   3.362   4.499  0.5534 -0.3775 -0.2154
 2687SOL    HW119694   0.432   3.334   4.540  0.0648  0.1461 -0.8498
 2687SOL    HW219695   0.530   3.447   4.540  0.1081 -1.1694  1.6269
 2688SOL     OW19696   0.499   3.264   9.726 -0.1764  0.3990  0.0807
 2688SOL    HW119697   0.410   3.229   9.727 -0.7099  1.7171 -0.5478
 2688SOL    HW219698   0.551   3.187   9.748 -1.9376 -1.1241 -1.1358
 2689SOL     OW19699   0.854   0.502   1.612 -0.7906 -0.1261 -1.1875
 2689SOL    HW119700   0.900   0.419   1.627 -1.0840 -0.2731 -1.1085
 2689SOL    HW219701   0.819   0.494   1.524 -0.5005 -2.3012 -1.0898
 2690SOL     OW19702   4.732   2.578   0.205  0.0544  0.6270 -0.3175
 2690SOL    HW119703   0.087   2.601   0.198  0.4248 -1.2348 -1.6059
 2690SOL    HW219704   4.714   2.594   0.297  2.1906  0.6974  0.0978
 2691SOL     OW19705   1.708   2.934  11.805  0.3122 -0.0789  0.4513
 2691SOL    HW119706   1.689   2.844  11.832 -0.4690  0.1665  0.7280
 2691SOL    HW219707   1.656   2.993  11.860 -0.5524  0.0081 -0.4657
 2692SOL     OW19708   3.432   0.960   9.348 -0.7249 -0.4217  0.0637
 2692SOL    HW119709   3.403   0.873   9.322 -0.3575 -1.3109  2.6148
 2692SOL    HW219710   3.380   0.976   9.427  0.0196  0.1537  0.4414
 2693SOL     OW19711   0.889   4.723   4.877  0.0737 -0.4899 -0.0515
 2693SOL    HW119712   0.925   4.695   4.961  0.1494 -1.5652 -0.4476
 2693SOL    HW219713   0.869   4.640   4.834 -1.7449 -0.1852  0.1868
 2694SOL     OW19714   2.002   1.233   1.684  0.1456  0.0941 -0.3564
 2694SOL    HW119715   2.039   1.181   1.756 -1.1968 -2.4548 -1.5012
 2694SOL    HW219716   1.999   1.169   1.612 -2.1914 -0.1017 -0.0754
 2695SOL     OW19717   1.170   1.614   1.353  0.5287 -0.1880 -0.2523
 2695SOL    HW119718   1.086   1.604   1.308  0.8383 -0.0575 -0.8600
 2695SOL    HW219719   1.196   1.522   1.348  3.0099  0.4904 -0.0331
 2696SOL     OW19720   0.568   2.064   2.736 -0.0888  0.6422  0.2535
 2696SOL    HW119721   0.500   2.115   2.693 -0.0507  2.3945  2.2913
 2696SOL    HW219722   0.636   2.127   2.757 -0.0723  0.3209  1.1603
 2697SOL     OW19723   1.172   4.323   3.323 -0.1863 -0.3868  0.1631
 2697SOL    HW119724   1.118   4.333   3.244  0.8708  0.0344 -0.5219
 2697SOL    HW219725   1.123   4.253   3.365  0.3114 -0.7816  0.0792
 2698SOL     OW19726   1.539   1.191   1.219 -0.0542  0.3762 -0.1093
 2698SOL    HW119727   1.625   1.152   1.201 -0.9041 -1.3174 -0.4753
 2698SOL    HW219728   1.522   1.159   1.307  0.3813  1.0911  0.2338
 2699SOL     OW19729   1.403   1.233  11.178  0.3243  0.2731 -0.2692
 2699SOL    HW119730   1.369   1.309  11.226  0.7899  1.0699 -1.2030
 2699SOL    HW219731   1.328   1.219  11.121  1.5415 -3.7570 -0.8401
 2700SOL     OW19732   3.141   3.945   8.393 -0.2026  0.1001  0.2225
 2700SOL    HW119733   3.109   3.864   8.434  2.6551 -0.0372  2.1625
 2700SOL    HW219734   3.067   3.969   8.337  0.7047  1.7364 -0.2493
 2701SOL     OW19735   0.973   3.637   8.664 -0.3239 -0.3274 -0.2149
 2701SOL    HW119736   0.878   3.646   8.657 -0.5917 -2.3222  0.7630
 2701SOL    HW219737   0.980   3.563   8.724 -1.0067 -0.0923  0.1605
 2702SOL     OW19738   3.740   0.207  13.663 -0.2025 -0.1466  0.8960
 2702SOL    HW119739   3.649   0.177  13.660 -0.2082 -0.2122  1.7150
 2702SOL    HW219740   3.733   0.296  13.628  1.9598 -0.3275  0.0018
 2703SOL     OW19741   2.540   0.135   6.686 -0.1356  0.2640 -0.0121
 2703SOL    HW119742   2.598   0.203   6.718 -1.2988  1.4300 -0.3663
 2703SOL    HW219743   2.460   0.184   6.667  0.3200 -0.5138 -3.8611
 2704SOL     OW19744   1.681   3.854   9.105  0.5706  0.5761  0.4661
 2704SOL    HW119745   1.681   3.873   9.011 -1.1918 -1.1998  0.0946
 2704SOL    HW219746   1.614   3.916   9.132  0.8692  0.4819  1.4275
 2705SOL     OW19747   3.321   1.516   6.218 -0.0828  0.2488 -0.0276
 2705SOL    HW119748   3.324   1.610   6.232 -1.3580  0.5782 -2.0462
 2705SOL    HW219749   3.414   1.491   6.225 -0.3294 -0.7433 -0.2421
 2706SOL     OW19750   2.661   2.662   7.945 -0.0380 -0.4059 -0.3509
 2706SOL    HW119751   2.725   2.600   7.911  0.4183 -0.1243  0.0074
 2706SOL    HW219752   2.714   2.740   7.959  0.4781 -0.5724 -1.3531
 2707SOL     OW19753   1.656   3.318   3.067  0.9367  1.1126  0.5999
 2707SOL    HW119754   1.656   3.230   3.031  1.0242  0.7157  1.5728
 2707SOL    HW219755   1.568   3.345   3.038  0.3905 -0.5310  0.7323
 2708SOL     OW19756   1.353   0.884   3.460  0.4985  0.0781 -0.0501
 2708SOL    HW119757   1.267   0.858   3.426 -0.6948  1.8323  1.5856
 2708SOL    HW219758   1.391   0.799   3.483 -0.8355 -0.3539  0.5583
 2709SOL     OW19759   2.300   1.798  16.905  0.5980 -0.4480  0.4965
 2709SOL    HW119760   2.348   1.881  16.913  0.2466  0.0040 -2.1118
 2709SOL    HW219761   2.227   1.816  16.965 -0.1704  2.3774 -1.2832
 2710SOL     OW19762   0.486   0.151  16.949 -0.4254 -0.1729  0.4033
 2710SOL    HW119763   0.450   0.100  16.877 -0.2575 -2.7007  2.1310
 2710SOL    HW219764   0.500   0.090  17.021 -2.6732 -1.6755 -0.4534
 2711SOL     OW19765   3.031   0.487  14.764  0.9272 -0.2413  0.1023
 2711SOL    HW119766   3.110   0.541  14.754 -0.0112  0.6673 -2.4230
 2711SOL    HW219767   3.064   0.413  14.712  0.7498 -0.4511  0.2908
 2712SOL     OW19768   3.896   1.754  10.770 -0.5859  0.1720  0.2966
 2712SOL    HW119769   3.911   1.660  10.785 -0.1646 -0.1299 -2.0355
 2712SOL    HW219770   3.806   1.754  10.804 -0.6361  2.0235  0.1153
 2713SOL     OW19771   1.509   2.039   4.915 -0.2912  0.1599  0.1927
 2713SOL    HW119772   1.488   1.952   4.880  0.8018  0.0812 -0.2420
 2713SOL    HW219773   1.423   2.071   4.945 -0.3102  0.3566 -0.0655
 2714SOL     OW19774   2.261   4.037   4.018 -0.1233  0.5460  0.6887
 2714SOL    HW119775   2.304   4.094   3.955 -0.7726  1.2168  0.8487
 2714SOL    HW219776   2.180   4.086   4.033  0.1345  1.1043  0.2568
 2715SOL     OW19777   2.521   3.908   5.423  0.1562  0.1306  0.1833
 2715SOL    HW119778   2.585   3.953   5.367 -0.3528  0.3723 -0.2021
 2715SOL    HW219779   2.445   3.952   5.384 -0.3597  0.2245  1.3024
 2716SOL     OW19780   2.006   2.290   8.138  0.8484  0.2521 -0.0019
 2716SOL    HW119781   1.988   2.384   8.136 -0.0893  0.0994  0.7180
 2716SOL    HW219782   2.026   2.285   8.045  2.0794  2.4173  0.1401
 2717SOL     OW19783   3.301   1.746  12.466  0.7539 -0.1554 -0.2640
 2717SOL    HW119784   3.228   1.741  12.405  1.3153 -0.9312 -0.8821
 2717SOL    HW219785   3.264   1.745  12.554 -0.2691 -0.6703 -0.7086
 2718SOL     OW19786   4.067   2.644  16.148  0.1935  0.2277  0.9076
 2718SOL    HW119787   4.109   2.661  16.233  1.2651 -0.8216  0.5909
 2718SOL    HW219788   4.006   2.716  16.138  0.8653  0.5635 -0.8291
 2719SOL     OW19789   0.576   4.579   6.912 -0.4483 -0.5669 -0.2500
 2719SOL    HW119790   0.655   4.546   6.955 -1.8525 -2.7950  0.6263
 2719SOL    HW219791   0.561   4.498   6.863  2.5559 -1.4215  0.2693
 2720SOL     OW19792   1.965   2.560   2.949  0.5406  0.4818 -0.5142
 2720SOL    HW119793   1.891   2.559   3.009  0.5105  1.3568 -0.5450
 2720SOL    HW219794   1.938   2.630   2.890 -0.9258  0.9539  0.7067
 2721SOL     OW19795   0.926   2.074   7.000 -0.0006 -0.2767  0.1878
 2721SOL    HW119796   0.920   2.020   7.079  1.5786  0.1513  0.5936
 2721SOL    HW219797   0.942   2.162   7.034 -1.1032 -0.7987  2.0233
 2722SOL     OW19798   3.128   0.256   9.403  0.4107  0.0586 -0.4199
 2722SOL    HW119799   3.180   0.279   9.480  1.2312 -2.6851 -0.1776
 2722SOL    HW219800   3.148   0.163   9.408 -2.1211 -0.3948  1.1115
 2723SOL     OW19801   1.191   2.811  15.567 -0.4156 -0.2038 -1.0263
 2723SOL    HW119802   1.226   2.722  15.566 -0.1602 -0.1016 -1.0699
 2723SOL    HW219803   1.271   2.859  15.545  0.6368 -1.4362  0.1049
 2724SOL     OW19804   3.626   2.755   8.357  0.3535 -0.5548  0.7475
 2724SOL    HW119805   3.684   2.754   8.433  1.1498 -0.6596  0.1398
 2724SOL    HW219806   3.598   2.664   8.367 -0.3638 -0.3394  0.6797
 2725SOL     OW19807   0.750   3.047  10.468 -0.0899  0.1229 -0.1465
 2725SOL    HW119808   0.700   3.018  10.392 -0.3226 -0.9538  0.4098
 2725SOL    HW219809   0.780   2.962  10.500 -1.2870 -0.1784  0.1856
 2726SOL     OW19810   3.342   2.688   3.973 -0.5072 -0.1845 -0.0258
 2726SOL    HW119811   3.275   2.655   4.032 -1.3982  2.1836  0.3166
 2726SOL    HW219812   3.381   2.605   3.947  0.6288  0.3886 -0.1935
 2727SOL     OW19813   1.149   2.411   3.647 -0.6322  0.0241 -0.1598
 2727SOL    HW119814   1.168   2.470   3.573  0.8974 -0.8267 -0.4480
 2727SOL    HW219815   1.100   2.335   3.615  1.1753 -0.1256 -2.5910
 2728SOL     OW19816   1.117   0.411  12.352  0.1144  0.3026  0.1861
 2728SOL    HW119817   1.212   0.411  12.361  0.3598 -0.2035 -2.2619
 2728SOL    HW219818   1.098   0.478  12.418 -5.3581 -2.6334  1.5754
 2729SOL     OW19819   2.570   0.158   2.011 -0.0443  0.1349 -0.3580
 2729SOL    HW119820   2.581   0.240   1.962 -0.0610 -0.1463 -0.8368
 2729SOL    HW219821   2.629   0.174   2.084 -0.8923 -1.4705  0.6756
 2730SOL     OW19822   1.541   0.289   2.852  0.1327 -0.0386  0.7633
 2730SOL    HW119823   1.477   0.257   2.916  0.8371 -1.9212  0.5134
 2730SOL    HW219824   1.596   0.348   2.903  1.3443 -0.9095  0.4460
 2731SOL     OW19825   2.418   1.423   6.430 -0.0611 -0.2892 -0.3824
 2731SOL    HW119826   2.413   1.518   6.416 -1.0958 -0.5748 -1.8759
 2731SOL    HW219827   2.513   1.413   6.424  0.0361 -0.1964  1.1105
 2732SOL     OW19828   2.037   2.861   7.591  0.0849 -0.3317 -0.3105
 2732SOL    HW119829   1.984   2.897   7.521  0.8742 -2.4856 -2.0315
 2732SOL    HW219830   2.040   2.768   7.568 -4.1565 -0.8932  1.4015
 2733SOL     OW19831   4.660   1.355  15.226 -0.3320  0.2955  0.3191
 2733SOL    HW119832   4.634   1.447  15.224 -1.4241  0.0343  1.9753
 2733SOL    HW219833   4.643   1.330  15.135 -0.7440 -1.6810  0.9392
 2734SOL     OW19834   1.100   3.562   1.868  0.5675  1.1773  0.4776
 2734SOL    HW119835   1.166   3.629   1.884  2.0887  0.3321 -2.3703
 2734SOL    HW219836   1.119   3.551   1.775 -0.4459  2.0675  0.1593
 2735SOL     OW19837   0.713   2.991   6.738 -0.4694 -0.6256  0.6121
 2735SOL    HW119838   0.662   2.918   6.701 -1.9649  1.0468 -0.6250
 2735SOL    HW219839   0.735   2.963   6.827  0.8305  1.2437  0.8603
 2736SOL     OW19840   2.164   1.899   8.692  0.1251  0.1637 -0.1604
 2736SOL    HW119841   2.223   1.838   8.649  0.4603  1.5649 -1.6939
 2736SOL    HW219842   2.081   1.867   8.658 -0.3392  1.1456  0.0497
 2737SOL     OW19843   1.417   2.515   7.024 -0.1994  0.3985  0.0311
 2737SOL    HW119844   1.377   2.500   6.939 -1.1127  1.2818  0.2947
 2737SOL    HW219845   1.512   2.506   7.011 -0.1264 -1.4038  1.8113
 2738SOL     OW19846   0.617   3.548   4.695 -0.2597  0.4800  0.5996
 2738SOL    HW119847   0.556   3.568   4.765 -1.3740  0.4222 -0.3411
 2738SOL    HW219848   0.659   3.476   4.743 -2.6101 -2.1477 -1.2884
 2739SOL     OW19849   1.112   0.655   7.555  0.8267  0.6046  0.1757
 2739SOL    HW119850   1.202   0.637   7.528  1.1731  0.8936  1.1263
 2739SOL    HW219851   1.121   0.670   7.649 -1.3253  0.3001  0.4387
 2740SOL     OW19852   0.247   0.222  12.955  0.1158  0.3440  0.2841
 2740SOL    HW119853   0.198   0.148  12.919  0.9272 -0.9046  1.7836
 2740SOL    HW219854   0.175   0.261  13.005 -0.3536 -1.7956  1.2976
 2741SOL     OW19855   4.603   2.934   4.880  0.5244 -0.5164 -0.0996
 2741SOL    HW119856   4.512   2.947   4.907  0.2196 -0.8441 -0.9662
 2741SOL    HW219857   4.595   2.942   4.785 -0.6325 -1.4631 -0.0728
 2742SOL     OW19858   2.315   4.332   5.437  1.0289 -0.6732 -0.3081
 2742SOL    HW119859   2.319   4.400   5.370  1.6916  0.2868  0.7014
 2742SOL    HW219860   2.279   4.384   5.509 -0.7313 -1.5947 -0.5096
 2743SOL     OW19861   1.413   0.245   3.088 -0.5986 -0.2758 -0.1745
 2743SOL    HW119862   1.424   0.214   3.178 -0.3123  0.8703  0.1908
 2743SOL    HW219863   1.369   0.330   3.102  1.0652  0.2866  1.6687
 2744SOL     OW19864   0.407   3.810  16.609  0.1613 -0.5142  0.8063
 2744SOL    HW119865   0.359   3.892  16.612 -0.8493 -1.1567  2.2190
 2744SOL    HW219866   0.498   3.834  16.594  0.0528  0.7621  2.1325
 2745SOL     OW19867   2.652   0.951   0.621 -0.8317 -0.2455  0.1450
 2745SOL    HW119868   2.742   0.919   0.613 -0.8693 -0.7490  1.8094
 2745SOL    HW219869   2.653   1.004   0.700  0.8154  2.0841 -1.4352
 2746SOL     OW19870   4.083   2.434  13.279 -0.2658  0.4397 -0.1400
 2746SOL    HW119871   4.127   2.478  13.353 -1.1915  1.0023  0.0736
 2746SOL    HW219872   4.145   2.452  13.208  0.5014  1.6746  0.8223
 2747SOL     OW19873   2.961   2.781   8.451  0.1227  0.4900  0.3437
 2747SOL    HW119874   2.983   2.873   8.439  0.8896  0.1177 -1.0711
 2747SOL    HW219875   2.996   2.766   8.538 -0.6160 -0.8405  0.4104
 2748SOL     OW19876   1.971   4.470   2.912 -0.4304 -0.1567 -0.9848
 2748SOL    HW119877   1.945   4.381   2.937 -5.0288  2.0863  2.2096
 2748SOL    HW219878   1.991   4.510   2.996 -2.0639 -1.6380  0.1074
 2749SOL     OW19879   4.311   2.940   7.402 -0.1591  0.1327  0.6668
 2749SOL    HW119880   4.365   2.868   7.368 -1.3144 -0.3153 -0.2058
 2749SOL    HW219881   4.243   2.881   7.434 -0.5832  0.2196 -0.0780
 2750SOL     OW19882   3.401   3.808   2.693  0.3972 -0.6142  0.2823
 2750SOL    HW119883   3.360   3.858   2.622 -1.6572 -0.4309  1.6067
 2750SOL    HW219884   3.400   3.868   2.767 -0.6208 -0.7301  0.3618
 2751SOL     OW19885   0.451   3.156  15.305 -0.4886  0.2087 -0.2614
 2751SOL    HW119886   0.546   3.157  15.290 -0.1627 -1.9907  1.6732
 2751SOL    HW219887   0.421   3.187  15.220  2.3373 -1.9890 -2.0804
 2752SOL     OW19888   3.737   0.645   8.193  0.6157  0.0896  0.3647
 2752SOL    HW119889   3.699   0.732   8.178  2.0534  0.3839 -1.5106
 2752SOL    HW219890   3.801   0.678   8.257  0.7714  0.6904 -0.0965
 2753SOL     OW19891   3.009   3.172   4.385  0.3252 -0.2003  0.3764
 2753SOL    HW119892   2.993   3.084   4.350  1.3209 -0.1254 -0.2445
 2753SOL    HW219893   3.104   3.168   4.383  0.2615 -0.4098 -3.2212
 2754SOL     OW19894   0.569   1.622   9.325 -0.0369 -0.2724  0.5257
 2754SOL    HW119895   0.553   1.613   9.419 -0.7366 -0.0674  0.4252
 2754SOL    HW219896   0.521   1.701   9.299 -0.6866 -0.3574  1.4621
 2755SOL     OW19897   1.783   0.710   6.601 -0.1144  0.5868 -0.3573
 2755SOL    HW119898   1.870   0.697   6.639 -0.3096 -2.2655 -0.8872
 2755SOL    HW219899   1.729   0.708   6.680 -1.2133  2.2206 -1.0719
 2756SOL     OW19900   4.134   3.657   2.930 -0.0107 -0.1551 -0.2146
 2756SOL    HW119901   4.100   3.732   2.978  1.7073  1.3171 -1.3072
 2756SOL    HW219902   4.057   3.626   2.882 -0.8487  2.3994 -0.4726
 2757SOL     OW19903   1.773   2.513   6.391  0.2630  0.4415 -0.2524
 2757SOL    HW119904   1.798   2.587   6.335  0.1396 -0.5102 -1.5861
 2757SOL    HW219905   1.806   2.441   6.338 -2.4497 -0.4603 -0.7444
 2758SOL     OW19906   3.504   4.715   4.341  0.0790 -0.8556  0.6608
 2758SOL    HW119907   3.427   0.018   4.382  0.7524  1.0846  0.0498
 2758SOL    HW219908   3.469   4.637   4.298  0.4891 -0.2929 -0.7077
 2759SOL     OW19909   0.635   4.733   9.622 -0.6215  0.1579 -0.2091
 2759SOL    HW119910   0.547   0.031   9.616  0.1099  1.7291 -1.4702
 2759SOL    HW219911   0.607   4.645   9.649  0.6182 -0.1355  0.1434
 2760SOL     OW19912   0.795   3.573   7.839 -0.1821  0.0523 -0.0285
 2760SOL    HW119913   0.800   3.493   7.893 -1.2241  1.0042  1.4857
 2760SOL    HW219914   0.787   3.638   7.909  1.7046  0.3680 -0.1161
 2761SOL     OW19915   0.937   3.171  15.016  0.6366  0.1840  0.1419
 2761SOL    HW119916   0.928   3.076  15.024 -0.1638  0.1929 -0.6428
 2761SOL    HW219917   1.011   3.173  14.956 -0.7037  1.3183 -1.4915
 2762SOL     OW19918   4.100   1.034   1.317 -0.0772  0.1007 -0.0660
 2762SOL    HW119919   4.055   1.071   1.394  0.4454 -0.3014  0.4352
 2762SOL    HW219920   4.028   1.006   1.261 -0.3328  0.9487 -0.1624
 2763SOL     OW19921   3.679   0.181   9.907 -0.1462 -0.2944 -0.3094
 2763SOL    HW119922   3.665   0.249   9.972  0.0960 -0.2033 -0.3510
 2763SOL    HW219923   3.597   0.184   9.858 -0.8230  1.2507  0.9437
 2764SOL     OW19924   3.156   0.424   5.575  0.6151  0.0449 -0.1547
 2764SOL    HW119925   3.071   0.443   5.614  0.5763 -0.9462  0.2485
 2764SOL    HW219926   3.151   0.480   5.498  0.6752 -0.6414 -0.6517
 2765SOL     OW19927   4.492   4.194   5.622  0.0981 -0.6333  0.8173
 2765SOL    HW119928   4.440   4.189   5.702 -0.8270  0.3028  0.2794
 2765SOL    HW219929   4.519   4.105   5.601  1.9379  0.0106  0.4678
 2766SOL     OW19930   3.828   0.344   6.842 -0.0416 -0.1147  0.1364
 2766SOL    HW119931   3.804   0.253   6.824  1.3523 -0.4545  0.0076
 2766SOL    HW219932   3.905   0.321   6.893  0.7497  2.3743  0.0630
 2767SOL     OW19933   0.374   3.614   9.370  0.1167  0.0017 -0.1566
 2767SOL    HW119934   0.421   3.646   9.446 -0.4637  0.9131 -0.1893
 2767SOL    HW219935   0.398   3.522   9.381  0.3364 -0.1456 -1.8072
 2768SOL     OW19936   2.486   1.533   8.876 -0.7511  0.0565  0.0650
 2768SOL    HW119937   2.505   1.465   8.940  1.8804  0.9365  0.2212
 2768SOL    HW219938   2.461   1.608   8.930 -1.0468 -0.0596  0.0883
 2769SOL     OW19939   4.599   0.766  10.298  0.2421 -0.6582  0.1653
 2769SOL    HW119940   4.509   0.797  10.301  1.3165  2.4197  0.4757
 2769SOL    HW219941   4.646   0.844  10.270 -4.1083  1.5921 -0.8298
 2770SOL     OW19942   0.611   3.083   3.756  0.1809 -0.6849 -0.6616
 2770SOL    HW119943   0.560   3.149   3.708  1.8388  0.7288 -0.4633
 2770SOL    HW219944   0.591   3.112   3.845  1.9642 -0.3564 -0.3652
 2771SOL     OW19945   4.038   3.083   0.819  0.0559 -0.2035  0.1538
 2771SOL    HW119946   4.015   3.166   0.777 -0.5303 -1.0602 -1.2242
 2771SOL    HW219947   4.046   3.030   0.739 -0.3884 -1.5818  1.0316
 2772SOL     OW19948   1.401   1.297  11.595 -0.0121  0.5932  0.0731
 2772SOL    HW119949   1.436   1.281  11.682  0.1257 -0.7089 -0.2235
 2772SOL    HW219950   1.462   1.236  11.553 -0.6759 -0.9733  1.3903
 2773SOL     OW19951   0.908   1.100  17.505 -0.1264  0.2792 -0.3434
 2773SOL    HW119952   0.826   1.086  17.458  0.7332 -1.3218 -1.3502
 2773SOL    HW219953   0.901   1.194  17.525  0.0445  0.4287 -0.9987
 2774SOL     OW19954   3.137   1.710   9.128  0.1507 -0.6213  0.0219
 2774SOL    HW119955   3.140   1.619   9.160 -0.4656 -0.3253  0.9287
 2774SOL    HW219956   3.075   1.709   9.056  1.6230 -1.3291 -1.2327
 2775SOL     OW19957   0.110   2.813  12.489 -0.0196 -0.4041 -0.4871
 2775SOL    HW119958   0.112   2.754  12.414  1.9875  0.6964 -1.2968
 2775SOL    HW219959   0.153   2.893  12.459 -1.2276  0.0764 -0.9688
 2776SOL     OW19960   4.478   2.862   9.086 -0.3403  0.0959 -0.6373
 2776SOL    HW119961   4.422   2.939   9.093 -1.1745 -0.5686  0.0330
 2776SOL    HW219962   4.566   2.900   9.093  0.1170 -0.9158 -0.9517
 2777SOL     OW19963   1.402   3.724   3.330 -0.2703  0.7163  0.1718
 2777SOL    HW119964   1.366   3.812   3.334 -0.4116  0.6795 -0.3176
 2777SOL    HW219965   1.396   3.700   3.238  0.5952 -0.6783  0.4646
 2778SOL     OW19966   1.872   2.280   5.583 -0.1399  0.0745  0.1676
 2778SOL    HW119967   1.883   2.338   5.658 -2.2277  2.6232 -1.4962
 2778SOL    HW219968   1.800   2.228   5.619  0.6013 -0.7677  0.4339
 2779SOL     OW19969   2.500   4.537  13.551  0.1394 -0.2645 -0.4999
 2779SOL    HW119970   2.472   4.531  13.643  0.0442 -0.4746 -0.5444
 2779SOL    HW219971   2.477   4.456  13.506 -1.8681  0.8186 -1.4100
 2780SOL     OW19972   3.802   1.658   4.571  0.2722 -0.6530  0.1220
 2780SOL    HW119973   3.797   1.674   4.476  2.1339 -1.1047 -0.0364
 2780SOL    HW219974   3.711   1.628   4.580  0.4413 -1.2172 -0.0488
 2781SOL     OW19975   1.108   0.641  17.155 -0.0228  0.1090  0.1915
 2781SOL    HW119976   1.049   0.578  17.197 -1.0228  0.5151 -0.6184
 2781SOL    HW219977   1.132   0.606  17.070 -2.9058  0.3352 -0.7247
 2782SOL     OW19978   0.105   1.303   6.448 -0.0642  0.4153  0.4376
 2782SOL    HW119979   0.054   1.360   6.505 -0.8652  0.2175 -0.0839
 2782SOL    HW219980   0.180   1.276   6.501  0.1122 -1.2716 -0.6776
 2783SOL     OW19981   4.513   2.985  13.826 -0.3548 -0.3305 -0.4279
 2783SOL    HW119982   4.520   2.895  13.856  1.1381  0.0108  0.2661
 2783SOL    HW219983   4.564   2.978  13.746  0.6774  0.9947  0.1004
 2784SOL     OW19984   1.530   2.330  13.596  0.5260  0.4578 -0.1272
 2784SOL    HW119985   1.521   2.421  13.569 -0.9097 -0.3639 -2.3701
 2784SOL    HW219986   1.494   2.334  13.685 -0.6653  0.2259 -0.5967
 2785SOL     OW19987   2.275   0.577   4.049  0.1827  0.3877  0.1110
 2785SOL    HW119988   2.307   0.596   4.138  2.2742 -0.6058 -0.4245
 2785SOL    HW219989   2.356   0.538   4.016  0.0457  2.1112 -2.2003
 2786SOL     OW19990   0.272   4.655   7.577 -0.1998  0.1070  0.1370
 2786SOL    HW119991   0.307   4.674   7.664 -3.0654  1.4119  0.9948
 2786SOL    HW219992   0.185   4.618   7.593 -0.3754  0.1271 -0.7630
 2787SOL     OW19993   3.456   1.226   0.750  0.2130 -0.6043 -0.3228
 2787SOL    HW119994   3.384   1.236   0.813  1.6847  1.9329  0.9977
 2787SOL    HW219995   3.464   1.314   0.712  1.0948 -1.1395 -1.3577
 2788SOL     OW19996   0.605   2.880   7.804 -0.2784  0.0865 -0.7095
 2788SOL    HW119997   0.527   2.850   7.757  0.2849 -1.6840 -0.5325
 2788SOL    HW219998   0.673   2.820   7.773 -0.0434 -0.0366  0.0538
 2789SOL     OW19999   0.778   3.008   5.440 -0.0506  0.3928  0.5205
 2789SOL    HW120000   0.777   2.965   5.526 -2.1397  1.5900  1.1141
 2789SOL    HW220001   0.742   2.938   5.387  0.3270  1.0518 -0.5911
 2790SOL     OW20002   2.427   1.686   6.432  0.4317  0.1886 -0.2135
 2790SOL    HW120003   2.454   1.747   6.364 -1.6925  0.3368 -0.9106
 2790SOL    HW220004   2.369   1.742   6.484 -0.7501  0.5171 -1.8948
 2791SOL     OW20005   2.713   2.620   6.366  0.5917 -0.4095 -0.7652
 2791SOL    HW120006   2.635   2.576   6.330 -0.0562  0.6508 -0.6529
 2791SOL    HW220007   2.740   2.549   6.424  1.5624  1.1235  0.6398
 2792SOL     OW20008   0.920   0.836   6.469 -0.2420 -0.3725  0.3313
 2792SOL    HW120009   0.931   0.914   6.524 -0.0897  2.1713 -3.3643
 2792SOL    HW220010   1.009   0.799   6.470 -0.3050 -0.5685 -1.2756
 2793SOL     OW20011   4.290   2.277   9.024  0.4814  0.9506 -0.3824
 2793SOL    HW120012   4.245   2.201   8.988  1.0023  0.3711  0.2109
 2793SOL    HW220013   4.307   2.324   8.942 -2.0495  1.8035 -0.4104
 2794SOL     OW20014   3.079   1.970   0.151  0.1527  0.1239 -0.2118
 2794SOL    HW120015   3.170   1.979   0.123  0.8664  1.1847  2.4314
 2794SOL    HW220016   3.039   2.028   0.086  1.0100 -0.5645 -1.3726
 2795SOL     OW20017   0.657   0.614   8.935 -0.1658 -0.5197 -0.3323
 2795SOL    HW120018   0.641   0.705   8.961  0.5032 -0.0219 -1.6423
 2795SOL    HW220019   0.645   0.560   9.013  1.2290  0.0566  0.2832
 2796SOL     OW20020   4.564   0.670   4.959 -0.0456 -0.6089  0.4636
 2796SOL    HW120021   4.532   0.688   4.871 -1.2924 -1.4676  0.7299
 2796SOL    HW220022   4.610   0.587   4.946  0.6407 -0.1644  0.0540
 2797SOL     OW20023   2.883   2.123   2.776  0.8484 -0.3308 -0.2208
 2797SOL    HW120024   2.929   2.126   2.860  0.7865 -1.2040 -0.1507
 2797SOL    HW220025   2.804   2.073   2.793  1.8392 -1.6845  0.4220
 2798SOL     OW20026   4.272   4.349   5.100  0.1580 -0.0502 -0.0088
 2798SOL    HW120027   4.259   4.348   5.005 -0.3140 -2.1177  0.0745
 2798SOL    HW220028   4.363   4.378   5.108  0.3650 -0.6996  0.0200
 2799SOL     OW20029   0.276   3.741   3.942 -0.0490 -0.1452 -0.2759
 2799SOL    HW120030   0.195   3.750   3.993 -1.0174 -0.7098 -1.7079
 2799SOL    HW220031   0.342   3.796   3.983  0.2655 -0.1338 -0.7890
 2800SOL     OW20032   4.290   3.453   1.346  0.0758 -0.4937 -1.1123
 2800SOL    HW120033   4.250   3.516   1.287 -0.2274 -1.1588 -1.6145
 2800SOL    HW220034   4.381   3.482   1.341 -0.5865  1.9133  0.5860
 2801SOL     OW20035   1.815   2.945   7.809 -0.2621 -0.7269 -0.6911
 2801SOL    HW120036   1.904   2.939   7.774  0.5745 -1.3723  1.5852
 2801SOL    HW220037   1.792   3.037   7.805  0.2614 -0.5206  0.9989
 2802SOL     OW20038   1.471   2.115   2.602 -0.0174  0.6083  0.1397
 2802SOL    HW120039   1.460   2.157   2.517 -1.1449 -0.1745 -0.1133
 2802SOL    HW220040   1.521   2.036   2.582 -0.1935  0.5479 -0.0656
 2803SOL     OW20041   0.988   4.269   2.850 -0.0438  0.1203 -0.0710
 2803SOL    HW120042   0.896   4.263   2.823  0.2117 -1.3142 -0.6313
 2803SOL    HW220043   0.968   4.274   2.943  1.4041 -1.1878  0.3058
 2804SOL     OW20044   3.823   4.204   7.183 -0.2022 -0.2667  0.0774
 2804SOL    HW120045   3.890   4.177   7.245  0.9090 -0.4933 -1.2381
 2804SOL    HW220046   3.822   4.133   7.120 -0.0862 -0.3762  0.1984
 2805SOL     OW20047   3.199   1.889   5.482 -0.1996  0.4396 -0.0053
 2805SOL    HW120048   3.277   1.945   5.488 -0.3681  0.9596 -2.7317
 2805SOL    HW220049   3.204   1.844   5.397 -2.4689 -0.5735  0.4187
 2806SOL     OW20050   3.051   4.551   4.828  0.2030  0.1586  0.0358
 2806SOL    HW120051   3.029   4.458   4.826 -0.0468  0.2374 -0.7594
 2806SOL    HW220052   3.008   4.580   4.909  2.3438  1.4207  0.7228
 2807SOL     OW20053   4.506   0.779  16.095  0.5530  0.0044  0.3648
 2807SOL    HW120054   4.549   0.731  16.024  0.2921  1.2987 -0.6812
 2807SOL    HW220055   4.580   0.823  16.137  1.0504  0.3695 -0.9127
 2808SOL     OW20056   4.260   1.825   0.876  0.1108 -0.2951  0.0935
 2808SOL    HW120057   4.308   1.758   0.827  0.0306 -0.3912  0.1480
 2808SOL    HW220058   4.170   1.795   0.871  0.7777 -1.7379 -3.0889
 2809SOL     OW20059   2.486   2.469   5.526  0.3509  0.0431  0.4116
 2809SOL    HW120060   2.547   2.430   5.589  1.4628  1.3641  0.1571
 2809SOL    HW220061   2.444   2.537   5.579  1.0138  1.4349 -0.8473
 2810SOL     OW20062   4.378   1.642   4.954 -1.1426  0.7298  0.4503
 2810SOL    HW120063   4.461   1.678   4.987 -1.0167 -0.9472  1.9255
 2810SOL    HW220064   4.401   1.562   4.907  1.4254  1.6196  0.1632
 2811SOL     OW20065   0.756   1.242   7.129 -0.0973  0.3336  0.0017
 2811SOL    HW120066   0.796   1.220   7.045  2.2887 -2.0824  1.7908
 2811SOL    HW220067   0.835   1.264   7.178 -0.4451 -0.4179  0.8870
 2812SOL     OW20068   3.952   2.602  16.477  0.0127  0.3975  0.3138
 2812SOL    HW120069   3.957   2.507  16.462  0.6123  0.4513  0.1823
 2812SOL    HW220070   4.040   2.620  16.444 -0.4490  0.3910 -0.9079
 2813SOL     OW20071   0.903   3.459  16.314  0.5680 -0.0096  0.0250
 2813SOL    HW120072   0.955   3.423  16.386  0.1626  0.6321  0.6406
 2813SOL    HW220073   0.963   3.482  16.243  0.5930  1.3209  0.4872
 2814SOL     OW20074   4.269   2.978   7.873 -0.2735 -0.1742  0.0340
 2814SOL    HW120075   4.182   3.006   7.844 -0.1150 -0.9094 -1.1138
 2814SOL    HW220076   4.258   2.894   7.829 -1.2113 -0.3157  0.5350
 2815SOL     OW20077   0.598   4.276  15.831  0.6489  0.1510 -0.3412
 2815SOL    HW120078   0.642   4.317  15.757  1.2618  0.7460  0.3512
 2815SOL    HW220079   0.544   4.212  15.785  1.8219 -1.2064  0.1642
 2816SOL     OW20080   3.887   4.286  10.489 -0.1386 -0.2003  0.1526
 2816SOL    HW120081   3.899   4.368  10.442 -2.2206 -0.1728 -0.3351
 2816SOL    HW220082   3.914   4.222  10.423 -0.5327  1.6078 -1.7479
 2817SOL     OW20083   1.143   4.088   9.972 -0.0646 -0.3133  0.6019
 2817SOL    HW120084   1.141   4.128  10.059  1.3859  0.2059  0.3934
 2817SOL    HW220085   1.087   4.010   9.975  1.8600 -1.7305  0.2158
 2818SOL     OW20086   3.716   3.583   1.966  0.6277 -0.1142  0.5859
 2818SOL    HW120087   3.656   3.647   2.002 -1.5158 -1.5880 -0.3706
 2818SOL    HW220088   3.648   3.531   1.922 -0.2383  0.8655  0.7670
 2819SOL     OW20089   1.059   1.978   4.856 -0.1972 -0.2544  0.1864
 2819SOL    HW120090   0.989   1.916   4.878 -0.8579  0.0661 -1.0154
 2819SOL    HW220091   1.011   2.054   4.822  0.3716  0.1540  0.2991
 2820SOL     OW20092   1.175   0.745   3.915 -1.1202 -1.1325  0.0776
 2820SOL    HW120093   1.190   0.653   3.895  0.9053 -0.6552 -0.5042
 2820SOL    HW220094   1.211   0.754   4.003 -0.4269 -0.1501 -0.3154
 2821SOL     OW20095   4.424   4.663   1.915  0.1516  0.3682 -0.6457
 2821SOL    HW120096   4.517   4.652   1.894 -0.0793 -0.5867 -1.1575
 2821SOL    HW220097   4.386   4.661   1.828 -0.8566 -0.4552 -0.1880
 2822SOL     OW20098   0.693   3.899  14.457  0.0282  0.4748 -0.8581
 2822SOL    HW120099   0.616   3.947  14.488  1.4309  0.8085  2.0944
 2822SOL    HW220100   0.766   3.948  14.495 -1.1841  0.5019  1.4594
 2823SOL     OW20101   0.991   0.553  15.061 -0.1076 -0.0296  0.0206
 2823SOL    HW120102   0.915   0.503  15.032 -0.3390 -0.1358  0.8117
 2823SOL    HW220103   1.047   0.550  14.983 -1.8177  0.4013 -1.2173
 2824SOL     OW20104   4.015   1.402   2.748  0.1457  0.1791 -0.0703
 2824SOL    HW120105   4.091   1.435   2.795 -0.3370  1.0783  0.0697
 2824SOL    HW220106   3.948   1.466   2.772 -1.5647 -2.1470  1.3453
 2825SOL     OW20107   4.363   3.870   9.669  0.3539  0.2051  0.3963
 2825SOL    HW120108   4.417   3.930   9.619 -0.1075  1.2426  1.1470
 2825SOL    HW220109   4.296   3.935   9.692  1.3162  1.7340 -1.1404
 2826SOL     OW20110   2.167   0.069   4.301  0.3837 -0.9258 -0.4393
 2826SOL    HW120111   2.220   0.023   4.236  0.9845 -1.8963  0.7305
 2826SOL    HW220112   2.146   0.149   4.254 -1.1756 -1.3619 -0.4787
 2827SOL     OW20113   0.913   2.585   7.984  0.2524 -0.0723  0.1327
 2827SOL    HW120114   0.947   2.616   8.068 -0.9059  1.4391  0.0402
 2827SOL    HW220115   0.909   2.490   7.998  1.1727 -0.0422  0.6249
 2828SOL     OW20116   2.372   3.801  14.844 -0.1429  0.0305  0.0517
 2828SOL    HW120117   2.444   3.839  14.795  1.4457 -0.9102  1.6707
 2828SOL    HW220118   2.334   3.747  14.775  1.9568 -0.8905 -0.3658
 2829SOL     OW20119   0.673   0.228   0.768  0.3460 -0.0490 -0.0874
 2829SOL    HW120120   0.757   0.271   0.753 -0.1252  0.4857 -1.2032
 2829SOL    HW220121   0.642   0.271   0.847 -1.7693  0.4605 -1.1897
 2830SOL     OW20122   3.002   3.769  16.682  0.0075  0.1463  0.4434
 2830SOL    HW120123   2.982   3.701  16.747 -0.3864  0.1317  0.3101
 2830SOL    HW220124   3.078   3.727  16.640 -0.5640 -2.0899  1.6249
 2831SOL     OW20125   2.481   3.344   7.750  0.4994  0.0234  0.2126
 2831SOL    HW120126   2.393   3.339   7.787  0.4654 -0.3929  0.0690
 2831SOL    HW220127   2.471   3.331   7.656  2.0178 -0.9818  0.1944
 2832SOL     OW20128   3.542   2.226  16.606 -0.0334 -0.0530  0.4953
 2832SOL    HW120129   3.568   2.135  16.618  1.4293  0.4423  1.0570
 2832SOL    HW220130   3.623   2.274  16.592  1.1907 -2.3576 -0.2777
 2833SOL     OW20131   1.022   0.767  17.667  0.2411 -0.1404 -0.2216
 2833SOL    HW120132   1.047   0.850  17.706  1.5430 -1.9279  2.7783
 2833SOL    HW220133   1.038   0.788  17.575 -2.6590 -0.4270 -0.7961
 2834SOL     OW20134   3.103   2.042   7.957 -0.5447  0.3295  0.2252
 2834SOL    HW120135   3.051   2.121   7.968 -1.5728 -0.6706  2.4379
 2834SOL    HW220136   3.034   1.976   7.946 -0.1717  0.4634 -2.9533
 2835SOL     OW20137   0.925   0.389   7.177 -0.3615 -0.0569 -0.1816
 2835SOL    HW120138   0.944   0.375   7.269 -0.2810 -0.7545 -0.3015
 2835SOL    HW220139   0.964   0.476   7.174 -0.8495  0.1450 -0.5993
 2836SOL     OW20140   0.960   4.526  13.559  0.3075  0.2436  0.5870
 2836SOL    HW120141   0.944   4.603  13.613  0.1806  1.2248 -0.8633
 2836SOL    HW220142   1.022   4.475  13.612  2.6109  1.5105 -0.8757
 2837SOL     OW20143   3.977   1.755   6.283 -0.2725  0.0906 -0.0892
 2837SOL    HW120144   3.907   1.692   6.265 -0.3070 -0.5346  2.2884
 2837SOL    HW220145   4.038   1.741   6.210  2.5144 -0.8582  2.4125
 2838SOL     OW20146   2.847   0.886   5.396  0.1815 -0.0815  0.0059
 2838SOL    HW120147   2.776   0.911   5.335  1.1518 -1.8365 -1.8475
 2838SOL    HW220148   2.815   0.937   5.470  0.1494 -0.5393  0.3083
 2839SOL     OW20149   0.412   2.878   3.871  0.1471 -0.0705 -0.3867
 2839SOL    HW120150   0.472   2.914   3.805 -0.3392  1.4465  0.0047
 2839SOL    HW220151   0.335   2.864   3.817  0.2928  1.0494 -0.8976
 2840SOL     OW20152   1.882   2.604   6.618  0.1807 -0.1159  0.2160
 2840SOL    HW120153   1.856   2.563   6.535  0.9581 -1.0834  0.4443
 2840SOL    HW220154   1.813   2.670   6.627  0.4200  0.2624 -0.7456
 2841SOL     OW20155   2.710   2.094  13.102  0.4668 -0.0059 -0.0209
 2841SOL    HW120156   2.711   2.016  13.157  3.0584  1.4803  2.0367
 2841SOL    HW220157   2.701   2.166  13.164  0.1310 -1.2693  1.3855
 2842SOL     OW20158   1.330   4.701   5.432  0.2464  0.3259 -0.1775
 2842SOL    HW120159   1.421   4.711   5.404  0.5681  2.4323  1.6048
 2842SOL    HW220160   1.293   0.016   5.362 -1.1889  1.2822  1.2909
 2843SOL     OW20161   1.743   2.189  17.490 -0.2287  0.1994  0.0871
 2843SOL    HW120162   1.743   2.233  17.575 -2.8593  1.0850 -0.3871
 2843SOL    HW220163   1.819   2.130  17.499 -1.0178 -0.9862 -1.1546
 2844SOL     OW20164   0.610   2.467   8.713  0.0177  0.0173  0.5684
 2844SOL    HW120165   0.603   2.540   8.775 -1.0445  1.5042 -1.3316
 2844SOL    HW220166   0.686   2.424   8.754  0.9711  1.8110  0.6695
 2845SOL     OW20167   1.807   1.118   5.110 -0.2236 -0.2712  0.1469
 2845SOL    HW120168   1.714   1.135   5.093  0.1491  1.3515 -0.2277
 2845SOL    HW220169   1.839   1.203   5.139  2.2030 -1.1248 -0.0508
 2846SOL     OW20170   1.603   3.796   4.260  0.8476  0.5197  0.3077
 2846SOL    HW120171   1.621   3.759   4.346  0.4905  0.3080  0.2913
 2846SOL    HW220172   1.531   3.738   4.234  0.8042  0.6683  0.0921
 2847SOL     OW20173   2.016   4.270   8.948 -0.1578 -0.3594 -0.0601
 2847SOL    HW120174   2.102   4.228   8.950 -0.8558 -1.7740 -0.1029
 2847SOL    HW220175   2.030   4.321   9.028 -1.5949  2.0218 -1.3260
 2848SOL     OW20176   2.159   1.918   0.873 -0.0597 -0.0685  0.2041
 2848SOL    HW120177   2.070   1.915   0.908 -0.4585 -0.0968 -0.8045
 2848SOL    HW220178   2.157   1.948   0.782 -0.0208 -0.1172  0.1869
 2849SOL     OW20179   0.718   3.745   6.572 -0.3227  0.4862  0.0105
 2849SOL    HW120180   0.624   3.756   6.589  0.2826  0.3315  3.4132
 2849SOL    HW220181   0.716   3.727   6.478  0.1200  1.3953 -0.1697
 2850SOL     OW20182   1.658   2.796   6.659 -0.5877  0.8028  0.7870
 2850SOL    HW120183   1.623   2.802   6.570  0.5005 -1.5343  0.2021
 2850SOL    HW220184   1.686   2.887   6.668 -0.5986  0.6435  2.3831
 2851SOL     OW20185   0.411   3.228   7.210  0.3735 -0.5205 -0.4329
 2851SOL    HW120186   0.439   3.156   7.267 -1.1795  0.7857  2.0150
 2851SOL    HW220187   0.466   3.211   7.134  2.0996 -0.3574  0.7766
 2852SOL     OW20188   1.934   1.927   1.869 -0.2169 -0.2969  0.3293
 2852SOL    HW120189   1.879   1.966   1.800 -1.7096 -0.8129  1.2361
 2852SOL    HW220190   2.000   1.874   1.823 -0.3005 -0.1116 -0.0084
 2853SOL     OW20191   1.481   2.662   7.420  0.4612  0.3381  0.5713
 2853SOL    HW120192   1.528   2.727   7.473  2.5088 -1.9795  1.5742
 2853SOL    HW220193   1.426   2.723   7.370  0.8673 -0.9472 -1.4467
 2854SOL     OW20194   2.153   2.405  10.190  0.2412  0.3219  0.7072
 2854SOL    HW120195   2.177   2.396  10.098  1.6580 -0.0736  1.1141
 2854SOL    HW220196   2.227   2.460  10.214  0.6032  1.1873 -2.3843
 2855SOL     OW20197   0.923   1.526  14.869 -0.3068 -0.8242  0.1517
 2855SOL    HW120198   0.845   1.513  14.922 -1.5543  1.9672 -1.0024
 2855SOL    HW220199   0.976   1.482  14.936  2.0414 -1.8616 -2.3811
 2856SOL     OW20200   0.422   4.255   3.778  0.8547 -0.1252  0.3907
 2856SOL    HW120201   0.447   4.184   3.718 -1.0616  0.1478 -0.7404
 2856SOL    HW220202   0.330   4.230   3.787  1.2128 -1.4112  0.4687
 2857SOL     OW20203   0.305   2.280   4.533 -0.2688  0.0116 -0.0394
 2857SOL    HW120204   0.314   2.185   4.542  0.4148 -0.0014 -0.7753
 2857SOL    HW220205   0.341   2.292   4.445 -2.0152  0.7373 -0.6624
 2858SOL     OW20206   3.490   1.800  14.160 -0.2043  0.3830  0.0629
 2858SOL    HW120207   3.398   1.813  14.136 -0.1644  0.8353  0.1546
 2858SOL    HW220208   3.529   1.854  14.091 -0.3504  0.1385 -0.2109
 2859SOL     OW20209   0.256   3.605   8.476  0.0365  0.0342 -0.1420
 2859SOL    HW120210   0.247   3.655   8.395 -0.7051  0.7739  0.3972
 2859SOL    HW220211   0.170   3.623   8.515 -0.3977 -0.7379 -0.7555
 2860SOL     OW20212   2.793   0.670   8.857 -0.2333 -0.0470 -0.3544
 2860SOL    HW120213   2.833   0.629   8.933  0.0187  0.0772 -0.4180
 2860SOL    HW220214   2.857   0.651   8.788  0.2411 -1.2035  0.4063
 2861SOL     OW20215   2.652   2.189   1.033 -0.1753  0.1602 -0.4102
 2861SOL    HW120216   2.592   2.143   0.974 -1.6913 -0.4997  1.6546
 2861SOL    HW220217   2.590   2.256   1.061  0.2128  0.5368 -0.4572
 2862SOL     OW20218   1.189   0.045   7.457 -0.4634 -0.1855  0.3347
 2862SOL    HW120219   1.228   4.713   7.405 -0.7055 -2.0140  2.6025
 2862SOL    HW220220   1.099   0.014   7.463 -0.0728 -1.2867  0.4991
 2863SOL     OW20221   1.185   2.506   3.386  0.3936  0.2408 -0.2623
 2863SOL    HW120222   1.237   2.446   3.333 -0.1046 -0.6457  0.2595
 2863SOL    HW220223   1.105   2.511   3.333 -0.7347 -1.1344  1.3240
 2864SOL     OW20224   0.460   0.428   3.580 -0.4867 -0.1703  0.1931
 2864SOL    HW120225   0.473   0.402   3.488  0.4337  1.4631 -0.1307
 2864SOL    HW220226   0.370   0.462   3.581  0.4250  2.0935  2.9774
 2865SOL     OW20227   2.237   3.241  15.925  0.1973 -0.0719 -0.0640
 2865SOL    HW120228   2.229   3.243  15.829  1.5905  2.1540 -0.1456
 2865SOL    HW220229   2.293   3.315  15.950 -0.5489 -0.2391  2.0329
 2866SOL     OW20230   1.327   3.694  16.100 -0.4851 -0.1735  0.2002
 2866SOL    HW120231   1.371   3.779  16.104 -0.7534 -0.0531  0.6130
 2866SOL    HW220232   1.380   3.657  16.029 -0.8080  0.1464 -0.2128
 2867SOL     OW20233   0.684   3.879   2.891  0.2389 -0.8012  0.4459
 2867SOL    HW120234   0.769   3.918   2.910 -0.5960  2.0170 -1.6997
 2867SOL    HW220235   0.662   3.846   2.978  0.3963  0.0731  0.8104
 2868SOL     OW20236   4.055   2.530   2.060 -0.2062 -0.4387  0.4170
 2868SOL    HW120237   4.020   2.446   2.088 -0.6251 -0.7111 -0.9325
 2868SOL    HW220238   4.147   2.505   2.047 -0.7944 -2.3563  0.0536
 2869SOL     OW20239   4.089   0.600  15.138  1.0613  0.2965 -0.1762
 2869SOL    HW120240   4.024   0.657  15.099 -0.3166 -2.1550 -1.4960
 2869SOL    HW220241   4.171   0.646  15.121  0.1470  1.7112 -0.6751
 2870SOL     OW20242   3.344   1.908   0.100  0.3479  0.4593 -0.5748
 2870SOL    HW120243   3.336   1.858   0.018 -0.3140  0.0456 -0.2620
 2870SOL    HW220244   3.437   1.905   0.120  0.3369  1.7968 -0.3012
 2871SOL     OW20245   3.217   2.550   8.944 -0.4634  0.1522 -0.0768
 2871SOL    HW120246   3.199   2.643   8.960  0.4953 -0.1373  2.5356
 2871SOL    HW220247   3.308   2.536   8.969 -0.7383  2.0522  1.9391
 2872SOL     OW20248   1.361   2.380   7.883  0.5293 -0.3686  0.4491
 2872SOL    HW120249   1.316   2.399   7.965  0.4656  3.7655 -0.5492
 2872SOL    HW220250   1.392   2.469   7.871  2.1995 -0.3836  4.8257
 2873SOL     OW20251   1.935   0.572   6.095 -0.3308 -0.2515  0.3564
 2873SOL    HW120252   1.941   0.635   6.168  0.6824 -0.1057  0.1479
 2873SOL    HW220253   2.015   0.519   6.101  0.5721  1.2988  2.2709
 2874SOL     OW20254   4.313   2.646   3.633  0.2954  0.5639  0.1095
 2874SOL    HW120255   4.252   2.593   3.582 -0.5048 -0.8056  2.4857
 2874SOL    HW220256   4.394   2.599   3.648  1.9868  2.3576 -3.4929
 2875SOL     OW20257   2.022   2.396   7.564 -0.1900 -0.0729 -0.3875
 2875SOL    HW120258   2.098   2.392   7.622 -1.4052  1.5098  1.3156
 2875SOL    HW220259   2.016   2.302   7.544  0.7481 -0.5295  1.5218
 2876SOL     OW20260   4.042   1.748   2.130 -0.9298  0.1229 -0.2666
 2876SOL    HW120261   4.053   1.843   2.127  3.1022 -0.2588  1.7732
 2876SOL    HW220262   4.062   1.743   2.223  1.5698  1.5340 -0.7295
 2877SOL     OW20263   1.046   1.650   5.554  0.1521 -0.2196  0.3276
 2877SOL    HW120264   1.037   1.745   5.551  0.5948 -0.1840  0.0812
 2877SOL    HW220265   1.004   1.628   5.471 -1.1286  0.7457  0.7306
 2878SOL     OW20266   3.567   4.348   0.239 -0.2984  0.3664  0.0120
 2878SOL    HW120267   3.554   4.402   0.161  0.2231 -1.6286 -1.4554
 2878SOL    HW220268   3.521   4.265   0.224  1.5223 -1.1365  2.5728
 2879SOL     OW20269   1.405   3.533   3.531 -0.3119 -0.6150  0.1665
 2879SOL    HW120270   1.388   3.563   3.442  1.2737  1.3145  0.5286
 2879SOL    HW220271   1.470   3.596   3.562 -1.2641  0.2744  0.3472
 2880SOL     OW20272   3.877   3.478   3.507 -0.2836  0.1115 -0.0497
 2880SOL    HW120273   3.965   3.485   3.469 -0.3028 -0.7047 -0.2278
 2880SOL    HW220274   3.847   3.569   3.512  1.5522  0.8110 -1.7990
 2881SOL     OW20275   2.459   1.444   7.821 -0.7324  0.3999 -0.3594
 2881SOL    HW120276   2.379   1.462   7.871 -0.8689 -0.0645 -0.4077
 2881SOL    HW220277   2.524   1.436   7.890  1.0605  0.6677 -2.0079
 2882SOL     OW20278   2.722   2.856   1.262  0.3945  0.3553  0.3424
 2882SOL    HW120279   2.736   2.763   1.246  1.9330  0.5939  0.3798
 2882SOL    HW220280   2.627   2.859   1.277  0.1421  0.4680 -1.2125
 2883SOL     OW20281   0.903   1.617   1.326 -0.0527  0.4183  0.4326
 2883SOL    HW120282   0.883   1.541   1.381  3.1602  0.3766  1.5134
 2883SOL    HW220283   0.830   1.672   1.354 -2.4968 -2.6557  0.1747
 2884SOL     OW20284   0.747   4.485   3.291  0.4183 -0.0143 -0.1976
 2884SOL    HW120285   0.686   4.456   3.223  3.4494 -3.7857 -1.3824
 2884SOL    HW220286   0.738   4.580   3.288  1.2361  0.0444 -1.0151
 2885SOL     OW20287   4.067   1.612  10.005 -0.6537  0.8478 -0.3639
 2885SOL    HW120288   4.087   1.702   9.982  2.2568  0.3058  0.0279
 2885SOL    HW220289   4.129   1.594  10.075 -1.9009 -2.7838 -0.1951
 2886SOL     OW20290   1.201   0.255   5.618 -0.0724 -0.1926  0.1045
 2886SOL    HW120291   1.255   0.332   5.634  1.3325 -1.3710  1.0637
 2886SOL    HW220292   1.235   0.194   5.684 -1.4480 -0.6517  0.3902
 2887SOL     OW20293   2.016   0.574   3.399 -0.4228  0.0968  0.4352
 2887SOL    HW120294   2.050   0.613   3.479 -0.1079 -1.3070  0.9777
 2887SOL    HW220295   1.941   0.527   3.435  0.1306 -1.2135 -0.1372
 2888SOL     OW20296   3.420   1.365   2.346 -0.0516  0.1298  0.7314
 2888SOL    HW120297   3.490   1.376   2.282  0.6843 -2.3671  1.1015
 2888SOL    HW220298   3.473   1.368   2.425  0.3211  1.5909  0.4305
 2889SOL     OW20299   3.208   1.984   3.560  0.1028 -0.8099  0.0172
 2889SOL    HW120300   3.228   1.968   3.652  1.9651 -0.0107 -0.2420
 2889SOL    HW220301   3.212   1.898   3.518 -0.6841  0.0622 -1.8556
 2890SOL     OW20302   3.061   0.792   3.438  0.2531  0.2585  0.1389
 2890SOL    HW120303   3.036   0.793   3.345  0.8645 -0.0093 -0.0292
 2890SOL    HW220304   3.135   0.852   3.447  0.2543  0.4299 -0.9599
 2891SOL     OW20305   3.214   0.335  15.660  0.4436 -0.1372  0.1999
 2891SOL    HW120306   3.136   0.378  15.624 -0.5120 -0.3854  1.9287
 2891SOL    HW220307   3.235   0.401  15.727  1.4548 -0.6503  0.3757
 2892SOL     OW20308   3.164   1.594   1.474  0.5987 -0.1808 -0.1594
 2892SOL    HW120309   3.176   1.551   1.559  0.5583 -0.9689 -0.5519
 2892SOL    HW220310   3.072   1.577   1.455  0.1365  0.6885  1.2475
 2893SOL     OW20311   1.294   1.955   8.068 -0.0492  0.6389 -0.2989
 2893SOL    HW120312   1.346   1.913   8.137 -0.6070  0.8094  0.2188
 2893SOL    HW220313   1.349   2.031   8.046  1.4262 -0.7010 -1.2250
 2894SOL     OW20314   1.505   4.342   9.292 -0.0765  0.1372 -0.2728
 2894SOL    HW120315   1.578   4.307   9.240 -1.1965  0.5727 -2.1502
 2894SOL    HW220316   1.552   4.415   9.331 -1.5739  1.2499 -0.5686
 2895SOL     OW20317   4.718   4.243   2.420  0.2220  0.5008 -0.3946
 2895SOL    HW120318   0.069   4.249   2.385  0.7640 -1.0960  0.7076
 2895SOL    HW220319   4.676   4.235   2.334 -0.1169  0.6573 -0.2417
 2896SOL     OW20320   3.021   1.305   6.709  0.2122 -0.3666 -0.0981
 2896SOL    HW120321   3.079   1.376   6.683 -1.0241  0.3351 -0.8973
 2896SOL    HW220322   3.018   1.313   6.805  0.4218  0.9334 -0.1996
 2897SOL     OW20323   1.421   4.326   5.128 -0.5118  0.1469  0.2582
 2897SOL    HW120324   1.327   4.330   5.111 -0.9355  0.7524  2.6583
 2897SOL    HW220325   1.440   4.413   5.164  0.3248 -0.0729  0.3257
 2898SOL     OW20326   1.038   0.227   4.808  0.4649  0.7267  0.3690
 2898SOL    HW120327   0.983   0.151   4.827 -1.2589  1.6759 -0.8447
 2898SOL    HW220328   1.043   0.232   4.713  1.1785 -0.9488  0.3288
 2899SOL     OW20329   2.403   2.810   7.422 -0.7960  0.0490  0.0328
 2899SOL    HW120330   2.432   2.809   7.513  0.6674 -0.6272 -0.4381
 2899SOL    HW220331   2.328   2.750   7.419  0.9668 -2.2618  2.6186
 2900SOL     OW20332   4.572   4.568   4.994  0.2521 -0.7953  0.0497
 2900SOL    HW120333   4.587   4.645   5.047 -0.0178 -1.2843  0.8333
 2900SOL    HW220334   4.479   4.573   4.972  0.5779  1.3259 -0.7682
 2901SOL     OW20335   1.715   2.018  14.670  0.4075  0.2415  0.0348
 2901SOL    HW120336   1.768   1.950  14.629 -0.6971 -0.9586  0.6010
 2901SOL    HW220337   1.711   1.979  14.757  0.0988 -0.7603 -0.4243
 2902SOL     OW20338   0.133   4.164   4.296  0.2077 -0.3584  0.2962
 2902SOL    HW120339   0.080   4.232   4.255 -2.7820 -2.3754  0.8341
 2902SOL    HW220340   0.175   4.216   4.365 -1.2667 -0.7857  1.5051
 2903SOL     OW20341   0.132   3.272  16.730 -0.0455 -0.5870 -0.7705
 2903SOL    HW120342   0.075   3.311  16.663  1.7270  2.4703 -0.4854
 2903SOL    HW220343   0.132   3.181  16.702 -0.4960 -0.3854 -1.4314
 2904SOL     OW20344   0.019   2.587   2.757 -0.3538 -0.2708  0.3153
 2904SOL    HW120345   4.707   2.594   2.839  0.0484  0.9071  0.4512
 2904SOL    HW220346   0.016   2.492   2.742  0.4599 -0.0831 -0.9968
 2905SOL     OW20347   2.275   3.357   6.559  0.0703 -0.7285  0.0723
 2905SOL    HW120348   2.356   3.307   6.548  0.1443 -0.7919  0.8767
 2905SOL    HW220349   2.286   3.385   6.650 -0.6918 -0.9172  0.2221
 2906SOL     OW20350   2.126   1.790   1.739 -0.1305  0.1001 -0.3631
 2906SOL    HW120351   2.215   1.801   1.773 -0.1429  1.7010 -0.8626
 2906SOL    HW220352   2.129   1.699   1.710 -0.1268  0.3147 -1.0215
 2907SOL     OW20353   2.066   2.383   6.488 -0.3487 -0.1172  0.1316
 2907SOL    HW120354   1.996   2.360   6.428 -2.1019  1.0510  1.7247
 2907SOL    HW220355   2.015   2.425   6.557  2.6626  1.5173  1.3875
 2908SOL     OW20356   3.992   3.044   2.593  0.7481  0.4165 -0.2419
 2908SOL    HW120357   4.003   3.084   2.507 -2.2286  0.3167 -0.6753
 2908SOL    HW220358   4.052   3.100   2.642  1.2899 -2.5550  2.4954
 2909SOL     OW20359   3.458   3.660   4.292  0.0969  0.0999  0.8128
 2909SOL    HW120360   3.541   3.617   4.310  0.6738  0.7745 -0.2508
 2909SOL    HW220361   3.444   3.701   4.378 -1.7865  0.9239  0.1129
 2910SOL     OW20362   3.019   2.284   4.243  0.5480 -0.3622  0.5660
 2910SOL    HW120363   2.946   2.242   4.288  0.3787  1.6439  2.1337
 2910SOL    HW220364   2.971   2.316   4.166  1.4018 -1.6904 -0.5083
 2911SOL     OW20365   2.827   4.145   8.403  0.0829 -0.5216  0.1848
 2911SOL    HW120366   2.838   4.237   8.381 -0.1636 -1.2812 -3.2012
 2911SOL    HW220367   2.902   4.111   8.354 -0.8983 -2.4539  0.0158
 2912SOL     OW20368   3.018   2.107   7.099 -0.3720  0.3552 -0.1145
 2912SOL    HW120369   2.987   2.017   7.111  0.4336 -0.0876 -1.3417
 2912SOL    HW220370   2.993   2.124   7.008 -0.1381  1.6742  0.0607
 2913SOL     OW20371   0.232   4.596  11.526  0.5063 -0.2309 -0.1391
 2913SOL    HW120372   0.318   4.611  11.567  1.2987 -1.5971 -1.3133
 2913SOL    HW220373   0.243   4.629  11.437  0.3424  1.4942  0.4618
 2914SOL     OW20374   0.041   4.455   6.226 -0.6972  0.1234  0.6481
 2914SOL    HW120375   4.697   4.501   6.249 -1.2343 -0.4707 -0.0873
 2914SOL    HW220376   0.095   4.533   6.211  0.0518 -0.6089 -0.3559
 2915SOL     OW20377   0.749   4.466   5.563 -0.4149 -0.1951 -0.1605
 2915SOL    HW120378   0.827   4.487   5.512 -0.3975  1.4477  0.5418
 2915SOL    HW220379   0.741   4.372   5.552 -1.8916 -0.3054  1.7858
 2916SOL     OW20380   1.974   1.698   3.618  0.4175  0.2855 -0.3202
 2916SOL    HW120381   2.026   1.778   3.616 -0.8139  1.1127  1.0318
 2916SOL    HW220382   1.981   1.679   3.524 -0.7959  0.2441 -0.4090
 2917SOL     OW20383   1.826   0.905   7.593 -0.4534  0.0416 -0.7279
 2917SOL    HW120384   1.824   0.840   7.663 -0.2714 -1.1627 -1.8485
 2917SOL    HW220385   1.916   0.937   7.605 -0.3895 -0.2361 -0.4800
 2918SOL     OW20386   1.364   1.271   3.777  0.4527 -0.4554 -0.0769
 2918SOL    HW120387   1.429   1.271   3.706 -1.5743 -1.1713 -1.9205
 2918SOL    HW220388   1.420   1.236   3.847  1.2547  2.1181  0.5487
 2919SOL     OW20389   1.716   2.144  13.640  0.0844  0.2418 -0.4898
 2919SOL    HW120390   1.681   2.155  13.729 -3.3108  1.5827 -2.0043
 2919SOL    HW220391   1.671   2.218  13.599 -0.2090  1.3125  1.7654
 2920SOL     OW20392   2.582   1.783  16.633  0.4373  0.1519 -0.2982
 2920SOL    HW120393   2.560   1.815  16.545  1.8998 -1.3687 -1.2276
 2920SOL    HW220394   2.543   1.844  16.696 -0.0244  1.0183 -1.4138
 2921SOL     OW20395   1.965   4.211  15.007 -0.1359 -0.1530 -0.2502
 2921SOL    HW120396   1.951   4.148  14.937 -1.9376  0.3424 -0.3242
 2921SOL    HW220397   1.934   4.156  15.078 -1.2504  0.3770 -0.3274
 2922SOL     OW20398   3.145   3.079   6.500 -0.3905 -0.4562 -0.1381
 2922SOL    HW120399   3.121   3.167   6.529  0.5018 -0.0600 -0.6108
 2922SOL    HW220400   3.216   3.098   6.439 -0.4882 -1.3302 -0.5275
 2923SOL     OW20401   3.652   4.005   3.348  0.1465  0.3881 -0.9283
 2923SOL    HW120402   3.620   4.095   3.344  2.3682  1.2586  0.8644
 2923SOL    HW220403   3.618   3.972   3.265 -1.6084  1.1690 -0.5170
 2924SOL     OW20404   1.506   3.414   3.972 -0.3761  0.6944  0.1265
 2924SOL    HW120405   1.598   3.389   3.982  0.3617  2.6074 -1.9207
 2924SOL    HW220406   1.462   3.337   4.009 -1.3709  2.1841  1.9929
 2925SOL     OW20407   4.337   4.680   7.018  0.0517 -0.1929  0.0743
 2925SOL    HW120408   4.335   4.715   6.929 -1.0092 -0.1203  0.1226
 2925SOL    HW220409   4.245   4.654   7.025  0.4946 -2.3159 -1.7836
 2926SOL     OW20410   0.744   3.374   7.362 -0.3408  0.7265  0.8066
 2926SOL    HW120411   0.836   3.377   7.386 -0.3230  0.2600  0.8020
 2926SOL    HW220412   0.744   3.437   7.291  0.3940  0.0660  0.2234
 2927SOL     OW20413   2.387   2.175   5.647 -0.1945  0.4216  0.0402
 2927SOL    HW120414   2.396   2.267   5.673  0.6566  0.2061  0.5213
 2927SOL    HW220415   2.317   2.189   5.584 -1.5049  3.6778  2.2018
 2928SOL     OW20416   4.506   3.717   3.960  0.1294 -0.5143  0.1249
 2928SOL    HW120417   4.548   3.750   3.881  1.3628 -1.1073  0.5406
 2928SOL    HW220418   4.416   3.751   3.959 -0.1567 -1.1905  1.6209
 2929SOL     OW20419   0.676   1.498   5.757 -0.3675  0.1595  0.1828
 2929SOL    HW120420   0.635   1.584   5.759  1.8069  1.2252 -1.4189
 2929SOL    HW220421   0.627   1.448   5.693  0.5011  1.2545 -1.3264
 2930SOL     OW20422   1.335   2.829   3.660 -0.3271  0.3130 -0.0122
 2930SOL    HW120423   1.278   2.819   3.584 -1.1276 -1.7712  0.8870
 2930SOL    HW220424   1.419   2.793   3.631 -1.0552 -1.4812  0.1215
 2931SOL     OW20425   0.267   0.430   8.215 -0.3632 -0.0119  0.1729
 2931SOL    HW120426   0.213   0.377   8.157 -1.0487  0.5234  0.3211
 2931SOL    HW220427   0.335   0.452   8.151  0.5075 -2.0750  0.4069
 2932SOL     OW20428   2.701   4.434  13.210 -0.3333 -0.1799 -0.8854
 2932SOL    HW120429   2.738   4.417  13.123  0.5468  3.1109 -1.1398
 2932SOL    HW220430   2.671   4.346  13.234 -0.2123  0.1957  0.6269
 2933SOL     OW20431   1.725   2.357  16.403 -0.7036  0.3756 -0.4644
 2933SOL    HW120432   1.695   2.444  16.379 -0.5500  1.6495  3.8650
 2933SOL    HW220433   1.792   2.346  16.335  0.3317  0.6883  0.4896
 2934SOL     OW20434   0.783   2.927   0.019 -0.2681 -0.0311 -0.3862
 2934SOL    HW120435   0.745   2.843   0.046 -0.1678 -0.9743 -3.1996
 2934SOL    HW220436   0.778   2.976   0.101 -0.8014 -0.4959 -0.1367
 2935SOL     OW20437   4.030   2.333  14.744 -0.3639 -0.3952  0.1507
 2935SOL    HW120438   4.025   2.419  14.703 -0.2162 -0.2251  0.4872
 2935SOL    HW220439   4.050   2.279  14.667  1.0370  2.3499 -1.4177
 2936SOL     OW20440   2.709   0.283   9.731 -0.1098  0.1978 -0.1321
 2936SOL    HW120441   2.778   0.235   9.778 -1.5015 -1.3032  0.3737
 2936SOL    HW220442   2.762   0.300   9.653  2.5900  0.1513  1.6940
 2937SOL     OW20443   4.694   3.050   3.071  0.0969  0.1313 -0.1646
 2937SOL    HW120444   0.045   3.070   3.041 -0.1960 -0.9439 -1.7537
 2937SOL    HW220445   4.714   2.973   3.125 -0.9215  0.8702  1.2879
 2938SOL     OW20446   3.363   2.536   8.662  0.0589 -0.4588  0.0019
 2938SOL    HW120447   3.349   2.605   8.728 -0.9238 -1.4173  0.7981
 2938SOL    HW220448   3.419   2.478   8.713  0.3290  0.2430  0.5164
 2939SOL     OW20449   0.997   4.563   8.872 -0.3964 -0.0718 -0.4118
 2939SOL    HW120450   0.907   4.578   8.899  0.5734  0.6258  2.4199
 2939SOL    HW220451   1.044   4.542   8.953 -1.4046  1.3936  0.5515
 2940SOL     OW20452   4.612   4.368   9.735  0.0327  0.4838 -0.3316
 2940SOL    HW120453   4.607   4.351   9.829 -0.5512 -0.2307 -0.4860
 2940SOL    HW220454   4.615   4.463   9.730 -1.7716  0.6003  0.9412
 2941SOL     OW20455   1.267   0.245   8.391 -0.0832 -0.0033 -0.0984
 2941SOL    HW120456   1.239   0.200   8.312  0.3320 -0.4707  0.0157
 2941SOL    HW220457   1.326   0.178   8.427  0.6193  0.6675  0.0072
 2942SOL     OW20458   3.808   0.093   6.700 -0.0090  0.1612 -0.2042
 2942SOL    HW120459   3.901   0.114   6.708  0.0616  0.3852 -1.6356
 2942SOL    HW220460   3.809   0.082   6.605  3.3870  0.7773 -0.2511
 2943SOL     OW20461   1.537   1.025   8.266 -0.3164 -0.2534  0.7492
 2943SOL    HW120462   1.503   0.949   8.218 -0.6619  0.8445 -0.7085
 2943SOL    HW220463   1.542   1.088   8.195 -2.5858 -1.0087 -0.1035
 2944SOL     OW20464   3.712   0.323   2.776 -0.3953 -0.4814  0.3850
 2944SOL    HW120465   3.777   0.291   2.839  0.6963 -1.8599 -1.4563
 2944SOL    HW220466   3.743   0.413   2.771  2.2131 -1.3244  1.1052
 2945SOL     OW20467   1.838   4.714  15.753 -0.4580 -0.3742  0.9195
 2945SOL    HW120468   1.813   0.050  15.697  2.5916 -0.2533 -0.3235
 2945SOL    HW220469   1.807   4.641  15.700  1.9703  0.2033 -1.3501
 2946SOL     OW20470   3.839   1.073   5.355  0.7232  0.0112  0.2102
 2946SOL    HW120471   3.904   1.111   5.296 -0.6643  0.8578 -0.7982
 2946SOL    HW220472   3.844   1.144   5.419  0.5714  0.0666  0.1623
 2947SOL     OW20473   3.641   1.106  15.823 -0.3959 -0.3788  0.1560
 2947SOL    HW120474   3.689   1.048  15.763  0.5367 -0.4051  0.9181
 2947SOL    HW220475   3.715   1.166  15.834  0.4900 -1.3453 -0.5830
 2948SOL     OW20476   2.355   1.181   5.018  0.5414 -0.3927  0.4512
 2948SOL    HW120477   2.344   1.201   4.925  0.7775 -1.4372  0.2015
 2948SOL    HW220478   2.268   1.206   5.049  0.4794  0.7834 -0.6682
 2949SOL     OW20479   0.880   2.257  12.222  0.0771 -0.0195 -0.5223
 2949SOL    HW120480   0.974   2.243  12.216  0.4183  1.5704  1.4277
 2949SOL    HW220481   0.844   2.170  12.201 -1.0368 -0.0909  1.6933
 2950SOL     OW20482   0.057   0.151   6.525 -0.2074  0.6897  0.1169
 2950SOL    HW120483   0.073   0.099   6.446 -0.0589  0.0754  0.5447
 2950SOL    HW220484   0.140   0.143   6.573 -0.4968 -1.1015  0.3054
 2951SOL     OW20485   2.923   3.181   6.155  0.2631 -0.2588 -0.4002
 2951SOL    HW120486   2.999   3.127   6.176 -0.8023 -0.7385  2.2035
 2951SOL    HW220487   2.939   3.258   6.210  0.3939  0.3711 -1.3308
 2952SOL     OW20488   1.330   0.883   9.126  0.0703 -0.3186  0.1487
 2952SOL    HW120489   1.408   0.863   9.074  0.9483 -2.4764  2.2739
 2952SOL    HW220490   1.271   0.809   9.111  1.4330 -1.2459 -0.6511
 2953SOL     OW20491   0.831   4.438   7.704 -0.0003  0.3953  0.0614
 2953SOL    HW120492   0.736   4.449   7.704 -0.0140  0.1551 -1.6197
 2953SOL    HW220493   0.862   4.522   7.671  0.4740  0.2498  0.1410
 2954SOL     OW20494   4.150   4.121   9.178  0.1312 -0.3048  0.0847
 2954SOL    HW120495   4.120   4.119   9.269 -1.4851 -1.0054 -0.4581
 2954SOL    HW220496   4.220   4.187   9.181  0.9017 -1.1697  1.2962
 2955SOL     OW20497   1.260   3.009   4.227 -0.0952  0.7021 -0.2013
 2955SOL    HW120498   1.330   2.944   4.230 -0.5651  0.2349  0.9059
 2955SOL    HW220499   1.225   3.008   4.138  0.8158  0.8276 -0.5555
 2956SOL     OW20500   1.590   0.815   1.965  0.2969 -0.4901  0.1096
 2956SOL    HW120501   1.551   0.868   2.035  0.8396  0.1446 -0.0679
 2956SOL    HW220502   1.682   0.809   1.991 -0.0486  4.0109  2.4292
 2957SOL     OW20503   1.149   4.579   9.094  0.4331  0.6638 -0.0452
 2957SOL    HW120504   1.142   4.484   9.105 -0.5321  0.8355  0.7656
 2957SOL    HW220505   1.177   4.601   9.183 -0.0861 -1.3215  0.6184
 2958SOL     OW20506   3.280   0.330   8.078  0.7226  0.0333  0.2365
 2958SOL    HW120507   3.370   0.326   8.112 -0.2272 -1.1248  2.5992
 2958SOL    HW220508   3.244   0.242   8.069 -1.2231  0.6507  1.7793
 2959SOL     OW20509   1.062   3.246   1.191 -0.2786 -0.1992 -0.1974
 2959SOL    HW120510   1.065   3.173   1.130 -0.2755 -1.6422  1.5260
 2959SOL    HW220511   0.980   3.231   1.239  1.0559  1.1443  2.4941
 2960SOL     OW20512   3.367   4.422   7.300  0.0155 -0.1081  0.0926
 2960SOL    HW120513   3.273   4.424   7.319 -0.1686 -1.8401 -0.6024
 2960SOL    HW220514   3.400   4.467   7.377  2.2773 -1.7992  0.1344
 2961SOL     OW20515   1.776   3.404   5.012  0.5636  0.6217 -0.0986
 2961SOL    HW120516   1.695   3.454   5.001 -1.2775 -2.0453  1.0837
 2961SOL    HW220517   1.842   3.464   4.977  0.8583  0.0618 -0.5158
 2962SOL     OW20518   2.489   1.001   2.310 -0.1361 -0.2615  0.1068
 2962SOL    HW120519   2.463   1.042   2.393 -0.9507 -1.9678  0.7059
 2962SOL    HW220520   2.581   1.027   2.309 -0.1377 -0.3488 -1.8966
 2963SOL     OW20521   0.183   3.755   1.935  0.1361 -0.0619 -0.6504
 2963SOL    HW120522   0.266   3.760   1.888  2.5279  1.4765  3.6950
 2963SOL    HW220523   0.208   3.701   2.010 -0.0975 -0.6531 -1.0014
 2964SOL     OW20524   3.634   0.411   4.263 -0.0975 -0.0025  0.1939
 2964SOL    HW120525   3.544   0.436   4.284 -1.3256 -4.0800 -0.2009
 2964SOL    HW220526   3.651   0.341   4.326 -1.2362  0.1303  0.6548
 2965SOL     OW20527   1.561   3.118   8.098  0.2847 -0.1947  1.3811
 2965SOL    HW120528   1.476   3.074   8.110  0.4317 -0.4076  1.6312
 2965SOL    HW220529   1.535   3.162   8.017  0.3237  0.0354  1.4942
 2966SOL     OW20530   4.288   1.055   5.425  0.1686 -0.4044 -0.3117
 2966SOL    HW120531   4.272   0.964   5.448 -1.3944 -0.7860 -2.9267
 2966SOL    HW220532   4.226   1.094   5.487 -0.0999  0.4105 -1.0955
 2967SOL     OW20533   3.078   2.760  16.404  0.4808 -0.2284 -0.3110
 2967SOL    HW120534   3.150   2.787  16.346  1.3468  0.4550  1.0718
 2967SOL    HW220535   3.119   2.719  16.480  0.7220  1.6734  0.6043
 2968SOL     OW20536   0.624   3.703   5.225 -0.0988 -0.0616  0.1537
 2968SOL    HW120537   0.600   3.616   5.258  0.7152 -0.1917  0.4332
 2968SOL    HW220538   0.673   3.673   5.149  1.4833 -0.7714  1.4317
 2969SOL     OW20539   2.381   1.874  16.178  0.0530  0.2923  0.0677
 2969SOL    HW120540   2.299   1.826  16.167  0.6182 -0.7726  0.5075
 2969SOL    HW220541   2.420   1.855  16.092  0.2889  1.1882 -0.0218
 2970SOL     OW20542   4.724   1.539   6.600 -0.2570 -0.2341 -0.4119
 2970SOL    HW120543   4.737   1.624   6.559  0.7797 -0.7895 -1.2210
 2970SOL    HW220544   0.031   1.556   6.683 -0.9945  1.0640 -0.2804
 2971SOL     OW20545   2.062   0.215   7.168 -0.5911  0.1005  0.0262
 2971SOL    HW120546   2.117   0.286   7.136  0.0053 -0.1000  0.6122
 2971SOL    HW220547   2.086   0.215   7.261  1.0941 -2.3248 -0.4187
 2972SOL     OW20548   3.233   2.683   6.157 -0.2022  0.3280  0.2809
 2972SOL    HW120549   3.203   2.651   6.242 -0.6809  1.7639  0.6468
 2972SOL    HW220550   3.152   2.676   6.107  0.0006 -1.2214  0.1526
 2973SOL     OW20551   0.592   1.394  16.452  0.0853 -0.2952 -0.1104
 2973SOL    HW120552   0.603   1.460  16.384  0.0389 -1.3049 -1.1027
 2973SOL    HW220553   0.502   1.412  16.480  0.4184  0.0853  0.7342
 2974SOL     OW20554   3.441   4.064  13.348 -0.0222  0.6605 -0.0629
 2974SOL    HW120555   3.536   4.051  13.342 -0.4269 -2.1829 -0.0324
 2974SOL    HW220556   3.435   4.160  13.351 -1.3536  0.5869 -0.7218
 2975SOL     OW20557   4.374   1.258   7.061  0.0385  0.0693 -0.4796
 2975SOL    HW120558   4.362   1.221   6.973  0.8280  0.3452 -0.7034
 2975SOL    HW220559   4.292   1.241   7.106  0.4776 -0.5940  0.0702
 2976SOL     OW20560   1.082   4.639   2.728 -0.1556 -0.7239 -0.2724
 2976SOL    HW120561   1.054   4.707   2.667  0.3580  1.6112  2.0936
 2976SOL    HW220562   1.014   4.573   2.714 -0.2818 -0.8083  0.7143
 2977SOL     OW20563   1.998   3.326   3.186 -1.1492 -0.2476  0.4182
 2977SOL    HW120564   2.059   3.275   3.132 -0.6703  0.3752  0.3661
 2977SOL    HW220565   1.915   3.280   3.177 -1.5157  0.8198 -1.8448
 2978SOL     OW20566   4.157   4.333   6.517  0.1219 -0.2873  0.3275
 2978SOL    HW120567   4.116   4.365   6.437  0.9343  1.2578  0.5304
 2978SOL    HW220568   4.249   4.322   6.493 -0.3771  0.4770 -1.8869
 2979SOL     OW20569   2.933   3.225  16.066 -0.3784  0.6419  0.9612
 2979SOL    HW120570   3.029   3.215  16.062 -0.4885 -0.4290  0.8526
 2979SOL    HW220571   2.928   3.274  15.984  0.4733  0.4564  0.7869
 2980SOL     OW20572   2.699   0.495   7.003 -0.3929  0.2104  0.1114
 2980SOL    HW120573   2.637   0.549   7.053  1.0640 -0.2087  2.3470
 2980SOL    HW220574   2.776   0.503   7.059 -0.4533  0.3369  0.1785
 2981SOL     OW20575   0.203   0.332   4.142  0.3285 -0.3502  0.2052
 2981SOL    HW120576   0.145   0.265   4.107 -0.3053  0.7322 -0.8502
 2981SOL    HW220577   0.186   0.352   4.234 -0.6844 -1.0825  0.1657
 2982SOL     OW20578   0.531   3.172   6.560  0.2176 -0.0603  0.5276
 2982SOL    HW120579   0.478   3.191   6.637 -1.2586 -2.5450  0.1394
 2982SOL    HW220580   0.584   3.100   6.595  0.8992  1.6513  3.0023
 2983SOL     OW20581   3.760   4.075   9.567  0.1420  0.2161 -0.6073
 2983SOL    HW120582   3.813   4.003   9.600 -0.2347 -0.4513 -1.4640
 2983SOL    HW220583   3.722   4.027   9.493 -0.8528  0.2156 -0.0942
 2984SOL     OW20584   3.730   1.264   8.229  0.6100  0.2357  0.0928
 2984SOL    HW120585   3.768   1.231   8.310  4.3291 -2.2075 -2.6381
 2984SOL    HW220586   3.759   1.353   8.247  2.7111 -0.2961 -0.6805
 2985SOL     OW20587   2.565   2.114  11.655 -0.7139  0.1645 -0.1929
 2985SOL    HW120588   2.511   2.177  11.608 -1.4637 -0.9766 -0.8262
 2985SOL    HW220589   2.526   2.038  11.615  1.4095 -1.6480  1.1630
 2986SOL     OW20590   0.430   0.289   7.148  0.1588  0.3012 -0.1935
 2986SOL    HW120591   0.431   0.308   7.054 -1.3491 -1.0347 -0.4738
 2986SOL    HW220592   0.519   0.265   7.173 -0.0708 -2.2281 -1.8386
 2987SOL     OW20593   4.323   3.354   9.595 -0.3789  0.1817  0.4784
 2987SOL    HW120594   4.348   3.444   9.614  2.9465 -0.4373 -0.9368
 2987SOL    HW220595   4.397   3.300   9.624 -0.6199 -0.5892 -0.3133
 2988SOL     OW20596   1.233   4.156   5.742  0.2857  0.1882 -0.4590
 2988SOL    HW120597   1.310   4.185   5.791  0.5094 -0.7741 -0.2392
 2988SOL    HW220598   1.225   4.067   5.778 -1.0119  0.6268  0.3452
 2989SOL     OW20599   1.175   1.717   5.173  0.3467 -0.6414 -0.1867
 2989SOL    HW120600   1.236   1.786   5.200  0.4119 -0.7082 -0.1626
 2989SOL    HW220601   1.220   1.666   5.105  1.9943 -0.7663  1.0062
 2990SOL     OW20602   4.270   3.835  12.577 -0.3548  0.3016 -0.0296
 2990SOL    HW120603   4.187   3.868  12.544 -0.6371 -0.3245  0.0622
 2990SOL    HW220604   4.329   3.907  12.556  1.0854 -0.4000  1.5409
 2991SOL     OW20605   0.329   0.722   1.361  0.0138 -0.9272  0.3652
 2991SOL    HW120606   0.242   0.708   1.398 -0.0265  0.9930  0.9928
 2991SOL    HW220607   0.318   0.811   1.327 -2.1386 -0.6198  1.8503
 2992SOL     OW20608   3.192   3.160   9.996  0.2305  0.2305  0.4371
 2992SOL    HW120609   3.284   3.151   9.970  0.1143 -1.3443  0.5623
 2992SOL    HW220610   3.171   3.071  10.024  1.7307 -0.3336 -0.2416
 2993SOL     OW20611   1.303   0.101   6.060 -0.2553  0.5154 -0.1923
 2993SOL    HW120612   1.315   0.087   5.966  1.0069  1.0599 -0.1089
 2993SOL    HW220613   1.378   0.153   6.087  0.7799 -0.7184 -0.7134
 2994SOL     OW20614   0.579   1.054   7.067 -0.0511 -1.2270  0.3877
 2994SOL    HW120615   0.569   0.989   7.137  0.6315 -0.1538  1.4874
 2994SOL    HW220616   0.634   1.111   7.121 -0.2401 -1.1509  0.5020
 2995SOL     OW20617   1.347   2.620   2.466 -0.1777  0.4577  0.5129
 2995SOL    HW120618   1.345   2.683   2.538  0.4816 -0.9791  1.7964
 2995SOL    HW220619   1.356   2.676   2.389  1.7494 -0.4113  0.1029
 2996SOL     OW20620   2.579   0.130  15.422  0.5529 -0.9272 -0.3316
 2996SOL    HW120621   2.491   0.162  15.443  0.9144 -0.7756  0.9493
 2996SOL    HW220622   2.636   0.162  15.491 -0.4777 -1.8987  0.9690
 2997SOL     OW20623   1.033   1.677   7.587  0.1976 -0.7826  0.1510
 2997SOL    HW120624   1.000   1.764   7.563 -0.2635 -0.6357  1.3281
 2997SOL    HW220625   0.962   1.655   7.646  1.0235  3.4928  2.7006
 2998SOL     OW20626   4.219   3.532   2.188 -0.0617  0.1406 -0.0283
 2998SOL    HW120627   4.183   3.578   2.264 -1.5198  0.0704 -0.6679
 2998SOL    HW220628   4.137   3.513   2.142  1.3315  1.7542 -3.1946
 2999SOL     OW20629   1.609   3.733   2.606  0.2617  0.1465 -0.2178
 2999SOL    HW120630   1.623   3.693   2.520  0.5344 -1.6259  0.6565
 2999SOL    HW220631   1.643   3.667   2.666 -0.9689 -0.3976 -0.1212
 3000SOL     OW20632   4.227   1.710   5.164  0.6777  0.0584 -0.0966
 3000SOL    HW120633   4.294   1.675   5.106 -0.9804 -1.2013 -1.2443
 3000SOL    HW220634   4.173   1.766   5.107  1.7332  1.1554 -0.0184
 3001SOL     OW20635   0.197   0.366   5.335 -0.0154  0.0971  0.8653
 3001SOL    HW120636   0.263   0.434   5.345 -0.4676  0.5565  0.7762
 3001SOL    HW220637   0.172   0.356   5.427  0.4896 -3.0148  0.6518
 3002SOL     OW20638   4.482   3.285   2.809 -0.5876  0.1161  0.5653
 3002SOL    HW120639   4.445   3.296   2.721 -0.2404  0.4721  0.4644
 3002SOL    HW220640   4.431   3.348   2.860 -0.9266  0.3170 -0.0219
 3003SOL     OW20641   1.579   1.212   3.621  0.2110  0.3069  0.3626
 3003SOL    HW120642   1.625   1.294   3.603 -0.1189 -0.0698 -2.1554
 3003SOL    HW220643   1.627   1.180   3.698 -3.1174 -2.0626  1.4425
 3004SOL     OW20644   2.241   2.144   6.564 -0.0204 -0.2057  0.2889
 3004SOL    HW120645   2.221   2.236   6.549 -0.3158 -0.6332 -1.9976
 3004SOL    HW220646   2.155   2.114   6.593 -0.9048  0.3835 -1.7301
 3005SOL     OW20647   3.590   4.321   8.702  0.1924 -0.5839  0.0669
 3005SOL    HW120648   3.554   4.233   8.710 -2.6147  0.7655  2.3722
 3005SOL    HW220649   3.677   4.310   8.741 -0.4492  0.7872  1.8725
 3006SOL     OW20650   4.558   0.718   6.166 -0.0661 -0.1956 -0.0584
 3006SOL    HW120651   4.533   0.810   6.155 -0.0650 -0.1251  0.4824
 3006SOL    HW220652   4.595   0.685   6.085  0.1470  1.7777 -0.7487
 3007SOL     OW20653   0.384   1.115   8.961 -0.2321  0.3542 -0.2042
 3007SOL    HW120654   0.438   1.037   8.955 -0.9598 -0.0870 -1.0621
 3007SOL    HW220655   0.401   1.162   8.879  2.1481 -0.6368 -0.2830
 3008SOL     OW20656   1.399   2.206  12.499 -0.0325 -0.3868 -0.0813
 3008SOL    HW120657   1.397   2.301  12.510 -0.8518 -0.3455 -0.6485
 3008SOL    HW220658   1.305   2.194  12.488 -0.1391  0.1695  0.2064
 3009SOL     OW20659   0.813   3.435  13.150  0.3796 -0.4399  0.3844
 3009SOL    HW120660   0.809   3.413  13.243  1.0860 -3.1712 -0.2406
 3009SOL    HW220661   0.884   3.378  13.121 -0.1221 -0.3113 -1.0813
 3010SOL     OW20662   1.198   1.226   0.394  0.1603  0.0347  0.1162
 3010SOL    HW120663   1.253   1.287   0.346  0.4799  0.8303  1.5004
 3010SOL    HW220664   1.149   1.288   0.449  1.0931 -0.2085  1.2251
 3011SOL     OW20665   0.745   3.631  14.496  0.5847  0.4303 -0.3376
 3011SOL    HW120666   0.688   3.607  14.424  0.3432 -0.1962  0.0664
 3011SOL    HW220667   0.733   3.726  14.501  1.7779  0.5765 -0.2658
 3012SOL     OW20668   1.764   3.715   8.827  0.3236 -0.0448  0.1119
 3012SOL    HW120669   1.776   3.809   8.815  0.0965 -0.1539 -0.9190
 3012SOL    HW220670   1.680   3.698   8.784 -0.0973 -1.9243  1.6524
 3013SOL     OW20671   4.293   4.038   6.599  0.0617  0.3201 -0.2097
 3013SOL    HW120672   4.298   4.017   6.692  0.0910 -0.6087 -0.4254
 3013SOL    HW220673   4.200   4.031   6.577 -0.5534  1.1180  2.1557
 3014SOL     OW20674   2.500   3.180   6.896  0.2612  0.5028  0.6045
 3014SOL    HW120675   2.533   3.235   6.825  1.5514 -2.2068 -0.8643
 3014SOL    HW220676   2.498   3.096   6.852 -3.4630 -0.0131  1.8082
 3015SOL     OW20677   3.028   4.236  15.470  0.1417 -0.1081 -0.3444
 3015SOL    HW120678   3.033   4.141  15.457 -1.8222 -0.0852 -1.1882
 3015SOL    HW220679   3.042   4.276  15.384 -0.9362 -0.8355 -0.8620
 3016SOL     OW20680   0.350   3.578  12.999 -0.3590  0.2630  0.3934
 3016SOL    HW120681   0.366   3.646  12.933  3.0568  0.4083  1.3533
 3016SOL    HW220682   0.257   3.593  13.018 -0.7778 -2.3623  0.3709
 3017SOL     OW20683   0.550   4.051   5.861  0.3832 -0.1877  0.0186
 3017SOL    HW120684   0.523   4.143   5.867 -1.4462 -0.7097 -0.1327
 3017SOL    HW220685   0.617   4.059   5.793  1.0985 -0.8068  0.6544
 3018SOL     OW20686   0.742   0.499  16.356 -0.1374 -0.1726 -0.1676
 3018SOL    HW120687   0.735   0.512  16.262 -3.0841  2.9893  0.5139
 3018SOL    HW220688   0.827   0.456  16.370  0.2570  1.2404  1.8409
 3019SOL     OW20689   1.890   0.723   8.362 -0.4785  0.5050 -0.2377
 3019SOL    HW120690   1.984   0.732   8.347 -0.5110  0.7996 -0.2555
 3019SOL    HW220691   1.900   0.687   8.450  0.9633 -0.0811 -0.6368
 3020SOL     OW20692   2.077   2.989   7.230 -0.0981 -0.0720 -0.1841
 3020SOL    HW120693   2.081   2.894   7.215 -0.3468 -0.3504  1.5230
 3020SOL    HW220694   1.998   3.005   7.282  1.2675  1.1067  1.5433
 3021SOL     OW20695   2.058   1.790   8.168 -0.5342 -0.3831  0.0987
 3021SOL    HW120696   2.019   1.862   8.119 -1.4784 -1.4069 -0.6394
 3021SOL    HW220697   2.008   1.783   8.249 -0.7250 -1.7018 -0.1274
 3022SOL     OW20698   1.512   1.373   0.946 -0.1311  0.3775  0.0339
 3022SOL    HW120699   1.440   1.347   1.003  1.0777  0.8252  1.7552
 3022SOL    HW220700   1.466   1.423   0.878  0.7505 -0.7602 -1.4012
 3023SOL     OW20701   2.936   2.714   3.341 -0.5642 -0.1776 -0.0659
 3023SOL    HW120702   2.967   2.630   3.376 -0.6627  0.1766  0.8626
 3023SOL    HW220703   2.998   2.728   3.269  1.2140  0.9785  1.6854
 3024SOL     OW20704   3.585   3.760   2.140 -0.2354 -0.6215 -0.1605
 3024SOL    HW120705   3.608   3.853   2.140  1.2762 -0.9856 -2.0085
 3024SOL    HW220706   3.576   3.745   2.234 -1.8010  0.8805 -0.0742
 3025SOL     OW20707   2.054   0.655   9.636 -0.3658  0.3181 -0.2788
 3025SOL    HW120708   2.013   0.576   9.670  0.5478 -0.1378 -0.2251
 3025SOL    HW220709   2.021   0.639   9.547 -0.8580  0.5978 -0.1458
 3026SOL     OW20710   0.559   4.278   6.114  0.4554  0.2838 -0.5878
 3026SOL    HW120711   0.577   4.310   6.202  1.6622 -3.3684  0.5072
 3026SOL    HW220712   0.598   4.345   6.057  1.3503  0.5359  0.3168
 3027SOL     OW20713   0.678   2.596   2.633  0.1552  0.5436  0.0282
 3027SOL    HW120714   0.670   2.525   2.568  0.7849  0.6483 -0.1638
 3027SOL    HW220715   0.680   2.681   2.589  1.6707  0.8180  0.6352
 3028SOL     OW20716   1.234   1.676   0.558  0.3733 -0.1655  0.4178
 3028SOL    HW120717   1.172   1.744   0.532 -1.7638 -1.3619  2.3558
 3028SOL    HW220718   1.182   1.596   0.561  0.4705 -0.1830  1.5607
 3029SOL     OW20719   4.517   4.314   1.797  0.0125  0.4614 -0.3769
 3029SOL    HW120720   4.555   4.386   1.747 -0.4116  0.1322 -1.1700
 3029SOL    HW220721   4.427   4.346   1.803 -0.5649 -1.0079 -1.1784
 3030SOL     OW20722   3.486   3.535  12.984 -0.4327 -0.3163 -0.4670
 3030SOL    HW120723   3.463   3.557  12.894  1.8922  0.7286 -0.8193
 3030SOL    HW220724   3.504   3.624  13.015  1.1118 -1.0475  0.7905
 3031SOL     OW20725   4.449   2.681   9.434  0.1558 -0.3796 -0.1072
 3031SOL    HW120726   4.453   2.740   9.509  1.0419 -0.5535 -0.0255
 3031SOL    HW220727   4.401   2.603   9.461  0.7956 -0.1011  1.8112
 3032SOL     OW20728   1.320   2.113  12.931 -0.4328 -0.4720 -0.2676
 3032SOL    HW120729   1.311   2.127  13.025 -0.0007 -2.0877  0.0151
 3032SOL    HW220730   1.414   2.122  12.916 -0.4072 -0.6006 -0.1847
 3033SOL     OW20731   0.189   4.596   0.343 -0.3775 -0.0078  0.2007
 3033SOL    HW120732   0.242   4.530   0.388 -1.1699 -0.0373  1.0744
 3033SOL    HW220733   0.213   4.582   0.251  2.2900  0.3792  0.8472
 3034SOL     OW20734   2.189   3.391   5.805  0.3263  0.9785 -0.3525
 3034SOL    HW120735   2.151   3.460   5.859  0.5137  1.1086 -0.3835
 3034SOL    HW220736   2.254   3.346   5.859 -2.1707 -0.3559  1.5237
 3035SOL     OW20737   1.463   3.284   7.898 -0.3393 -0.7570 -0.3711
 3035SOL    HW120738   1.535   3.280   7.835 -0.2723 -0.1169 -0.3363
 3035SOL    HW220739   1.401   3.229   7.851 -0.8804  1.0406 -1.7535
 3036SOL     OW20740   4.285   2.570   7.987 -0.1765 -0.7576 -0.1758
 3036SOL    HW120741   4.204   2.586   7.939 -1.0117 -0.3669  1.3481
 3036SOL    HW220742   4.350   2.608   7.928 -0.5764  0.6897  0.3086
 3037SOL     OW20743   2.384   1.759   3.442 -0.2322 -0.1789 -0.2085
 3037SOL    HW120744   2.330   1.804   3.507 -3.0111 -1.9478 -1.2828
 3037SOL    HW220745   2.442   1.711   3.501 -0.2810 -0.7591 -0.6412
 3038SOL     OW20746   2.624   2.220   8.588  0.0639 -0.2863  0.2652
 3038SOL    HW120747   2.600   2.225   8.496 -1.2659  0.9773  0.6791
 3038SOL    HW220748   2.708   2.265   8.586 -1.1920  2.0431 -0.2355
 3039SOL     OW20749   0.567   3.721  11.700 -0.1643 -0.0106 -0.2527
 3039SOL    HW120750   0.499   3.720  11.768 -0.7168  0.0459 -0.8083
 3039SOL    HW220751   0.624   3.661  11.748 -0.4398  0.5835  0.8353
 3040SOL     OW20752   3.049   3.398   8.479  0.2468 -0.7147 -0.0095
 3040SOL    HW120753   2.993   3.326   8.508 -1.0295 -0.2123 -1.2445
 3040SOL    HW220754   3.134   3.378   8.519 -0.5850  0.0634  2.1702
 3041SOL     OW20755   2.133   0.716  13.526 -0.1724 -1.0513  0.1479
 3041SOL    HW120756   2.072   0.703  13.598 -2.9353  0.0408 -1.9981
 3041SOL    HW220757   2.139   0.626  13.495 -0.3214 -0.9737 -0.1114
 3042SOL     OW20758   2.347   0.447   3.659  0.0188  0.6810 -0.3878
 3042SOL    HW120759   2.379   0.496   3.735 -1.6591  0.1116  0.6977
 3042SOL    HW220760   2.341   0.515   3.593 -2.1294 -0.7287 -1.6894
 3043SOL     OW20761   2.458   0.512   6.515  1.2733  0.3089 -0.0295
 3043SOL    HW120762   2.543   0.557   6.517  0.8273  1.1021  1.2796
 3043SOL    HW220763   2.430   0.539   6.428  0.6347 -1.4448 -0.3638
 3044SOL     OW20764   4.106   2.802   7.553 -0.0700 -1.0996 -0.1890
 3044SOL    HW120765   4.076   2.716   7.521  0.2262 -0.6513 -1.6602
 3044SOL    HW220766   4.141   2.775   7.638 -1.5497 -1.8078  0.1989
 3045SOL     OW20767   1.700   2.477   7.080  0.4948  0.2521 -0.0087
 3045SOL    HW120768   1.734   2.554   7.033  2.4310  1.8651  4.0052
 3045SOL    HW220769   1.682   2.524   7.162 -1.8078 -0.4277 -0.1250
 3046SOL     OW20770   3.327   0.165   4.874 -0.0793 -0.3372 -0.1225
 3046SOL    HW120771   3.327   0.103   4.947  1.3538 -0.3209 -0.0974
 3046SOL    HW220772   3.349   0.249   4.915 -0.6620 -0.1407 -0.2157
 3047SOL     OW20773   2.801   3.294  12.753  0.2532 -0.4549 -0.1455
 3047SOL    HW120774   2.781   3.223  12.814 -0.9011 -0.2903 -0.3368
 3047SOL    HW220775   2.876   3.336  12.796 -0.5204  0.6257  0.1751
 3048SOL     OW20776   0.830   2.912   1.719  0.0759  0.2026 -0.3990
 3048SOL    HW120777   0.741   2.905   1.686 -0.5091  0.0924  1.2014
 3048SOL    HW220778   0.841   3.007   1.719 -1.0257  0.3290 -0.3603
 3049SOL     OW20779   1.932   2.039   4.032  0.5872  0.5397  0.4734
 3049SOL    HW120780   1.847   2.002   4.007 -0.2703  1.7387  1.6410
 3049SOL    HW220781   1.920   2.052   4.126 -0.0832  0.2027  0.4325
 3050SOL     OW20782   0.243   2.661   0.236  0.4126 -0.3837  0.4377
 3050SOL    HW120783   0.321   2.711   0.211 -0.7096 -0.2212 -2.7301
 3050SOL    HW220784   0.274   2.619   0.316 -0.7427  0.6051  1.4059
 3051SOL     OW20785   2.795   4.183   2.236  0.1226 -0.2988  0.2417
 3051SOL    HW120786   2.815   4.261   2.288  1.6118 -0.7089  0.2732
 3051SOL    HW220787   2.699   4.185   2.244  0.0790 -0.4487 -0.2827
 3052SOL     OW20788   1.968   0.650  11.786  0.1065  0.1711 -0.0483
 3052SOL    HW120789   1.926   0.734  11.763 -1.2263 -0.5739 -0.3755
 3052SOL    HW220790   1.981   0.648  11.880 -1.1828 -2.4076  0.0729
 3053SOL     OW20791   4.149   1.339   1.761  0.1433  0.6177  0.2927
 3053SOL    HW120792   4.055   1.355   1.759  0.2052  0.9089 -0.7903
 3053SOL    HW220793   4.184   1.417   1.805 -0.9260 -0.2426  2.6420
 3054SOL     OW20794   3.326   0.544   9.925  0.3063 -0.0786 -0.0622
 3054SOL    HW120795   3.388   0.525   9.855  1.1485  0.2377  0.5978
 3054SOL    HW220796   3.297   0.634   9.911 -1.4331 -0.7869 -1.0792
 3055SOL     OW20797   0.755   4.424   9.897  0.0243 -0.2060 -0.3487
 3055SOL    HW120798   0.838   4.452   9.937  0.2647  1.3454 -1.9881
 3055SOL    HW220799   0.725   4.347   9.946 -0.1305  1.0627  1.5534
 3056SOL     OW20800   2.924   4.326   7.812 -0.3687 -0.1534 -0.2043
 3056SOL    HW120801   2.877   4.356   7.734 -0.1862  1.9560  0.4911
 3056SOL    HW220802   2.918   4.403   7.869 -0.8187 -1.2103  1.1803
 3057SOL     OW20803   3.113   2.257   4.812  0.1527 -0.1875 -0.2326
 3057SOL    HW120804   3.043   2.200   4.843 -1.1753  1.0406 -0.9755
 3057SOL    HW220805   3.194   2.228   4.855 -0.6046 -0.8490  0.7551
 3058SOL     OW20806   1.384   3.614   9.185 -0.2281 -0.2248  0.2424
 3058SOL    HW120807   1.329   3.609   9.263 -0.0421  0.5584  0.4274
 3058SOL    HW220808   1.431   3.531   9.186  1.0392  0.4790 -1.0625
 3059SOL     OW20809   0.103   0.667   2.421 -0.2968  0.3225 -0.1588
 3059SOL    HW120810   0.132   0.742   2.370  4.2460 -0.4621  1.2924
 3059SOL    HW220811   0.025   0.705   2.461 -0.0694  2.3201 -1.6192
 3060SOL     OW20812   2.512   4.253  15.360  0.3333 -0.0805 -0.0194
 3060SOL    HW120813   2.554   4.308  15.426  0.3678  0.3120 -0.3685
 3060SOL    HW220814   2.580   4.186  15.356  0.1994 -0.3472  2.1367
 3061SOL     OW20815   1.962   2.806  15.621 -0.3911  0.0934 -0.5801
 3061SOL    HW120816   2.051   2.769  15.627 -0.5903 -0.2497  0.2440
 3061SOL    HW220817   1.964   2.871  15.552 -1.0287 -0.1821 -0.8566
 3062SOL     OW20818   4.614   1.793   4.941  0.4547  0.0335  0.1084
 3062SOL    HW120819   4.594   1.803   4.848 -1.2711  2.4081  0.7144
 3062SOL    HW220820   4.669   1.869   4.962 -0.1485  0.1690  1.1511
 3063SOL     OW20821   3.229   0.299   8.979  0.1731 -0.6469  0.4928
 3063SOL    HW120822   3.139   0.288   9.009  1.1696 -1.5978  3.1301
 3063SOL    HW220823   3.235   0.238   8.906 -0.5213  3.2288 -2.7838
 3064SOL     OW20824   0.826   4.545   1.371  0.1423 -0.3624  0.6774
 3064SOL    HW120825   0.912   4.522   1.336 -0.0130 -2.9862  2.0323
 3064SOL    HW220826   0.840   4.553   1.466  0.1377 -2.6098  0.8649
 3065SOL     OW20827   2.477   1.739   0.662 -0.5372  0.3917 -0.2342
 3065SOL    HW120828   2.452   1.692   0.742 -0.4766  0.1173 -0.3750
 3065SOL    HW220829   2.566   1.705   0.654 -0.5336  0.2736  0.3288
 3066SOL     OW20830   1.491   4.165   1.268  0.3243 -0.3865  0.2989
 3066SOL    HW120831   1.458   4.079   1.297 -2.4077  1.1942  1.8955
 3066SOL    HW220832   1.411   4.213   1.249 -0.4783 -2.4562 -1.4840
 3067SOL     OW20833   1.879   2.929   6.329  0.7370  0.4410  0.6889
 3067SOL    HW120834   1.905   2.903   6.418  0.0840 -0.7396  0.5243
 3067SOL    HW220835   1.900   3.022   6.335  0.5303  0.4103  2.0486
 3068SOL     OW20836   1.040   1.401   0.506 -0.3917  0.0748 -0.0109
 3068SOL    HW120837   1.015   1.479   0.455  3.0320  1.0027 -0.2422
 3068SOL    HW220838   0.981   1.398   0.582 -0.7042  1.9773 -0.1734
 3069SOL     OW20839   1.680   1.009   8.841  0.7946  0.0937  0.1479
 3069SOL    HW120840   1.626   0.976   8.912 -1.0790 -1.4419 -1.9902
 3069SOL    HW220841   1.641   0.968   8.763 -0.2360  0.0198  0.7029
 3070SOL     OW20842   4.103   1.628   3.087  0.5412 -0.3682 -0.3385
 3070SOL    HW120843   4.141   1.540   3.089 -0.0326 -0.5455  2.5319
 3070SOL    HW220844   4.039   1.620   3.157  0.8693 -0.4016 -0.0443
 3071SOL     OW20845   3.313   0.546   4.666  0.0374 -0.2513  0.3813
 3071SOL    HW120846   3.342   0.455   4.655  2.0231  0.2282  1.4732
 3071SOL    HW220847   3.220   0.535   4.685  0.0793 -2.1575 -0.5477
 3072SOL     OW20848   2.356   1.528   2.843  0.1270  0.0110  0.7940
 3072SOL    HW120849   2.401   1.444   2.855 -0.1549 -0.2092  0.3137
 3072SOL    HW220850   2.266   1.515   2.873  0.3221 -1.2070  0.8328
 3073SOL     OW20851   3.328   2.131  14.066 -0.3346  0.0261  0.1424
 3073SOL    HW120852   3.236   2.142  14.091 -0.6673  0.7533 -1.4118
 3073SOL    HW220853   3.369   2.205  14.110  1.3664 -0.1608 -1.1359
 3074SOL     OW20854   4.678   0.326   3.417 -0.3702  0.2284  0.3187
 3074SOL    HW120855   0.025   0.285   3.433  0.4348  0.9357 -2.0867
 3074SOL    HW220856   4.706   0.377   3.341  0.4468 -1.1050 -0.2663
 3075SOL     OW20857   4.657   4.147   4.070 -0.1486 -0.4656 -0.1067
 3075SOL    HW120858   4.595   4.113   4.006  1.7323 -1.8410 -1.2006
 3075SOL    HW220859   4.597   4.151   4.144 -1.0378  0.7185 -0.8816
 3076SOL     OW20860   3.626   4.620   6.747  0.1239  0.1610  0.2740
 3076SOL    HW120861   3.607   4.554   6.681  0.6253  1.0613 -0.7740
 3076SOL    HW220862   3.676   4.682   6.694 -0.8532 -0.0897 -0.9489
 3077SOL     OW20863   3.315   3.515   4.611  0.3094 -0.0067  0.0551
 3077SOL    HW120864   3.232   3.546   4.573 -0.8652 -1.5494  1.3681
 3077SOL    HW220865   3.334   3.583   4.676 -0.2840 -0.0240  0.2480
 3078SOL     OW20866   3.175   3.061   5.607 -0.3261  0.3328  0.1046
 3078SOL    HW120867   3.189   3.007   5.529  0.5423 -2.0970  1.9387
 3078SOL    HW220868   3.095   3.105   5.578  1.2568  3.5147  0.6017
 3079SOL     OW20869   4.062   2.752   4.886  0.3630  0.2152 -0.4813
 3079SOL    HW120870   4.096   2.686   4.945 -0.5718 -0.1358 -0.3525
 3079SOL    HW220871   3.979   2.780   4.924  1.1033  0.7862  0.6951
 3080SOL     OW20872   3.674   3.569  12.609  0.6694  0.2640  0.3159
 3080SOL    HW120873   3.593   3.585  12.657  1.4970 -0.5255  1.9669
 3080SOL    HW220874   3.734   3.547  12.680  1.1079 -0.5356 -0.3086
 3081SOL     OW20875   0.342   1.438   3.832  0.1273  0.2326 -0.1782
 3081SOL    HW120876   0.317   1.525   3.862 -1.4713 -0.5754  0.8107
 3081SOL    HW220877   0.275   1.425   3.765 -2.6037  1.6801  2.3278
 3082SOL     OW20878   4.009   2.520   9.419  1.1794  0.1184  0.1766
 3082SOL    HW120879   4.026   2.613   9.404  1.3511 -0.0095 -0.4340
 3082SOL    HW220880   4.073   2.483   9.358  0.0830 -2.0678  0.3724
 3083SOL     OW20881   0.875   1.593   4.090  0.1308 -0.0281  0.4122
 3083SOL    HW120882   0.954   1.578   4.039  1.7776  2.3202  2.2677
 3083SOL    HW220883   0.830   1.646   4.023 -0.3579 -1.4255 -0.3599
 3084SOL     OW20884   0.786   3.193   4.621 -0.1683  0.5231 -0.2717
 3084SOL    HW120885   0.721   3.132   4.587 -2.1246  2.1149  0.6227
 3084SOL    HW220886   0.772   3.264   4.559  1.7892  1.4715  0.3702
 3085SOL     OW20887   4.077   3.285   5.592  0.1965  0.3437 -0.2627
 3085SOL    HW120888   4.088   3.365   5.644 -1.5759 -0.9018  2.0416
 3085SOL    HW220889   4.049   3.324   5.510  1.2311  3.2011  0.7627
 3086SOL     OW20890   4.411   3.741  11.068  1.0565 -0.2753  0.1702
 3086SOL    HW120891   4.394   3.760  10.976 -0.3985 -0.7843  0.3327
 3086SOL    HW220892   4.427   3.647  11.064  2.3361  0.0559 -2.5423
 3087SOL     OW20893   0.720   0.356   0.025 -0.1370 -0.2154  0.1023
 3087SOL    HW120894   0.797   0.347   0.081 -0.5715  0.9527  0.8779
 3087SOL    HW220895   0.760   0.397  17.696  3.4061 -0.2553  1.9064
 3088SOL     OW20896   2.567   3.963  11.166 -0.2947  0.1546  0.6230
 3088SOL    HW120897   2.660   3.939  11.165 -0.5965 -0.8806 -1.8720
 3088SOL    HW220898   2.548   3.943  11.074  0.3552  2.1008  0.0598
 3089SOL     OW20899   2.736   1.049  16.696  0.1848 -0.5557  0.3578
 3089SOL    HW120900   2.654   1.004  16.677  1.1127 -1.2412 -1.9686
 3089SOL    HW220901   2.700   1.131  16.728  0.8702  0.4970 -1.5889
 3090SOL     OW20902   3.696   3.985  13.246 -0.1386  0.1997 -0.2153
 3090SOL    HW120903   3.651   3.902  13.233 -2.5268  1.7299 -1.5550
 3090SOL    HW220904   3.771   3.957  13.299  0.6659  2.0975 -0.3268
 3091SOL     OW20905   3.613   1.311  13.593 -0.0131 -0.2232  0.0185
 3091SOL    HW120906   3.568   1.227  13.584  1.3256 -0.8954 -0.4166
 3091SOL    HW220907   3.559   1.356  13.528 -0.3732  0.3211  0.6940
 3092SOL     OW20908   1.410   1.731  10.592  0.6838 -0.5942  0.0550
 3092SOL    HW120909   1.501   1.712  10.572  0.8534 -0.0299  0.2883
 3092SOL    HW220910   1.419   1.804  10.654  0.8358  0.2293 -0.9471
 3093SOL     OW20911   2.282   0.128  14.746 -0.2279 -0.1576  0.6101
 3093SOL    HW120912   2.309   0.126  14.654  0.3446  3.5633  0.6910
 3093SOL    HW220913   2.189   0.148  14.734 -1.0582 -2.9420  2.5983
 3094SOL     OW20914   4.617   1.601   2.923 -0.1260  0.0748  0.1297
 3094SOL    HW120915   4.548   1.638   2.978 -0.2402 -0.2571  0.2085
 3094SOL    HW220916   4.655   1.535   2.980 -0.6174  0.2937  0.7059
 3095SOL     OW20917   1.911   3.018  15.411 -0.3743 -0.1550 -0.6672
 3095SOL    HW120918   1.892   3.091  15.469  1.3609 -0.2189  0.0078
 3095SOL    HW220919   1.834   3.024  15.355 -1.2574  1.4486  0.7205
 3096SOL     OW20920   3.923   2.003   2.432  0.4458 -0.2482 -0.2776
 3096SOL    HW120921   3.988   2.065   2.399 -1.3211  1.0077 -1.3921
 3096SOL    HW220922   3.852   2.013   2.369  2.2350 -3.4943 -2.8847
 3097SOL     OW20923   4.704   3.145  15.948 -0.3541 -0.7068  0.3520
 3097SOL    HW120924   4.678   3.173  15.860  1.5358 -1.1451 -0.3575
 3097SOL    HW220925   4.648   3.200  16.003 -0.1678  2.6083 -2.7305
 3098SOL     OW20926   3.348   1.669  13.316 -0.1376  0.3741 -0.3271
 3098SOL    HW120927   3.333   1.724  13.392  1.2211  0.2391  0.0398
 3098SOL    HW220928   3.264   1.662  13.269 -0.8594 -2.1315  1.3687
 3099SOL     OW20929   0.799   3.443   9.388  0.4010 -0.0724  0.5535
 3099SOL    HW120930   0.713   3.430   9.430  0.0200 -1.3428 -0.6487
 3099SOL    HW220931   0.801   3.539   9.382 -1.4694 -0.1234 -1.0569
 3100SOL     OW20932   0.727   1.009   6.050  0.2162  0.1121  0.4273
 3100SOL    HW120933   0.660   1.031   5.985 -2.4483  0.7659  3.3849
 3100SOL    HW220934   0.775   0.948   5.994  0.3825  0.3845  0.2755
 3101SOL     OW20935   2.596   3.015   5.437 -0.1928 -0.0093  0.3088
 3101SOL    HW120936   2.508   3.052   5.441 -0.6310 -0.9415 -0.7274
 3101SOL    HW220937   2.630   3.062   5.361  1.4397 -0.5576  0.6980
 3102SOL     OW20938   0.057   0.924   4.282  0.3675 -0.1642  0.1969
 3102SOL    HW120939   0.082   0.963   4.198  0.1715 -0.9196 -0.2072
 3102SOL    HW220940   0.131   0.866   4.300  0.9803  0.8016  0.8492
 3103SOL     OW20941   4.199   1.235  12.799 -0.3213 -0.4985  0.5468
 3103SOL    HW120942   4.175   1.176  12.870  2.1465 -0.5953  1.2949
 3103SOL    HW220943   4.294   1.243  12.803 -0.3721  0.6293 -0.5948
 3104SOL     OW20944   4.148   4.198  16.639  0.1542 -0.0408 -0.1056
 3104SOL    HW120945   4.232   4.153  16.654  0.1567 -0.0209 -0.0625
 3104SOL    HW220946   4.110   4.206  16.726 -0.9818  1.6222 -0.7616
 3105SOL     OW20947   4.437   2.427   3.763 -0.2498 -0.1421 -0.5229
 3105SOL    HW120948   4.472   2.457   3.846 -0.7828  0.4762 -0.5190
 3105SOL    HW220949   4.440   2.332   3.772  0.8295 -0.2210 -1.7080
 3106SOL     OW20950   2.420   1.138   0.005 -0.2496  0.1613 -0.2913
 3106SOL    HW120951   2.418   1.115   0.098 -0.6378 -0.2377 -0.3970
 3106SOL    HW220952   2.506   1.178  17.746  0.3869 -0.9754  0.9965
 3107SOL     OW20953   3.706   1.097  16.341  0.0337 -0.0399  0.6140
 3107SOL    HW120954   3.725   1.009  16.375  0.0515 -0.5144 -0.6080
 3107SOL    HW220955   3.731   1.144  16.420  3.1416  1.2815 -1.1322
 3108SOL     OW20956   3.104   4.310   8.372  0.0769  0.7075 -0.2559
 3108SOL    HW120957   3.165   4.285   8.303  0.5554  2.0774 -0.3254
 3108SOL    HW220958   3.166   4.343   8.437  1.0098 -0.8547 -0.3424
 3109SOL     OW20959   4.111   0.756   8.600  0.3611 -0.6592 -0.3773
 3109SOL    HW120960   4.199   0.795   8.598  0.6650 -1.4990 -3.0001
 3109SOL    HW220961   4.058   0.834   8.616 -0.1116 -1.4854  2.0884
 3110SOL     OW20962   3.228   0.407   2.738  0.4559 -0.3104  0.1902
 3110SOL    HW120963   3.220   0.501   2.754 -0.5800 -0.0584 -1.8704
 3110SOL    HW220964   3.156   0.371   2.791  1.6621 -1.4235  1.0762
 3111SOL     OW20965   2.053   1.785   5.979  0.3548 -0.1311 -0.3643
 3111SOL    HW120966   2.042   1.692   5.960 -3.5295  0.4555 -0.9814
 3111SOL    HW220967   2.041   1.822   5.892 -1.7990 -0.6466 -0.2880
 3112SOL     OW20968   3.962   3.694   7.390  0.3918  0.4531  0.0884
 3112SOL    HW120969   4.056   3.709   7.400  0.5523  0.0432 -0.7708
 3112SOL    HW220970   3.925   3.770   7.434  0.8285 -0.9736  2.9496
 3113SOL     OW20971   2.114   3.838   7.966 -0.1160  0.4343  0.1821
 3113SOL    HW120972   2.055   3.905   8.001  0.1393  0.7819 -0.0588
 3113SOL    HW220973   2.134   3.870   7.878 -0.5890  2.7325  0.8938
 3114SOL     OW20974   1.321   2.333   2.844 -0.4258  0.2982  0.1253
 3114SOL    HW120975   1.273   2.359   2.766 -1.8496  0.6858  1.1353
 3114SOL    HW220976   1.320   2.238   2.828 -0.6277  0.4219 -0.5960
 3115SOL     OW20977   0.324   2.182   9.223 -0.2580 -0.3313 -0.1908
 3115SOL    HW120978   0.285   2.189   9.310 -3.2415 -1.4432 -1.4536
 3115SOL    HW220979   0.415   2.181   9.254 -0.2134 -0.4772 -0.3244
 3116SOL     OW20980   4.205   0.596  13.755  0.0611 -0.5753  1.0259
 3116SOL    HW120981   4.247   0.524  13.802  5.2691  2.2551  0.7768
 3116SOL    HW220982   4.286   0.637  13.724 -0.3784 -1.4676 -1.3127
 3117SOL     OW20983   0.810   0.154  17.157  0.3287 -0.3796  0.1063
 3117SOL    HW120984   0.752   0.092  17.201 -1.7503  1.1595 -0.5071
 3117SOL    HW220985   0.796   0.127  17.067  1.1991 -2.8689  0.7299
 3118SOL     OW20986   0.444   0.357   5.749  0.1043  0.5725  0.2664
 3118SOL    HW120987   0.484   0.287   5.800 -0.5478 -0.8572 -1.1869
 3118SOL    HW220988   0.395   0.403   5.817  1.5942  0.4186  1.4702
 3119SOL     OW20989   1.011   3.977   8.289 -0.5525 -0.4116 -0.1989
 3119SOL    HW120990   0.953   4.031   8.343  2.0428 -0.6286  2.7792
 3119SOL    HW220991   1.022   3.907   8.353  0.4295  0.0995  0.1761
 3120SOL     OW20992   1.342   0.248   7.976  0.3168  0.0373 -0.7017
 3120SOL    HW120993   1.326   0.230   7.884 -1.3101 -1.7568 -0.0618
 3120SOL    HW220994   1.299   0.174   8.019  2.3936  0.2393  1.7580
 3121SOL     OW20995   4.568   4.699   9.082 -0.3089 -0.0358  0.0367
 3121SOL    HW120996   4.519   4.669   9.005  0.2296 -2.7505  0.7530
 3121SOL    HW220997   4.633   0.022   9.046  2.6607 -2.9821  0.3878
 3122SOL     OW20998   3.993   0.964   1.987 -0.2392  0.0394 -0.1749
 3122SOL    HW120999   3.984   1.019   1.909 -0.0759  1.1686  0.5908
 3122SOL    HW221000   3.975   0.882   1.941  0.2003 -0.1337 -0.0426
 3123SOL     OW21001   2.940   4.022   8.155 -0.6484  0.4732  0.1299
 3123SOL    HW121002   2.991   4.070   8.091  1.3082 -1.7920 -0.0011
 3123SOL    HW221003   2.923   3.942   8.106  1.9273 -0.1747  0.3058
 3124SOL     OW21004   4.472   2.397  11.851  0.5364  0.0088 -0.0930
 3124SOL    HW121005   4.505   2.339  11.783 -0.2913 -0.3192 -0.2127
 3124SOL    HW221006   4.377   2.388  11.848  0.7449 -1.7505 -1.0855
 3125SOL     OW21007   1.954   0.972   0.931 -0.5566  0.0461 -0.0727
 3125SOL    HW121008   1.996   1.057   0.930 -0.3635 -0.0428  0.4688
 3125SOL    HW221009   1.880   0.988   0.872 -1.6517  0.7680  1.4928
 3126SOL     OW21010   4.105   3.108  12.467 -0.6476  0.9554 -0.7080
 3126SOL    HW121011   4.105   3.015  12.444 -0.2835  1.5478 -3.1327
 3126SOL    HW221012   4.158   3.100  12.546  1.1345 -0.5662 -2.0646
 3127SOL     OW21013   0.207   2.515   8.222 -0.4972 -0.1664  1.1383
 3127SOL    HW121014   0.217   2.438   8.278 -1.0202 -2.8296 -2.4050
 3127SOL    HW221015   0.297   2.547   8.224 -0.2087 -0.8586 -0.6947
 3128SOL     OW21016   1.399   0.703   5.387  0.1607  0.2962 -0.1985
 3128SOL    HW121017   1.387   0.696   5.482  2.1886 -0.1168  0.0309
 3128SOL    HW221018   1.307   0.706   5.362  0.8592  0.6644 -2.7340
 3129SOL     OW21019   1.642   1.417   6.425  0.6154  0.6596  0.0685
 3129SOL    HW121020   1.687   1.499   6.443  0.3283  0.6896  0.6504
 3129SOL    HW221021   1.703   1.378   6.363  1.1966  2.7415 -0.6619
 3130SOL     OW21022   4.295   2.052   7.188  0.3306 -0.6705 -0.1045
 3130SOL    HW121023   4.377   2.018   7.151  0.1868 -0.3629 -0.7065
 3130SOL    HW221024   4.235   2.006   7.131  1.0751 -0.0257 -1.4128
 3131SOL     OW21025   3.445   4.127   0.186 -0.0377 -0.3653  0.0789
 3131SOL    HW121026   3.360   4.114   0.144  0.7649  0.3245 -1.7684
 3131SOL    HW221027   3.462   4.042   0.227 -0.4707  0.5604  2.1510
 3132SOL     OW21028   3.932   0.791   5.634 -0.2701  0.2556  0.2603
 3132SOL    HW121029   3.969   0.724   5.576 -3.1870 -0.4996 -0.7193
 3132SOL    HW221030   3.847   0.811   5.594  0.1303  2.4618  0.5125
 3133SOL     OW21031   1.082   2.031   1.530  0.1529 -0.4965  0.0796
 3133SOL    HW121032   1.148   2.054   1.594 -0.1508  1.1392 -0.1896
 3133SOL    HW221033   1.135   1.981   1.469 -0.5564 -0.0551 -0.9094
 3134SOL     OW21034   2.716   3.459   4.450  0.5771  0.4598  0.0688
 3134SOL    HW121035   2.745   3.423   4.367  1.1933 -1.3971  1.0836
 3134SOL    HW221036   2.728   3.383   4.507 -1.4193  1.0010  1.2282
 3135SOL     OW21037   3.652   2.308   6.472 -0.1871 -0.3747  0.0441
 3135SOL    HW121038   3.684   2.389   6.512 -0.3556 -0.2801 -0.0148
 3135SOL    HW221039   3.658   2.315   6.377 -1.8284  2.4026  0.1280
 3136SOL     OW21040   2.932   4.289   1.997  0.5762  0.3730 -0.1385
 3136SOL    HW121041   2.897   4.251   2.077  0.7598  1.5102  0.4769
 3136SOL    HW221042   2.899   4.378   1.986  2.0652  0.9069 -0.3264
 3137SOL     OW21043   3.872   0.343  15.225  0.2380 -0.1788 -0.2651
 3137SOL    HW121044   3.811   0.344  15.298  0.5514 -3.1762  0.0388
 3137SOL    HW221045   3.803   0.323  15.161  1.0615 -1.4997 -0.7397
 3138SOL     OW21046   0.221   1.042   3.178 -0.8672 -0.4386 -0.0777
 3138SOL    HW121047   0.284   1.083   3.237  0.2242  0.9765 -2.2120
 3138SOL    HW221048   0.150   1.101   3.203 -1.9841 -0.5564 -2.9324
 3139SOL     OW21049   2.301   0.228   6.622 -0.3677  0.4625 -0.2695
 3139SOL    HW121050   2.266   0.240   6.710  0.8489  2.7783 -0.1011
 3139SOL    HW221051   2.225   0.248   6.568 -0.0257 -1.2229 -1.3662
 3140SOL     OW21052   4.143   2.682   8.999  0.8169 -0.6236 -0.0721
 3140SOL    HW121053   4.050   2.696   9.018  1.1043 -0.1239  0.9642
 3140SOL    HW221054   4.183   2.657   9.082 -0.8943 -4.0105 -0.2906
 3141SOL     OW21055   1.939   1.445   3.760 -0.3049  0.2475  0.1185
 3141SOL    HW121056   1.980   1.527   3.732  0.2987  0.7603  2.4798
 3141SOL    HW221057   1.856   1.463   3.715 -0.1599  2.0566  0.5778
 3142SOL     OW21058   0.745   0.204   9.797  0.4184  0.1407  0.0936
 3142SOL    HW121059   0.834   0.224   9.768 -0.2917  0.7169 -1.6743
 3142SOL    HW221060   0.758   0.109   9.800  0.3168  0.0054 -3.0695
 3143SOL     OW21061   1.598   3.625   7.898 -0.1132 -0.2392 -0.1269
 3143SOL    HW121062   1.609   3.590   7.810 -1.6690  2.0909 -1.2608
 3143SOL    HW221063   1.524   3.686   7.891 -0.1562 -0.3299 -0.4272
 3144SOL     OW21064   1.283   2.265   8.897 -0.2420  0.8220  0.3053
 3144SOL    HW121065   1.278   2.251   8.802  1.5132 -0.0635  0.3476
 3144SOL    HW221066   1.257   2.354   8.922 -0.0911  0.5440  1.4512
 3145SOL     OW21067   1.312   1.077   2.809 -0.0336 -0.7030 -0.5334
 3145SOL    HW121068   1.362   1.029   2.743 -0.1605  1.3659 -2.1302
 3145SOL    HW221069   1.240   1.014   2.815 -0.9519  0.6113  2.2605
 3146SOL     OW21070   2.012   4.488   3.591 -0.2293 -0.0168 -0.5309
 3146SOL    HW121071   2.093   4.496   3.643 -0.5811  1.0576 -0.1362
 3146SOL    HW221072   1.978   4.577   3.577  2.2574  0.7527 -1.6332
 3147SOL     OW21073   4.488   1.177   6.388 -0.4520  0.2235 -0.1948
 3147SOL    HW121074   4.539   1.225   6.323  1.3358 -1.4114 -0.0085
 3147SOL    HW221075   4.433   1.242   6.430 -0.5985 -1.1310  1.6994
 3148SOL     OW21076   1.591   3.707   3.618  0.6761 -0.0656  0.2466
 3148SOL    HW121077   1.681   3.739   3.623  0.6866 -0.2222  1.1409
 3148SOL    HW221078   1.576   3.676   3.707 -0.1722 -1.6026 -0.4476
 3149SOL     OW21079   1.938   3.050   6.008  0.1253 -0.0445 -0.3288
 3149SOL    HW121080   2.007   3.054   6.074 -1.3307 -1.0058  1.2723
 3149SOL    HW221081   1.980   2.989   5.947 -1.2257  2.0978 -3.3948
 3150SOL     OW21082   4.130   2.713  13.002 -0.1553  0.4559 -0.4428
 3150SOL    HW121083   4.135   2.803  12.969 -0.5838  0.6840  0.0963
 3150SOL    HW221084   4.087   2.729  13.086  1.2547 -1.1054  0.5941
 3151SOL     OW21085   1.926   3.940   8.851 -0.0232 -0.1997 -0.1415
 3151SOL    HW121086   1.869   3.970   8.922 -2.5648  0.5927 -2.4992
 3151SOL    HW221087   1.933   4.016   8.793 -1.2548 -0.3604 -0.4970
 3152SOL     OW21088   2.314   0.429   0.872  0.7414  0.0139 -0.4740
 3152SOL    HW121089   2.380   0.460   0.810  1.5954  2.6361  1.7381
 3152SOL    HW221090   2.295   0.349   0.822 -0.4554  0.4084 -0.6388
 3153SOL     OW21091   4.542   4.690   9.971  0.4478  0.4037 -0.0370
 3153SOL    HW121092   4.621   4.678   9.917  0.8617 -1.7511  1.0689
 3153SOL    HW221093   4.584   0.018  10.027  3.1961 -0.7152 -0.7985
 3154SOL     OW21094   1.356   0.730  12.167  0.2601  0.2457  0.0210
 3154SOL    HW121095   1.351   0.782  12.247  1.4918 -0.3421  0.4833
 3154SOL    HW221096   1.328   0.791  12.099 -0.5559  1.6666  1.6377
 3155SOL     OW21097   2.901   0.570   9.549 -0.0973  0.2870 -1.1754
 3155SOL    HW121098   2.925   0.567   9.641 -0.8046  0.4306 -0.9938
 3155SOL    HW221099   2.878   0.477   9.547 -0.2634  0.3297 -1.1828
 3156SOL     OW21100   3.362   0.062   3.773 -0.1180  0.5798  0.4904
 3156SOL    HW121101   3.377   0.156   3.784  2.3249  0.2942 -0.4127
 3156SOL    HW221102   3.318   0.053   3.688 -1.3404 -0.3039  1.2123
 3157SOL     OW21103   3.449   3.989  10.915 -0.5259  0.4008 -0.0823
 3157SOL    HW121104   3.474   3.897  10.902 -3.0061 -0.6361  2.3942
 3157SOL    HW221105   3.540   4.019  10.914 -0.8324  1.4488  2.9312
 3158SOL     OW21106   1.353   1.943   5.219 -0.8614 -0.4599  0.0654
 3158SOL    HW121107   1.345   1.951   5.314  0.0634 -0.7856  0.1672
 3158SOL    HW221108   1.361   2.032   5.186  0.9943  0.3951  2.8144
 3159SOL     OW21109   0.561   3.010   9.826  0.0707  0.3544 -0.5161
 3159SOL    HW121110   0.482   2.956   9.828 -0.5243  1.2563 -0.0720
 3159SOL    HW221111   0.618   2.959   9.884 -0.7673 -0.4544 -0.3941
 3160SOL     OW21112   1.050   4.455   5.417 -0.1810 -0.4480  0.0181
 3160SOL    HW121113   1.073   4.521   5.482  0.6105 -2.5905  1.8902
 3160SOL    HW221114   1.127   4.400   5.428 -0.6564 -1.5481 -2.1926
 3161SOL     OW21115   3.622   1.724  11.574 -0.4337 -0.0436  0.6559
 3161SOL    HW121116   3.554   1.665  11.605 -0.8112 -0.4319 -0.9387
 3161SOL    HW221117   3.578   1.809  11.576 -1.5489 -0.6518  1.5138
 3162SOL     OW21118   1.814   1.822   5.513  0.2780  0.0757  0.1480
 3162SOL    HW121119   1.748   1.759   5.543 -1.0012  1.2039 -0.3089
 3162SOL    HW221120   1.855   1.770   5.444 -0.1675  1.1814 -0.9467
 3163SOL     OW21121   4.092   0.874   5.837  0.2357  0.1041  0.5181
 3163SOL    HW121122   4.055   0.833   5.759  0.3697  1.4940 -0.2704
 3163SOL    HW221123   4.147   0.935   5.789  0.2331 -1.0080 -0.9138
 3164SOL     OW21124   0.320   3.587  15.580  0.2042 -0.2672 -0.2900
 3164SOL    HW121125   0.276   3.657  15.531  2.1034  0.4028 -1.0336
 3164SOL    HW221126   0.269   3.510  15.557 -0.5538  0.6528 -1.7291
 3165SOL     OW21127   4.515   0.023   9.346 -0.0973  0.0636 -0.2071
 3165SOL    HW121128   4.525   0.006   9.252 -1.6130  0.6190 -0.4601
 3165SOL    HW221129   4.554   0.111   9.341 -0.4925  0.2725  0.3621
 3166SOL     OW21130   1.447   2.657   5.695  0.4081  0.3757 -0.5944
 3166SOL    HW121131   1.517   2.715   5.664 -0.2167  1.5909  0.2591
 3166SOL    HW221132   1.493   2.594   5.751  0.0425  1.7378  1.2564
 3167SOL     OW21133   0.027   0.227   7.699  0.0015  0.5093 -0.2897
 3167SOL    HW121134   4.710   0.161   7.742  0.1874 -0.0417 -0.9209
 3167SOL    HW221135   4.708   0.301   7.722  2.1741  2.1071 -0.0859
 3168SOL     OW21136   0.030   1.648   3.472  0.4192  0.5732 -0.1190
 3168SOL    HW121137   4.703   1.659   3.402 -1.9507 -0.4271  1.8942
 3168SOL    HW221138   0.087   1.590   3.422 -0.6908 -0.6812  0.0565
 3169SOL     OW21139   2.149   1.909  11.395  0.0534  0.1660  0.0221
 3169SOL    HW121140   2.092   1.841  11.433  1.3534 -0.4684  0.8200
 3169SOL    HW221141   2.172   1.965  11.469 -2.0728 -0.4807  1.1883
 3170SOL     OW21142   3.047   1.253   8.959  0.3431 -0.3289 -0.2010
 3170SOL    HW121143   2.960   1.280   8.930  0.8262 -0.0533 -1.3745
 3170SOL    HW221144   3.070   1.193   8.888 -0.6511  0.7092 -1.3885
 3171SOL     OW21145   3.860   1.778   1.815 -0.5737 -0.0815 -0.4291
 3171SOL    HW121146   3.777   1.735   1.798  0.2581 -1.5556 -0.7753
 3171SOL    HW221147   3.908   1.719   1.873 -0.3415  0.5757  0.0432
 3172SOL     OW21148   3.504   0.453  12.007 -0.3707  0.7721 -0.1454
 3172SOL    HW121149   3.453   0.389  12.057  1.1615 -0.3148  0.0151
 3172SOL    HW221150   3.546   0.500  12.078 -2.6485  0.3227  1.5015
 3173SOL     OW21151   1.891   3.857   2.179 -0.0841 -0.1928 -0.2229
 3173SOL    HW121152   1.900   3.880   2.086  1.5746 -0.6927 -0.1975
 3173SOL    HW221153   1.812   3.803   2.172 -0.3057  0.0791  0.1907
 3174SOL     OW21154   0.664   3.547  11.874 -0.2100  0.3029 -0.1706
 3174SOL    HW121155   0.733   3.485  11.900  2.0885  1.8912 -2.4948
 3174SOL    HW221156   0.595   3.540  11.940  1.0346 -0.7580  1.0394
 3175SOL     OW21157   0.091   0.633   7.689 -0.1847 -0.2135  0.3075
 3175SOL    HW121158   0.122   0.704   7.633  2.3979 -0.8768  0.9274
 3175SOL    HW221159   0.064   0.572   7.620  1.1809 -0.8099  0.2920
 3176SOL     OW21160   2.151   3.370   1.265 -0.2804  0.5598 -0.2748
 3176SOL    HW121161   2.151   3.450   1.318 -0.8252  1.3018 -1.3993
 3176SOL    HW221162   2.100   3.400   1.190  0.4478  2.1814 -0.1246
 3177SOL     OW21163   4.397   0.437   6.085  0.3968  0.0715  0.1184
 3177SOL    HW121164   4.402   0.478   6.171  1.9355  0.8584 -0.3487
 3177SOL    HW221165   4.337   0.502   6.047 -2.0100 -1.7422  0.7939
 3178SOL     OW21166   1.959   2.967   4.390  0.0155  0.4224 -0.4175
 3178SOL    HW121167   1.902   2.972   4.467  2.1660  0.3878  1.1491
 3178SOL    HW221168   2.009   3.048   4.404 -0.6187  1.0699 -1.8395
 3179SOL     OW21169   1.276   4.555   8.196  0.8718 -0.5206  0.0205
 3179SOL    HW121170   1.248   4.464   8.191 -0.4938 -0.0237 -1.3359
 3179SOL    HW221171   1.238   4.575   8.281  0.2493  2.1240 -0.8784
 3180SOL     OW21172   1.534   3.659   4.748 -0.1519  0.2362  0.0002
 3180SOL    HW121173   1.494   3.574   4.768 -1.5642  0.5151 -1.5823
 3180SOL    HW221174   1.486   3.723   4.800 -2.2488 -0.1289 -1.4955
 3181SOL     OW21175   1.895   1.372  17.210  0.2548  0.2168 -0.4985
 3181SOL    HW121176   1.889   1.418  17.294  0.9439  0.2362 -0.4596
 3181SOL    HW221177   1.808   1.334  17.211  0.6478 -0.7105 -1.5965
 3182SOL     OW21178   4.636   3.195  11.813 -0.0349  0.2271  0.2623
 3182SOL    HW121179   4.627   3.227  11.723 -0.7929 -0.4774  0.0940
 3182SOL    HW221180   4.624   3.102  11.794 -1.9718  1.0625 -2.5840
 3183SOL     OW21181   1.727   4.214   9.201 -0.0622  0.1651  0.5272
 3183SOL    HW121182   1.696   4.150   9.265  0.4506 -0.2204  0.3903
 3183SOL    HW221183   1.812   4.232   9.241  0.3170 -2.2786  0.8034
 3184SOL     OW21184   0.104   3.444   7.010 -0.5334  0.3280  0.2386
 3184SOL    HW121185   0.181   3.439   7.067  0.9232  2.0108 -1.6369
 3184SOL    HW221186   0.036   3.466   7.074 -1.2821 -0.4789 -0.2728
 3185SOL     OW21187   4.344   2.898   0.372 -0.7247 -0.4739  0.1550
 3185SOL    HW121188   4.437   2.912   0.390 -0.6358 -0.6175 -0.1865
 3185SOL    HW221189   4.320   2.969   0.312  2.0985  0.3114 -0.0642
 3186SOL     OW21190   1.692   3.119   6.117 -0.5886 -0.1595  0.0615
 3186SOL    HW121191   1.665   3.194   6.063 -0.0563 -0.5111 -0.6864
 3186SOL    HW221192   1.782   3.107   6.087  0.0420  1.1286  1.4041
 3187SOL     OW21193   3.325   3.551   2.307  0.2716  0.1842 -0.6460
 3187SOL    HW121194   3.286   3.634   2.281 -0.5399  0.4254  1.4357
 3187SOL    HW221195   3.414   3.578   2.330  0.3731 -0.5005 -0.2200
 3188SOL     OW21196   0.348   1.210   4.316  0.1092  0.6330 -0.3432
 3188SOL    HW121197   0.264   1.244   4.347 -0.5090  0.2799 -1.6401
 3188SOL    HW221198   0.359   1.257   4.234 -1.6592  0.7373 -0.5090
 3189SOL     OW21199   4.448   1.016   8.960  0.1102 -0.3000 -0.0014
 3189SOL    HW121200   4.521   1.039   9.018 -1.7706  3.1600  0.9781
 3189SOL    HW221201   4.450   1.085   8.894 -0.4296 -1.3813 -1.1380
 3190SOL     OW21202   1.243   1.064   1.742 -0.5067  0.5216  0.1163
 3190SOL    HW121203   1.210   1.023   1.822  2.1929 -0.0373  0.9485
 3190SOL    HW221204   1.218   0.999   1.676  0.0980  2.1272 -1.6868
 3191SOL     OW21205   1.373   3.244   3.476 -0.4605  0.4073 -0.5481
 3191SOL    HW121206   1.358   3.339   3.483 -3.0234  0.2056 -3.3643
 3191SOL    HW221207   1.312   3.220   3.407 -0.7373  1.7964 -0.7935
 3192SOL     OW21208   3.554   2.892  17.543  0.3018  0.2984  0.4218
 3192SOL    HW121209   3.641   2.870  17.576 -0.3572 -0.1910  1.8112
 3192SOL    HW221210   3.498   2.880  17.619  1.3575  0.3012  1.1986
 3193SOL     OW21211   1.580   1.762   6.583  0.0675 -0.3855  0.1960
 3193SOL    HW121212   1.625   1.738   6.664 -1.0440  2.2927  1.6194
 3193SOL    HW221213   1.646   1.743   6.517  0.1917 -0.2940  0.2932
 3194SOL     OW21214   1.036   3.824  10.668  0.2945 -0.1822 -0.5355
 3194SOL    HW121215   1.126   3.816  10.699 -0.9782 -1.4111  2.8376
 3194SOL    HW221216   1.017   3.731  10.659 -0.1233  0.0060 -1.5475
 3195SOL     OW21217   0.774   0.803   5.892 -0.0830 -0.0567  0.2510
 3195SOL    HW121218   0.717   0.799   5.815 -0.6494  2.1932  0.5632
 3195SOL    HW221219   0.853   0.772   5.846 -0.5142 -0.2087 -0.3921
 3196SOL     OW21220   1.385   0.917  15.576  0.1685 -0.5420  0.1817
 3196SOL    HW121221   1.476   0.933  15.604  0.7738 -0.7270 -1.7019
 3196SOL    HW221222   1.401   0.852  15.508  3.5059  1.1238 -0.6492
 3197SOL     OW21223   1.217   0.700  15.133  0.3314 -0.2094 -0.0226
 3197SOL    HW121224   1.198   0.756  15.209 -2.4687  0.3350 -1.1101
 3197SOL    HW221225   1.134   0.661  15.104 -0.2766  0.6654  0.5162
 3198SOL     OW21226   3.489   3.673  14.086  0.2234 -0.2296 -0.0932
 3198SOL    HW121227   3.523   3.742  14.029 -2.8194  0.5977 -0.8632
 3198SOL    HW221228   3.430   3.722  14.142 -0.0941 -1.4336  0.6238
 3199SOL     OW21229   1.723   2.576   2.421 -0.5921  0.3454 -0.4044
 3199SOL    HW121230   1.794   2.537   2.370  0.4724  0.7067  0.8155
 3199SOL    HW221231   1.646   2.518   2.423  1.0538 -1.8963 -1.7570
 3200SOL     OW21232   2.865   4.690   4.975  0.2041 -0.3387  0.2909
 3200SOL    HW121233   2.840   4.675   5.066 -0.8572 -1.0592 -0.1294
 3200SOL    HW221234   2.847   0.045   4.960  2.1082 -0.0063 -0.0152
 3201SOL     OW21235   1.496   4.399   2.586 -0.3800 -0.1983 -0.0653
 3201SOL    HW121236   1.503   4.306   2.608  1.0405  0.1156  0.8623
 3201SOL    HW221237   1.556   4.414   2.513  2.0424  0.4631  2.0501
 3202SOL     OW21238   1.660   2.836   7.593  0.0194 -0.1541  0.4989
 3202SOL    HW121239   1.705   2.752   7.596 -2.2047 -1.3314  0.4843
 3202SOL    HW221240   1.672   2.878   7.678 -1.1639 -0.8572  1.0070
 3203SOL     OW21241   1.967   2.012  16.760  0.4534  0.0670 -0.2186
 3203SOL    HW121242   1.937   1.953  16.829  0.7907  1.1578  0.8676
 3203SOL    HW221243   1.894   2.073  16.752 -0.3411 -0.5672  2.1258
 3204SOL     OW21244   0.337   4.709   1.271 -0.3983  0.0235 -0.3432
 3204SOL    HW121245   0.379   0.011   1.347  1.3785 -0.6415 -0.9878
 3204SOL    HW221246   0.397   4.637   1.252 -0.6086 -0.3177  0.3134
 3205SOL     OW21247   4.220   1.856   3.169  1.0316 -0.1589  0.0917
 3205SOL    HW121248   4.212   1.935   3.115  2.1517 -0.2224 -0.1682
 3205SOL    HW221249   4.160   1.796   3.124  1.6271  1.0164 -2.2847
 3206SOL     OW21250   1.268   3.375   9.681 -0.2894  0.1096  0.5415
 3206SOL    HW121251   1.174   3.394   9.674 -0.1989  1.0804  1.9219
 3206SOL    HW221252   1.302   3.462   9.703 -1.5349  0.6268  0.3896
 3207SOL     OW21253   1.429   1.127   9.168 -0.2608  0.8421 -0.2382
 3207SOL    HW121254   1.355   1.163   9.120 -0.4693 -1.2105 -1.4665
 3207SOL    HW221255   1.411   1.033   9.175  3.8154  0.0780  0.0758
 3208SOL     OW21256   2.267   1.637   5.791  0.6878  0.5051 -0.0982
 3208SOL    HW121257   2.178   1.673   5.792  0.8007  0.7793  0.9060
 3208SOL    HW221258   2.298   1.659   5.704 -2.4323  3.9413 -0.3337
 3209SOL     OW21259   0.988   2.511  12.593  0.8946  0.1356 -0.0858
 3209SOL    HW121260   0.925   2.445  12.563 -0.5416  2.4634 -2.1803
 3209SOL    HW221261   0.926   2.583  12.585 -0.8471 -1.0764  2.4671
 3210SOL     OW21262   2.576   1.178   5.195  0.4687 -0.3810 -0.1653
 3210SOL    HW121263   2.511   1.193   5.126 -1.1337 -1.7155  1.0251
 3210SOL    HW221264   2.526   1.107   5.235 -0.4717  0.8708  0.8880
 3211SOL     OW21265   1.786   0.115   2.998 -0.7856  0.4061 -0.3335
 3211SOL    HW121266   1.731   0.038   2.986 -1.7822  1.3040 -1.4648
 3211SOL    HW221267   1.717   0.178   3.019 -0.2030  1.0472 -0.3212
 3212SOL     OW21268   4.088   0.349   2.734  0.2023 -0.1474 -0.1702
 3212SOL    HW121269   4.045   0.418   2.684 -0.6691 -1.0020 -0.6102
 3212SOL    HW221270   4.019   0.325   2.797 -0.4740 -0.7998 -1.1574
 3213SOL     OW21271   3.757   1.075   7.048 -0.0632  0.3238 -0.1655
 3213SOL    HW121272   3.694   1.029   6.993  1.2819  1.6864 -2.8268
 3213SOL    HW221273   3.766   1.017   7.124  1.1748 -1.3105 -1.5534
 3214SOL     OW21274   1.916   3.765  10.078 -0.0178  0.1119 -0.3904
 3214SOL    HW121275   1.975   3.722  10.141 -2.4342 -1.8183  0.5571
 3214SOL    HW221276   1.836   3.766  10.132  0.7252  3.0764  0.6741
 3215SOL     OW21277   2.770   4.519   6.566 -0.1921 -0.3265 -0.4438
 3215SOL    HW121278   2.777   4.605   6.525 -1.8893  0.2102  0.4248
 3215SOL    HW221279   2.862   4.495   6.549 -0.0526 -0.1840  0.1255
 3216SOL     OW21280   0.154   3.342   4.879  0.6509 -0.1324  0.5393
 3216SOL    HW121281   0.104   3.269   4.916 -0.2862  0.9632  1.4348
 3216SOL    HW221282   0.216   3.358   4.951  0.7080 -3.6593  1.2504
 3217SOL     OW21283   3.861   0.236   9.697 -0.1113  0.3801  0.1746
 3217SOL    HW121284   3.841   0.317   9.743  2.1789  0.8648  0.3468
 3217SOL    HW221285   3.795   0.179   9.736 -0.2031  0.5176  0.2201
 3218SOL     OW21286   0.314   1.735  13.432 -0.4732 -0.0569  0.1720
 3218SOL    HW121287   0.257   1.710  13.505  0.6609  0.4087  1.2042
 3218SOL    HW221288   0.265   1.694  13.361 -1.5502 -0.6908  1.2782
 3219SOL     OW21289   2.056   4.393   3.175 -0.2165  0.1378 -0.2854
 3219SOL    HW121290   2.103   4.474   3.194  1.1146 -0.9497  1.0831
 3219SOL    HW221291   2.052   4.360   3.265  2.6479  1.3531  0.3011
 3220SOL     OW21292   3.298   3.575   2.600  0.0035 -0.1821  0.0151
 3220SOL    HW121293   3.212   3.610   2.579 -1.1986 -0.9197  3.6101
 3220SOL    HW221294   3.343   3.657   2.618 -1.4369  0.5814  0.1414
 3221SOL     OW21295   1.217   1.116   3.130 -0.9698 -0.5380  0.2792
 3221SOL    HW121296   1.122   1.103   3.137 -0.9786  0.9963  2.9306
 3221SOL    HW221297   1.225   1.205   3.095  1.0465 -0.5950  0.6196
 3222SOL     OW21298   2.582   3.688  16.010  0.1288  0.2198 -0.1999
 3222SOL    HW121299   2.667   3.664  16.048 -0.1680  0.0126  0.3219
 3222SOL    HW221300   2.533   3.699  16.091  0.2281 -2.2599  0.2075
 3223SOL     OW21301   1.035   2.883   5.232  0.3291 -0.5405 -0.3593
 3223SOL    HW121302   1.049   2.794   5.265  0.7024 -0.9335 -1.5881
 3223SOL    HW221303   1.042   2.935   5.312 -2.5097  0.8036 -0.9985
 3224SOL     OW21304   4.400   0.747   9.420  0.1631  0.5669 -0.2736
 3224SOL    HW121305   4.422   0.695   9.497 -2.2610  0.0471  0.0557
 3224SOL    HW221306   4.467   0.815   9.434  0.9447 -0.5988  1.6739
 3225SOL     OW21307   2.060   3.849  14.552 -0.1102  0.4180 -0.1394
 3225SOL    HW121308   2.023   3.933  14.525  0.7318  0.5738 -0.8017
 3225SOL    HW221309   2.039   3.796  14.476 -2.9223  1.8678 -0.3786
 3226SOL     OW21310   4.175   3.397  11.945 -0.2190 -0.4474  0.3018
 3226SOL    HW121311   4.267   3.420  11.931 -0.2419 -1.0258 -0.8200
 3226SOL    HW221312   4.131   3.469  11.901 -1.3990 -0.9714  0.6269
 3227SOL     OW21313   3.224   4.424   6.911  0.6846  0.3563 -0.4929
 3227SOL    HW121314   3.279   4.498   6.936  0.8665  0.3433 -0.8516
 3227SOL    HW221315   3.151   4.474   6.874 -0.0453 -0.3597 -0.0085
 3228SOL     OW21316   2.951   2.050   3.029 -0.2125  0.2991  0.1106
 3228SOL    HW121317   2.918   1.974   3.077  2.1336 -1.4770 -1.1229
 3228SOL    HW221318   3.042   2.061   3.055 -0.5294 -2.0527  2.1328
 3229SOL     OW21319   0.485   0.235   2.244 -0.8585  0.3128  1.1597
 3229SOL    HW121320   0.472   0.252   2.338 -1.6889  0.5711  0.9979
 3229SOL    HW221321   0.466   0.322   2.208 -2.5908 -0.7854 -0.6174
 3230SOL     OW21322   3.146   1.087   0.547 -0.0046  0.7791 -0.1416
 3230SOL    HW121323   3.195   1.119   0.622  0.0426 -1.2667  0.7020
 3230SOL    HW221324   3.206   1.025   0.506 -0.9153 -0.5193  0.4721
 3231SOL     OW21325   0.395   0.678   2.955  0.2732  0.1263  0.1924
 3231SOL    HW121326   0.339   0.659   3.031  0.2171 -1.0703 -0.1604
 3231SOL    HW221327   0.380   0.773   2.954  0.0543  0.1246  2.3675
 3232SOL     OW21328   4.641   0.552   4.203  0.5745  0.2190 -0.3022
 3232SOL    HW121329   4.664   0.633   4.157  0.0480  0.2355 -0.5265
 3232SOL    HW221330   4.705   0.492   4.163  1.8413  1.8688 -0.7598
 3233SOL     OW21331   2.179   2.785  13.655 -0.3486 -0.3697  0.1995
 3233SOL    HW121332   2.218   2.698  13.650  2.5662  0.9191  0.2497
 3233SOL    HW221333   2.086   2.769  13.645 -0.4207  0.2564 -0.1461
 3234SOL     OW21334   0.936   2.766  12.878  0.3738 -0.6883 -0.4990
 3234SOL    HW121335   0.894   2.754  12.793 -1.2628 -2.3470  0.5527
 3234SOL    HW221336   1.026   2.737  12.864 -0.2334 -0.7494 -4.2224
 3235SOL     OW21337   0.992   0.244   1.015 -0.1815 -0.0166  0.0082
 3235SOL    HW121338   0.961   0.322   1.061  0.3881 -1.0639  2.1703
 3235SOL    HW221339   1.078   0.283   0.996 -0.2300 -0.5328 -1.3113
 3236SOL     OW21340   1.227   0.142  15.828 -0.1348  0.5761 -0.0620
 3236SOL    HW121341   1.219   0.230  15.793  0.3973 -0.0581 -1.8021
 3236SOL    HW221342   1.312   0.139  15.871 -0.0039  2.5908 -0.2028
 3237SOL     OW21343   0.029   1.093   6.780 -0.1568 -0.2628 -0.0414
 3237SOL    HW121344   0.096   1.158   6.797  1.0242 -0.8808 -2.3621
 3237SOL    HW221345   0.080   1.028   6.732  0.6646 -1.2134  2.1249
 3238SOL     OW21346   0.236   1.115   7.265 -0.1930  0.1667  0.2815
 3238SOL    HW121347   0.234   1.034   7.215  3.1951 -0.5870  1.4228
 3238SOL    HW221348   0.155   1.163   7.248 -0.1963  0.2452  0.5152
 3239SOL     OW21349   2.701   0.972   0.268  0.2894 -0.2927 -0.0738
 3239SOL    HW121350   2.664   0.921   0.196 -1.5595  0.6706  0.2120
 3239SOL    HW221351   2.688   1.059   0.231  1.8173  0.1388  0.3603
 3240SOL     OW21352   3.060   1.078   5.662  0.6066 -0.1773 -0.1388
 3240SOL    HW121353   2.997   1.027   5.612 -0.1836  0.5867  0.0900
 3240SOL    HW221354   3.011   1.155   5.688  4.1085  2.6805 -2.0168
 3241SOL     OW21355   3.461   1.639   3.708  0.0876  0.2022 -0.1074
 3241SOL    HW121356   3.544   1.617   3.666 -0.0699  0.0213 -0.3292
 3241SOL    HW221357   3.480   1.732   3.718 -0.0134 -0.0410  2.1910
 3242SOL     OW21358   0.023   3.121   4.203 -0.3479 -0.0335  0.3372
 3242SOL    HW121359   0.078   3.055   4.161  1.7947  2.5840 -0.9847
 3242SOL    HW221360   0.078   3.196   4.178 -1.0519  0.9162  1.6511
 3243SOL     OW21361   3.642   0.070   1.065 -0.2053  0.3723  0.0159
 3243SOL    HW121362   3.625   4.728   1.014 -1.0974 -0.9018  2.3005
 3243SOL    HW221363   3.554   0.064   1.102  0.6587 -1.7897  1.6986
 3244SOL     OW21364   3.238   3.868   7.267  0.1522 -0.0647  0.4111
 3244SOL    HW121365   3.314   3.820   7.234  0.6775 -0.3138  1.9926
 3244SOL    HW221366   3.168   3.808   7.238  1.0755 -1.0629  0.2420
 3245SOL     OW21367   2.488   2.812   3.873  0.0040 -0.0769 -0.2628
 3245SOL    HW121368   2.400   2.776   3.871  0.7561 -1.9687  1.1706
 3245SOL    HW221369   2.465   2.893   3.827 -1.3853  0.1262  0.7813
 3246SOL     OW21370   1.775   0.301   6.588  0.0507  0.4078 -0.1701
 3246SOL    HW121371   1.683   0.276   6.597 -0.0890  0.7256 -0.7249
 3246SOL    HW221372   1.801   0.307   6.680  1.1349 -1.4628 -0.3500
 3247SOL     OW21373   3.293   4.443   9.482 -0.6006  0.8906  0.6206
 3247SOL    HW121374   3.381   4.479   9.496 -0.1751  1.1743 -2.6132
 3247SOL    HW221375   3.290   4.428   9.387 -1.4354  0.5502  0.7067
 3248SOL     OW21376   2.979   1.844  17.641  0.1876  0.1827 -0.8428
 3248SOL    HW121377   3.045   1.896  17.596  0.2867  0.9206  0.1372
 3248SOL    HW221378   3.004   1.755  17.614 -0.1652  0.1528 -1.0654
 3249SOL     OW21379   1.756   2.293   3.933 -0.5984  0.2094  0.1983
 3249SOL    HW121380   1.671   2.262   3.962 -0.9700  0.6006 -0.4588
 3249SOL    HW221381   1.716   2.360   3.877 -2.5548 -1.8634 -0.8451
 3250SOL     OW21382   4.432   2.705   8.857 -0.8685  0.4139 -0.0804
 3250SOL    HW121383   4.477   2.745   8.931 -1.0464  2.2307 -0.9411
 3250SOL    HW221384   4.344   2.703   8.895 -1.3468 -1.0135 -1.2420
 3251SOL     OW21385   4.255   1.075  10.635 -0.2201 -0.3005  0.3063
 3251SOL    HW121386   4.160   1.061  10.637 -0.0606 -1.4431 -0.5210
 3251SOL    HW221387   4.244   1.146  10.572  0.7671 -0.3325  0.1121
 3252SOL     OW21388   3.505   1.705   6.467  0.3473  0.2637  0.3863
 3252SOL    HW121389   3.547   1.763   6.531 -1.8610 -1.1402  3.1054
 3252SOL    HW221390   3.524   1.619   6.504 -0.9187  0.1319  0.7365
 3253SOL     OW21391   1.067   3.155  14.465 -0.0239  0.4402  0.0417
 3253SOL    HW121392   1.076   3.117  14.377  1.4089  0.2849  0.2591
 3253SOL    HW221393   1.003   3.224  14.447  0.1135  0.4771 -0.3199
 3254SOL     OW21394   3.791   1.341  16.616  0.1620  0.2252  0.1117
 3254SOL    HW121395   3.731   1.363  16.687 -0.0006 -1.2437  0.4347
 3254SOL    HW221396   3.747   1.391  16.548  0.1056 -0.4610 -0.3561
 3255SOL     OW21397   4.664   4.085  16.756  0.3369 -0.7345 -0.2421
 3255SOL    HW121398   4.700   4.173  16.750  1.3260 -1.2373 -1.7919
 3255SOL    HW221399   4.706   4.051  16.835 -0.6194  0.9320  0.9893
 3256SOL     OW21400   1.446   2.963   5.591  0.4428  0.0920  0.0730
 3256SOL    HW121401   1.505   3.025   5.547  1.0943  1.1204  2.3943
 3256SOL    HW221402   1.480   2.968   5.680 -2.1992 -2.1614  1.2314
 3257SOL     OW21403   0.227   1.507   8.341 -0.1658  0.5230  0.0585
 3257SOL    HW121404   0.137   1.537   8.348 -1.1763 -2.3214 -0.7967
 3257SOL    HW221405   0.264   1.588   8.376 -2.6811  2.2872 -1.4466
 3258SOL     OW21406   2.316   2.345   5.087 -0.1445 -0.4431  0.2035
 3258SOL    HW121407   2.297   2.425   5.037  1.5023  0.9559  1.8186
 3258SOL    HW221408   2.383   2.369   5.150 -1.2788  0.0667  1.2161
 3259SOL     OW21409   0.037   3.970  13.103  0.4414  0.0313  0.4706
 3259SOL    HW121410   0.012   3.980  13.195 -1.6407  0.1734 -0.0938
 3259SOL    HW221411   0.110   3.914  13.128  0.3841  0.0784  0.7433
 3260SOL     OW21412   0.503   0.877   9.057 -0.2129  0.1471 -0.1019
 3260SOL    HW121413   0.492   0.885   9.152 -0.2307 -0.6940 -0.0372
 3260SOL    HW221414   0.445   0.807   9.027  0.5046 -0.3181 -0.4192
 3261SOL     OW21415   2.578   2.785  11.431  0.6334  0.2720  0.3679
 3261SOL    HW121416   2.526   2.858  11.463  1.8611  1.3318 -0.0722
 3261SOL    HW221417   2.636   2.827  11.368  0.5158 -0.2554 -0.0984
 3262SOL     OW21418   2.968   3.539   5.187 -0.3597 -0.0692 -0.4176
 3262SOL    HW121419   3.005   3.498   5.266 -0.8276  0.8923  0.2980
 3262SOL    HW221420   3.009   3.483   5.120 -0.9177 -0.4993 -0.4006
 3263SOL     OW21421   3.848   0.826   5.071 -0.6187 -0.1900 -0.1244
 3263SOL    HW121422   3.844   0.901   5.012 -2.7276  1.3174  1.8731
 3263SOL    HW221423   3.829   0.754   5.012 -1.4464  1.2273 -1.5874
 3264SOL     OW21424   4.459   2.395   3.200  0.0310  0.2197 -0.8653
 3264SOL    HW121425   4.386   2.360   3.149  0.3382 -1.6153 -0.0520
 3264SOL    HW221426   4.506   2.312   3.206 -0.0532  0.3107  0.8540
 3265SOL     OW21427   3.417   2.405   3.351  0.1295 -0.2810 -0.1488
 3265SOL    HW121428   3.406   2.500   3.354 -0.8142 -0.3776 -0.4023
 3265SOL    HW221429   3.434   2.388   3.444  0.2040 -1.5221 -0.3908
 3266SOL     OW21430   2.585   3.947   6.256  0.2538 -0.0349  0.4773
 3266SOL    HW121431   2.543   3.967   6.340 -0.8049  0.3556 -0.1482
 3266SOL    HW221432   2.677   3.941   6.283 -0.1560  0.6022  2.0476
 3267SOL     OW21433   2.293   4.459   4.380 -0.5506  0.2302  0.0624
 3267SOL    HW121434   2.197   4.453   4.383 -0.4447 -1.5220 -0.2273
 3267SOL    HW221435   2.309   4.433   4.290 -0.9344 -2.2676  0.7295
 3268SOL     OW21436   4.157   4.194   3.108  0.0907 -0.5456 -0.4772
 3268SOL    HW121437   4.176   4.172   3.016  1.2391  1.8675 -0.8104
 3268SOL    HW221438   4.064   4.181   3.127  0.8609 -2.1813  2.0545
 3269SOL     OW21439   0.960   0.008   1.596  0.0225  0.6428  0.1911
 3269SOL    HW121440   0.941   4.652   1.603 -1.2685  0.8132 -0.9883
 3269SOL    HW221441   0.871   0.042   1.596  0.1878  1.0544 -0.9437
 3270SOL     OW21442   2.628   0.762   2.885  0.0049 -0.2478  0.6119
 3270SOL    HW121443   2.656   0.686   2.936  0.1426  0.0167  0.9323
 3270SOL    HW221444   2.705   0.768   2.828 -2.0958 -0.0381 -2.1887
 3271SOL     OW21445   3.846   0.593   4.936  0.6208  0.2960 -0.0326
 3271SOL    HW121446   3.830   0.521   4.997 -0.3867 -0.5588 -1.2962
 3271SOL    HW221447   3.942   0.597   4.935  0.6523 -0.7299 -1.4385
 3272SOL     OW21448   1.903   0.352   5.605 -0.4950  0.4791  0.0809
 3272SOL    HW121449   1.891   0.430   5.660 -3.5198  0.3091 -0.3032
 3272SOL    HW221450   1.923   0.391   5.520  0.2228  0.5274  0.2741
 3273SOL     OW21451   2.150   0.128   5.500  0.6646 -0.3240  0.1148
 3273SOL    HW121452   2.116   0.083   5.423 -0.1423 -0.4830  0.5628
 3273SOL    HW221453   2.147   0.221   5.477 -0.8880 -0.3198  0.3685
 3274SOL     OW21454   0.790   4.441  12.859  0.9902 -0.0938 -0.4974
 3274SOL    HW121455   0.698   4.427  12.882  1.7523 -0.9942  2.0992
 3274SOL    HW221456   0.820   4.484  12.940  0.2822  1.7723 -1.2226
 3275SOL     OW21457   1.111   4.490   6.475  0.5511 -0.3887 -0.2406
 3275SOL    HW121458   1.090   4.437   6.397 -1.2906 -0.5419  0.3652
 3275SOL    HW221459   1.056   4.566   6.457 -1.1297 -0.7251  3.4700
 3276SOL     OW21460   1.409   3.702  14.306 -0.1275  0.0392 -0.0795
 3276SOL    HW121461   1.460   3.622  14.292  0.1667  0.1579  0.3262
 3276SOL    HW221462   1.396   3.735  14.217  0.2653  0.9200  0.1914
 3277SOL     OW21463   4.381   3.858   6.432  0.2868 -0.5990  0.2795
 3277SOL    HW121464   4.358   3.937   6.482  0.7999  0.1913 -0.7167
 3277SOL    HW221465   4.316   3.867   6.363 -1.2515 -1.3996  1.6350
 3278SOL     OW21466   3.262   3.030   8.063 -0.2955  0.5652 -0.4490
 3278SOL    HW121467   3.235   3.108   8.015  0.2162  1.6907  1.1092
 3278SOL    HW221468   3.285   3.079   8.142 -2.8445 -0.8243  1.1512
 3279SOL     OW21469   1.105   0.182   8.840 -0.1715  0.0326 -0.1410
 3279SOL    HW121470   1.109   0.226   8.755  0.5080 -0.0222 -0.1392
 3279SOL    HW221471   1.062   0.250   8.892 -2.2454 -2.0580  0.8845
 3280SOL     OW21472   2.128   0.151   2.508  0.2247  0.2456  0.1823
 3280SOL    HW121473   2.063   0.144   2.577 -0.7728 -0.3381 -0.8077
 3280SOL    HW221474   2.106   0.073   2.458 -1.0995  0.3993  0.5301
 3281SOL     OW21475   3.216   4.327   3.811  0.2061 -0.0910  0.3389
 3281SOL    HW121476   3.282   4.381   3.767  0.2169 -0.1565  0.2756
 3281SOL    HW221477   3.181   4.285   3.733  0.5512  1.3964 -0.6252
 3282SOL     OW21478   1.187   0.404   5.322  0.5088 -0.0688  0.1063
 3282SOL    HW121479   1.140   0.321   5.314 -0.3178  0.4311 -0.1773
 3282SOL    HW221480   1.273   0.370   5.296  1.3018 -0.3725  3.0684
 3283SOL     OW21481   0.434   3.872   7.732  0.0131 -0.6127  0.0884
 3283SOL    HW121482   0.482   3.800   7.691 -1.1133 -1.3312  0.0372
 3283SOL    HW221483   0.475   3.950   7.694 -0.3284 -0.5057 -0.0627
 3284SOL     OW21484   3.633   4.607   5.685 -0.0041  0.1896 -0.2137
 3284SOL    HW121485   3.702   4.592   5.750  0.8909 -0.0772 -1.2297
 3284SOL    HW221486   3.566   4.588   5.750  0.1016  2.4356  0.5676
 3285SOL     OW21487   0.842   1.661   4.489 -0.0067 -0.4410  0.2274
 3285SOL    HW121488   0.842   1.752   4.460  0.2601 -0.0159  1.5791
 3285SOL    HW221489   0.888   1.629   4.411  1.7103 -1.3674  1.6351
 3286SOL     OW21490   1.432   1.119   6.622 -0.1374  0.6226  0.5903
 3286SOL    HW121491   1.458   1.211   6.628 -3.1600  1.4393  0.9290
 3286SOL    HW221492   1.431   1.114   6.526 -1.1159  2.2401  0.5172
 3287SOL     OW21493   4.297   1.171   8.738  0.7855  0.1277 -0.2970
 3287SOL    HW121494   4.389   1.194   8.722 -0.0501  2.3747 -1.8715
 3287SOL    HW221495   4.287   1.241   8.803 -2.7024 -1.5942  0.9828
 3288SOL     OW21496   0.418   3.407   9.123  0.0370 -0.7135  0.1799
 3288SOL    HW121497   0.505   3.372   9.143  0.0285 -1.1345 -0.5269
 3288SOL    HW221498   0.423   3.404   9.027 -0.8652  0.3084  0.0984
 3289SOL     OW21499   3.614   2.040   9.067 -0.0855  0.7695 -0.3656
 3289SOL    HW121500   3.558   2.026   8.990  0.6205  1.6019 -1.0265
 3289SOL    HW221501   3.696   2.016   9.025 -0.7504  2.3720 -2.5934
 3290SOL     OW21502   1.880   3.360  13.347 -0.1283  0.0425 -0.2608
 3290SOL    HW121503   1.884   3.395  13.436 -0.0675 -1.8877  0.5062
 3290SOL    HW221504   1.941   3.417  13.300 -1.0187  1.8210  0.7434
 3291SOL     OW21505   3.756   3.705   7.851 -0.1545 -0.4906 -0.7833
 3291SOL    HW121506   3.673   3.750   7.839  0.4091  0.7879  0.1250
 3291SOL    HW221507   3.805   3.761   7.911  2.3123  0.6671 -3.9416
 3292SOL     OW21508   0.635   4.640  16.085 -0.1005 -0.3518 -0.1683
 3292SOL    HW121509   0.550   4.683  16.072 -0.7847 -2.2886 -1.9748
 3292SOL    HW221510   0.683   4.665  16.006  2.2880 -2.0621  0.7303
 3293SOL     OW21511   0.891   3.944   7.187 -0.5494  0.4648 -0.4462
 3293SOL    HW121512   0.806   3.928   7.147 -0.8960  1.8325 -0.2470
 3293SOL    HW221513   0.892   3.903   7.273  2.0987  0.3920 -0.4985
 3294SOL     OW21514   0.110   4.642   5.556  0.0612 -0.1061 -0.0157
 3294SOL    HW121515   0.127   4.699   5.631  0.1753 -0.7912  0.4761
 3294SOL    HW221516   0.094   4.557   5.597 -1.4082  1.2073  2.1393
 3295SOL     OW21517   2.270   4.425   8.852 -0.3410  0.0872  0.0761
 3295SOL    HW121518   2.278   4.332   8.872 -0.1577  0.3017  0.9956
 3295SOL    HW221519   2.181   4.438   8.821 -0.1940 -1.9539 -1.1922
 3296SOL     OW21520   1.336   1.825   1.870  0.2846 -0.0855 -0.2141
 3296SOL    HW121521   1.407   1.875   1.830 -0.2264  0.3706 -0.5529
 3296SOL    HW221522   1.333   1.742   1.822 -0.8523 -0.0314 -0.2356
 3297SOL     OW21523   2.988   0.575   3.041 -0.2563  0.2428  0.1176
 3297SOL    HW121524   3.003   0.629   3.118  3.0512 -0.0227 -0.3601
 3297SOL    HW221525   3.080   0.566   3.018 -0.5163 -1.8543 -0.1529
 3298SOL     OW21526   1.706   2.788   0.604 -0.4836  0.1560 -0.2981
 3298SOL    HW121527   1.655   2.844   0.662 -0.4412  0.4379 -0.5313
 3298SOL    HW221528   1.689   2.824   0.516 -1.4869  0.6929  0.1134
 3299SOL     OW21529   1.131   0.867   2.775  0.2566  0.7979 -0.0538
 3299SOL    HW121530   1.137   0.853   2.870 -0.9807 -0.5472 -0.1847
 3299SOL    HW221531   1.048   0.916   2.776  0.4060  1.0434  0.2783
 3300SOL     OW21532   0.880   4.467   6.094  0.0882 -0.5090  0.1646
 3300SOL    HW121533   0.971   4.484   6.072 -0.4582  1.8470 -0.2790
 3300SOL    HW221534   0.896   4.424   6.178  0.0697 -2.0457 -0.6141
 3301SOL     OW21535   0.584   2.112  12.251 -0.2214  0.0055 -0.6002
 3301SOL    HW121536   0.594   2.070  12.336  0.9621  0.8236 -0.3368
 3301SOL    HW221537   0.664   2.075  12.214  1.2773  3.4165 -0.7000
 3302SOL     OW21538   2.573   3.484   9.480 -0.0189  0.0655  0.1221
 3302SOL    HW121539   2.613   3.553   9.533 -0.3220  0.4493 -0.1491
 3302SOL    HW221540   2.578   3.418   9.549 -2.9481 -0.9832 -0.6930
 3303SOL     OW21541   3.439   4.401   1.403 -0.0502 -0.1776 -0.2510
 3303SOL    HW121542   3.489   4.411   1.484 -1.4469 -0.0060  0.5838
 3303SOL    HW221543   3.354   4.438   1.427  0.4597  1.5567 -1.1279
 3304SOL     OW21544   2.641   2.565   5.929  0.3691  0.5727  0.3323
 3304SOL    HW121545   2.640   2.487   5.985 -1.4516 -0.9743 -1.8579
 3304SOL    HW221546   2.591   2.628   5.981 -2.5503 -0.3403 -1.3259
 3305SOL     OW21547   0.946   3.825   7.418  0.0876  0.2121  0.0654
 3305SOL    HW121548   1.021   3.865   7.464 -0.9227  0.2254  1.7120
 3305SOL    HW221549   0.920   3.756   7.479  0.1027 -0.4849 -0.7226
 3306SOL     OW21550   0.439   1.589  10.987  0.3956  0.1898 -0.2226
 3306SOL    HW121551   0.525   1.630  10.982  0.5717 -0.3955 -1.9585
 3306SOL    HW221552   0.469   1.499  10.983 -0.7888 -0.3158  2.7315
 3307SOL     OW21553   4.031   2.192  10.371  0.1684  0.1726 -0.5177
 3307SOL    HW121554   3.985   2.274  10.388 -0.2930 -0.5269  1.5532
 3307SOL    HW221555   4.045   2.150  10.456 -0.7779  0.7100 -0.0996
 3308SOL     OW21556   2.555   0.959   3.296 -0.0817  0.4482  0.2852
 3308SOL    HW121557   2.557   0.863   3.291  0.2188  0.4689  0.0285
 3308SOL    HW221558   2.477   0.972   3.242 -0.7640 -1.8434  0.6997
 3309SOL     OW21559   3.484   1.497   6.696 -0.5358  0.5427 -0.2979
 3309SOL    HW121560   3.522   1.440   6.763  2.8308  1.0919 -1.7414
 3309SOL    HW221561   3.468   1.434   6.626  0.8743 -0.3758  0.2096
 3310SOL     OW21562   3.355   2.427   2.641 -0.1409  0.1720 -0.0770
 3310SOL    HW121563   3.413   2.435   2.716 -0.9800  0.9092  0.4962
 3310SOL    HW221564   3.342   2.334   2.625 -0.1607  0.3836 -1.2972
 3311SOL     OW21565   1.960   0.662   5.599  0.3481  0.1626  0.0121
 3311SOL    HW121566   1.893   0.644   5.665 -0.1784 -1.2102 -0.8938
 3311SOL    HW221567   2.035   0.619   5.639  0.0152 -2.1076 -1.8139
 3312SOL     OW21568   1.863   0.743   7.015 -0.4426 -0.4500 -0.1714
 3312SOL    HW121569   1.850   0.835   6.992  1.7587 -0.3828 -1.0675
 3312SOL    HW221570   1.835   0.697   6.936 -2.6871 -1.0887  0.9869
 3313SOL     OW21571   3.608   0.977   2.132  1.0203 -0.0063  0.5112
 3313SOL    HW121572   3.673   0.917   2.170 -0.6267 -1.6513  0.7669
 3313SOL    HW221573   3.564   0.915   2.073  1.0016  2.2676 -1.8600
 3314SOL     OW21574   2.950   2.914   4.276  0.1660 -0.1630 -0.1808
 3314SOL    HW121575   2.944   2.951   4.188 -1.9352  0.5737  0.2678
 3314SOL    HW221576   3.040   2.882   4.266  0.5421  0.2958  1.7126
 3315SOL     OW21577   2.865   3.711   1.948  0.5146 -0.3189  0.2703
 3315SOL    HW121578   2.859   3.797   1.990 -0.4962 -0.9185  1.3731
 3315SOL    HW221579   2.950   3.719   1.906  1.4726  0.9001  2.4525
 3316SOL     OW21580   0.292   3.348   8.200 -0.1546 -0.2738 -0.3703
 3316SOL    HW121581   0.357   3.302   8.253 -1.1381 -1.3073 -0.0628
 3316SOL    HW221582   0.338   3.428   8.174 -2.3471  0.9000 -0.6633
 3317SOL     OW21583   3.960   0.310  11.814 -0.2865 -0.1166  0.0491
 3317SOL    HW121584   3.963   0.358  11.731  0.1247 -0.1209  0.0648
 3317SOL    HW221585   4.017   0.368  11.864  0.3368 -1.0160  0.3956
 3318SOL     OW21586   3.530   4.366   7.752 -0.1956 -0.1667 -0.2141
 3318SOL    HW121587   3.469   4.294   7.738  1.0738 -1.5674  1.4147
 3318SOL    HW221588   3.612   4.317   7.746  1.1505  2.0918 -0.2733
 3319SOL     OW21589   1.159   3.454   7.694  0.2538 -0.0164 -0.0154
 3319SOL    HW121590   1.225   3.489   7.635  0.7802 -1.2022 -0.1223
 3319SOL    HW221591   1.157   3.515   7.768 -1.3038 -2.4683  1.9806
 3320SOL     OW21592   3.398   0.571  13.373  0.3769 -0.0284 -0.0935
 3320SOL    HW121593   3.433   0.649  13.415  1.0876  0.8628 -2.3568
 3320SOL    HW221594   3.437   0.580  13.286  1.6935  0.5252  0.5612
 3321SOL     OW21595   0.905   3.021   8.065  0.4006 -0.6024  0.1190
 3321SOL    HW121596   0.816   3.043   8.040  0.4008 -2.1997 -1.3272
 3321SOL    HW221597   0.893   2.981   8.151  1.4774 -0.1349  0.4839
 3322SOL     OW21598   2.746   0.752   6.050  0.0139  0.2070 -0.0096
 3322SOL    HW121599   2.787   0.812   5.988  1.3367 -1.0125 -0.2956
 3322SOL    HW221600   2.820   0.727   6.105  0.4270 -0.0641 -0.6895
 3323SOL     OW21601   3.221   0.279  16.662  0.7315 -0.8694  0.0889
 3323SOL    HW121602   3.315   0.292  16.651  0.7008 -1.7693 -1.2380
 3323SOL    HW221603   3.177   0.357  16.627 -0.2852 -1.8782 -0.8772
 3324SOL     OW21604   3.771   4.431   6.446  0.1321 -0.6400 -0.3114
 3324SOL    HW121605   3.828   4.421   6.522 -1.6824  1.0376  1.2547
 3324SOL    HW221606   3.838   4.437   6.378  1.0585 -1.1219  0.5538
 3325SOL     OW21607   0.806   2.687   8.379  0.2100 -0.2254  0.0156
 3325SOL    HW121608   0.894   2.673   8.343  0.9997 -0.5645  2.0749
 3325SOL    HW221609   0.826   2.681   8.472  0.0998  2.3123  0.2000
 3326SOL     OW21610   2.695   2.177   2.560  0.0566 -0.0309  0.1722
 3326SOL    HW121611   2.610   2.138   2.582  1.8315 -2.8276  2.1520
 3326SOL    HW221612   2.742   2.176   2.644 -2.0886 -1.5743  1.3560
 3327SOL     OW21613   2.505   2.795  10.505 -0.2252  0.0138 -0.3173
 3327SOL    HW121614   2.469   2.776  10.418  0.5633 -1.9879 -0.2096
 3327SOL    HW221615   2.595   2.794  10.473 -0.3518  2.0264 -0.6872
 3328SOL     OW21616   3.009   0.601   6.127 -0.4444  0.1315  0.4287
 3328SOL    HW121617   3.083   0.571   6.074  0.7405 -0.8481  2.6236
 3328SOL    HW221618   3.044   0.678   6.172  2.2216 -0.8318  0.0047
 3329SOL     OW21619   0.398   0.381   2.503  0.3577  0.5818  0.1429
 3329SOL    HW121620   0.360   0.460   2.462 -2.0166 -0.4924  0.2473
 3329SOL    HW221621   0.369   0.389   2.594 -0.4196 -0.3742 -0.0226
 3330SOL     OW21622   4.380   3.331   2.560 -0.2758  0.0898 -0.4482
 3330SOL    HW121623   4.288   3.358   2.564 -0.1624  0.2627  1.1218
 3330SOL    HW221624   4.415   3.346   2.472  0.2196  0.7711 -0.1462
 3331SOL     OW21625   3.854   4.331   8.903 -0.4233  0.5647  0.1692
 3331SOL    HW121626   3.907   4.392   8.955  1.9888 -2.2541  0.9858
 3331SOL    HW221627   3.861   4.249   8.951 -0.1238  0.3704 -0.2092
 3332SOL     OW21628   4.333   3.048  13.218 -0.2930 -0.4223  0.5100
 3332SOL    HW121629   4.257   3.012  13.262  0.3363 -1.8122  0.4490
 3332SOL    HW221630   4.319   3.025  13.126 -2.4935  1.0835  0.4848
 3333SOL     OW21631   2.989   1.132   7.379  0.1598 -0.0132  0.7906
 3333SOL    HW121632   3.035   1.145   7.296  0.8435 -2.4638  0.8076
 3333SOL    HW221633   2.987   1.225   7.404  0.3415  0.2669 -0.2302
 3334SOL     OW21634   3.499   3.214   7.150 -0.2250 -0.0974  0.1713
 3334SOL    HW121635   3.407   3.219   7.175  0.1283 -1.6849  1.7978
 3334SOL    HW221636   3.548   3.230   7.231  0.1829 -0.2136 -0.0512
 3335SOL     OW21637   3.919   2.708   2.484  0.2702  0.2203  0.3547
 3335SOL    HW121638   3.994   2.749   2.442 -1.1003  1.5225 -0.8128
 3335SOL    HW221639   3.869   2.671   2.410 -1.2234  1.8300  0.5635
 3336SOL     OW21640   4.080   3.109   5.264 -0.1136 -0.0330 -0.7296
 3336SOL    HW121641   4.160   3.160   5.276  0.9665 -1.8496 -0.1610
 3336SOL    HW221642   4.026   3.176   5.223 -1.0275  0.2486  0.9333
 3337SOL     OW21643   2.868   4.442  13.856 -0.1081 -0.4178  0.1483
 3337SOL    HW121644   2.914   4.505  13.800  1.2076 -2.4952 -1.1223
 3337SOL    HW221645   2.794   4.495  13.883  0.1977 -0.1545  0.4572
 3338SOL     OW21646   1.868   3.775   5.187  0.4009  0.5089 -0.0471
 3338SOL    HW121647   1.920   3.711   5.235 -0.3720 -0.0253  0.0922
 3338SOL    HW221648   1.941   3.794   5.128  0.9211  0.0358  0.4530
 3339SOL     OW21649   4.711   0.433   9.145 -0.0171 -0.1185 -0.4134
 3339SOL    HW121650   4.642   0.446   9.079  0.8243 -3.4320 -1.9345
 3339SOL    HW221651   4.702   0.516   9.192 -3.2574 -1.0456  0.6054
 3340SOL     OW21652   2.068   1.193   0.359 -0.0753 -0.3452  0.1143
 3340SOL    HW121653   1.982   1.161   0.386 -1.1770  1.6858 -0.9468
 3340SOL    HW221654   2.119   1.175   0.438 -0.4912  0.1783  0.5035
 3341SOL     OW21655   2.467   2.986  13.528  0.4900  0.0228  0.3915
 3341SOL    HW121656   2.523   3.061  13.507  0.6045 -0.0022  0.6013
 3341SOL    HW221657   2.385   3.024  13.559  0.1973 -0.8747  0.6927
 3342SOL     OW21658   0.565   0.440   1.824 -0.0949 -0.8697  0.0211
 3342SOL    HW121659   0.583   0.476   1.737  1.9899 -0.1821  0.7309
 3342SOL    HW221660   0.648   0.455   1.869 -0.1893 -1.9040  0.5411
 3343SOL     OW21661   2.012   0.812   2.876 -0.0309 -0.4084 -0.3406
 3343SOL    HW121662   2.000   0.722   2.844  2.1926 -0.4839 -0.9923
 3343SOL    HW221663   2.049   0.791   2.962 -1.4030 -0.2630  0.2821
 3344SOL     OW21664   1.287   3.253   4.549  0.3492 -0.2050  0.4616
 3344SOL    HW121665   1.282   3.283   4.640  1.4041  0.0335  0.4337
 3344SOL    HW221666   1.377   3.221   4.545  0.5751  0.4772  0.1492
 3345SOL     OW21667   3.628   3.802   5.571  0.0668  0.2730 -0.1351
 3345SOL    HW121668   3.558   3.754   5.526  1.0989 -0.6729 -0.7348
 3345SOL    HW221669   3.645   3.858   5.495  1.2765 -0.5424 -0.4722
 3346SOL     OW21670   2.163   1.388   8.357 -0.0741 -0.3533 -0.0849
 3346SOL    HW121671   2.248   1.393   8.312  0.1337 -0.8084  0.2527
 3346SOL    HW221672   2.186   1.429   8.441 -0.0482 -0.7820  0.1148
 3347SOL     OW21673   2.505   3.651   4.471 -0.5145  0.4517  0.4450
 3347SOL    HW121674   2.591   3.612   4.457 -0.6331  0.0222  0.9164
 3347SOL    HW221675   2.513   3.731   4.419 -1.0162 -0.9679 -1.7940
 3348SOL     OW21676   0.241   0.289   4.421 -0.0232  0.3393 -0.2170
 3348SOL    HW121677   0.251   0.213   4.479  0.5929  0.4346 -0.1983
 3348SOL    HW221678   0.165   0.326   4.468  0.2232  3.2673 -2.1337
 3349SOL     OW21679   2.137   1.731  16.183  0.0590 -0.5122  0.1102
 3349SOL    HW121680   2.080   1.656  16.165 -0.9593  0.1919  0.3993
 3349SOL    HW221681   2.132   1.736  16.279  0.0078 -1.0772  0.1340
 3350SOL     OW21682   2.392   3.956  11.851  0.0841  0.0340 -0.2692
 3350SOL    HW121683   2.387   4.051  11.844 -1.7730 -0.0282  0.4635
 3350SOL    HW221684   2.392   3.942  11.756 -1.0955  3.6578 -0.7933
 3351SOL     OW21685   0.146   4.392   9.921 -0.1122  0.3526 -0.3028
 3351SOL    HW121686   0.079   4.454   9.893 -0.3855 -0.3581 -1.2100
 3351SOL    HW221687   0.173   4.436  10.002 -0.9668 -1.3126  0.8981
 3352SOL     OW21688   1.936   0.328   7.523 -0.0699 -0.3051  0.0437
 3352SOL    HW121689   1.963   0.251   7.574 -2.0781 -0.4228  0.9182
 3352SOL    HW221690   2.012   0.318   7.465  1.1387  2.7461  1.1151
 3353SOL     OW21691   1.620   1.520   4.860 -0.0280  0.2671 -0.8392
 3353SOL    HW121692   1.612   1.593   4.800  0.6185 -1.0463 -2.5203
 3353SOL    HW221693   1.677   1.557   4.928  0.4100 -1.2706 -0.3690
 3354SOL     OW21694   4.128   3.404   1.072  0.3059  0.0709  0.0014
 3354SOL    HW121695   4.115   3.415   0.978  0.1961  1.5999  0.1874
 3354SOL    HW221696   4.170   3.487   1.097  1.0060 -1.0891  2.6161
 3355SOL     OW21697   3.383   3.146   4.689  1.0912 -0.1732 -0.6788
 3355SOL    HW121698   3.394   3.057   4.723 -1.2049  0.3112  1.3135
 3355SOL    HW221699   3.353   3.120   4.602 -0.0406  0.4478 -0.4647
 3356SOL     OW21700   0.776   1.219   3.510 -0.3078  0.2480  0.2939
 3356SOL    HW121701   0.773   1.307   3.547  3.1943  1.6934 -2.7946
 3356SOL    HW221702   0.813   1.167   3.581 -2.3735  0.4431  1.4954
 3357SOL     OW21703   0.772   4.725   6.108 -0.8152 -0.3178 -0.0163
 3357SOL    HW121704   0.810   4.643   6.077 -2.6798 -0.6981 -1.2653
 3357SOL    HW221705   0.851   0.039   6.089 -3.3222  2.5808 -2.5574
 3358SOL     OW21706   0.510   0.906   0.523 -0.1067 -0.2544  0.1389
 3358SOL    HW121707   0.481   0.994   0.546 -1.0294 -0.3150 -0.8242
 3358SOL    HW221708   0.508   0.915   0.428 -1.4000 -1.9327  0.0072
 3359SOL     OW21709   2.483   1.858   6.231 -0.1808  0.3467 -0.1700
 3359SOL    HW121710   2.538   1.919   6.182 -1.1859  2.4563  1.3381
 3359SOL    HW221711   2.398   1.902   6.236  0.5283  1.9463 -2.2824
 3360SOL     OW21712   3.487   3.149   5.239  0.0684  0.5191  0.2229
 3360SOL    HW121713   3.522   3.065   5.209 -0.8818  0.5742 -1.0427
 3360SOL    HW221714   3.549   3.169   5.309 -1.4783  2.1049  1.1358
 3361SOL     OW21715   1.047   1.050   9.794 -0.3294  0.8302  1.0238
 3361SOL    HW121716   1.066   1.130   9.745  1.0535  1.1812  2.1552
 3361SOL    HW221717   1.126   1.049   9.846  0.9032 -0.2283 -0.8641
 3362SOL     OW21718   2.225   2.454   1.355  0.3078 -0.0616  0.0627
 3362SOL    HW121719   2.265   2.378   1.399 -0.3779 -0.7746 -0.5491
 3362SOL    HW221720   2.266   2.452   1.268 -0.3972 -0.5208 -0.2597
 3363SOL     OW21721   1.644   0.013   4.229 -0.7310  0.3439 -0.2543
 3363SOL    HW121722   1.645   4.701   4.147 -0.5472  0.0185 -0.0527
 3363SOL    HW221723   1.735   0.004   4.255 -1.2281  1.2389  1.8203
 3364SOL     OW21724   1.892   2.212   7.183  0.1310 -0.0415 -0.1407
 3364SOL    HW121725   1.942   2.133   7.206  0.4893  0.6731  1.5489
 3364SOL    HW221726   1.811   2.190   7.229  1.8225 -0.2841  2.6887
 3365SOL     OW21727   0.497   3.502   6.496 -0.1773  0.1103  0.4823
 3365SOL    HW121728   0.500   3.410   6.468  0.5170  0.2321  0.1693
 3365SOL    HW221729   0.414   3.534   6.461  1.0993  2.5087 -0.3404
 3366SOL     OW21730   4.352   0.096   9.622  0.3530 -0.1476  0.1602
 3366SOL    HW121731   4.354   0.148   9.542  1.0725  0.5075  0.6017
 3366SOL    HW221732   4.283   0.131   9.678  0.9171  2.2326 -0.6320
 3367SOL     OW21733   1.406   1.007   0.349  0.2500  0.0249  0.0120
 3367SOL    HW121734   1.395   0.926   0.299  1.4725  0.5977 -1.1838
 3367SOL    HW221735   1.338   1.063   0.311 -1.4507 -2.6552 -0.8812
 3368SOL     OW21736   2.766   0.888   7.326 -0.4133 -0.3644  0.9943
 3368SOL    HW121737   2.739   0.803   7.360  0.6437 -1.4290 -0.8514
 3368SOL    HW221738   2.827   0.911   7.397 -2.2676  1.4244  2.0039
 3369SOL     OW21739   2.357   4.605   8.117 -0.2495 -0.0638  0.1368
 3369SOL    HW121740   2.388   4.544   8.184 -0.0807  1.1021  1.1082
 3369SOL    HW221741   2.272   4.621   8.157 -0.9965 -0.2352 -1.3755
 3370SOL     OW21742   4.155   2.359   1.441 -0.3592  0.3030 -0.0666
 3370SOL    HW121743   4.092   2.392   1.377  0.2487  0.6502 -0.4807
 3370SOL    HW221744   4.103   2.316   1.509  0.0384 -0.3208 -0.1555
 3371SOL     OW21745   4.474   4.417   4.658  0.0753  0.5283  0.1580
 3371SOL    HW121746   4.484   4.511   4.675 -0.0873  0.4078  0.9332
 3371SOL    HW221747   4.548   4.372   4.699 -0.6223 -2.1705 -1.5005
 3372SOL     OW21748   1.792   0.476   3.816  0.5562 -0.7402 -0.7077
 3372SOL    HW121749   1.865   0.519   3.860  0.0493 -2.0463  1.4505
 3372SOL    HW221750   1.720   0.484   3.878  0.4786  0.7711 -1.0052
 3373SOL     OW21751   2.759   3.258   6.467 -0.1383  0.6403 -0.4195
 3373SOL    HW121752   2.782   3.170   6.437  0.2074  0.9730 -1.1456
 3373SOL    HW221753   2.803   3.320   6.408 -0.1907  0.9871 -0.0976
 3374SOL     OW21754   3.265   0.556  15.824 -0.5016  0.0575  0.8701
 3374SOL    HW121755   3.200   0.531  15.890 -2.3680 -0.7221 -1.2525
 3374SOL    HW221756   3.332   0.576  15.889 -0.6332  2.2080  0.3629
 3375SOL     OW21757   1.381   2.220  14.579  0.4390 -0.5709 -0.3869
 3375SOL    HW121758   1.366   2.126  14.591  0.4943 -0.4500  0.7094
 3375SOL    HW221759   1.306   2.247  14.526 -0.6944  0.7952  1.8942
 3376SOL     OW21760   4.644   2.928   0.693 -0.1842 -0.0267 -0.8776
 3376SOL    HW121761   4.703   3.002   0.681 -0.7387  0.8267  1.7152
 3376SOL    HW221762   4.626   2.941   0.786 -0.3619  0.9388 -1.0445
 3377SOL     OW21763   3.527   4.221   9.746 -0.6289 -0.0670 -0.0983
 3377SOL    HW121764   3.484   4.181   9.821  1.1250 -0.6048  0.6201
 3377SOL    HW221765   3.471   4.191   9.675  2.0913 -0.9846 -1.8952
 3378SOL     OW21766   0.247   2.060  12.801 -0.5140  0.3220  0.2066
 3378SOL    HW121767   0.210   1.972  12.800  0.4911 -0.0807 -1.2498
 3378SOL    HW221768   0.255   2.072  12.896 -0.4617 -3.3388  0.6650
 3379SOL     OW21769   2.808   1.300   7.761  0.3222 -0.0698 -0.8295
 3379SOL    HW121770   2.723   1.258   7.774  0.3840  0.2235  0.5182
 3379SOL    HW221771   2.851   1.237   7.703 -0.0230 -2.0169  0.9967
 3380SOL     OW21772   2.061   2.906   8.511 -0.2805 -0.4938 -0.4834
 3380SOL    HW121773   2.068   2.997   8.483  2.9171 -0.8748 -0.8862
 3380SOL    HW221774   1.997   2.867   8.450  0.4100 -0.7286 -1.0578
 3381SOL     OW21775   4.421   4.063   4.265  0.4813 -0.3814  0.2865
 3381SOL    HW121776   4.432   4.117   4.343 -0.7250  1.1495 -0.6171
 3381SOL    HW221777   4.329   4.037   4.266  0.2431  0.3687 -3.8434
 3382SOL     OW21778   3.697   3.745   2.699 -0.1037  0.8264  0.3891
 3382SOL    HW121779   3.676   3.653   2.684 -3.2238  1.3359  1.5610
 3382SOL    HW221780   3.613   3.787   2.715 -0.6680 -0.1762  0.0609
 3383SOL     OW21781   1.564   1.238   5.039 -0.0238 -0.1163 -0.7524
 3383SOL    HW121782   1.473   1.210   5.048  0.1387 -0.8868 -1.5457
 3383SOL    HW221783   1.557   1.301   5.111 -1.6824 -0.1786 -0.8547
 3384SOL     OW21784   0.647   1.311  17.718  0.2406 -0.2014  0.1793
 3384SOL    HW121785   0.622   1.241   0.029  0.7226  0.4711  1.1664
 3384SOL    HW221786   0.741   1.291  17.714  0.2787 -0.1700  1.0893
 3385SOL     OW21787   2.530   4.703   7.508 -0.2768 -0.1372 -0.3141
 3385SOL    HW121788   2.552   4.618   7.547 -0.7353 -0.0416  0.1528
 3385SOL    HW221789   2.525   0.014   7.591  2.3343 -1.7954  0.8159
 3386SOL     OW21790   0.840   0.613   3.664 -0.2325 -0.2035  0.5950
 3386SOL    HW121791   0.762   0.654   3.701  1.3144  1.4694  1.9981
 3386SOL    HW221792   0.889   0.614   3.746  0.4941  1.5555  0.1419
 3387SOL     OW21793   3.619   1.532   3.964 -0.0110 -0.5286  0.2044
 3387SOL    HW121794   3.584   1.580   3.889 -1.0420 -2.1412 -0.3587
 3387SOL    HW221795   3.592   1.593   4.032  1.8504  0.1356  0.3561
 3388SOL     OW21796   3.197   1.329  14.704  0.3502 -0.7069  0.1294
 3388SOL    HW121797   3.167   1.239  14.712 -0.7497 -0.2766  0.8110
 3388SOL    HW221798   3.117   1.364  14.665  0.8568 -0.5267 -0.7695
 3389SOL     OW21799   1.646   3.911   0.563  0.4153 -0.4488 -0.3924
 3389SOL    HW121800   1.657   3.950   0.476 -1.0735  0.6422 -0.0894
 3389SOL    HW221801   1.719   3.947   0.612  0.1707 -1.5244  0.7745
 3390SOL     OW21802   3.732   0.483  13.519  0.3328 -0.0114 -0.1925
 3390SOL    HW121803   3.782   0.517  13.593  1.8594 -2.2211 -0.2078
 3390SOL    HW221804   3.723   0.556  13.457  2.3231  0.5311  0.1495
 3391SOL     OW21805   0.557   3.192   3.425  0.0128 -0.0912 -0.6990
 3391SOL    HW121806   0.577   3.115   3.371  0.9516  0.5127 -1.2277
 3391SOL    HW221807   0.637   3.243   3.409  0.4949 -0.7242 -0.2593
 3392SOL     OW21808   3.441   0.374   5.016  0.0351 -0.0277  0.0145
 3392SOL    HW121809   3.404   0.391   5.103 -2.2859 -1.2079 -0.7409
 3392SOL    HW221810   3.439   0.458   4.970 -0.0307 -1.7139 -3.0625
 3393SOL     OW21811   2.739   1.416   3.551 -0.0336 -0.0497 -0.3114
 3393SOL    HW121812   2.742   1.329   3.511 -1.4075  0.1174 -0.7972
 3393SOL    HW221813   2.830   1.430   3.577 -0.1716  0.6930 -0.2121
 3394SOL     OW21814   1.587   4.120   9.721  0.4692 -0.5004  0.8963
 3394SOL    HW121815   1.551   4.183   9.783 -2.0056  0.6547 -1.7222
 3394SOL    HW221816   1.638   4.172   9.659 -2.9183 -1.6740 -2.9375
 3395SOL     OW21817   2.186   0.643   0.933  0.3547 -0.2726 -0.0110
 3395SOL    HW121818   2.101   0.608   0.906  0.3044  0.4341 -0.7488
 3395SOL    HW221819   2.233   0.564   0.907 -1.0651 -0.7922 -1.0178
 3396SOL     OW21820   1.531   4.442   8.425 -0.7122  0.2000 -0.0253
 3396SOL    HW121821   1.508   4.352   8.403  1.5606 -0.2226 -0.7327
 3396SOL    HW221822   1.555   4.422   8.516 -2.9783 -1.3057  0.2481
 3397SOL     OW21823   2.380   4.545   4.970  0.0483  0.1085 -0.4104
 3397SOL    HW121824   2.379   4.613   5.038  1.4478  1.5044 -1.7771
 3397SOL    HW221825   2.402   4.602   4.896  0.8323  1.3118  0.7471
 3398SOL     OW21826   3.364   4.602   5.858 -0.6639  0.2386  0.1982
 3398SOL    HW121827   3.345   4.693   5.880 -1.6135  0.1485 -0.2885
 3398SOL    HW221828   3.295   4.571   5.800  0.4204  0.4237 -1.1964
 3399SOL     OW21829   1.857   3.670   6.935 -0.0415 -0.4097 -0.0918
 3399SOL    HW121830   1.926   3.676   6.869 -0.6876 -2.1527 -0.9391
 3399SOL    HW221831   1.885   3.587   6.974 -0.3399 -0.9853 -1.0976
 3400SOL     OW21832   3.743   4.485   3.553  0.3254  0.1991  0.1969
 3400SOL    HW121833   3.832   4.503   3.525 -0.2542  1.7373 -0.6601
 3400SOL    HW221834   3.713   4.572   3.524 -1.6352 -0.4950  0.1135
 3401SOL     OW21835   0.599   4.461   8.403  0.0888  0.4343  0.1066
 3401SOL    HW121836   0.536   4.531   8.421 -0.3374 -0.3619  1.7418
 3401SOL    HW221837   0.609   4.463   8.308 -0.2190  2.2692  0.1096
 3402SOL     OW21838   2.162   2.368   9.013  0.4752 -0.5685  0.4357
 3402SOL    HW121839   2.239   2.351   9.067  0.6467  1.5260  0.8439
 3402SOL    HW221840   2.193   2.359   8.923 -0.5345 -1.0144  0.1345
 3403SOL     OW21841   2.328   4.408   4.094 -0.1532  0.4409  0.0571
 3403SOL    HW121842   2.276   4.328   4.100  1.2982 -0.4765  0.6650
 3403SOL    HW221843   2.404   4.391   4.038 -0.0106  0.9601  0.0934
 3404SOL     OW21844   1.933   2.440  16.579 -0.2072  0.3151 -0.4087
 3404SOL    HW121845   1.991   2.448  16.503 -2.0266 -0.7300 -1.9024
 3404SOL    HW221846   1.855   2.410  16.534  0.9438  0.7840 -2.6974
 3405SOL     OW21847   0.865   1.015   0.284  0.3482  0.3239  0.3010
 3405SOL    HW121848   0.841   1.001   0.193 -1.9377 -1.7414  1.2250
 3405SOL    HW221849   0.827   1.100   0.304 -0.0340  0.8419 -2.6808
 3406SOL     OW21850   2.342   4.704   4.105 -0.0947  0.4524 -0.1527
 3406SOL    HW121851   2.348   4.715   4.010 -2.1407  2.7962 -0.0136
 3406SOL    HW221852   2.371   4.614   4.116 -2.0945 -0.2887 -0.9726
 3407SOL     OW21853   1.521   3.129   4.560  0.1189 -0.2900 -0.2359
 3407SOL    HW121854   1.473   3.047   4.548  0.4368 -0.5370  0.1974
 3407SOL    HW221855   1.571   3.131   4.479 -0.7120 -2.2648 -0.7969
 3408SOL     OW21856   2.653   2.901   8.618 -0.0418  0.0420  0.2662
 3408SOL    HW121857   2.691   2.946   8.694 -1.1478  1.5436 -0.0732
 3408SOL    HW221858   2.596   2.967   8.578 -2.1083 -0.9667  1.5308
 3409SOL     OW21859   2.934   2.668   0.539 -0.0888  0.4106  0.0704
 3409SOL    HW121860   2.905   2.713   0.619 -1.5494  2.3217 -1.5493
 3409SOL    HW221861   2.984   2.601   0.585  2.1106  1.3756 -0.9022
 3410SOL     OW21862   3.907   2.125  14.086 -0.3749  0.3661  0.3127
 3410SOL    HW121863   3.879   2.052  14.140 -2.3551 -0.7458 -2.2307
 3410SOL    HW221864   3.824   2.172  14.073  0.3404  1.2817 -1.0044
 3411SOL     OW21865   1.315   3.572  12.239 -0.0571  0.0047 -0.1628
 3411SOL    HW121866   1.232   3.578  12.285  0.5844 -0.1671  1.0126
 3411SOL    HW221867   1.282   3.558  12.150 -1.7766  0.3251  0.4401
 3412SOL     OW21868   2.997   4.588   5.511 -0.2370  0.4514 -0.1874
 3412SOL    HW121869   3.045   4.554   5.587  0.2765  0.3640 -0.5479
 3412SOL    HW221870   2.920   4.619   5.559 -0.1225 -1.6775  1.3835
 3413SOL     OW21871   2.328   1.876   3.746 -0.1313  0.5427  0.2515
 3413SOL    HW121872   2.248   1.910   3.705 -0.1340 -0.5447 -0.6568
 3413SOL    HW221873   2.289   1.818   3.812  0.6895 -0.5767 -0.2479
 3414SOL     OW21874   2.741   1.954   0.046 -0.4702 -0.0069  0.3555
 3414SOL    HW121875   2.659   1.906   0.058 -1.5120  2.0327  1.3785
 3414SOL    HW221876   2.805   1.894   0.007  0.9414  0.7004  1.5867
 3415SOL     OW21877   0.036   4.237  10.286  0.1333  0.0792 -0.5393
 3415SOL    HW121878   0.082   4.283  10.356 -0.0346  1.9946 -1.7012
 3415SOL    HW221879   4.731   4.309  10.241 -0.0061  0.3510  0.0243
 3416SOL     OW21880   2.873   1.878   5.214 -0.8770 -0.2995 -0.1316
 3416SOL    HW121881   2.793   1.839   5.177 -1.8653 -0.3290  2.0572
 3416SOL    HW221882   2.835   1.951   5.261 -1.2253 -0.0752 -0.7538
 3417SOL     OW21883   0.608   0.777   4.871  0.3998  0.2992 -0.6252
 3417SOL    HW121884   0.551   0.720   4.922  4.1175 -0.5596  2.5302
 3417SOL    HW221885   0.694   0.736   4.870  0.1720 -0.1640 -1.4152
 3418SOL     OW21886   4.213   0.001   2.254 -0.7574 -0.3939  0.0647
 3418SOL    HW121887   4.127   0.042   2.268 -1.4666 -1.6121 -0.7859
 3418SOL    HW221888   4.193   4.679   2.182 -0.1955  0.6869 -0.9924
 3419SOL     OW21889   1.402   1.075   1.433  0.5909  0.5136 -0.0970
 3419SOL    HW121890   1.478   1.020   1.452  2.4049  2.9658 -0.2531
 3419SOL    HW221891   1.333   1.032   1.484 -0.1839  0.4666 -1.1796
 3420SOL     OW21892   3.069   1.980   5.882  0.2998 -0.6256  0.7806
 3420SOL    HW121893   3.049   2.063   5.925 -2.3907 -2.0001  2.1628
 3420SOL    HW221894   3.160   1.962   5.906  1.0268  1.9281 -0.0419
 3421SOL     OW21895   2.070   4.016   6.043 -0.0419  0.1134 -0.8331
 3421SOL    HW121896   2.074   4.082   5.973  0.3128  2.5289  1.4601
 3421SOL    HW221897   2.013   4.061   6.105  0.6545  0.7091 -0.6296
 3422SOL     OW21898   2.081   1.237  17.053 -0.0874  0.3824  0.0128
 3422SOL    HW121899   2.011   1.276  17.105 -1.7718  1.2503 -2.9317
 3422SOL    HW221900   2.113   1.314  17.007  0.2787  1.3153  1.8055
 3423SOL     OW21901   2.519   0.676   7.706 -0.4219 -0.4001 -0.4802
 3423SOL    HW121902   2.577   0.673   7.782 -1.7052  0.1015  0.5349
 3423SOL    HW221903   2.451   0.618   7.741  0.3096 -0.5064  0.7789
 3424SOL     OW21904   1.664   3.697   3.931  0.6103 -0.5916  0.5860
 3424SOL    HW121905   1.620   3.613   3.933  0.4346 -0.5546 -1.8816
 3424SOL    HW221906   1.747   3.667   3.968  0.2272 -0.3365  1.6458
 3425SOL     OW21907   3.873   4.068   4.328 -0.4295 -0.3736  0.1273
 3425SOL    HW121908   3.827   4.149   4.304 -0.9345 -0.8194 -0.4171
 3425SOL    HW221909   3.800   4.007   4.341  1.6353 -2.4344  1.8719
 3426SOL     OW21910   4.330   4.715   5.465  0.4993 -0.0350  0.1354
 3426SOL    HW121911   4.358   4.640   5.518 -0.7241 -0.6976 -0.1471
 3426SOL    HW221912   4.343   4.673   5.380 -0.3186 -1.8328  0.8859
 3427SOL     OW21913   1.546   1.982  14.120  0.0850  0.4724  0.4276
 3427SOL    HW121914   1.499   2.019  14.194 -0.5805 -0.3141  0.4001
 3427SOL    HW221915   1.490   1.920  14.073  0.7842  0.7947 -0.8243
 3428SOL     OW21916   1.722   0.416  13.604  0.0756 -0.1067 -0.3210
 3428SOL    HW121917   1.762   0.487  13.654  1.2249  0.3460 -1.8960
 3428SOL    HW221918   1.739   0.344  13.666 -0.8347 -0.2035 -0.1751
 3429SOL     OW21919   3.976   2.178   5.869 -0.2641 -0.4110  0.1567
 3429SOL    HW121920   4.011   2.202   5.955 -1.6580  1.1865  0.2758
 3429SOL    HW221921   4.056   2.195   5.821  0.3622  0.4312  1.4868
 3430SOL     OW21922   4.244   4.396   2.772 -0.3369  0.1042 -0.0804
 3430SOL    HW121923   4.216   4.363   2.687 -1.1656  1.0177 -0.1684
 3430SOL    HW221924   4.292   4.474   2.743 -1.1741  0.3636 -0.7551
 3431SOL     OW21925   1.211   3.058  17.327 -0.3751  0.1490 -0.2093
 3431SOL    HW121926   1.302   3.033  17.312 -0.3077 -0.9128  1.8858
 3431SOL    HW221927   1.176   2.999  17.261  0.8002  0.8647 -1.4555
 3432SOL     OW21928   1.291   1.001   9.888 -0.3134 -0.2166  0.0286
 3432SOL    HW121929   1.330   0.914   9.899  3.0104  1.3092  0.3962
 3432SOL    HW221930   1.365   1.046   9.847  0.3227 -0.5841  0.7728
 3433SOL     OW21931   3.692   3.459   8.075  0.1570  0.0991 -0.8718
 3433SOL    HW121932   3.710   3.553   8.076 -1.0919  0.3273  0.8883
 3433SOL    HW221933   3.751   3.425   8.143 -1.2964 -0.7340 -0.0234
 3434SOL     OW21934   4.527   1.852   8.284  0.3533 -0.2490  0.0612
 3434SOL    HW121935   4.517   1.898   8.367  1.8081 -1.4771  0.9206
 3434SOL    HW221936   4.449   1.799   8.271 -0.1430 -0.2159  2.9816
 3435SOL     OW21937   1.013   0.627  12.488 -0.2830  0.0123  0.2212
 3435SOL    HW121938   1.008   0.718  12.458 -0.4061 -0.0670 -0.0001
 3435SOL    HW221939   1.033   0.629  12.582 -0.0078 -1.2311  0.1856
 3436SOL     OW21940   2.817   2.342   6.395 -0.2539  0.3038 -0.0599
 3436SOL    HW121941   2.733   2.324   6.439 -0.1592  0.0515  0.0137
 3436SOL    HW221942   2.884   2.340   6.463 -0.5983 -0.2806  0.2658
 3437SOL     OW21943   2.952   1.406   4.450  0.2188 -0.1924 -0.4746
 3437SOL    HW121944   2.955   1.501   4.465  0.7252 -0.3022  0.1123
 3437SOL    HW221945   2.959   1.407   4.355  2.1672  1.4494 -0.3214
 3438SOL     OW21946   1.974   3.992  17.315  0.5781 -0.4490  0.6663
 3438SOL    HW121947   1.914   4.023  17.382  1.9881  0.4420  1.5153
 3438SOL    HW221948   1.923   4.004  17.234 -0.2951 -0.3145  1.2384
 3439SOL     OW21949   3.881   1.117   9.947 -0.1858  0.4141 -0.2975
 3439SOL    HW121950   3.913   1.037   9.905  0.2551  0.2901  0.2832
 3439SOL    HW221951   3.963   1.166   9.945  0.0804 -0.0020  0.7963
 3440SOL     OW21952   4.461   3.648   4.215  0.3665 -0.2374  0.0629
 3440SOL    HW121953   4.465   3.661   4.120  1.2310 -0.0584  0.1236
 3440SOL    HW221954   4.501   3.561   4.224  1.4297  0.2199 -0.2647
 3441SOL     OW21955   2.759   1.868  13.271  0.6150 -0.1796  0.1602
 3441SOL    HW121956   2.787   1.798  13.330  1.9832 -0.7810 -1.2275
 3441SOL    HW221957   2.694   1.907  13.330 -1.1862 -2.4562 -0.3022
 3442SOL     OW21958   2.289   4.077   5.359  0.3044 -0.0924 -0.1569
 3442SOL    HW121959   2.196   4.055   5.359 -0.0492  1.3950  0.0851
 3442SOL    HW221960   2.283   4.167   5.391  0.7680  0.2908 -1.1552
 3443SOL     OW21961   3.999   3.223   8.625  0.5311 -0.0778 -0.3698
 3443SOL    HW121962   4.024   3.188   8.540 -0.0580 -0.1463 -0.5112
 3443SOL    HW221963   4.054   3.163   8.674 -1.5044 -0.7278  1.1148
 3444SOL     OW21964   3.237   2.029   3.000  0.4096 -0.2568 -0.4394
 3444SOL    HW121965   3.198   1.954   2.954  0.9977 -0.7132 -0.2020
 3444SOL    HW221966   3.327   2.008   2.975  1.4344  0.2374  2.7804
 3445SOL     OW21967   2.235   0.322  17.647  0.2789  0.4048  0.5783
 3445SOL    HW121968   2.301   0.268  17.691  0.2976  1.7285  2.1890
 3445SOL    HW221969   2.271   0.411  17.645 -0.3087  0.5917 -1.5651
 3446SOL     OW21970   1.115   0.712   4.229  0.1633  0.4487  0.2835
 3446SOL    HW121971   1.141   0.628   4.266 -3.8362 -2.0031 -2.4888
 3446SOL    HW221972   1.020   0.705   4.234  0.2383 -1.7763 -1.8023
 3447SOL     OW21973   3.034   1.419   7.377  0.3860 -0.1620 -0.5305
 3447SOL    HW121974   2.968   1.486   7.392  2.8072  2.0680  0.2391
 3447SOL    HW221975   3.078   1.414   7.462 -0.4971 -1.1628 -0.1288
 3448SOL     OW21976   0.366   0.817   2.655 -0.3690  0.4403  0.0700
 3448SOL    HW121977   0.310   0.893   2.638  0.1879  1.1239  1.1903
 3448SOL    HW221978   0.298   0.772   2.705 -0.0013 -0.5534 -0.3272
 3449SOL     OW21979   4.545   1.409  17.402 -0.2298  0.3379  0.2592
 3449SOL    HW121980   4.599   1.485  17.424  0.7178 -1.1412  3.1088
 3449SOL    HW221981   4.487   1.457  17.343  0.9091  1.7374  0.2640
 3450SOL     OW21982   3.745   1.672   4.292 -0.0152 -0.3811 -0.5067
 3450SOL    HW121983   3.697   1.751   4.315 -2.3953 -1.6663 -1.1032
 3450SOL    HW221984   3.679   1.617   4.251  0.1169 -1.6859  1.0339
 3451SOL     OW21985   0.214   4.158   7.104  0.3188 -0.2388  0.3388
 3451SOL    HW121986   0.151   4.167   7.033  2.8711 -0.9054 -2.0087
 3451SOL    HW221987   0.150   4.171   7.174 -0.4774 -0.7748 -0.2976
 3452SOL     OW21988   1.274   0.153   4.039 -0.3187 -0.4389  0.3576
 3452SOL    HW121989   1.262   0.059   4.028 -1.4443 -0.4043  1.3688
 3452SOL    HW221990   1.364   0.164   4.071  0.1119  1.2395 -1.4191
 3453SOL     OW21991   1.745   1.567   8.588 -0.6436  0.2179  0.8433
 3453SOL    HW121992   1.797   1.510   8.531 -0.2705  1.0948  0.3049
 3453SOL    HW221993   1.673   1.509   8.612 -0.2861 -0.6576 -0.1982
 3454SOL     OW21994   1.241   1.465   5.307  0.0236 -0.1137 -0.6153
 3454SOL    HW121995   1.183   1.441   5.379  0.7166  1.5311  0.4657
 3454SOL    HW221996   1.221   1.557   5.292 -0.0140 -0.3024 -1.7461
 3455SOL     OW21997   0.405   4.140   5.502 -1.1478 -0.1096 -0.7416
 3455SOL    HW121998   0.500   4.144   5.495 -1.0163 -2.7589 -0.5519
 3455SOL    HW221999   0.397   4.199   5.577  1.9537  0.9137 -1.2454
 3456SOL     OW22000   2.659   0.394   8.397  0.3390  0.1033  0.0911
 3456SOL    HW122001   2.637   0.439   8.315 -0.5200 -0.5617 -0.0491
 3456SOL    HW222002   2.649   0.466   8.458 -1.9425  0.6380 -0.9186
 3457SOL     OW22003   1.110   1.039  10.498 -0.1839 -0.1750 -0.2701
 3457SOL    HW122004   1.173   0.970  10.477 -0.1526 -0.6285  1.2707
 3457SOL    HW222005   1.131   1.063  10.588 -0.4387 -1.0632  0.0332
 3458SOL     OW22006   2.418   1.034  12.368 -0.1545  0.5090  0.5856
 3458SOL    HW122007   2.435   0.960  12.309 -0.2605 -0.7910  2.1552
 3458SOL    HW222008   2.405   1.105  12.305 -2.1387  0.9966  1.5376
 3459SOL     OW22009   2.429   2.438   2.626  0.4504 -0.0789  0.2533
 3459SOL    HW122010   2.408   2.376   2.696 -1.0444  1.0515  0.8215
 3459SOL    HW222011   2.507   2.480   2.663  0.9041 -0.5563 -0.1647
 3460SOL     OW22012   0.880   0.900   3.396 -0.1172  0.3305 -0.1354
 3460SOL    HW122013   0.787   0.922   3.396 -0.2415 -0.1906  1.4394
 3460SOL    HW222014   0.900   0.911   3.489  0.7164 -0.4582 -0.2254
 3461SOL     OW22015   1.068   3.336  16.953 -0.1014  0.1589  0.3247
 3461SOL    HW122016   0.985   3.329  17.001  0.4382 -0.3988  1.1849
 3461SOL    HW222017   1.070   3.422  16.912 -1.2705 -0.3390 -0.7902
 3462SOL     OW22018   2.766   1.354   2.506 -0.3491  0.0233 -0.0857
 3462SOL    HW122019   2.847   1.307   2.485  0.5437  1.4794  0.1189
 3462SOL    HW222020   2.756   1.402   2.425  1.4198 -0.6073 -0.6839
 3463SOL     OW22021   2.140   3.165   6.774 -0.0308 -0.1966 -0.1827
 3463SOL    HW122022   2.098   3.192   6.856  0.7637  0.3635  0.0422
 3463SOL    HW222023   2.143   3.250   6.730 -0.4935 -0.1309 -0.0881
 3464SOL     OW22024   4.474   2.820   4.175 -0.0314 -0.0480 -0.1022
 3464SOL    HW122025   4.500   2.860   4.258  1.0282  3.6520 -2.2393
 3464SOL    HW222026   4.509   2.875   4.106  0.1175 -0.0546 -0.0309
 3465SOL     OW22027   1.786   4.184  11.896 -0.1811 -0.3523 -0.1246
 3465SOL    HW122028   1.778   4.115  11.962 -0.1354 -0.9471 -0.7408
 3465SOL    HW222029   1.876   4.176  11.865 -0.2279  1.5916 -0.7580
 3466SOL     OW22030   3.376   3.476   7.037 -0.0024 -0.5294 -0.7639
 3466SOL    HW122031   3.346   3.544   7.097 -1.6731 -3.5380  1.8266
 3466SOL    HW222032   3.469   3.489   7.056 -0.8296  3.8351  0.3101
 3467SOL     OW22033   2.744   2.319   8.916  0.7178 -0.5318 -0.0303
 3467SOL    HW122034   2.763   2.400   8.868  1.1849 -1.1181 -0.8329
 3467SOL    HW222035   2.786   2.327   9.002 -0.6268  2.8186  0.3092
 3468SOL     OW22036   3.006   4.271   8.662 -0.0695 -0.4178 -0.7028
 3468SOL    HW122037   3.090   4.236   8.693  0.3910  1.8805  0.5994
 3468SOL    HW222038   3.014   4.246   8.569 -1.8225  1.3892 -1.3234
 3469SOL     OW22039   2.507   0.202  11.009 -0.1626 -0.5022 -0.8201
 3469SOL    HW122040   2.562   0.280  11.017 -1.6080  0.3474  0.7382
 3469SOL    HW222041   2.464   0.198  11.095 -1.0231 -2.0968 -1.3389
 3470SOL     OW22042   1.488   1.625   6.227  0.2316  0.6813 -0.0156
 3470SOL    HW122043   1.558   1.663   6.174  0.9557 -0.1303  0.3548
 3470SOL    HW222044   1.538   1.567   6.284 -0.1903  0.3172 -0.0208
 3471SOL     OW22045   1.802   2.072   1.642 -0.6497 -0.0503  0.1369
 3471SOL    HW122046   1.885   2.120   1.648  0.7919 -2.8060  2.2505
 3471SOL    HW222047   1.751   2.142   1.601 -1.2520 -1.4360 -1.4705
 3472SOL     OW22048   2.137   0.675   8.475 -0.2109 -0.1573  0.9222
 3472SOL    HW122049   2.172   0.602   8.424  1.5661  0.4409  1.2924
 3472SOL    HW222050   2.203   0.740   8.452  0.3449 -0.8807  0.4770
 3473SOL     OW22051   1.178   3.146   8.696  0.0063  0.0826 -0.3320
 3473SOL    HW122052   1.211   3.103   8.617 -1.4137  0.1369 -0.9400
 3473SOL    HW222053   1.206   3.235   8.674 -0.4673  0.2214 -0.3729
 3474SOL     OW22054   2.956   0.582  14.514 -0.1310  0.4103 -0.4960
 3474SOL    HW122055   2.960   0.551  14.604  2.8119 -2.7522 -1.6644
 3474SOL    HW222056   2.956   0.496  14.470 -0.0967 -0.1657  0.6373
 3475SOL     OW22057   2.552   0.079  10.589 -0.1051 -0.3437 -0.0650
 3475SOL    HW122058   2.466   0.096  10.551 -0.6597 -0.8322  0.9786
 3475SOL    HW222059   2.571   4.729  10.554 -0.2327 -0.1750 -0.5601
 3476SOL     OW22060   2.422   3.453  15.932 -0.6348  0.5767  0.4106
 3476SOL    HW122061   2.412   3.544  15.961 -2.7188  0.2578  0.7071
 3476SOL    HW222062   2.506   3.435  15.974  0.5369  1.3933 -1.5644
 3477SOL     OW22063   1.337   3.540   3.805  0.0104  0.2133  0.4961
 3477SOL    HW122064   1.394   3.492   3.865  0.4744  1.1362  0.8072
 3477SOL    HW222065   1.382   3.525   3.722  1.8254 -2.5349  1.9956
 3478SOL     OW22066   3.818   0.238   8.816  0.4350  0.2119 -0.2764
 3478SOL    HW122067   3.810   0.143   8.806 -0.2753  0.5299 -2.7980
 3478SOL    HW222068   3.818   0.248   8.911  0.0674  1.1558 -0.3740
 3479SOL     OW22069   4.698   0.747   6.510  0.4759 -0.3519  0.4868
 3479SOL    HW122070   4.675   0.687   6.439 -0.4939  0.6499 -0.0459
 3479SOL    HW222071   4.618   0.799   6.522  0.9531  0.4486  0.2007
 3480SOL     OW22072   4.179   0.619   5.932 -0.3434 -0.0006 -0.4869
 3480SOL    HW122073   4.119   0.693   5.922 -0.2338  0.4120  1.8510
 3480SOL    HW222074   4.126   0.539   5.928  0.1280 -0.2213 -2.4446
 3481SOL     OW22075   2.443   4.302  13.081  0.4923  0.1038  0.1793
 3481SOL    HW122076   2.517   4.243  13.096  0.9561  0.7680  0.4730
 3481SOL    HW222077   2.467   4.362  13.011 -0.9123  0.6301  0.1364
 3482SOL     OW22078   2.897   1.046   1.610  0.0300 -0.1158 -0.3883
 3482SOL    HW122079   2.899   1.024   1.517 -1.7568 -0.8302 -0.2609
 3482SOL    HW222080   2.835   0.979   1.640 -0.2799  0.6998  0.8084
 3483SOL     OW22081   0.637   0.347   6.170  0.0492 -0.5384 -0.8126
 3483SOL    HW122082   0.628   0.418   6.233  0.9403  1.0973 -2.5384
 3483SOL    HW222083   0.724   0.362   6.134  0.3267 -1.7699 -0.6491
 3484SOL     OW22084   3.848   3.384  13.490  0.3268 -0.8040  0.0653
 3484SOL    HW122085   3.893   3.317  13.440 -0.1130 -0.2305 -1.1039
 3484SOL    HW222086   3.921   3.432  13.528  0.9506 -2.3148  0.7646
 3485SOL     OW22087   3.284   1.751   0.509  0.2650  0.0605 -0.6801
 3485SOL    HW122088   3.245   1.755   0.597  0.7764 -2.1139 -0.3702
 3485SOL    HW222089   3.203   1.765   0.461 -0.5485 -2.8402 -0.1656
 3486SOL     OW22090   1.610   2.375   0.795  0.2376 -1.5563  0.1377
 3486SOL    HW122091   1.686   2.317   0.808  1.8141  0.1608 -1.4440
 3486SOL    HW222092   1.626   2.445   0.858  2.2697 -1.5356 -0.4010
 3487SOL     OW22093   0.956   1.785   1.107 -0.6835 -0.3352 -0.6215
 3487SOL    HW122094   0.961   1.874   1.142  1.1041  0.0477 -1.8386
 3487SOL    HW222095   0.960   1.736   1.189 -2.7904  0.8143  0.1856
 3488SOL     OW22096   1.653   1.460   0.699  0.2321 -0.1719 -0.8542
 3488SOL    HW122097   1.604   1.457   0.617  0.4702 -2.1581 -0.9084
 3488SOL    HW222098   1.699   1.376   0.697  0.4013 -0.0766 -1.0297
 3489SOL     OW22099   1.455   2.550   7.707  0.3184 -0.1942  0.3702
 3489SOL    HW122100   1.520   2.599   7.757  1.6788  1.5687 -3.1556
 3489SOL    HW222101   1.509   2.475   7.681 -0.3167 -1.2434  2.0326
 3490SOL     OW22102   3.859   0.854  10.831 -0.1278 -0.3436 -0.1859
 3490SOL    HW122103   3.789   0.817  10.884 -1.6117 -0.4237 -2.1924
 3490SOL    HW222104   3.930   0.838  10.893  0.7653 -0.0131 -1.1110
 3491SOL     OW22105   4.589   4.319  15.337 -0.5341  0.1507  0.4263
 3491SOL    HW122106   4.645   4.396  15.327  1.1005 -0.9768  0.9241
 3491SOL    HW222107   4.515   4.350  15.284 -0.5076  0.3622  0.5120
 3492SOL     OW22108   4.655   0.779   2.598  0.4230 -0.6630  0.5912
 3492SOL    HW122109   4.576   0.747   2.641 -0.6832  0.3169 -0.7195
 3492SOL    HW222110   4.704   0.789   2.680  1.5474  1.1142 -0.3189
 3493SOL     OW22111   1.889   4.562   2.659 -0.9281 -0.2952 -0.0240
 3493SOL    HW122112   1.898   4.509   2.738 -0.8073 -0.2226  0.0123
 3493SOL    HW222113   1.944   4.514   2.598 -0.2239  1.8677 -1.0877
 3494SOL     OW22114   0.498   1.140  13.015 -0.1922 -0.2511 -0.0624
 3494SOL    HW122115   0.571   1.132  12.953 -0.7462 -0.2930 -0.7124
 3494SOL    HW222116   0.436   1.203  12.978  0.0099  0.0576  0.1356
 3495SOL     OW22117   4.043   1.029  12.025  0.0166 -0.2133  0.1572
 3495SOL    HW122118   4.020   1.026  11.932 -2.7142 -0.2193  0.8256
 3495SOL    HW222119   3.960   1.004  12.065 -0.3927  1.5621  0.4161
 3496SOL     OW22120   0.049   0.602  14.442 -0.1916  0.2638 -0.5630
 3496SOL    HW122121   4.705   0.647  14.424 -1.3404 -0.7430  1.9783
 3496SOL    HW222122   0.092   0.593  14.357 -0.9765 -2.6243 -0.6457
 3497SOL     OW22123   0.661   3.294  16.424  0.0718  1.1102  0.3477
 3497SOL    HW122124   0.747   3.319  16.389  0.0950  1.0267  0.3447
 3497SOL    HW222125   0.607   3.367  16.396 -1.6950 -0.5718 -0.6770
 3498SOL     OW22126   1.441   0.918  13.155 -0.1315  0.1309 -0.7418
 3498SOL    HW122127   1.505   0.851  13.180  0.4432  0.8621 -0.2619
 3498SOL    HW222128   1.362   0.865  13.141 -0.3822  0.5609 -0.9483
 3499SOL     OW22129   1.632   0.371  12.770  0.0208  0.2565 -0.1790
 3499SOL    HW122130   1.580   0.344  12.845 -1.3144 -1.7661 -1.8149
 3499SOL    HW222131   1.713   0.404  12.807 -2.1180  2.8432  2.2112
 3500SOL     OW22132   1.202   0.853   6.570 -0.1449 -0.2062  0.5908
 3500SOL    HW122133   1.239   0.842   6.482 -1.8267 -1.6661  0.0674
 3500SOL    HW222134   1.276   0.872   6.628 -1.3844 -1.9572  2.7350
 3501SOL     OW22135   4.259   1.559   8.565  0.2541 -0.9614  0.4407
 3501SOL    HW122136   4.195   1.511   8.618  1.1672 -2.6625  0.0028
 3501SOL    HW222137   4.305   1.621   8.622 -0.2304 -0.9229  0.7961
 3502SOL     OW22138   4.611   1.233   9.635 -0.0679 -0.2142 -0.1677
 3502SOL    HW122139   4.636   1.188   9.716  0.7209 -0.0031 -0.2897
 3502SOL    HW222140   4.686   1.191   9.593 -0.2965 -0.5389 -0.2479
 3503SOL     OW22141   3.213   2.900   5.381  0.3107 -0.3939 -0.8308
 3503SOL    HW122142   3.216   2.825   5.323  0.4676 -0.6168 -0.5394
 3503SOL    HW222143   3.307   2.916   5.391 -0.1094  0.2112  2.4652
 3504SOL     OW22144   3.502   1.822   2.679 -0.1313 -0.0805  0.6039
 3504SOL    HW122145   3.554   1.772   2.616  1.2850  0.4014  1.4006
 3504SOL    HW222146   3.418   1.776   2.684  0.2288 -0.7420  0.6166
 3505SOL     OW22147   1.574   3.252  13.949 -0.2879 -0.7993 -1.0680
 3505SOL    HW122148   1.489   3.288  13.976 -0.3156 -0.3839 -1.6999
 3505SOL    HW222149   1.566   3.160  13.972  1.0309 -0.9096 -1.0953
 3506SOL     OW22150   3.530   3.396  14.017 -0.4192 -0.3628 -0.1051
 3506SOL    HW122151   3.510   3.487  14.038  2.1845 -0.1094  1.2077
 3506SOL    HW222152   3.536   3.348  14.100  1.4678 -2.4818 -1.4763
 3507SOL     OW22153   0.564   2.572   6.026  0.1917  0.7009  0.2406
 3507SOL    HW122154   0.494   2.614   6.076  1.2641  2.4290  0.2668
 3507SOL    HW222155   0.637   2.618   6.069 -0.3686  2.4038 -0.6580
 3508SOL     OW22156   2.076   2.914   5.634  0.2577 -0.0555 -0.1283
 3508SOL    HW122157   2.104   3.000   5.667 -1.3009  1.5663 -3.0194
 3508SOL    HW222158   2.145   2.890   5.572 -1.5855 -0.2340 -2.1292
 3509SOL     OW22159   4.434   0.528   2.320 -0.0320 -0.2097  0.0210
 3509SOL    HW122160   4.374   0.541   2.246 -0.3456 -2.8493 -0.1764
 3509SOL    HW222161   4.518   0.518   2.274 -0.3974  1.3100 -0.9784
 3510SOL     OW22162   2.590   3.550   0.030  0.1539  0.1762  0.2191
 3510SOL    HW122163   2.530   3.496   0.081 -2.7959  1.9764 -1.3607
 3510SOL    HW222164   2.629   3.483  17.721 -3.2601  1.6559 -3.8249
 3511SOL     OW22165   4.330   2.393   7.649 -0.5192 -0.1297 -0.1219
 3511SOL    HW122166   4.260   2.357   7.704 -0.4301  1.3957  0.9737
 3511SOL    HW222167   4.339   2.482   7.682  0.2531  0.2939 -1.5119
 3512SOL     OW22168   2.880   2.335   1.045 -0.3966 -0.4703 -0.5546
 3512SOL    HW122169   2.944   2.268   1.022  0.2038 -0.3569  0.7603
 3512SOL    HW222170   2.806   2.275   1.030 -0.0059 -1.0319 -0.2459
 3513SOL     OW22171   0.575   3.919   4.894 -0.1330 -0.3291  0.1688
 3513SOL    HW122172   0.668   3.911   4.913 -0.3589  1.2207  2.0364
 3513SOL    HW222173   0.575   3.976   4.817 -1.2264 -1.0646 -0.3790
 3514SOL     OW22174   0.575   2.774   7.484  0.2560  0.0555 -0.2885
 3514SOL    HW122175   0.534   2.720   7.415 -1.0501  1.8248 -0.8974
 3514SOL    HW222176   0.499   2.786   7.541  2.3828  0.5682  2.4168
 3515SOL     OW22177   2.578   2.116   2.874  0.3591  0.2375 -0.1370
 3515SOL    HW122178   2.551   2.053   2.809  1.5444 -0.2453 -0.1714
 3515SOL    HW222179   2.610   2.050   2.935  0.2514  1.3874  1.1723
 3516SOL     OW22180   3.285   1.294  15.385 -0.0439  0.2245 -0.1616
 3516SOL    HW122181   3.284   1.389  15.375 -2.2860  0.3194  0.9990
 3516SOL    HW222182   3.248   1.285  15.473 -1.7691 -0.9675 -1.0282
 3517SOL     OW22183   4.318   0.346   4.723  0.0021  0.3744 -1.1116
 3517SOL    HW122184   4.277   0.413   4.777  1.4220  0.6871 -0.4051
 3517SOL    HW222185   4.239   0.328   4.673 -0.1381  0.5716 -0.9625
 3518SOL     OW22186   4.459   2.988  12.253  0.4976 -0.2214 -0.1791
 3518SOL    HW122187   4.372   2.984  12.213  0.9327  1.0469 -1.2331
 3518SOL    HW222188   4.470   3.082  12.270 -3.0844  0.0424  0.5610
 3519SOL     OW22189   1.269   3.791   3.935 -0.0020  0.3737  0.6657
 3519SOL    HW122190   1.319   3.735   3.876 -0.6387  0.5673 -0.0692
 3519SOL    HW222191   1.232   3.726   3.994 -0.7845 -1.2765 -1.6652
 3520SOL     OW22192   4.643   4.547   0.862  0.6073  0.6921 -0.1135
 3520SOL    HW122193   4.700   4.547   0.939  0.2563 -1.9465  0.1433
 3520SOL    HW222194   4.706   4.576   0.796  1.6121  0.5388  0.7810
 3521SOL     OW22195   1.893   2.216  10.017  1.0310 -0.8970 -0.2754
 3521SOL    HW122196   1.960   2.161   9.976 -0.0375 -1.5356 -1.1280
 3521SOL    HW222197   1.813   2.167   9.999  0.8671 -0.7216 -0.0154
 3522SOL     OW22198   1.879   4.164   4.946  0.5681  0.0719  0.0101
 3522SOL    HW122199   1.793   4.204   4.929  0.1888 -0.7172  0.0487
 3522SOL    HW222200   1.891   4.108   4.868  0.0520 -0.0775  0.0355
 3523SOL     OW22201   1.309   2.407   7.288  0.2082  0.4353  0.2162
 3523SOL    HW122202   1.351   2.468   7.228  2.3109 -0.4383  0.8023
 3523SOL    HW222203   1.369   2.405   7.363  0.6924 -1.3171 -0.2178
 3524SOL     OW22204   0.999   4.290   2.523 -0.1247  0.5969 -0.0928
 3524SOL    HW122205   1.077   4.287   2.579  0.7228  0.5658 -1.2902
 3524SOL    HW222206   1.023   4.332   2.441 -3.6119 -0.2703 -1.5346
 3525SOL     OW22207   0.116   3.224   7.859 -0.1029  0.2770 -0.1719
 3525SOL    HW122208   0.102   3.141   7.814 -3.1906  0.5084  0.3289
 3525SOL    HW222209   0.085   3.201   7.946 -1.6919  0.5462 -0.6483
 3526SOL     OW22210   1.270   2.167   1.686  0.8176  0.4494 -0.3173
 3526SOL    HW122211   1.330   2.147   1.613 -1.1949 -2.4512 -1.1625
 3526SOL    HW222212   1.333   2.202   1.749  2.6159 -1.6511 -0.9209
 3527SOL     OW22213   2.095   3.061   2.546  0.6749 -0.9403  0.1565
 3527SOL    HW122214   2.128   2.990   2.602 -1.5107 -0.7350  1.6756
 3527SOL    HW222215   2.176   3.112   2.545  0.3423 -0.4356 -1.0557
 3528SOL     OW22216   4.700   3.433  12.065 -0.0647  0.4529  0.0263
 3528SOL    HW122217   0.027   3.409  11.998  0.7943 -0.7045  1.2743
 3528SOL    HW222218   4.620   3.395  12.028 -0.1008  0.5681 -0.0158
 3529SOL     OW22219   3.860   2.496  10.416 -0.5417  0.1129  0.2473
 3529SOL    HW122220   3.789   2.458  10.364  0.3256 -3.2939  1.5429
 3529SOL    HW222221   3.840   2.464  10.504 -2.6676 -0.8596 -0.5658
 3530SOL     OW22222   4.724   1.241   9.005 -0.0139 -0.0799 -0.4711
 3530SOL    HW122223   0.022   1.152   8.994  1.1383  0.3229 -0.0602
 3530SOL    HW222224   0.039   1.290   8.942  1.3604 -0.0507  0.6701
 3531SOL     OW22225   3.221   1.508   6.565 -0.3521 -0.1020 -0.7335
 3531SOL    HW122226   3.316   1.514   6.565 -0.3529 -0.0589  0.0026
 3531SOL    HW222227   3.201   1.445   6.496  0.1266 -1.4622  0.3676
 3532SOL     OW22228   1.637   1.800   8.639  0.1137  0.4873  0.1826
 3532SOL    HW122229   1.597   1.784   8.724 -0.1542  0.8461  0.1207
 3532SOL    HW222230   1.669   1.711   8.622  1.9685  0.6113  2.9690
 3533SOL     OW22231   1.342   1.617  17.380 -0.5438  0.4485 -0.2529
 3533SOL    HW122232   1.395   1.605  17.459  1.2512  2.9761 -1.0943
 3533SOL    HW222233   1.389   1.688  17.338 -1.0205  0.5338 -0.6402
 3534SOL     OW22234   0.030   3.685   1.501  0.3036 -0.4273  0.0159
 3534SOL    HW122235   4.693   3.741   1.523  0.0557 -0.3052 -1.1218
 3534SOL    HW222236   0.103   3.746   1.490  0.6017 -0.6525  0.7567
 3535SOL     OW22237   1.600   0.574  13.880 -0.1353  0.2937  0.0864
 3535SOL    HW122238   1.533   0.640  13.858  0.0098  0.6793  0.8058
 3535SOL    HW222239   1.679   0.624  13.898  0.3140 -0.2903 -0.2542
 3536SOL     OW22240   0.950   4.676   9.328 -0.0016  0.3680 -0.0931
 3536SOL    HW122241   0.921   4.724   9.406  0.5203 -0.1115  0.3883
 3536SOL    HW222242   1.023   4.630   9.367 -0.9677 -1.3044 -0.2685
 3537SOL     OW22243   1.900   1.972  17.245 -0.1827 -0.4836  0.3091
 3537SOL    HW122244   1.818   1.930  17.218  0.3070 -0.7162 -0.7883
 3537SOL    HW222245   1.905   2.054  17.195  1.4999 -2.0816 -2.1546
 3538SOL     OW22246   2.612   2.752  13.355 -0.0835 -0.1655 -0.5647
 3538SOL    HW122247   2.690   2.806  13.345  0.5279 -0.6681  1.5927
 3538SOL    HW222248   2.549   2.807  13.309 -1.2895 -0.8497  0.2647
 3539SOL     OW22249   3.708   2.466   3.292 -0.3226  0.2842 -0.2816
 3539SOL    HW122250   3.737   2.536   3.233 -0.0371  0.6843  0.3310
 3539SOL    HW222251   3.650   2.519   3.346  0.8918  0.2297  1.0819
 3540SOL     OW22252   0.010   3.900   4.980 -0.5506 -0.2466 -0.3300
 3540SOL    HW122253   0.060   3.898   4.898 -0.8681  0.4793 -0.5352
 3540SOL    HW222254   4.672   3.957   4.971 -1.2963 -1.1942 -0.1357
 3541SOL     OW22255   3.686   3.433  16.446 -0.2035 -0.3715 -0.5610
 3541SOL    HW122256   3.636   3.375  16.389  0.1620 -0.2773 -0.9784
 3541SOL    HW222257   3.626   3.505  16.467  1.4459  1.4374 -2.1230
 3542SOL     OW22258   1.040   3.997   2.221 -0.2938 -0.1897  0.4946
 3542SOL    HW122259   0.947   3.987   2.200 -0.0193  0.7910 -1.2029
 3542SOL    HW222260   1.073   4.022   2.134 -0.8846  0.0296  0.3357
 3543SOL     OW22261   4.426   0.845   3.981 -0.2579  0.0715 -0.2741
 3543SOL    HW122262   4.380   0.921   4.017  2.1803  0.0539  2.8483
 3543SOL    HW222263   4.409   0.772   4.040 -1.5252  1.1253  0.6642
 3544SOL     OW22264   3.668   3.596   7.067  0.3669 -0.1447  1.2134
 3544SOL    HW122265   3.735   3.662   7.087  1.0992 -0.5674  0.1450
 3544SOL    HW222266   3.710   3.510   7.076  1.2319  0.3260  1.6975
 3545SOL     OW22267   2.619   0.092   8.404 -0.5622  0.2528  0.9366
 3545SOL    HW122268   2.630   0.180   8.440  3.1284  1.0695 -2.1527
 3545SOL    HW222269   2.525   0.076   8.412 -1.6521  4.7598 -2.3666
 3546SOL     OW22270   1.763   3.753   5.685  0.2963 -0.0288  0.0485
 3546SOL    HW122271   1.675   3.717   5.674  1.2492 -1.2933 -3.6528
 3546SOL    HW222272   1.766   3.836   5.638  2.9032  0.7901  1.6636
 3547SOL     OW22273   2.392   3.599   5.260  0.1555  0.3374  0.6322
 3547SOL    HW122274   2.366   3.691   5.254 -2.5282 -0.5929 -1.5801
 3547SOL    HW222275   2.393   3.580   5.166  2.6677 -2.0032  1.1349
 3548SOL     OW22276   0.598   1.947   8.013 -0.2580 -0.1782  0.2397
 3548SOL    HW122277   0.684   1.963   7.974 -0.6770 -1.4518 -1.1765
 3548SOL    HW222278   0.557   2.033   8.023 -0.9475 -0.3321 -1.2839
 3549SOL     OW22279   2.447   2.730   6.868  0.2446  0.4295  0.2883
 3549SOL    HW122280   2.415   2.800   6.925  0.8066 -0.3860  1.6138
 3549SOL    HW222281   2.363   2.691   6.843  0.2703  2.2338 -2.5779
 3550SOL     OW22282   1.241   3.574   9.400 -0.4288  0.5718 -0.2496
 3550SOL    HW122283   1.245   3.657   9.448 -0.1619 -0.6966  1.9297
 3550SOL    HW222284   1.184   3.523   9.458 -1.0166  0.7033 -0.6999
 3551SOL     OW22285   0.352   0.320   4.993  0.0717  0.4126  0.2079
 3551SOL    HW122286   0.281   0.287   4.937 -0.9750  3.0025 -0.0096
 3551SOL    HW222287   0.423   0.311   4.929 -1.7883  2.0004 -2.0968
 3552SOL     OW22288   2.290   3.849   5.174  0.7697  0.1075  0.5285
 3552SOL    HW122289   2.277   3.927   5.228 -1.1697  1.1380 -1.4073
 3552SOL    HW222290   2.370   3.880   5.130 -0.3242 -0.8209 -2.1107
 3553SOL     OW22291   2.779   1.453   7.122 -0.2687 -0.1253  0.7135
 3553SOL    HW122292   2.780   1.483   7.031 -0.6183 -0.2354  0.6725
 3553SOL    HW222293   2.753   1.363   7.105  0.7596  0.1242 -2.1953
 3554SOL     OW22294   0.305   0.714   4.642  0.1126  0.3892  0.0225
 3554SOL    HW122295   0.339   0.798   4.673  2.1175  0.6110 -2.7711
 3554SOL    HW222296   0.215   0.739   4.619 -0.4666  0.1015  2.0134
 3555SOL     OW22297   3.169   2.369  13.915  0.0797 -0.4074  0.1846
 3555SOL    HW122298   3.079   2.348  13.891  0.5320 -0.4052 -1.5147
 3555SOL    HW222299   3.158   2.384  14.009  1.3879  2.3053 -0.1049
 3556SOL     OW22300   2.968   2.068   3.999  0.0469 -0.1661  0.3301
 3556SOL    HW122301   3.010   2.064   4.085  1.0506 -2.0012 -0.2432
 3556SOL    HW222302   2.876   2.066   4.022 -0.1043 -1.6541 -0.4402
 3557SOL     OW22303   3.014   3.261   2.970 -0.5421 -0.1539 -0.3992
 3557SOL    HW122304   3.034   3.283   3.061 -2.7704 -2.6465  0.6869
 3557SOL    HW222305   3.100   3.224   2.954  0.1976  2.2074 -1.8913
 3558SOL     OW22306   1.655   4.492  15.307 -0.1864 -0.7977 -0.4922
 3558SOL    HW122307   1.564   4.513  15.286  0.6282  3.0523 -0.1471
 3558SOL    HW222308   1.662   4.497  15.402  0.4749  2.2970 -0.6966
 3559SOL     OW22309   2.336   3.913   2.638 -0.0340 -0.7522  0.2335
 3559SOL    HW122310   2.283   3.838   2.664 -1.3301 -0.0048 -0.2869
 3559SOL    HW222311   2.360   3.891   2.548  1.6405  2.3853 -0.0930
 3560SOL     OW22312   1.662   2.385   7.729  0.0982  0.0415  0.2887
 3560SOL    HW122313   1.632   2.294   7.727  0.8286 -0.2616  3.0219
 3560SOL    HW222314   1.719   2.388   7.806 -0.5063  1.0233  0.6879
 3561SOL     OW22315   0.541   1.425   9.838  0.9083 -0.3423  0.5367
 3561SOL    HW122316   0.512   1.334   9.837 -0.8156  0.2438 -1.1389
 3561SOL    HW222317   0.631   1.407   9.865  0.8169 -2.2649 -0.4236
 3562SOL     OW22318   2.851   2.184   5.951 -0.5750 -0.1438 -0.1704
 3562SOL    HW122319   2.794   2.235   6.008  0.8742  0.3162  0.8551
 3562SOL    HW222320   2.809   2.179   5.865 -0.5345  2.2977 -0.3346
 3563SOL     OW22321   1.615   3.289   2.485  0.0387  0.2036  0.8084
 3563SOL    HW122322   1.632   3.196   2.468 -1.2559 -0.0570  0.9294
 3563SOL    HW222323   1.613   3.326   2.396  1.0758  1.1691  1.1850
 3564SOL     OW22324   2.324   2.927   7.031  0.0872 -0.0506  0.1007
 3564SOL    HW122325   2.384   2.978   7.086  0.1162 -0.0298  0.0497
 3564SOL    HW222326   2.239   2.935   7.073  0.5894  1.4013  0.8495
 3565SOL     OW22327   2.986   2.241   8.201 -0.5892 -0.1010 -0.7596
 3565SOL    HW122328   3.012   2.332   8.182  0.1854 -0.1397  0.1457
 3565SOL    HW222329   3.043   2.228   8.276 -1.6973 -0.4506  0.0075
 3566SOL     OW22330   3.732   2.073   3.640 -0.1732  0.1523 -0.0383
 3566SOL    HW122331   3.715   2.096   3.549  0.1395  0.0360 -0.1260
 3566SOL    HW222332   3.762   2.159   3.669 -0.0559 -0.0455  0.4311
 3567SOL     OW22333   2.577   2.972   6.078  0.5677 -0.6130 -0.0673
 3567SOL    HW122334   2.663   2.980   6.036 -0.6344  0.6258 -2.3065
 3567SOL    HW222335   2.599   2.936   6.164  0.8595  0.7839  0.4327
 3568SOL     OW22336   3.221   1.607   7.838  1.0178 -0.1197  0.3784
 3568SOL    HW122337   3.182   1.550   7.905 -2.3033  2.6974  0.7980
 3568SOL    HW222338   3.289   1.649   7.892  0.1708  0.3303  1.0933
 3569SOL     OW22339   3.468   2.605   5.982  0.5542  0.4714  0.1895
 3569SOL    HW122340   3.410   2.661   6.032  1.7371  0.6322  1.3792
 3569SOL    HW222341   3.422   2.521   5.991  2.1107 -0.3266  0.7670
 3570SOL     OW22342   0.350   2.298   4.020 -0.2153 -0.0120  0.0662
 3570SOL    HW122343   0.326   2.382   3.981 -0.7620 -1.0791 -1.8886
 3570SOL    HW222344   0.406   2.325   4.093  0.1003 -0.0237 -0.1734
 3571SOL     OW22345   3.414   3.321   2.485  0.1882  0.2807 -0.4869
 3571SOL    HW122346   3.460   3.318   2.401  2.3653 -0.2546  0.7296
 3571SOL    HW222347   3.385   3.412   2.485 -1.1704 -0.1507  0.1038
 3572SOL     OW22348   0.460   1.978  12.018 -1.0915  0.1867  0.0566
 3572SOL    HW122349   0.462   2.049  12.082 -3.2621  1.0021 -0.7828
 3572SOL    HW222350   0.541   1.933  12.041 -2.1408 -1.6288  0.1600
 3573SOL     OW22351   3.934   0.293   4.803  0.0280  0.0429  0.0533
 3573SOL    HW122352   3.883   0.213   4.791 -0.5564  0.5859 -1.1151
 3573SOL    HW222353   3.987   0.291   4.723  0.8111 -4.5126  0.7095
 3574SOL     OW22354   0.984   2.594   7.290 -0.6618 -0.5293 -0.3165
 3574SOL    HW122355   0.951   2.671   7.335  1.1862  1.1044 -1.7504
 3574SOL    HW222356   0.936   2.584   7.207 -1.1100  1.2710 -0.2779
 3575SOL     OW22357   1.734   2.740  15.393 -0.8777  0.1711  0.5252
 3575SOL    HW122358   1.713   2.834  15.393  0.0483  0.3811  0.8288
 3575SOL    HW222359   1.646   2.705  15.380 -0.7530 -0.6132  1.7739
 3576SOL     OW22360   4.697   4.578   7.347 -0.2622 -0.9822 -0.0463
 3576SOL    HW122361   4.622   4.552   7.292  0.7789  1.2830 -2.5155
 3576SOL    HW222362   4.737   4.653   7.303 -1.0522 -0.2451  0.4995
 3577SOL     OW22363   1.054   3.096  10.701 -0.4555  0.1258 -0.1843
 3577SOL    HW122364   1.008   3.018  10.670 -1.4689  0.2692  0.9479
 3577SOL    HW222365   1.012   3.120  10.783  2.7319 -0.5444  1.6560
 3578SOL     OW22366   1.945   2.655   2.699 -0.0954 -0.2415 -0.1635
 3578SOL    HW122367   1.885   2.581   2.710  1.0946 -1.4855 -2.2128
 3578SOL    HW222368   2.032   2.617   2.705 -0.1992 -0.3211  1.0072
 3579SOL     OW22369   4.382   1.375   6.615 -0.0947  0.1341  0.0536
 3579SOL    HW122370   4.296   1.371   6.657  0.4142 -0.2943  1.0571
 3579SOL    HW222371   4.444   1.359   6.686  0.6473 -0.0618 -0.6442
 3580SOL     OW22372   1.661   3.608  15.024 -0.4601 -0.0290 -0.0342
 3580SOL    HW122373   1.729   3.655  14.975  2.6611 -3.8775  0.6281
 3580SOL    HW222374   1.714   3.551  15.078 -0.1892 -1.3393 -1.6929
 3581SOL     OW22375   1.649   3.691   6.533 -0.4604  0.3805  0.8346
 3581SOL    HW122376   1.646   3.714   6.626  0.7462  2.9651  0.2057
 3581SOL    HW222377   1.734   3.724   6.504 -0.4212  0.4280  1.0049
 3582SOL     OW22378   3.055   1.263   1.587 -0.3419  0.2494 -0.7011
 3582SOL    HW122379   3.098   1.209   1.522 -1.1623  0.7846 -1.6956
 3582SOL    HW222380   3.004   1.194   1.628  3.0135 -0.5222  2.1382
 3583SOL     OW22381   3.797   4.277   3.740  0.0140  0.0042 -0.0310
 3583SOL    HW122382   3.763   4.344   3.680  2.2632  1.9406  0.8626
 3583SOL    HW222383   3.711   4.250   3.772 -0.3217  0.3627 -0.6335
 3584SOL     OW22384   4.637   4.712  17.236 -0.0628 -0.6846  0.0171
 3584SOL    HW122385   4.614   4.649  17.305 -1.9504  0.0405  0.0412
 3584SOL    HW222386   4.701   0.033  17.274  0.2026 -0.8829 -0.1229
 3585SOL     OW22387   1.819   4.108   3.918  0.3304 -0.1516 -0.1326
 3585SOL    HW122388   1.746   4.060   3.958  0.8847  0.6311  1.8174
 3585SOL    HW222389   1.844   4.176   3.981 -1.9325  0.7852 -0.2383
 3586SOL     OW22390   0.755   2.439  15.282 -0.0940  0.1585 -0.3800
 3586SOL    HW122391   0.794   2.500  15.345  1.3510 -0.1474 -0.9568
 3586SOL    HW222392   0.677   2.406  15.326  0.4080  0.5898  0.8451
 3587SOL     OW22393   0.499   0.480   9.203 -0.4317 -0.2037 -0.1984
 3587SOL    HW122394   0.463   0.528   9.128 -0.5209  0.4198  0.2523
 3587SOL    HW222395   0.425   0.475   9.264 -0.4927  1.7531 -0.1153
 3588SOL     OW22396   1.037   1.681   6.819 -0.6083 -0.1478  0.3363
 3588SOL    HW122397   1.085   1.613   6.771  0.7742  0.4939  0.8149
 3588SOL    HW222398   1.092   1.702   6.894  1.2817 -1.3634 -0.7246
 3589SOL     OW22399   3.913   1.842   3.171  0.6067 -0.1103  0.7283
 3589SOL    HW122400   3.967   1.882   3.102 -0.1638 -0.3699 -0.0272
 3589SOL    HW222401   3.910   1.909   3.239  1.0159  1.9478 -1.2512
 3590SOL     OW22402   2.686   4.066  10.692  0.0454  0.0314  0.1016
 3590SOL    HW122403   2.781   4.079  10.691  0.0551 -0.0856 -0.3592
 3590SOL    HW222404   2.658   4.153  10.719  0.9448 -0.1174  1.4778
 3591SOL     OW22405   2.535   2.777  14.814  0.0590  0.1929  0.1269
 3591SOL    HW122406   2.496   2.805  14.730 -0.3864 -0.1001  0.2350
 3591SOL    HW222407   2.528   2.682  14.810  1.1704  0.1443 -0.4685
 3592SOL     OW22408   4.384   3.980   9.069  0.2328  0.4045  0.5843
 3592SOL    HW122409   4.438   4.059   9.072  0.3724  0.4562 -3.3597
 3592SOL    HW222410   4.295   4.009   9.089  0.4076  2.3758 -1.4943
 3593SOL     OW22411   3.162   1.291  16.540 -0.2690 -0.2581 -0.0714
 3593SOL    HW122412   3.233   1.279  16.604  0.6996  2.0267 -0.7152
 3593SOL    HW222413   3.201   1.227  16.481  1.6355 -0.9484  1.9133
 3594SOL     OW22414   1.719   1.861  17.506 -0.5823  0.2339  0.4073
 3594SOL    HW122415   1.644   1.904  17.465 -0.0962  0.4899 -0.2125
 3594SOL    HW222416   1.733   1.786  17.449 -1.9024  0.7905 -0.6490
 3595SOL     OW22417   3.247   1.822   1.994 -0.2971 -0.4398  0.1182
 3595SOL    HW122418   3.296   1.740   1.998 -2.0524 -1.3959  2.5530
 3595SOL    HW222419   3.183   1.797   1.927 -1.7776 -2.1553  2.1633
 3596SOL     OW22420   0.633   1.586  11.581  0.1627 -0.0193 -0.2242
 3596SOL    HW122421   0.572   1.646  11.540 -0.3074  0.5295  1.2788
 3596SOL    HW222422   0.622   1.603  11.675 -0.5689  0.7069 -0.4510
 3597SOL     OW22423   3.343   4.134   9.136  0.0107  0.3958 -0.1410
 3597SOL    HW122424   3.415   4.072   9.147 -0.8646 -0.5419  0.3467
 3597SOL    HW222425   3.285   4.088   9.076  0.1953 -0.2236  0.1534
 3598SOL     OW22426   1.458   2.867  15.568 -0.3648 -0.2131  0.7091
 3598SOL    HW122427   1.444   2.957  15.599  1.6079  0.5799 -0.6768
 3598SOL    HW222428   1.531   2.839  15.623 -0.9864  1.1205  2.2246
 3599SOL     OW22429   4.682   3.156  13.966  0.2664 -0.6069 -0.5917
 3599SOL    HW122430   4.709   3.073  14.003 -0.1036 -0.5748 -0.2517
 3599SOL    HW222431   4.603   3.117  13.928 -1.4085  0.9701  1.2666
 3600SOL     OW22432   0.576   3.536   5.847 -0.8026  0.2271 -0.0922
 3600SOL    HW122433   0.537   3.463   5.896 -1.3884 -0.0502 -0.9892
 3600SOL    HW222434   0.670   3.522   5.855 -0.5283  2.5140  0.5451
 3601SOL     OW22435   1.212   0.485   1.943 -0.7761 -0.2796 -0.8489
 3601SOL    HW122436   1.127   0.517   1.913 -1.1394  1.6711  2.1814
 3601SOL    HW222437   1.267   0.564   1.942  0.2255 -0.9964 -1.2077
 3602SOL     OW22438   2.662   0.840  17.515 -0.4690  0.1078  0.5367
 3602SOL    HW122439   2.630   0.751  17.497 -0.1174  0.1766 -0.3946
 3602SOL    HW222440   2.640   0.857  17.607  2.1596 -2.0999  1.5885
 3603SOL     OW22441   3.111   3.511   7.120 -0.3152  0.6345  0.3097
 3603SOL    HW122442   3.145   3.590   7.078 -0.0714  0.6380  0.5069
 3603SOL    HW222443   3.145   3.447   7.057  0.9583  0.1294  1.5060
 3604SOL     OW22444   0.474   0.813   6.150 -0.5187  0.3984 -0.5137
 3604SOL    HW122445   0.547   0.751   6.151 -2.0873 -1.4109  2.6054
 3604SOL    HW222446   0.531   0.886   6.174  0.5600 -0.8450  0.6789
 3605SOL     OW22447   0.081   4.334   9.559  0.1422 -0.1565  0.5953
 3605SOL    HW122448   0.043   4.292   9.482  0.1562  0.4689  0.2462
 3605SOL    HW222449   0.004   4.326   9.614  0.1357  1.0754  0.7504
 3606SOL     OW22450   2.073   2.612   5.290 -0.5529 -0.2791  0.1394
 3606SOL    HW122451   2.076   2.563   5.207  0.0045  0.8859 -0.5321
 3606SOL    HW222452   1.978   2.618   5.296 -0.3151  3.0932  0.3045
 3607SOL     OW22453   1.679   3.783   3.350 -0.7142  0.2020 -0.0861
 3607SOL    HW122454   1.695   3.698   3.309 -1.1238 -1.2803  2.8081
 3607SOL    HW222455   1.606   3.761   3.408  1.0594  2.6177  3.0187
 3608SOL     OW22456   1.721   1.114   1.732  0.1770 -0.3336 -0.4146
 3608SOL    HW122457   1.752   1.135   1.644 -1.0826  0.1695 -0.7457
 3608SOL    HW222458   1.638   1.162   1.724  1.1221  1.4495  0.5989
 3609SOL     OW22459   2.031   2.274   6.072 -0.1315  0.1105 -0.5484
 3609SOL    HW122460   2.018   2.192   6.025  0.2531  0.0637 -0.5726
 3609SOL    HW222461   2.127   2.275   6.070 -0.1371  0.7936 -0.4359
 3610SOL     OW22462   0.453   0.318   1.486  0.2057 -0.0485  0.0430
 3610SOL    HW122463   0.434   0.407   1.516 -0.0565 -0.7538  1.9830
 3610SOL    HW222464   0.368   0.279   1.503  0.7393 -0.1349  2.5999
 3611SOL     OW22465   1.387   0.864   3.768  0.2122 -0.2980  0.2923
 3611SOL    HW122466   1.439   0.926   3.817 -0.2585 -1.1824  1.9001
 3611SOL    HW222467   1.309   0.852   3.821 -1.8319 -1.4904 -2.9375
 3612SOL     OW22468   3.458   2.589   9.259  1.0622 -0.2028  0.1517
 3612SOL    HW122469   3.544   2.590   9.301  1.5982  0.4378 -0.9643
 3612SOL    HW222470   3.395   2.588   9.331 -0.0668 -1.0854 -0.8590
 3613SOL     OW22471   4.696   1.342   1.623 -0.3682 -0.0434 -0.0860
 3613SOL    HW122472   4.616   1.388   1.651 -0.6398  0.0232 -0.9660
 3613SOL    HW222473   4.692   1.257   1.668  0.2374  1.3821  2.6649
 3614SOL     OW22474   3.410   3.256   9.563 -0.6150  0.6511  0.4635
 3614SOL    HW122475   3.415   3.173   9.611  1.6321  0.7397  0.4065
 3614SOL    HW222476   3.360   3.235   9.485 -1.1469  2.0973  0.4076
 3615SOL     OW22477   2.636   4.647  14.418  0.2551 -0.8117 -0.1225
 3615SOL    HW122478   2.624   4.585  14.346  1.0613 -0.0207 -0.9398
 3615SOL    HW222479   2.649   4.593  14.496  1.2931  0.3268  0.4779
 3616SOL     OW22480   0.650   2.321   2.497  0.1337 -0.1353 -0.1935
 3616SOL    HW122481   0.638   2.314   2.402  0.7345  0.8838 -0.3400
 3616SOL    HW222482   0.561   2.302   2.528  0.1139 -1.7239 -1.2151
 3617SOL     OW22483   4.515   0.466   8.968  0.6407  0.4424 -0.6277
 3617SOL    HW122484   4.474   0.406   8.905  1.4585 -0.9355  0.1667
 3617SOL    HW222485   4.446   0.532   8.979  0.4246 -0.1238  1.3836
 3618SOL     OW22486   3.888   4.541   9.156 -0.1491 -0.1095  0.5596
 3618SOL    HW122487   3.878   4.567   9.064  3.4856 -3.6623 -0.8347
 3618SOL    HW222488   3.928   4.618   9.196  1.0180 -0.2275 -0.3558
 3619SOL     OW22489   2.225   0.427   7.100  0.1245 -0.4018  0.1286
 3619SOL    HW122490   2.269   0.471   7.173  0.1336  0.6652 -0.5195
 3619SOL    HW222491   2.216   0.504   7.044  0.2421  1.1079  2.1664
 3620SOL     OW22492   1.233   4.091   7.288 -0.1930 -0.4371 -0.2632
 3620SOL    HW122493   1.184   4.075   7.369 -0.3052  0.3916 -0.1648
 3620SOL    HW222494   1.322   4.090   7.325  0.7314  2.9431 -2.4224
 3621SOL     OW22495   0.783   0.499  13.411  0.6022 -0.2784 -0.0759
 3621SOL    HW122496   0.738   0.567  13.360  0.7187 -1.2191 -1.4388
 3621SOL    HW222497   0.751   0.417  13.375  0.1447  0.6002 -1.6651
 3622SOL     OW22498   1.796   2.427   2.653 -0.5176 -0.4873 -1.0425
 3622SOL    HW122499   1.814   2.343   2.610 -2.5345 -0.5351 -1.7787
 3622SOL    HW222500   1.762   2.487   2.587  1.9246  0.4088 -1.4716
 3623SOL     OW22501   2.156   1.988  11.887  0.4578 -0.1126  0.1407
 3623SOL    HW122502   2.151   1.909  11.941 -0.1575  0.0820  0.3745
 3623SOL    HW222503   2.124   2.050  11.952  0.5312  0.2841 -0.2040
 3624SOL     OW22504   2.989   2.348   7.553 -0.3166 -0.2244 -0.3517
 3624SOL    HW122505   3.024   2.342   7.642  0.0892 -2.7622 -0.7009
 3624SOL    HW222506   2.899   2.369   7.579  0.1089 -0.2700  1.1854
 3625SOL     OW22507   2.287   3.180  16.169 -0.4143  0.1257 -0.1997
 3625SOL    HW122508   2.265   3.185  16.076 -0.1829 -1.2585 -0.3340
 3625SOL    HW222509   2.366   3.232  16.176 -0.7788  0.2950  2.8853
 3626SOL     OW22510   1.918   1.288  14.823 -0.0919 -0.1495  0.1274
 3626SOL    HW122511   2.007   1.313  14.850 -0.0301  0.6104 -0.7608
 3626SOL    HW222512   1.885   1.258  14.907  3.1420 -0.6692  1.2165
 3627SOL     OW22513   0.438   4.723  16.663 -0.4946  0.3456  0.0979
 3627SOL    HW122514   0.506   4.662  16.692  0.8189  0.9876 -1.6637
 3627SOL    HW222515   0.472   4.728  16.574 -1.3937  0.3664 -0.2496
 3628SOL     OW22516   3.706   2.380   6.998 -0.7034 -0.3001  0.4398
 3628SOL    HW122517   3.789   2.427   6.990  0.6748 -2.7737  0.5311
 3628SOL    HW222518   3.683   2.419   7.083 -1.7304  1.4419 -0.6240
 3629SOL     OW22519   1.004   0.720  13.508  0.1674 -0.2830  0.0721
 3629SOL    HW122520   0.963   0.641  13.543 -0.9144 -0.5976 -1.8981
 3629SOL    HW222521   1.095   0.714  13.536  0.1828  0.7636  0.2254
 3630SOL     OW22522   0.655   2.558   9.285 -0.0579  0.4437  0.4522
 3630SOL    HW122523   0.745   2.582   9.306  0.5104 -0.0762 -1.3343
 3630SOL    HW222524   0.608   2.609   9.351 -0.5381 -0.4765  0.8157
 3631SOL     OW22525   1.585   2.203   7.121 -0.3223  0.0096  0.2245
 3631SOL    HW122526   1.643   2.261   7.072  1.6004 -3.4313 -1.5939
 3631SOL    HW222527   1.505   2.205   7.068  1.2527 -0.3215 -2.1320
 3632SOL     OW22528   1.210   1.132  10.768  0.0612  0.6652  0.1916
 3632SOL    HW122529   1.302   1.127  10.741  0.1292  0.3764  0.4669
 3632SOL    HW222530   1.227   1.174  10.853 -2.1728  2.6146 -0.3344
 3633SOL     OW22531   2.989   3.393   1.742  0.0659  0.4407 -0.4870
 3633SOL    HW122532   3.043   3.355   1.673  0.4086  0.9777 -0.5138
 3633SOL    HW222533   3.018   3.329   1.808 -1.3071  0.8360  0.5129
 3634SOL     OW22534   2.071   1.878   9.306 -0.7258  0.0308  0.2492
 3634SOL    HW122535   2.093   1.939   9.236  0.7390 -0.3159  0.4214
 3634SOL    HW222536   2.022   1.818   9.249  1.4542 -0.5914 -0.9314
 3635SOL     OW22537   0.759   0.534   9.561 -0.3543  0.1949  0.2307
 3635SOL    HW122538   0.723   0.466   9.504 -1.4836 -1.5422  3.0149
 3635SOL    HW222539   0.819   0.588   9.510  0.2686 -0.8013 -0.0905
 3636SOL     OW22540   1.336   3.973   9.764  0.0786  0.7073 -0.1138
 3636SOL    HW122541   1.348   4.052   9.816  1.1222  0.5005 -0.0321
 3636SOL    HW222542   1.311   4.018   9.683  1.6612  0.5878 -0.6730
 3637SOL     OW22543   1.532   2.208   5.913 -0.1359  0.2335  0.1817
 3637SOL    HW122544   1.593   2.135   5.921  2.6420  2.4440 -0.6146
 3637SOL    HW222545   1.543   2.256   5.994  1.0234 -1.4613  1.0322
 3638SOL     OW22546   4.687   3.518   1.914 -0.3161 -0.1527  0.5821
 3638SOL    HW122547   4.690   3.579   1.840  1.1018 -0.4482  0.3991
 3638SOL    HW222548   4.595   3.498   1.929 -0.8266  2.7794  1.3904
 3639SOL     OW22549   4.540   1.665   7.241 -0.4397 -0.7890  0.1039
 3639SOL    HW122550   4.557   1.587   7.189  2.1937  0.6657 -1.2100
 3639SOL    HW222551   4.446   1.660   7.225 -1.2663  0.5855  4.2724
 3640SOL     OW22552   0.373   4.712   6.726 -0.2826 -0.1568 -0.4879
 3640SOL    HW122553   0.293   4.699   6.776  1.1504 -2.5119  1.2193
 3640SOL    HW222554   0.440   4.667   6.778 -1.6610  0.3987  1.7970
 3641SOL     OW22555   4.307   0.021  15.716  0.2576 -0.2155 -0.2550
 3641SOL    HW122556   4.288   0.101  15.765 -1.4394 -0.7076 -0.1094
 3641SOL    HW222557   4.238   4.703  15.753 -1.5343  1.1820 -1.5333
 3642SOL     OW22558   0.901   4.393   7.321 -0.2003  0.7516 -0.6055
 3642SOL    HW122559   0.865   4.467   7.273 -1.2328 -0.0696 -1.0995
 3642SOL    HW222560   0.859   4.319   7.275  1.1642 -0.2203 -0.2871
 3643SOL     OW22561   0.165   3.978  13.453 -0.3475  0.0334 -0.2616
 3643SOL    HW122562   0.100   3.909  13.441 -1.7989  1.0682  1.7201
 3643SOL    HW222563   0.203   3.965  13.540  1.4572  0.4384 -0.9866
 3644SOL     OW22564   2.204   0.605  17.419  0.2381  0.3400  0.0145
 3644SOL    HW122565   2.112   0.628  17.405  0.2708  1.8522  2.1370
 3644SOL    HW222566   2.191   0.516  17.387 -2.1821  0.7753 -0.2558
 3645SOL     OW22567   1.116   3.601   6.315 -0.2547 -0.5329 -0.6012
 3645SOL    HW122568   1.131   3.548   6.237  1.2720  1.3250 -1.5901
 3645SOL    HW222569   1.207   3.602   6.347  0.0665 -0.5065 -1.5234
 3646SOL     OW22570   0.258   0.966  14.813  0.0626  0.4459  0.1499
 3646SOL    HW122571   0.230   0.891  14.760 -0.6652  0.8584 -0.0423
 3646SOL    HW222572   0.337   0.927  14.852 -1.7598 -1.1283  2.2826
 3647SOL     OW22573   3.164   0.629   7.775 -0.3345 -0.3926  0.4857
 3647SOL    HW122574   3.135   0.554   7.722 -1.3104  1.2005 -1.2202
 3647SOL    HW222575   3.238   0.664   7.726 -1.8232 -0.8052 -2.0735
 3648SOL     OW22576   3.295   3.074   4.432 -0.2572  0.7314  0.4062
 3648SOL    HW122577   3.356   3.124   4.378 -1.6934  1.0314 -0.9497
 3648SOL    HW222578   3.266   3.002   4.377  3.5839 -1.0276  0.7213
 3649SOL     OW22579   3.681   2.922  13.861  0.1035  0.1170  0.3866
 3649SOL    HW122580   3.694   3.015  13.840 -0.8934  0.0035 -0.7029
 3649SOL    HW222581   3.619   2.893  13.794  2.2098  1.7646 -2.3011
 3650SOL     OW22582   0.802   4.063  11.609 -0.8377  0.6983  0.7520
 3650SOL    HW122583   0.728   4.117  11.581  0.5870  1.8579 -0.8242
 3650SOL    HW222584   0.797   4.077  11.703  0.6287 -2.3907  1.2915
 3651SOL     OW22585   1.165   0.906  10.140 -0.0576  0.3090 -0.6383
 3651SOL    HW122586   1.233   0.955  10.094 -0.5813 -0.1744 -1.9061
 3651SOL    HW222587   1.162   0.825  10.088  0.0205  0.7026 -1.2523
 3652SOL     OW22588   0.685   1.866   7.248  0.6940 -0.1668  0.0905
 3652SOL    HW122589   0.732   1.897   7.325  1.3311  1.3842 -0.9405
 3652SOL    HW222590   0.677   1.943   7.192  1.8491  0.5901  0.9893
 3653SOL     OW22591   3.443   0.842   2.376  0.7867 -0.1573  0.1548
 3653SOL    HW122592   3.427   0.752   2.346 -0.6718  0.5910 -1.3149
 3653SOL    HW222593   3.525   0.858   2.328  0.7971  0.4396  0.3731
 3654SOL     OW22594   0.451   1.289   3.041 -0.1937  0.1782 -0.3250
 3654SOL    HW122595   0.485   1.377   3.055  2.2704 -0.7322 -0.5586
 3654SOL    HW222596   0.479   1.238   3.117 -0.8397 -0.4122 -0.4755
 3655SOL     OW22597   3.201   1.373  17.212 -0.5172 -0.5033 -0.2102
 3655SOL    HW122598   3.204   1.468  17.198 -0.7698 -0.2892  1.1703
 3655SOL    HW222599   3.192   1.341  17.122 -0.3416 -1.7745  0.2306
 3656SOL     OW22600   0.543   4.536   1.262  0.0326  0.6232 -0.0568
 3656SOL    HW122601   0.542   4.506   1.171  0.3860 -3.0445  1.1296
 3656SOL    HW222602   0.636   4.545   1.283  0.8608 -1.2397 -2.9381
 3657SOL     OW22603   4.515   4.704   3.823 -0.1039 -0.3280  0.2242
 3657SOL    HW122604   4.468   4.723   3.904 -0.7821  2.7922 -0.9115
 3657SOL    HW222605   4.583   0.034   3.829 -0.3668 -0.1382  1.0808
 3658SOL     OW22606   0.584   4.543   1.848  0.1483  0.2856  0.1145
 3658SOL    HW122607   0.606   4.454   1.876 -0.1695 -0.4118 -1.8203
 3658SOL    HW222608   0.636   4.596   1.908 -0.0413 -0.6330  1.0985
 3659SOL     OW22609   4.460   1.391  13.486  0.1039  0.3351 -0.0961
 3659SOL    HW122610   4.380   1.431  13.519  1.2463 -0.2264  3.3652
 3659SOL    HW222611   4.535   1.445  13.509  0.2745 -0.7812  1.9483
 3660SOL     OW22612   3.104   0.386   9.742  0.3055  0.2679  0.0731
 3660SOL    HW122613   3.179   0.370   9.684 -0.4825  0.7189 -1.0626
 3660SOL    HW222614   3.109   0.481   9.753  2.4823  0.3064 -1.1607
 3661SOL     OW22615   0.759   4.246   9.338  0.1219  0.5354 -0.1143
 3661SOL    HW122616   0.799   4.202   9.413  1.7306  1.0282 -0.6918
 3661SOL    HW222617   0.697   4.304   9.382 -0.1986 -1.0786  1.5609
 3662SOL     OW22618   4.477   3.532   5.004  0.1500  0.4523  0.5563
 3662SOL    HW122619   4.564   3.520   5.042 -0.7044 -0.3264  2.2196
 3662SOL    HW222620   4.516   3.520   4.917  2.6353  3.6664  1.2313
 3663SOL     OW22621   2.803   0.122   4.015 -0.3134  0.1313  0.6208
 3663SOL    HW122622   2.782   0.073   3.935 -0.3219  0.2968  0.5220
 3663SOL    HW222623   2.790   0.052   4.078  0.1905  0.1648  0.7644
 3664SOL     OW22624   1.290   3.240  13.223 -0.1293  0.3533  0.2770
 3664SOL    HW122625   1.269   3.185  13.148 -1.8012 -0.0057  0.9950
 3664SOL    HW222626   1.359   3.296  13.188  0.5538 -0.1624  0.8005
 3665SOL     OW22627   1.498   3.395   6.735  0.1030  0.5161 -0.0209
 3665SOL    HW122628   1.584   3.353   6.735 -0.4675 -0.6501  1.4141
 3665SOL    HW222629   1.466   3.362   6.651 -0.4918  1.9817 -0.3778
 3666SOL     OW22630   2.809   0.545  16.061  0.1675 -0.1171  0.4556
 3666SOL    HW122631   2.770   0.512  16.141 -1.6038  1.1575  0.1219
 3666SOL    HW222632   2.857   0.618  16.100 -1.4405 -0.0086  2.2386
 3667SOL     OW22633   2.113   3.436   8.139 -0.5833 -0.4423 -0.1459
 3667SOL    HW122634   2.191   3.492   8.147 -1.0410  0.4082 -1.5533
 3667SOL    HW222635   2.054   3.472   8.205  1.4308  0.0915  1.3724
 3668SOL     OW22636   0.601   3.834  15.281 -0.1921  0.0698 -0.0628
 3668SOL    HW122637   0.658   3.759  15.298 -0.4093  0.0444  0.5537
 3668SOL    HW222638   0.577   3.818  15.190 -3.2566  0.6243  0.6546
 3669SOL     OW22639   0.207   0.655   8.627  0.0800 -0.3224 -0.3666
 3669SOL    HW122640   0.181   0.633   8.537  1.8211  1.6220 -1.3351
 3669SOL    HW222641   0.261   0.580   8.650 -2.0376 -2.4199 -2.3113
 3670SOL     OW22642   1.481   3.506   2.894 -0.2152  0.1159  0.0430
 3670SOL    HW122643   1.404   3.484   2.841  1.5704 -1.0786 -2.0669
 3670SOL    HW222644   1.546   3.499   2.824 -0.3632 -2.7928  0.2086
 3671SOL     OW22645   0.441   3.783  15.034 -0.6294 -0.4275 -0.0313
 3671SOL    HW122646   0.417   3.700  15.074 -0.9106 -1.3601 -2.1095
 3671SOL    HW222647   0.361   3.834  15.046 -0.5212  0.0589 -1.3304
 3672SOL     OW22648   2.306   1.643   6.764  0.0736 -0.4339  0.2532
 3672SOL    HW122649   2.361   1.656   6.841 -0.1695  0.3644  0.3029
 3672SOL    HW222650   2.230   1.612   6.814 -0.4419 -1.0987 -0.9620
 3673SOL     OW22651   1.663   0.721   2.635 -0.3702  0.0338  0.0556
 3673SOL    HW122652   1.592   0.769   2.592  0.9941  2.6879  0.7267
 3673SOL    HW222653   1.648   0.747   2.726  2.0181  0.0101  0.4686
 3674SOL     OW22654   4.281   1.357   8.081 -0.1600 -0.0589  0.2751
 3674SOL    HW122655   4.278   1.451   8.100  0.2626  0.6914 -3.2197
 3674SOL    HW222656   4.189   1.333   8.070 -0.2270  0.4587 -0.3092
 3675SOL     OW22657   1.183   3.047   1.961 -0.2693  0.3464 -0.2681
 3675SOL    HW122658   1.179   3.120   2.021 -1.6497  2.2430 -2.6695
 3675SOL    HW222659   1.180   2.971   2.019 -2.4661  1.2609  0.8097
 3676SOL     OW22660   1.992   2.926   2.937 -0.0381  0.2251  0.3797
 3676SOL    HW122661   1.919   2.976   2.900 -0.0736 -0.5048 -0.5248
 3676SOL    HW222662   2.024   2.992   2.999 -1.8002  0.2419  1.2865
 3677SOL     OW22663   0.081   2.507   3.378 -0.9719 -0.5956 -0.1535
 3677SOL    HW122664   0.114   2.460   3.301 -1.5977 -1.4154  0.0754
 3677SOL    HW222665   4.725   2.487   3.366 -1.2695  0.0828  1.0824
 3678SOL     OW22666   0.747   0.074   2.329  0.4293 -0.6480 -0.7047
 3678SOL    HW122667   0.771   0.145   2.387  0.4851  0.0487 -1.5724
 3678SOL    HW222668   0.668   0.108   2.286  0.8783 -0.6852 -1.5637
 3679SOL     OW22669   1.337   0.917   8.050  0.0168  0.2395 -0.0397
 3679SOL    HW122670   1.268   0.854   8.070  0.1656 -0.0292 -0.3662
 3679SOL    HW222671   1.286   0.995   8.031  0.9523  0.6831 -0.7705
 3680SOL     OW22672   3.746   1.603  11.999  0.1917 -0.3060  0.5078
 3680SOL    HW122673   3.765   1.616  11.906 -1.1352  0.9332  0.4239
 3680SOL    HW222674   3.836   1.590  12.031  0.2720 -0.9283  0.0482
 3681SOL     OW22675   1.281   1.876   6.002 -0.1946  0.3660 -0.1082
 3681SOL    HW122676   1.193   1.865   5.966 -0.7325  1.0591  0.9784
 3681SOL    HW222677   1.258   1.917   6.086  0.4906  0.5670 -0.0229
 3682SOL     OW22678   3.897   0.213   7.312  0.1542  0.3287 -0.1057
 3682SOL    HW122679   3.883   0.126   7.351  2.1249 -1.5720 -3.5448
 3682SOL    HW222680   3.978   0.229   7.360  1.8099  0.0088 -2.7863
 3683SOL     OW22681   4.676   2.542  11.671 -0.0334  0.2572  0.4700
 3683SOL    HW122682   4.621   2.476  11.714  0.7200  0.9605  2.4939
 3683SOL    HW222683   4.700   2.597  11.745  1.7243  0.7420 -0.4582
 3684SOL     OW22684   0.773   2.391   4.662 -0.4503  0.1879  0.1239
 3684SOL    HW122685   0.767   2.487   4.666 -0.4937  0.1463  1.0552
 3684SOL    HW222686   0.789   2.383   4.568 -0.9340  0.3168  0.0310
 3685SOL     OW22687   1.680   0.499   2.959 -0.2695 -0.3089 -0.5527
 3685SOL    HW122688   1.766   0.533   2.983 -0.4097 -1.2881  1.3553
 3685SOL    HW222689   1.649   0.564   2.896 -1.3570 -1.2552 -0.9882
 3686SOL     OW22690   2.408   0.236   9.389 -0.2605  0.3307 -0.3751
 3686SOL    HW122691   2.361   0.163   9.349 -0.3101  0.5476 -0.7091
 3686SOL    HW222692   2.444   0.187   9.463 -0.3007  1.1931  0.2043
 3687SOL     OW22693   1.674   3.266  16.727  0.4254  0.1380  0.1911
 3687SOL    HW122694   1.688   3.258  16.822 -2.2344  1.0437  0.6608
 3687SOL    HW222695   1.600   3.325  16.715 -2.0631 -2.6181  2.0377
 3688SOL     OW22696   1.214   0.448   9.515 -0.4004  0.7511  0.0008
 3688SOL    HW122697   1.165   0.529   9.525 -2.6167 -0.3176 -2.2751
 3688SOL    HW222698   1.145   0.381   9.510 -0.7589  1.2276 -1.3008
 3689SOL     OW22699   0.391   1.278   9.214  0.0212 -0.0610  0.3796
 3689SOL    HW122700   0.484   1.289   9.231  0.0080  1.8335 -0.7225
 3689SOL    HW222701   0.409   1.227   9.135  0.5813  0.8408 -0.0733
 3690SOL     OW22702   2.099   1.995   3.629 -0.0086  0.3960  0.5341
 3690SOL    HW122703   2.056   2.009   3.544  3.3685 -1.8021 -1.5071
 3690SOL    HW222704   2.023   2.020   3.682 -1.5194 -2.4023 -0.3344
 3691SOL     OW22705   0.577   1.807   5.755  0.4398  0.2586 -0.5244
 3691SOL    HW122706   0.579   1.884   5.812  1.0495 -0.9609  1.1090
 3691SOL    HW222707   0.498   1.767   5.793  1.1051  0.6398  1.2502
 3692SOL     OW22708   0.295   3.048   6.906  0.2906 -0.6309  0.0489
 3692SOL    HW122709   0.291   3.011   6.994 -2.1752 -0.7112 -0.1077
 3692SOL    HW222710   0.272   2.972   6.852  1.0008 -1.2854  0.6654
 3693SOL     OW22711   2.308   2.761  13.940 -0.5507 -0.3152  0.0466
 3693SOL    HW122712   2.322   2.775  13.846 -1.5307 -0.2003 -0.0810
 3693SOL    HW222713   2.267   2.848  13.946 -0.7675 -0.4314  0.2360
 3694SOL     OW22714   2.933   3.280   9.924  0.5023 -0.2538 -0.9352
 3694SOL    HW122715   3.023   3.247   9.915  0.8139  0.1725  0.5738
 3694SOL    HW222716   2.941   3.369   9.890  0.7865 -0.2670 -0.9055
 3695SOL     OW22717   4.003   2.947  10.265 -0.4339  0.1208  0.6241
 3695SOL    HW122718   4.046   3.018  10.313 -1.0358  1.2482 -0.5220
 3695SOL    HW222719   3.963   3.001  10.197 -0.2361  1.6181  1.6871
 3696SOL     OW22720   1.071   0.165   4.314  0.3105  0.2871 -0.5531
 3696SOL    HW122721   1.023   0.156   4.232 -0.3626  0.1454 -0.1462
 3696SOL    HW222722   1.134   0.093   4.317 -0.3859 -0.3145 -0.1283
 3697SOL     OW22723   0.323   4.424   1.761 -0.0678 -0.2963  0.0781
 3697SOL    HW122724   0.340   4.434   1.668 -1.7207  1.0607 -0.0677
 3697SOL    HW222725   0.412   4.421   1.795  0.4600  0.3584 -1.2622
 3698SOL     OW22726   4.027   1.618  15.894 -0.4944 -0.1202 -0.2129
 3698SOL    HW122727   3.957   1.576  15.844 -0.1941 -0.4757 -0.3363
 3698SOL    HW222728   4.099   1.613  15.831  0.4447 -2.2946  1.0233
 3699SOL     OW22729   0.572   2.816   6.426  0.0533  0.2268  0.0757
 3699SOL    HW122730   0.479   2.811   6.403  0.5866 -1.4785 -1.7257
 3699SOL    HW222731   0.600   2.889   6.370  1.6280  0.6023  1.3608
 3700SOL     OW22732   3.715   2.434   8.906 -0.1562 -0.1285  0.7684
 3700SOL    HW122733   3.794   2.380   8.914 -0.7770 -1.1325  0.1216
 3700SOL    HW222734   3.666   2.390   8.838  2.3148 -3.0468  0.8506
 3701SOL     OW22735   4.589   3.795   6.590 -0.0496 -0.4746 -0.1803
 3701SOL    HW122736   4.506   3.819   6.549 -0.7793  0.2856  1.7539
 3701SOL    HW222737   4.594   3.712   6.543  1.4300 -0.0700 -0.7317
 3702SOL     OW22738   1.236   1.570   4.949  0.4538 -0.8338 -0.2429
 3702SOL    HW122739   1.304   1.524   4.900 -0.2046 -0.3652 -1.5965
 3702SOL    HW222740   1.186   1.495   4.981  1.0662 -0.2475  2.0425
 3703SOL     OW22741   3.006   4.120   6.600  0.0186  0.3166 -0.3915
 3703SOL    HW122742   2.931   4.118   6.660 -0.9936  1.5145 -1.6142
 3703SOL    HW222743   3.011   4.027   6.577  1.3384  0.2085  0.3139
 3704SOL     OW22744   4.111   2.841   3.605 -0.0451  0.1899  0.4084
 3704SOL    HW122745   4.189   2.791   3.579 -2.0019 -2.1543 -0.9495
 3704SOL    HW222746   4.124   2.927   3.565  1.7713 -0.2583  0.0257
 3705SOL     OW22747   2.463   1.391   2.371  0.2646 -0.6373  0.6102
 3705SOL    HW122748   2.439   1.446   2.446 -0.2398 -0.8036  0.5724
 3705SOL    HW222749   2.549   1.423   2.344 -0.8245  0.4681 -1.5412
 3706SOL     OW22750   3.673   0.146   2.072 -0.2898 -0.4498 -0.7708
 3706SOL    HW122751   3.583   0.125   2.098 -0.7808 -0.0443 -2.1877
 3706SOL    HW222752   3.723   0.065   2.081  1.3799  0.6935  0.2362
 3707SOL     OW22753   2.836   2.658  17.239  0.3812 -0.2194  0.0670
 3707SOL    HW122754   2.845   2.729  17.175  0.0892 -0.3375 -0.1064
 3707SOL    HW222755   2.898   2.680  17.308  1.3986  0.3128 -0.9995
 3708SOL     OW22756   1.828   2.399   4.727  0.0411  0.0697  0.3159
 3708SOL    HW122757   1.789   2.472   4.775 -3.8484 -0.4740 -1.9531
 3708SOL    HW222758   1.787   2.420   4.643  1.2819  0.1595 -0.2648
 3709SOL     OW22759   3.978   2.088   3.308 -0.5317 -0.6065  0.0563
 3709SOL    HW122760   3.989   2.081   3.403 -0.6353 -1.0702  0.0340
 3709SOL    HW222761   4.007   2.178   3.299  0.3578 -0.8855  0.1403
 3710SOL     OW22762   1.094   0.990   0.471 -0.5618  0.1733 -0.5534
 3710SOL    HW122763   1.023   1.000   0.408 -1.6599  0.3126  0.6943
 3710SOL    HW222764   1.147   1.067   0.452  0.1884 -0.2458 -0.1648
 3711SOL     OW22765   0.846   1.743  14.541 -1.0102 -0.2432 -0.0276
 3711SOL    HW122766   0.894   1.771  14.464 -0.7002 -2.9880 -0.8432
 3711SOL    HW222767   0.898   1.667  14.569  0.8276  0.4798 -1.4928
 3712SOL     OW22768   3.107   1.764   5.255  0.3479  0.2497  0.2311
 3712SOL    HW122769   3.031   1.821   5.237 -0.2223 -0.6015 -0.0361
 3712SOL    HW222770   3.104   1.685   5.202  1.6630  1.4609 -1.6290
 3713SOL     OW22771   2.208   4.367   4.781  0.2871 -1.0608  0.0739
 3713SOL    HW122772   2.199   4.343   4.873 -0.6936  0.9696  0.4988
 3713SOL    HW222773   2.303   4.379   4.777  0.2879 -1.3295 -0.9265
 3714SOL     OW22774   4.222   3.743   9.413  0.3094 -0.2340 -0.3426
 3714SOL    HW122775   4.265   3.765   9.496  0.2226 -1.9806  0.1711
 3714SOL    HW222776   4.143   3.700   9.444  0.8054 -1.2413 -0.4562
 3715SOL     OW22777   3.375   4.014   4.357 -0.2619  0.2121  0.5619
 3715SOL    HW122778   3.460   3.972   4.339 -0.5876  0.9738 -2.6964
 3715SOL    HW222779   3.330   3.966   4.287  1.4143 -0.4708 -0.0688
 3716SOL     OW22780   3.950   3.547   6.845 -0.7831 -0.3560 -0.3214
 3716SOL    HW122781   3.903   3.495   6.910  0.8082 -0.3915  0.8014
 3716SOL    HW222782   3.883   3.588   6.790 -0.8802 -0.4108 -0.2441
 3717SOL     OW22783   3.085   3.276   7.583 -0.5386  0.7995 -0.0467
 3717SOL    HW122784   3.113   3.303   7.670 -0.3715 -3.8193  1.3014
 3717SOL    HW222785   3.068   3.183   7.593 -0.3610  0.7081 -0.5997
 3718SOL     OW22786   3.343   2.562   9.491 -0.6018  0.1485 -0.2323
 3718SOL    HW122787   3.317   2.619   9.563 -2.0827  1.6565 -1.9599
 3718SOL    HW222788   3.413   2.522   9.544 -0.4648 -0.4355 -0.8513
 3719SOL     OW22789   4.004   3.381   6.516  0.0221  0.9686  0.0187
 3719SOL    HW122790   4.041   3.361   6.430  2.5954  0.5854  1.1815
 3719SOL    HW222791   3.984   3.473   6.501 -1.1196  0.6570 -0.3875
 3720SOL     OW22792   3.450   0.495  11.756 -1.2538 -0.8190 -0.3387
 3720SOL    HW122793   3.502   0.472  11.833  1.6421  1.5369 -1.5824
 3720SOL    HW222794   3.447   0.589  11.773 -5.2686 -1.2965  1.5995
 3721SOL     OW22795   3.237   1.743   3.413  0.9043 -0.2428 -0.6583
 3721SOL    HW122796   3.313   1.719   3.361  0.2544 -1.1271 -1.2209
 3721SOL    HW222797   3.164   1.699   3.367  0.9370  0.7706 -1.6883
 3722SOL     OW22798   1.770   0.971  16.988 -0.1429 -0.8083 -0.1331
 3722SOL    HW122799   1.773   0.917  16.909 -1.0091  1.0904 -1.4676
 3722SOL    HW222800   1.863   0.969  17.013 -0.0593 -1.2476 -0.4775
 3723SOL     OW22801   0.966   0.169  17.420  0.2407 -0.4675  0.1471
 3723SOL    HW122802   0.908   0.172  17.344  0.4942  0.9732  0.0112
 3723SOL    HW222803   1.052   0.139  17.388 -0.7353 -1.4965 -1.5277
 3724SOL     OW22804   1.404   0.586  14.738 -0.1392  0.3493 -0.4899
 3724SOL    HW122805   1.405   0.682  14.741  2.2034  0.3476 -1.1261
 3724SOL    HW222806   1.440   0.573  14.650 -0.5734  0.1418 -0.6328
 3725SOL     OW22807   1.224   2.702   5.882 -0.3169  0.1207 -0.3311
 3725SOL    HW122808   1.281   2.683   5.808 -0.8134 -1.7199 -0.2360
 3725SOL    HW222809   1.275   2.667   5.955 -0.3290  0.4752 -0.1525
 3726SOL     OW22810   2.482   1.916  14.035  0.2409  0.2588  0.2944
 3726SOL    HW122811   2.505   1.886  14.123  1.4871  0.6058  0.0940
 3726SOL    HW222812   2.529   1.852  13.981 -1.1422 -1.0967  0.7107
 3727SOL     OW22813   0.703   2.270   2.886 -0.1505 -0.3361  0.1068
 3727SOL    HW122814   0.758   2.212   2.939 -0.2524  1.1623  1.8575
 3727SOL    HW222815   0.751   2.352   2.876  0.1934 -0.3088  1.9823
 3728SOL     OW22816   0.073   0.609   7.959  0.0582  0.1350  0.4031
 3728SOL    HW122817   0.167   0.592   7.954 -0.1376 -0.2755 -1.9624
 3728SOL    HW222818   0.060   0.621   7.865  2.4650 -1.5968 -0.1302
 3729SOL     OW22819   1.297   0.363  10.728 -0.3348 -0.2211  0.1036
 3729SOL    HW122820   1.322   0.288  10.782  0.5994  0.5473  0.7401
 3729SOL    HW222821   1.236   0.319  10.669  0.4662  0.7399 -1.4357
 3730SOL     OW22822   1.075   3.653   4.108  0.8227 -0.4899 -0.2650
 3730SOL    HW122823   1.021   3.578   4.130 -2.3757  1.0265 -2.9091
 3730SOL    HW222824   1.007   3.720   4.096  1.2191  0.5396  3.4262
 3731SOL     OW22825   4.560   3.926   9.891 -0.0889  0.1224  0.1473
 3731SOL    HW122826   4.652   3.917   9.867 -0.2830 -1.0844 -0.1129
 3731SOL    HW222827   4.503   3.893   9.821 -1.0599 -1.5163  1.7171
 3732SOL     OW22828   0.110   0.360   1.069  0.6012 -0.2724  0.1139
 3732SOL    HW122829   0.139   0.315   1.148 -0.4711  0.7760  1.0993
 3732SOL    HW222830   0.098   0.448   1.105  1.6511 -0.4536  0.8996
 3733SOL     OW22831   4.142   3.869   6.874  0.3654 -0.1034  0.3027
 3733SOL    HW122832   4.227   3.914   6.866  0.5025 -0.4882 -0.3776
 3733SOL    HW222833   4.094   3.948   6.901  0.1804 -0.1963  0.2408
 3734SOL     OW22834   3.802   1.485   3.090  0.0289  0.0685  0.3161
 3734SOL    HW122835   3.798   1.514   2.998  0.3949 -1.6975 -0.2465
 3734SOL    HW222836   3.737   1.536   3.139 -1.0734  0.9441 -2.0424
 3735SOL     OW22837   3.539   0.512   5.965  0.2304 -0.0486  0.4690
 3735SOL    HW122838   3.488   0.519   5.884 -0.5146  0.6247  0.9958
 3735SOL    HW222839   3.627   0.506   5.928  0.5152 -0.9382  1.2745
 3736SOL     OW22840   1.351   2.897  17.149 -0.7692  0.4951  0.4162
 3736SOL    HW122841   1.418   2.829  17.157 -0.8824  0.6906  2.9278
 3736SOL    HW222842   1.270   2.848  17.138 -0.7137  0.3364  0.7229
 3737SOL     OW22843   1.471   4.054   5.174 -0.2514 -0.4301  0.2947
 3737SOL    HW122844   1.501   4.068   5.264 -0.9268  0.2162  0.4264
 3737SOL    HW222845   1.468   4.144   5.142  0.7373 -0.0961  1.1572
 3738SOL     OW22846   1.288   2.203   3.844 -0.8219 -0.5410 -0.3447
 3738SOL    HW122847   1.350   2.263   3.803 -0.7315 -1.2564 -1.2550
 3738SOL    HW222848   1.204   2.245   3.828 -0.8415  0.0803  1.3250
 3739SOL     OW22849   2.346   4.168   3.815  0.1604  0.3349  0.1660
 3739SOL    HW122850   2.380   4.125   3.737 -0.5574 -0.1478  0.1163
 3739SOL    HW222851   2.340   4.259   3.786 -2.4407  0.7402  1.9219
 3740SOL     OW22852   3.274   3.296   7.933  0.1818 -0.2154 -0.1286
 3740SOL    HW122853   3.271   3.375   7.879  0.3677  0.8175  1.3604
 3740SOL    HW222854   3.301   3.333   8.017 -0.9828  0.8595 -0.2229
 3741SOL     OW22855   3.837   4.712   6.981 -0.3322  0.2581  0.2204
 3741SOL    HW122856   3.857   4.707   6.887  2.2144  2.7277  0.6077
 3741SOL    HW222857   3.831   0.070   6.983 -3.4036  0.0280  1.3552
 3742SOL     OW22858   4.540   3.293  16.136 -0.4283  0.3655 -0.3661
 3742SOL    HW122859   4.472   3.346  16.177 -0.3420  0.8194 -0.8115
 3742SOL    HW222860   4.500   3.294  16.049 -0.8502  1.8059 -0.1600
 3743SOL     OW22861   0.764   0.551   6.409 -0.0905 -0.0991 -0.0727
 3743SOL    HW122862   0.790   0.592   6.326 -0.2580  1.0512  0.4399
 3743SOL    HW222863   0.683   0.598   6.424  0.8673  0.7702  2.3353
 3744SOL     OW22864   4.590   2.898   2.819 -0.2559  0.0804  0.1983
 3744SOL    HW122865   4.497   2.915   2.806 -0.3021 -1.0301 -0.9498
 3744SOL    HW222866   4.604   2.891   2.914 -0.1413 -0.1882  0.1624
 3745SOL     OW22867   3.152   4.314   2.853  0.3500 -0.0458  0.8935
 3745SOL    HW122868   3.144   4.242   2.789 -0.7299  0.9200 -0.0438
 3745SOL    HW222869   3.097   4.381   2.813 -1.0583 -0.9347  1.3197
 3746SOL     OW22870   1.738   2.563   8.316 -0.1966 -0.0451 -0.3714
 3746SOL    HW122871   1.816   2.584   8.266  1.1877 -0.9945  1.4159
 3746SOL    HW222872   1.758   2.474   8.347  0.0649  0.0753 -0.2023
 3747SOL     OW22873   1.915   2.690   0.724  0.1100  0.3628 -0.0052
 3747SOL    HW122874   1.984   2.753   0.700  1.1512 -1.3934 -1.5567
 3747SOL    HW222875   1.843   2.725   0.672  2.3112  1.8791 -2.0399
 3748SOL     OW22876   2.352   0.654   3.504 -0.2688  0.8120  0.0550
 3748SOL    HW122877   2.396   0.666   3.419  1.5876 -0.4165  0.8311
 3748SOL    HW222878   2.322   0.743   3.521  2.0372  1.4724  0.7732
 3749SOL     OW22879   3.138   1.628  17.142  0.1953  0.2308 -0.3120
 3749SOL    HW122880   3.206   1.695  17.132 -0.2099  0.9106  1.5823
 3749SOL    HW222881   3.075   1.653  17.075 -0.9733 -0.3831  0.5568
 3750SOL     OW22882   3.519   0.587   2.836  0.2691 -0.1277 -0.1171
 3750SOL    HW122883   3.601   0.635   2.848 -0.2213  0.6879  0.0206
 3750SOL    HW222884   3.520   0.578   2.740 -0.2907  0.5808 -0.1933
 3751SOL     OW22885   2.246   4.555   5.309 -0.2544 -0.1751  0.2726
 3751SOL    HW122886   2.154   4.529   5.304 -0.1490 -0.5435  0.2851
 3751SOL    HW222887   2.253   4.630   5.250 -0.5589 -0.4525 -0.1192
 3752SOL     OW22888   3.506   0.719   8.773  0.3311  0.0326  0.6098
 3752SOL    HW122889   3.456   0.779   8.828 -1.8353  0.3093 -1.6697
 3752SOL    HW222890   3.580   0.700   8.831 -0.8783  0.7194  2.3765
 3753SOL     OW22891   0.933   0.089   2.594  0.0427 -0.5852 -0.0848
 3753SOL    HW122892   0.878   0.167   2.586 -0.4317 -0.9939 -0.8515
 3753SOL    HW222893   1.005   0.119   2.538 -1.3598  1.5232 -0.7591
 3754SOL     OW22894   3.013   0.801   3.182  0.1759  0.1692 -0.3858
 3754SOL    HW122895   3.090   0.848   3.150  0.3644  1.4039  1.9013
 3754SOL    HW222896   2.938   0.836   3.135 -0.7559 -1.4574 -0.1140
 3755SOL     OW22897   4.305   2.578   2.952 -0.2657 -0.0708  0.4659
 3755SOL    HW122898   4.345   2.665   2.958  0.4450 -0.4187  0.8863
 3755SOL    HW222899   4.219   2.602   2.919 -0.4765  0.5279  1.4446
 3756SOL     OW22900   0.547   2.400  10.148  0.2320  0.1337  0.1842
 3756SOL    HW122901   0.532   2.306  10.161  0.3076 -0.0168 -0.8372
 3756SOL    HW222902   0.501   2.445  10.219  0.4310 -0.3412  0.6191
 3757SOL     OW22903   1.912   2.236   0.973  0.4034  0.0587 -0.0270
 3757SOL    HW122904   1.900   2.322   0.932 -0.6181 -0.1956 -0.2750
 3757SOL    HW222905   1.914   2.191   0.888 -1.2650 -0.7622  0.3682
 3758SOL     OW22906   2.157   3.992  15.615 -0.4802 -0.3133  0.3740
 3758SOL    HW122907   2.093   3.975  15.684  0.7160  0.1616  1.6118
 3758SOL    HW222908   2.103   3.965  15.541 -0.5827 -0.1320  0.3811
 3759SOL     OW22909   1.414   1.074  17.649  0.2088  0.2169 -0.3972
 3759SOL    HW122910   1.387   1.080  17.558 -0.0478 -2.6532 -0.5303
 3759SOL    HW222911   1.497   1.025  17.643 -1.7801 -2.9145 -2.7020
 3760SOL     OW22912   2.414   0.865  17.115 -0.3489  0.1089 -0.3244
 3760SOL    HW122913   2.360   0.826  17.047 -0.4086  2.0408 -1.3549
 3760SOL    HW222914   2.348   0.858  17.184 -0.0824 -2.4108 -0.3218
 3761SOL     OW22915   0.815   0.957   9.927 -0.2057 -0.2674  0.0827
 3761SOL    HW122916   0.906   0.982   9.939 -0.2880 -0.6011  1.3938
 3761SOL    HW222917   0.811   0.879   9.982 -1.5946 -0.1205  0.2039
 3762SOL     OW22918   0.087   1.221  11.204  0.1036 -0.2690  0.4834
 3762SOL    HW122919   0.082   1.156  11.134  0.0017  1.6428 -1.2761
 3762SOL    HW222920   0.171   1.257  11.175 -1.1948  2.2407 -0.0748
 3763SOL     OW22921   4.540   4.651   6.192 -0.3400 -0.1997 -0.1596
 3763SOL    HW122922   4.509   4.736   6.224 -0.5661 -0.7966  1.2225
 3763SOL    HW222923   4.599   4.675   6.120  0.6154 -1.0186  0.3457
 3764SOL     OW22924   0.954   0.329   9.444  0.4344  0.0194 -0.2195
 3764SOL    HW122925   0.900   0.401   9.412 -0.4549 -0.2865  0.5960
 3764SOL    HW222926   0.957   0.286   9.359  0.9516 -0.3515 -0.0166
 3765SOL     OW22927   1.852   2.810  10.438  0.4515  0.0690 -0.5944
 3765SOL    HW122928   1.840   2.723  10.475 -0.4319  0.8170  0.8961
 3765SOL    HW222929   1.788   2.810  10.367  1.9298  0.7444 -1.9069
 3766SOL     OW22930   2.143   1.690   0.263 -0.1051 -0.1294 -0.5583
 3766SOL    HW122931   2.065   1.652   0.302  0.5580 -1.3547 -0.4050
 3766SOL    HW222932   2.134   1.650   0.176 -1.4522  0.0933 -0.5215
 3767SOL     OW22933   1.187   3.328   2.039  0.2527  0.3488 -0.4942
 3767SOL    HW122934   1.144   3.399   1.992 -0.2293 -1.0452 -2.1570
 3767SOL    HW222935   1.268   3.373   2.061 -0.3513  1.2523 -0.1222
 3768SOL     OW22936   2.503   1.462   4.518  0.7161  0.0623  0.4488
 3768SOL    HW122937   2.521   1.486   4.427  3.7967 -2.1242  0.4778
 3768SOL    HW222938   2.416   1.498   4.534  1.2814  2.3249 -1.5978
 3769SOL     OW22939   0.302   1.900   4.866  0.1837 -0.4491 -0.0414
 3769SOL    HW122940   0.242   1.919   4.938 -0.8920  0.0205 -1.0556
 3769SOL    HW222941   0.384   1.891   4.914  0.5323 -1.5045 -0.8239
 3770SOL     OW22942   1.458   0.844   5.973 -0.1674  0.2007 -0.1606
 3770SOL    HW122943   1.540   0.878   6.009  0.6169 -1.2509 -0.5558
 3770SOL    HW222944   1.394   0.902   6.014 -1.0701 -0.9300  0.0266
 3771SOL     OW22945   2.808   2.072   4.689 -0.2823  0.0297 -0.2875
 3771SOL    HW122946   2.785   2.143   4.748 -0.2860  0.3743 -0.7041
 3771SOL    HW222947   2.854   2.010   4.746  0.4210  0.9495  0.1405
 3772SOL     OW22948   3.464   0.960   6.762  0.4801 -0.0548 -0.0029
 3772SOL    HW122949   3.507   0.902   6.699 -0.4524 -2.5139  1.6165
 3772SOL    HW222950   3.498   0.925   6.845 -0.9120  0.4931  0.8008
 3773SOL     OW22951   4.489   4.270  17.293 -0.2020 -0.3191  0.2817
 3773SOL    HW122952   4.546   4.346  17.308 -1.9603  1.3771 -1.7678
 3773SOL    HW222953   4.544   4.199  17.329 -1.0284 -1.9991 -1.7996
 3774SOL     OW22954   4.387   1.122   4.247 -0.3061  0.1445  0.0587
 3774SOL    HW122955   4.395   1.119   4.151 -1.3613  1.4827 -0.0689
 3774SOL    HW222956   4.298   1.154   4.256  0.4831  2.3305  0.0623
 3775SOL     OW22957   1.817   3.690  14.798 -0.3422 -0.3885  0.0630
 3775SOL    HW122958   1.843   3.718  14.710  0.1938 -1.2696 -0.0529
 3775SOL    HW222959   1.728   3.661  14.778 -0.8211  0.6805  0.6283
 3776SOL     OW22960   2.415   2.073   4.198 -0.7954  0.1430  0.3037
 3776SOL    HW122961   2.358   2.141   4.235 -1.0165  0.7917 -1.2167
 3776SOL    HW222962   2.354   2.000   4.187  0.8139 -1.3768  1.5336
 3777SOL     OW22963   3.151   1.736   2.887  0.5702 -0.0657  0.5012
 3777SOL    HW122964   3.066   1.693   2.896 -0.3143  2.3018  3.4907
 3777SOL    HW222965   3.140   1.782   2.804  3.3174  2.4199  1.5526
 3778SOL     OW22966   1.324   2.288   8.634  0.0400  0.0864 -0.4835
 3778SOL    HW122967   1.347   2.381   8.636 -0.1349  0.1006  0.5473
 3778SOL    HW222968   1.407   2.241   8.629  0.6195  1.1878 -1.2786
 3779SOL     OW22969   0.239   4.214   1.020 -0.4694 -0.3639  0.2447
 3779SOL    HW122970   0.283   4.298   1.030 -0.3792 -0.5754  1.5986
 3779SOL    HW222971   0.301   4.144   1.038 -0.1728 -0.3436 -0.7038
 3780SOL     OW22972   3.452   4.633   5.022  0.3487 -0.2711 -0.4067
 3780SOL    HW122973   3.397   4.648   5.098 -0.3084 -1.7430 -0.5881
 3780SOL    HW222974   3.530   4.679   5.054 -0.2030  0.8853 -0.7501
 3781SOL     OW22975   3.503   3.297  15.465 -0.1815 -0.2444 -0.1011
 3781SOL    HW122976   3.453   3.231  15.513 -0.3889 -0.1549 -0.1944
 3781SOL    HW222977   3.459   3.376  15.497 -0.9197 -1.2207  1.2859
 3782SOL     OW22978   4.363   1.703   6.446  0.4213 -0.0954 -0.3662
 3782SOL    HW122979   4.330   1.687   6.357 -2.0349  0.3202  0.4874
 3782SOL    HW222980   4.284   1.695   6.499  0.5741 -0.5201 -0.2022
 3783SOL     OW22981   2.556   0.927   1.941  0.3201 -0.3168  0.0599
 3783SOL    HW122982   2.558   0.860   2.009  0.5498  1.1585  1.5009
 3783SOL    HW222983   2.579   1.010   1.984 -1.2727  0.6172 -0.8699
 3784SOL     OW22984   1.174   3.002   1.350  0.0267  0.3352 -0.0920
 3784SOL    HW122985   1.141   2.979   1.263 -2.6202 -1.4473  1.3701
 3784SOL    HW222986   1.121   2.945   1.405 -1.8969  1.7544 -0.4448
 3785SOL     OW22987   4.196   0.076   8.886 -0.2099  0.1377  0.1607
 3785SOL    HW122988   4.212   0.160   8.930 -0.1656  0.9659 -1.4235
 3785SOL    HW222989   4.273   0.082   8.829  0.7428 -0.9280  1.3405
 3786SOL     OW22990   2.857   3.291   7.123  0.4537 -0.6092 -0.1548
 3786SOL    HW122991   2.917   3.354   7.163 -0.1075 -1.2094  1.6413
 3786SOL    HW222992   2.904   3.275   7.041  2.6462 -1.3957  1.2711
 3787SOL     OW22993   2.347   0.398   5.475 -0.1414 -0.2822  0.3135
 3787SOL    HW122994   2.404   0.358   5.541 -1.6068 -2.2074  0.4213
 3787SOL    HW222995   2.387   0.485   5.476 -0.8752  0.0793 -2.3695
 3788SOL     OW22996   3.406   4.368  11.943  0.1357 -0.3948  0.7173
 3788SOL    HW122997   3.497   4.355  11.971  0.3685  1.1411  0.7000
 3788SOL    HW222998   3.409   4.356  11.848  0.7333  0.5082  0.6183
 3789SOL     OW22999   2.022   4.214  16.210  0.1398  0.0814 -0.4496
 3789SOL    HW123000   2.025   4.265  16.129  1.5838  1.1241  0.2502
 3789SOL    HW223001   1.928   4.203  16.217 -0.0886  3.0104  1.0085
 3790SOL     OW23002   0.031   0.310   3.140  0.2696 -0.0834 -0.3070
 3790SOL    HW123003   4.679   0.278   3.132 -0.4530  1.4868  1.4390
 3790SOL    HW223004   0.066   0.282   3.055 -0.6737  0.6607 -0.9403
 3791SOL     OW23005   0.488   4.593   9.353  0.0423 -0.1102 -0.1757
 3791SOL    HW123006   0.450   4.523   9.407  0.4693  1.2198  1.8379
 3791SOL    HW223007   0.580   4.565   9.356 -0.4499 -1.2452  4.0880
 3792SOL     OW23008   4.016   2.949   1.050  0.1471  0.7816 -0.3575
 3792SOL    HW123009   3.980   2.994   0.973 -2.7419 -0.7281  0.0979
 3792SOL    HW223010   4.106   2.932   1.022  0.2285 -1.2404  1.1469
 3793SOL     OW23011   1.356   1.756   2.493 -0.0878 -0.1153  0.2346
 3793SOL    HW123012   1.353   1.825   2.426 -1.3960  1.3191  1.7848
 3793SOL    HW223013   1.392   1.686   2.438  0.0423 -1.0788  1.5657
 3794SOL     OW23014   0.639   1.450  12.024 -0.7251 -0.2439 -0.6490
 3794SOL    HW123015   0.590   1.504  11.962  1.6397  1.4687 -1.0289
 3794SOL    HW223016   0.629   1.364  11.985  0.6036 -1.3204  1.4022
 3795SOL     OW23017   2.941   0.414   3.888 -0.2305  0.0355 -0.3327
 3795SOL    HW123018   3.003   0.358   3.935  0.8376  2.2507  0.8691
 3795SOL    HW223019   2.894   0.349   3.836 -1.1485 -0.1080  0.6822
 3796SOL     OW23020   4.260   4.199   8.834 -0.6532  0.6486  0.2553
 3796SOL    HW123021   4.299   4.160   8.756  1.9454 -1.1351  2.4428
 3796SOL    HW223022   4.183   4.143   8.848 -1.0098  1.2079  0.5392
 3797SOL     OW23023   0.087   0.550   1.287  0.1935  0.8008 -0.1901
 3797SOL    HW123024   4.729   0.546   1.282  0.3709 -0.2797 -2.6241
 3797SOL    HW223025   0.098   0.603   1.366  0.7594 -0.4177  0.5650
 3798SOL     OW23026   2.863   0.978   6.789 -0.2278 -0.5872 -0.0136
 3798SOL    HW123027   2.819   0.957   6.871 -1.4962 -2.3152 -1.1245
 3798SOL    HW223028   2.936   0.917   6.789  0.7926  0.6496  3.0111
 3799SOL     OW23029   1.287   4.134  14.654  0.6382 -0.3720  0.0977
 3799SOL    HW123030   1.213   4.098  14.702  0.1628 -0.3625 -0.6195
 3799SOL    HW223031   1.291   4.059  14.594 -0.0942  1.2329 -1.9691
 3800SOL     OW23032   0.174   3.059  16.107 -0.3074  0.0320  0.0513
 3800SOL    HW123033   0.121   3.078  16.030 -0.8193 -0.3396  0.3147
 3800SOL    HW223034   0.222   3.141  16.122  1.8125 -1.2594  0.2786
 3801SOL     OW23035   2.898   4.472   7.182  0.3284  0.4141  0.2012
 3801SOL    HW123036   2.935   4.561   7.175 -2.2892  1.4819  0.1150
 3801SOL    HW223037   2.803   4.482   7.174  0.1902 -0.1239  1.1806
 3802SOL     OW23038   1.486   3.547   5.598  0.4747  0.1719  0.4174
 3802SOL    HW123039   1.482   3.494   5.518 -0.7321  0.1334  0.4934
 3802SOL    HW223040   1.445   3.495   5.668 -1.3934  0.8256 -0.1935
 3803SOL     OW23041   2.620   0.023   8.712 -0.2385 -0.0674 -0.1829
 3803SOL    HW123042   2.594   0.007   8.621 -2.1755 -1.9651  0.7104
 3803SOL    HW223043   2.549   0.086   8.728 -0.1676 -0.5395  1.9196
 3804SOL     OW23044   0.575   4.544  13.015  0.3136  0.4892  0.5014
 3804SOL    HW123045   0.622   4.484  13.073  0.3348 -1.7676 -1.7934
 3804SOL    HW223046   0.581   4.622  13.070 -0.4912  0.2496  0.9306
 3805SOL     OW23047   3.912   0.554  12.455  0.1493 -0.2313 -0.1334
 3805SOL    HW123048   3.817   0.558  12.470 -0.1324  1.8633 -2.4457
 3805SOL    HW223049   3.938   0.624  12.515  0.7456  0.2904 -1.0124
 3806SOL     OW23050   2.053   3.886   7.048 -0.4187  0.7586  0.2751
 3806SOL    HW123051   2.144   3.876   7.019 -1.3044  0.7005 -2.4162
 3806SOL    HW223052   2.062   3.845   7.135  2.4228  2.2762  0.6967
 3807SOL     OW23053   1.013   1.400   4.669  0.0268  0.1040 -0.1500
 3807SOL    HW123054   1.099   1.434   4.645 -0.2418  0.2250 -0.9600
 3807SOL    HW223055   1.023   1.314   4.627  0.8970  0.3779 -0.5039
 3808SOL     OW23056   2.972   0.080   6.926  0.1881 -0.2242 -0.3447
 3808SOL    HW123057   3.024   0.105   7.002  0.2314 -0.3699 -0.3272
 3808SOL    HW223058   3.028   0.015   6.885  0.8457 -0.1963  0.5146
 3809SOL     OW23059   1.337   2.549   8.617 -0.1936 -0.1630 -0.3685
 3809SOL    HW123060   1.342   2.643   8.635 -1.3610 -0.5166  1.7887
 3809SOL    HW223061   1.242   2.540   8.607 -0.2481  0.3060 -0.2536
 3810SOL     OW23062   1.757   4.716   3.731  0.1581 -0.0703  0.1947
 3810SOL    HW123063   1.714   0.038   3.791 -1.3534 -0.6063 -0.3405
 3810SOL    HW223064   1.778   4.644   3.791 -2.3684  0.6939  1.9736
 3811SOL     OW23065   1.686   3.286   8.249 -0.9834  0.6219  0.6634
 3811SOL    HW123066   1.710   3.331   8.168 -0.8888 -1.4291 -0.4419
 3811SOL    HW223067   1.631   3.222   8.205 -0.4182  1.1301 -0.7911
 3812SOL     OW23068   2.152   2.469  15.439 -0.6220 -0.3170 -0.1524
 3812SOL    HW123069   2.164   2.408  15.366  0.9325 -0.4133  0.1942
 3812SOL    HW223070   2.130   2.547  15.387 -0.5852  1.0262  1.8642
 3813SOL     OW23071   1.267   4.207   2.250  0.4639  0.4694  0.0852
 3813SOL    HW123072   1.262   4.218   2.155  1.3389  0.8704  0.0933
 3813SOL    HW223073   1.217   4.126   2.262  1.3429  0.0473  0.9304
 3814SOL     OW23074   2.053   1.116   3.169 -0.1597 -0.9611  0.3317
 3814SOL    HW123075   1.981   1.071   3.211  1.1200 -4.0094 -0.6952
 3814SOL    HW223076   2.030   1.206   3.194 -0.9317 -0.9728 -0.3449
 3815SOL     OW23077   0.809   2.038   2.525  0.1452  0.6473  0.3365
 3815SOL    HW123078   0.743   2.030   2.593 -1.3290 -0.4701 -1.2257
 3815SOL    HW223079   0.886   1.999   2.566  0.1022 -0.1080 -0.2815
 3816SOL     OW23080   0.800   3.155   5.866 -0.4527 -0.7233  0.2538
 3816SOL    HW123081   0.726   3.208   5.895  0.8696  0.2077  1.9612
 3816SOL    HW223082   0.756   3.070   5.869 -1.3700 -0.2034  1.3663
 3817SOL     OW23083   0.160   1.402   3.630 -0.3482 -0.0126  0.3554
 3817SOL    HW123084   0.074   1.443   3.636 -0.9603 -1.1351 -0.6152
 3817SOL    HW223085   0.185   1.437   3.544 -0.9142 -0.5733 -0.0444
 3818SOL     OW23086   1.330   0.375  17.302  0.4640  0.1874 -0.0727
 3818SOL    HW123087   1.303   0.328  17.223  1.9466  0.9551 -1.0355
 3818SOL    HW223088   1.318   0.462  17.264 -0.5642  0.3606  0.6685
 3819SOL     OW23089   1.209   1.498   4.016 -0.2391  0.0115  0.1500
 3819SOL    HW123090   1.173   1.483   3.928  0.5772 -0.0843 -0.1750
 3819SOL    HW223091   1.193   1.411   4.054  3.7222 -1.8064 -2.2921
 3820SOL     OW23092   1.180   1.294   0.839 -0.1324 -0.2238 -0.6362
 3820SOL    HW123093   1.203   1.280   0.931 -3.0342  3.1899  0.5917
 3820SOL    HW223094   1.256   1.343   0.807  1.5532 -0.7631  2.5220
 3821SOL     OW23095   3.853   4.055   3.120  0.0624 -0.2726  0.0761
 3821SOL    HW123096   3.819   4.119   3.057  2.4864  0.2716 -0.6521
 3821SOL    HW223097   3.773   4.037   3.169  1.1245 -0.0419  1.8683
 3822SOL     OW23098   0.380   1.152   7.797 -0.0459  0.0823 -0.5283
 3822SOL    HW123099   0.389   1.130   7.704 -0.0078  0.4666 -0.6187
 3822SOL    HW223100   0.328   1.232   7.783  0.1237  0.4888  1.2446
 3823SOL     OW23101   0.087   0.481  15.895 -0.1157  0.0636  0.4180
 3823SOL    HW123102   0.011   0.537  15.881 -0.6017 -0.5904  0.4400
 3823SOL    HW223103   0.158   0.545  15.888 -0.2602 -0.2484 -3.4222
 3824SOL     OW23104   3.665   0.033   7.759 -0.5746 -0.3226 -0.1590
 3824SOL    HW123105   3.717   0.018   7.839 -0.8032 -0.3087 -0.0088
 3824SOL    HW223106   3.576   0.045   7.793  0.0378  0.8992  1.0352
 3825SOL     OW23107   3.927   2.801   2.728 -0.6116 -0.3644 -0.9291
 3825SOL    HW123108   3.968   2.880   2.695  1.7263 -1.1097  0.2271
 3825SOL    HW223109   3.904   2.754   2.648  0.5419  0.3137 -1.6467
 3826SOL     OW23110   4.308   2.462   8.445  0.6490 -0.1914 -0.2697
 3826SOL    HW123111   4.292   2.435   8.355  1.3550 -2.5959  0.3523
 3826SOL    HW223112   4.341   2.552   8.437 -1.1909  0.2758 -2.8329
 3827SOL     OW23113   0.579   1.743   4.771  0.1562  0.5649  0.2557
 3827SOL    HW123114   0.673   1.738   4.789  0.0262 -2.1191  0.2337
 3827SOL    HW223115   0.542   1.703   4.850  1.0945 -0.4241  0.1972
 3828SOL     OW23116   2.478   1.541   5.966 -0.3952 -0.5902 -0.3189
 3828SOL    HW123117   2.398   1.589   5.950 -1.2701 -2.2774 -1.0191
 3828SOL    HW223118   2.511   1.525   5.878 -0.8670 -0.6137 -0.4905
 3829SOL     OW23119   0.008   4.706   3.605  0.0790  0.1376 -0.2727
 3829SOL    HW123120   4.727   0.021   3.683 -1.1441 -0.7373  0.0237
 3829SOL    HW223121   0.078   4.655   3.645  1.0405  1.7516  0.1171
 3830SOL     OW23122   0.677   0.656   2.908 -0.1416 -0.5492 -0.0610
 3830SOL    HW123123   0.684   0.692   2.820  0.8636  0.0966  0.2836
 3830SOL    HW223124   0.585   0.664   2.933  0.1833 -1.1900  1.3507
 3831SOL     OW23125   1.049   0.369   7.769  0.1091 -0.6000  0.4681
 3831SOL    HW123126   1.038   0.411   7.854 -2.4243 -1.8313  0.7639
 3831SOL    HW223127   0.997   0.290   7.784 -0.8650 -0.6864 -3.4191
 3832SOL     OW23128   4.064   2.957  12.935 -0.3910  0.5644 -0.0675
 3832SOL    HW123129   4.044   2.983  12.845 -0.6755  1.0283  0.1276
 3832SOL    HW223130   4.016   3.023  12.984  1.3995  1.9198 -0.1673
 3833SOL     OW23131   2.492   2.612   5.088 -0.3486  0.1092  0.1859
 3833SOL    HW123132   2.478   2.704   5.065 -0.7292 -0.4620 -1.7919
 3833SOL    HW223133   2.567   2.608   5.148 -0.9822 -0.3200  0.9487
 3834SOL     OW23134   2.377   3.914  15.339  0.0253 -0.8560  0.1160
 3834SOL    HW123135   2.457   3.966  15.345 -0.7275  0.1495  1.5425
 3834SOL    HW223136   2.387   3.867  15.256 -0.5538  0.2854 -0.5984
 3835SOL     OW23137   1.411   1.922   0.329  0.0224  0.3156 -0.3554
 3835SOL    HW123138   1.352   1.984   0.371 -2.3796 -2.0225 -0.3482
 3835SOL    HW223139   1.405   1.954   0.239  0.2416  3.8635  0.8889
 3836SOL     OW23140   4.619   0.674   7.234 -0.8943  0.0180 -0.6002
 3836SOL    HW123141   4.655   0.671   7.323 -0.4807 -0.4207 -0.7808
 3836SOL    HW223142   4.686   0.620   7.191 -2.6159 -2.2596 -0.4305
 3837SOL     OW23143   1.268   4.702   1.979  0.3981  0.4300 -0.4815
 3837SOL    HW123144   1.310   0.050   1.984  0.9276  0.1767 -0.6474
 3837SOL    HW223145   1.180   4.737   1.961 -0.6136 -2.3785 -1.0539
 3838SOL     OW23146   0.893   0.626   9.329 -0.7400 -0.2362  0.3043
 3838SOL    HW123147   0.860   0.701   9.279  0.7955 -0.4427 -1.0345
 3838SOL    HW223148   0.984   0.652   9.343 -0.0916 -2.6253  0.4242
 3839SOL     OW23149   4.250   3.044   6.271 -0.5044  0.2412 -0.4237
 3839SOL    HW123150   4.156   3.053   6.255 -0.5513  1.6916  0.7078
 3839SOL    HW223151   4.279   2.977   6.209  1.0758  1.1061 -0.6280
 3840SOL     OW23152   2.300   3.961   7.232 -0.7173  0.7761 -0.2438
 3840SOL    HW123153   2.348   4.042   7.243 -1.0778  0.8852  0.5507
 3840SOL    HW223154   2.312   3.948   7.138 -0.7877  2.3465 -0.4692
 3841SOL     OW23155   3.222   3.333   4.162 -0.2619 -0.4868  0.0095
 3841SOL    HW123156   3.297   3.281   4.191  0.3647  0.6889  0.4435
 3841SOL    HW223157   3.254   3.337   4.072 -1.4951 -1.3788 -0.4760
 3842SOL     OW23158   1.916   4.707   4.647  0.0392 -0.0352  0.2701
 3842SOL    HW123159   1.942   4.679   4.560  1.6388  2.6864 -0.1364
 3842SOL    HW223160   1.937   4.621   4.682 -0.4803 -0.3010 -0.0836
 3843SOL     OW23161   1.707   4.223   5.939  0.6114  0.1100  0.2951
 3843SOL    HW123162   1.752   4.215   6.023  1.5788  1.5252 -0.0961
 3843SOL    HW223163   1.740   4.142   5.899  0.2520  0.5596 -0.9132
 3844SOL     OW23164   1.038   1.561   0.034 -0.3164 -0.1889  0.6581
 3844SOL    HW123165   1.059   1.558  17.689  1.9450  1.2940  1.1172
 3844SOL    HW223166   1.127   1.560   0.070  0.2753  0.1092 -0.8040
 3845SOL     OW23167   3.491   1.869   3.377 -0.0126 -0.1483 -0.4951
 3845SOL    HW123168   3.462   1.895   3.464  0.5466  0.9939 -0.6472
 3845SOL    HW223169   3.447   1.932   3.320  1.8245  0.9321 -0.7226
 3846SOL     OW23170   3.460   3.937   5.354  0.1557 -0.1757  0.1786
 3846SOL    HW123171   3.423   3.993   5.422  2.1043  0.4728  0.7191
 3846SOL    HW223172   3.438   3.850   5.387  3.9841 -0.3682  2.1667
 3847SOL     OW23173   1.391   2.571   6.061  0.3688 -0.2043 -0.0282
 3847SOL    HW123174   1.361   2.480   6.068  0.8107 -0.0993  3.2057
 3847SOL    HW223175   1.425   2.574   6.151 -2.9389  1.7544  1.1716
 3848SOL     OW23176   3.977   3.793   6.261 -0.3527 -0.2105  0.0486
 3848SOL    HW123177   3.886   3.766   6.277 -1.3314  3.0650  0.0124
 3848SOL    HW223178   4.016   3.797   6.349  1.2075 -2.6587 -0.5256
 3849SOL     OW23179   3.565   2.251   5.010 -0.6282  0.0424 -0.3332
 3849SOL    HW123180   3.639   2.191   5.005  0.0044  0.5775  3.0392
 3849SOL    HW223181   3.591   2.300   5.088  1.8754 -0.6779 -0.7246
 3850SOL     OW23182   1.714   1.989   0.011 -1.0380 -0.7495  0.4811
 3850SOL    HW123183   1.659   1.965  17.685 -2.4709  1.3709  0.8367
 3850SOL    HW223184   1.710   2.084   0.020  1.6297 -0.4954 -1.1220
 3851SOL     OW23185   4.001   4.419   7.221  0.0814  0.2741 -0.1201
 3851SOL    HW123186   3.943   4.358   7.176 -0.7857  1.7229 -0.9639
 3851SOL    HW223187   4.054   4.350   7.261 -0.6101  0.5684  1.3072
 3852SOL     OW23188   2.274   2.321   7.677  0.0387 -0.0498 -0.1267
 3852SOL    HW123189   2.277   2.415   7.693  1.9303 -0.1625  0.1157
 3852SOL    HW223190   2.355   2.293   7.633 -0.1247  0.2256 -0.6048
 3853SOL     OW23191   4.318   3.888   2.998  0.5898 -0.1436 -0.1013
 3853SOL    HW123192   4.331   3.965   2.942  1.9634 -0.4282 -0.1836
 3853SOL    HW223193   4.228   3.898   3.030  0.3481 -0.6359 -0.6502
 3854SOL     OW23194   4.523   4.317  13.173 -0.0787 -0.0271  0.1478
 3854SOL    HW123195   4.462   4.256  13.216 -0.4229 -0.1779 -0.5606
 3854SOL    HW223196   4.593   4.336  13.235 -0.4004 -0.1486  0.5477
 3855SOL     OW23197   0.652   0.572   3.206  0.3245 -0.1513  0.4363
 3855SOL    HW123198   0.630   0.501   3.147 -0.8970  2.4575 -2.2388
 3855SOL    HW223199   0.725   0.606   3.155  0.3176  0.8161  1.0611
 3856SOL     OW23200   0.884   3.820   2.007 -0.9656 -0.3069  0.2105
 3856SOL    HW123201   0.822   3.837   2.078 -0.3468  0.3035  0.6063
 3856SOL    HW223202   0.854   3.882   1.940  3.1743 -0.7475 -2.0354
 3857SOL     OW23203   0.105   2.851  11.256  0.0916 -0.0044  0.5033
 3857SOL    HW123204   0.181   2.841  11.199 -0.7285 -2.1198 -0.2073
 3857SOL    HW223205   0.036   2.808  11.205 -0.6150 -2.4997  3.6182
 3858SOL     OW23206   1.806   3.648   9.186  0.3719 -0.3549  0.1504
 3858SOL    HW123207   1.750   3.724   9.165  0.1827  0.0687  2.2444
 3858SOL    HW223208   1.777   3.634   9.276  1.4454 -1.2422  0.3525
 3859SOL     OW23209   0.920   2.858  14.003 -0.1773  0.0187 -0.0673
 3859SOL    HW123210   0.947   2.844  13.913  1.3371  0.6771  0.2887
 3859SOL    HW223211   0.898   2.767  14.020  2.2257  0.2050  4.0660
 3860SOL     OW23212   4.599   1.119   3.768  0.4814  0.1257  0.3940
 3860SOL    HW123213   4.602   1.167   3.685  0.1536  0.1903  0.4233
 3860SOL    HW223214   4.569   1.030   3.753  1.1096  0.3394 -2.0625
 3861SOL     OW23215   0.847   0.674   5.447  0.0884 -0.6279 -0.0837
 3861SOL    HW123216   0.820   0.603   5.389 -2.6063 -0.7487  1.3264
 3861SOL    HW223217   0.925   0.697   5.396 -0.5939  0.9793 -0.3840
 3862SOL     OW23218   2.314   0.497   8.315 -0.0184 -0.3847 -0.2939
 3862SOL    HW123219   2.390   0.527   8.265  0.5554 -0.6367  0.4234
 3862SOL    HW223220   2.272   0.455   8.240 -0.1315  0.2158 -0.5599
 3863SOL     OW23221   0.063   0.381  12.587 -0.3163  0.1269  0.0925
 3863SOL    HW123222   0.073   0.404  12.679 -1.1625 -0.5373  0.3557
 3863SOL    HW223223   0.020   0.459  12.552 -0.2688 -0.1257 -0.5440
 3864SOL     OW23224   2.886   1.008  17.210 -1.0349  0.4834  0.2900
 3864SOL    HW123225   2.968   1.058  17.218 -0.7227 -0.1952  1.4035
 3864SOL    HW223226   2.878   0.985  17.118  0.2013 -0.1254  0.3319
 3865SOL     OW23227   0.738   4.600   8.872 -0.1693  0.4005  0.4400
 3865SOL    HW123228   0.673   4.654   8.916 -0.7497 -0.5050  0.7120
 3865SOL    HW223229   0.738   4.624   8.779 -0.1322  0.5215  0.4720
 3866SOL     OW23230   3.258   3.517   7.548 -0.3434  0.8036 -0.9814
 3866SOL    HW123231   3.345   3.499   7.512  0.1616 -1.3874  1.3115
 3866SOL    HW223232   3.210   3.438   7.522 -0.3881  0.1537  1.0152
 3867SOL     OW23233   4.410   3.254  15.911  0.1966 -0.5272  0.5064
 3867SOL    HW123234   4.378   3.165  15.897  0.4399 -0.5359 -0.0304
 3867SOL    HW223235   4.388   3.295  15.827 -1.2871 -0.5986  0.8718
 3868SOL     OW23236   3.488   2.981   7.005  0.1695  0.0336 -0.1777
 3868SOL    HW123237   3.516   3.063   7.044 -1.3457  0.7071 -0.5208
 3868SOL    HW223238   3.398   2.969   7.037 -0.0698 -1.3893 -1.3392
 3869SOL     OW23239   4.543   3.266   4.489 -0.0478 -0.0056 -0.6761
 3869SOL    HW123240   4.630   3.227   4.483 -0.2234  0.1955 -4.9377
 3869SOL    HW223241   4.505   3.230   4.569 -0.6448 -0.5647 -1.2089
 3870SOL     OW23242   0.763   3.673   9.939  0.1870 -0.4754 -0.2618
 3870SOL    HW123243   0.785   3.660  10.032 -0.6895  0.4403  0.0797
 3870SOL    HW223244   0.829   3.737   9.910  0.7770 -0.8988  0.1466
 3871SOL     OW23245   4.033   4.175  17.397  0.2806  0.0426  0.0440
 3871SOL    HW123246   3.981   4.244  17.438  0.1589  1.5962 -2.7139
 3871SOL    HW223247   4.111   4.226  17.376 -0.7871  1.4915 -0.4353
 3872SOL     OW23248   0.499   4.731   4.446 -0.1997  0.1089  0.0074
 3872SOL    HW123249   0.462   0.056   4.383  0.8755 -0.0019 -0.7219
 3872SOL    HW223250   0.463   0.032   4.526 -0.9882 -0.2766 -0.1543
 3873SOL     OW23251   0.069   3.762   4.712 -0.0423 -0.0487 -0.2896
 3873SOL    HW123252   4.736   3.823   4.687 -1.0442 -1.1541 -0.1748
 3873SOL    HW223253   0.142   3.822   4.728  0.2000 -0.2619 -0.6130
 3874SOL     OW23254   3.291   3.301   3.906 -0.3690  0.9213  0.2132
 3874SOL    HW123255   3.368   3.268   3.860 -1.4856 -0.2381 -0.8209
 3874SOL    HW223256   3.273   3.368   3.840 -1.3347  0.3809 -0.0792
 3875SOL     OW23257   3.092   0.502   8.131 -0.0065 -0.1709  0.1140
 3875SOL    HW123258   3.146   0.432   8.095  0.9922  0.3816  0.5401
 3875SOL    HW223259   3.160   0.569   8.127  2.5714 -2.8777 -1.0473
 3876SOL     OW23260   0.795   2.680   7.777 -0.1719  0.1398  0.1713
 3876SOL    HW123261   0.853   2.668   7.852 -1.7344 -0.3061  1.3057
 3876SOL    HW223262   0.824   2.611   7.718  0.9770  1.7870 -1.1969
 3877SOL     OW23263   4.639   4.340  12.926  0.4923 -0.0237 -0.0156
 3877SOL    HW123264   4.607   4.341  13.016  3.8074  1.4352  1.1319
 3877SOL    HW223265   4.629   4.249  12.899 -0.6753  0.5083 -1.3858
 3878SOL     OW23266   3.048   3.695   5.518 -0.1281 -0.2510 -0.1906
 3878SOL    HW123267   2.974   3.636   5.529 -0.9161  0.4108 -2.1170
 3878SOL    HW223268   3.001   3.779   5.518  0.9928  0.3761 -0.3621
 3879SOL     OW23269   2.083   3.162   4.738  0.9181  0.0544 -0.0906
 3879SOL    HW123270   2.064   3.209   4.820 -1.1521 -1.1385  0.1104
 3879SOL    HW223271   2.165   3.120   4.762  0.9716  0.8523  1.1525
 3880SOL     OW23272   3.571   2.564   6.579  0.0034 -0.1722  0.2724
 3880SOL    HW123273   3.585   2.658   6.594 -1.8184  0.0483  0.5858
 3880SOL    HW223274   3.545   2.567   6.487 -1.5991 -0.6240  0.7057
 3881SOL     OW23275   1.027   2.462   9.517  0.2741 -0.8227  0.1374
 3881SOL    HW123276   1.067   2.455   9.604  0.0814 -0.3128  0.2677
 3881SOL    HW223277   1.109   2.488   9.475 -0.3215 -1.0265 -1.1513
 3882SOL     OW23278   3.684   3.461   4.237 -0.2608 -0.2772 -0.2594
 3882SOL    HW123279   3.650   3.447   4.326  3.7884 -1.7291  1.0520
 3882SOL    HW223280   3.691   3.370   4.207 -2.5948 -0.8292  0.8184
 3883SOL     OW23281   4.603   0.345   8.301  0.5525 -0.0747  0.6199
 3883SOL    HW123282   4.538   0.370   8.236 -1.7411 -0.6724  2.6798
 3883SOL    HW223283   4.643   0.431   8.314 -0.3444  0.1769  1.7683
 3884SOL     OW23284   3.801   3.946   7.979 -0.6438 -0.0460  0.0634
 3884SOL    HW123285   3.730   3.965   8.040  0.7788 -0.7151  1.9403
 3884SOL    HW223286   3.812   4.037   7.950  1.7620  0.3594  2.1887
 3885SOL     OW23287   2.877   0.765   3.630 -0.0810  0.3718 -0.4095
 3885SOL    HW123288   2.948   0.759   3.566 -0.2290  0.8796 -0.6216
 3885SOL    HW223289   2.888   0.858   3.648  1.4696 -0.1450  1.3234
 3886SOL     OW23290   4.725   0.015  11.109  0.1856 -0.0973  0.5772
 3886SOL    HW123291   4.692   0.065  11.184 -2.4461  0.5667 -1.0168
 3886SOL    HW223292   4.728   4.666  11.151 -0.7886 -0.3879  0.0622
 3887SOL     OW23293   3.743   1.949  13.053 -0.1568  0.4492  0.1806
 3887SOL    HW123294   3.726   2.042  13.034  0.1880  0.8021  1.5413
 3887SOL    HW223295   3.825   1.962  13.103 -0.1410 -2.0661  0.7865
 3888SOL     OW23296   2.073   4.252   9.420 -0.1166 -0.6032  0.1276
 3888SOL    HW123297   2.121   4.278   9.341  0.9821  0.3760  1.1123
 3888SOL    HW223298   2.138   4.274   9.486  0.3814 -0.1349 -0.5112
 3889SOL     OW23299   4.104   0.468   6.945 -0.3311  0.0331  0.3449
 3889SOL    HW123300   4.060   0.398   6.993 -0.4765 -0.8597 -1.0894
 3889SOL    HW223301   4.105   0.533   7.015 -2.0058 -0.2663  0.6483
 3890SOL     OW23302   2.870   0.196  11.960 -0.4040  0.1861 -0.3458
 3890SOL    HW123303   2.865   0.289  11.935  0.5203  0.6188  1.0727
 3890SOL    HW223304   2.920   0.159  11.888 -0.8911 -2.7556  0.8524
 3891SOL     OW23305   3.051   3.429  15.263  0.0272  0.1487  0.3273
 3891SOL    HW123306   3.144   3.417  15.281  0.2938 -0.1931 -1.2826
 3891SOL    HW223307   3.059   3.503  15.204 -2.4615 -0.6963 -1.0742
 3892SOL     OW23308   3.632   0.884  16.040 -0.2884 -0.0078 -0.5356
 3892SOL    HW123309   3.714   0.921  16.009  0.1539  1.3592  2.2497
 3892SOL    HW223310   3.662   0.837  16.118 -1.6266  0.6587  0.3960
 3893SOL     OW23311   2.102   4.309   5.045 -0.3823 -0.3385  0.2902
 3893SOL    HW123312   2.060   4.366   5.109 -0.1337  0.0431  0.1130
 3893SOL    HW223313   2.027   4.260   5.012  0.8911 -0.7278 -2.0143
 3894SOL     OW23314   2.893   3.016   3.477  0.4842 -0.2652  0.6404
 3894SOL    HW123315   2.977   3.059   3.459 -1.7760  4.0723  0.3169
 3894SOL    HW223316   2.914   2.923   3.480 -1.4337 -0.6530  2.7080
 3895SOL     OW23317   1.297   3.125   8.176  0.1165  0.2065 -0.1673
 3895SOL    HW123318   1.306   3.185   8.101 -3.0157  1.2551  0.2972
 3895SOL    HW223319   1.224   3.159   8.227  1.2424 -1.2243  2.3915
 3896SOL     OW23320   2.016   0.781  16.625 -0.5934  0.0134 -0.2213
 3896SOL    HW123321   1.991   0.819  16.541  1.1885 -2.6661 -1.9400
 3896SOL    HW223322   1.948   0.820  16.680  0.0349  0.4294  0.2707
 3897SOL     OW23323   1.148   2.497  17.182 -0.0905 -0.2032  0.2531
 3897SOL    HW123324   1.091   2.464  17.112  1.5788 -2.8811  0.1495
 3897SOL    HW223325   1.157   2.590  17.161  1.3667 -0.3505  0.2583
 3898SOL     OW23326   4.369   0.237   1.683  0.3676  0.3313 -0.0597
 3898SOL    HW123327   4.459   0.246   1.716  1.1864  3.5181 -3.1593
 3898SOL    HW223328   4.373   0.267   1.592 -0.3037  0.8730  0.0887
 3899SOL     OW23329   0.908   0.164  10.323  0.0469 -0.1142 -0.0609
 3899SOL    HW123330   0.947   0.084  10.357  0.5747  0.8088  1.4857
 3899SOL    HW223331   0.828   0.126  10.284  0.0501  0.5033 -0.6749
 3900SOL     OW23332   3.662   3.205  13.851 -0.2380 -0.5617 -0.0576
 3900SOL    HW123333   3.646   3.282  13.906 -0.3502 -0.8311  0.2880
 3900SOL    HW223334   3.570   3.196  13.826  0.1311  0.5677 -1.8734
 3901SOL     OW23335   3.105   4.270   3.526 -0.2682  0.2215 -0.3745
 3901SOL    HW123336   3.049   4.201   3.561 -1.2520  1.4964  0.6061
 3901SOL    HW223337   3.042   4.335   3.496  0.5421  0.0908 -2.3066
 3902SOL     OW23338   2.218   3.026   7.678  0.0504  0.6269 -0.0449
 3902SOL    HW123339   2.145   2.970   7.650  0.3912 -0.5179  1.3431
 3902SOL    HW223340   2.236   2.985   7.763  1.4066  2.0450  0.3550
 3903SOL     OW23341   0.320   3.120   4.515 -0.7988  0.4271 -0.0425
 3903SOL    HW123342   0.382   3.121   4.588  0.2564 -2.4992 -0.8739
 3903SOL    HW223343   0.288   3.030   4.523  0.2560 -0.0521 -1.0992
 3904SOL     OW23344   3.358   3.157   8.731  0.0262  0.0952 -0.1068
 3904SOL    HW123345   3.356   3.104   8.812 -1.8851  2.0405  1.1280
 3904SOL    HW223346   3.399   3.091   8.676  0.8305 -1.0586  1.8630
 3905SOL     OW23347   3.345   0.321   4.352 -0.3860 -0.3910 -0.2155
 3905SOL    HW123348   3.388   0.278   4.426 -1.9321  1.3481  1.7119
 3905SOL    HW223349   3.345   0.409   4.391 -0.4069 -0.0581 -0.9709
 3906SOL     OW23350   1.727   4.324   4.652  0.4380 -0.5200  0.4264
 3906SOL    HW123351   1.774   4.314   4.569 -1.8946  0.0738 -0.9641
 3906SOL    HW223352   1.790   4.376   4.703  2.3865 -1.1125 -1.3835
 3907SOL     OW23353   0.889   0.081  17.662  0.0170 -0.0202 -0.2605
 3907SOL    HW123354   0.982   0.063  17.671 -0.1912 -0.1787  1.6498
 3907SOL    HW223355   0.886   0.127  17.578 -0.2290  0.5236  0.0441
 3908SOL     OW23356   4.388   3.955   7.679 -0.0947 -0.5317 -0.3371
 3908SOL    HW123357   4.315   3.908   7.721 -0.5608  0.4347 -0.0781
 3908SOL    HW223358   4.465   3.902   7.696  1.2816  0.8409 -2.3386
 3909SOL     OW23359   1.337   1.335   4.800  0.2224 -0.0610  0.4447
 3909SOL    HW123360   1.336   1.340   4.705 -0.1433  2.2637  0.5679
 3909SOL    HW223361   1.415   1.282   4.814  1.7832  2.1587  0.0272
 3910SOL     OW23362   0.893   0.402   0.781  0.7399 -0.3538 -0.5405
 3910SOL    HW123363   0.905   0.357   0.864 -1.3839 -0.1308 -0.1014
 3910SOL    HW223364   0.862   0.489   0.806  2.3741  0.0213  0.1299
 3911SOL     OW23365   0.374   0.853   8.380 -1.2369  0.0522  0.0306
 3911SOL    HW123366   0.412   0.906   8.450 -0.4326 -0.6454  0.1214
 3911SOL    HW223367   0.320   0.921   8.340 -0.9259 -0.7785 -1.8015
 3912SOL     OW23368   3.812   3.004   4.384 -0.1775 -0.1692 -0.0422
 3912SOL    HW123369   3.804   3.002   4.289  1.2820 -1.3120 -0.1496
 3912SOL    HW223370   3.735   2.953   4.410  0.0792 -0.1278  0.7936
 3913SOL     OW23371   2.604   2.614  11.895 -0.1425  0.3254  0.2581
 3913SOL    HW123372   2.642   2.659  11.820  0.7032 -2.4920 -0.9734
 3913SOL    HW223373   2.611   2.683  11.962  0.0684 -0.3393  0.9187
 3914SOL     OW23374   3.727   0.644   8.919  0.3666  0.1851  0.2792
 3914SOL    HW123375   3.748   0.727   8.961 -1.3116  0.6055  0.2745
 3914SOL    HW223376   3.808   0.619   8.875  0.4196 -0.2970  0.6570
 3915SOL     OW23377   3.279   0.371   4.099  0.5472 -0.0371 -0.7413
 3915SOL    HW123378   3.188   0.348   4.080  1.3033 -2.2691 -1.7099
 3915SOL    HW223379   3.286   0.339   4.189  0.5954 -1.5820 -1.2821
 3916SOL     OW23380   1.956   0.164   0.636 -0.0761 -0.0455 -0.2194
 3916SOL    HW123381   1.982   0.089   0.689  1.3241  0.6829  0.1309
 3916SOL    HW223382   1.866   0.142   0.616 -0.6401 -0.1246  2.4298
 3917SOL     OW23383   3.592   1.726   2.241  0.1545 -0.2319  0.0798
 3917SOL    HW123384   3.684   1.709   2.263  0.3182 -0.1163 -0.5025
 3917SOL    HW223385   3.571   1.805   2.291 -0.4008  0.2908 -0.9858
 3918SOL     OW23386   2.356   2.734   8.531  0.1833 -0.1274 -0.3469
 3918SOL    HW123387   2.373   2.807   8.590  1.5534 -2.5616  2.2385
 3918SOL    HW223388   2.386   2.661   8.585 -1.9104 -0.9168 -0.2403
 3919SOL     OW23389   1.290   2.279   7.636 -0.7078  0.7321  0.1114
 3919SOL    HW123390   1.350   2.317   7.571  1.4775  0.1860  1.8120
 3919SOL    HW223391   1.315   2.323   7.717  0.8317 -3.4010  1.8427
 3920SOL     OW23392   3.972   0.812   4.122  0.3710  0.5128  0.4000
 3920SOL    HW123393   3.893   0.773   4.161  0.9214 -0.7805  0.2326
 3920SOL    HW223394   4.001   0.740   4.066 -1.2091  0.8394 -0.8498
 3921SOL     OW23395   4.306   0.219   7.011  0.2585 -0.1301  0.0748
 3921SOL    HW123396   4.326   0.127   7.028  0.9273 -0.2111 -1.1102
 3921SOL    HW223397   4.321   0.223   6.916  0.6455  1.8856  0.2056
 3922SOL     OW23398   1.183   3.778  14.950 -0.4977  0.1940  0.2496
 3922SOL    HW123399   1.149   3.758  14.863  0.4294  1.0358 -0.3181
 3922SOL    HW223400   1.275   3.758  14.933 -0.4328  0.9904 -0.3619
 3923SOL     OW23401   3.685   4.732   3.501 -0.1784  0.0488  0.0063
 3923SOL    HW123402   3.639   0.019   3.421  1.1375  1.8552 -0.2061
 3923SOL    HW223403   3.769   0.035   3.479  0.2883 -0.1356  1.4666
 3924SOL     OW23404   0.829   1.793   3.907 -0.2139  0.0607 -0.0269
 3924SOL    HW123405   0.892   1.864   3.918 -0.1347  0.0788 -0.6342
 3924SOL    HW223406   0.779   1.815   3.828 -2.5089  0.5685  1.5432
 3925SOL     OW23407   3.752   0.937  16.647  0.6664 -0.0158 -0.0755
 3925SOL    HW123408   3.816   1.007  16.664  0.7529 -0.1727  0.2480
 3925SOL    HW223409   3.803   0.872  16.599 -0.2595 -0.8564  0.0932
 3926SOL     OW23410   1.031   0.607   1.776 -0.2269  0.4428  0.6980
 3926SOL    HW123411   0.982   0.688   1.768  1.1903  1.1793 -0.3489
 3926SOL    HW223412   0.975   0.551   1.722  0.9970  1.1188 -1.2641
 3927SOL     OW23413   0.255   4.025   4.071 -0.3726 -0.0814  0.3271
 3927SOL    HW123414   0.167   3.990   4.085 -0.7977  0.7143 -0.3472
 3927SOL    HW223415   0.258   4.078   4.150  0.8755  0.0990  0.1520
 3928SOL     OW23416   2.722   4.592   5.627  0.1188 -0.2000  0.0385
 3928SOL    HW123417   2.678   4.595   5.542 -1.8185 -0.6859  1.0087
 3928SOL    HW223418   2.673   4.658   5.677 -0.4901 -0.8637  0.3188
 3929SOL     OW23419   2.643   1.201   1.897 -0.1654  0.1136  0.5228
 3929SOL    HW123420   2.652   1.173   1.806 -3.6876  2.1542 -0.4386
 3929SOL    HW223421   2.731   1.177   1.926  0.6808  0.2783 -1.8767
 3930SOL     OW23422   0.839   4.676   7.210  0.4821 -0.0509  0.4899
 3930SOL    HW123423   0.901   4.703   7.142 -0.7539 -1.4421 -1.1995
 3930SOL    HW223424   0.778   4.621   7.160 -1.1981  2.1370  0.1473
 3931SOL     OW23425   3.457   1.198  12.338  0.7571  0.3614  0.2902
 3931SOL    HW123426   3.411   1.243  12.409  2.6476  0.4633  1.4630
 3931SOL    HW223427   3.389   1.140  12.305 -0.6773  2.2822 -0.1234
 3932SOL     OW23428   3.934   0.262   9.409  0.6968  0.0253  0.1903
 3932SOL    HW123429   3.926   0.238   9.501 -3.1970  1.4225  0.2193
 3932SOL    HW223430   3.886   0.346   9.407 -0.0237 -0.3192  4.1561
 3933SOL     OW23431   0.473   4.370   1.035 -0.3004 -0.1666  0.1363
 3933SOL    HW123432   0.471   4.400   0.944 -1.5206  0.2315  0.2844
 3933SOL    HW223433   0.527   4.291   1.035 -0.7864 -0.5021 -1.0406
 3934SOL     OW23434   3.592   2.781  10.096  0.4189 -0.5465  0.2495
 3934SOL    HW123435   3.641   2.760  10.177 -1.4066 -0.9547  1.2459
 3934SOL    HW223436   3.652   2.755  10.026  0.0222 -3.6969  1.0650
 3935SOL     OW23437   1.164   2.622  12.771  0.0429  0.1944  0.0123
 3935SOL    HW123438   1.110   2.598  12.695 -0.1532 -0.0989  0.2452
 3935SOL    HW223439   1.190   2.538  12.808 -0.6438 -1.1136 -2.4392
 3936SOL     OW23440   4.697   1.489   8.807 -0.2782 -0.3184 -0.3062
 3936SOL    HW123441   4.663   1.531   8.729 -2.0685  0.3403  0.8240
 3936SOL    HW223442   0.041   1.462   8.765 -0.1129 -0.2517 -0.0335
 3937SOL     OW23443   2.120   0.156   6.278 -0.1383 -0.3972 -0.1670
 3937SOL    HW123444   2.111   0.191   6.367 -1.9731  0.3322 -0.6338
 3937SOL    HW223445   2.034   0.123   6.255  1.2953 -3.2244 -1.3366
 3938SOL     OW23446   3.783   3.622   8.584 -0.1638 -0.8010 -0.5439
 3938SOL    HW123447   3.852   3.635   8.649  0.6324  2.7626 -2.0813
 3938SOL    HW223448   3.811   3.695   8.528 -0.9672 -0.4911 -0.5555
 3939SOL     OW23449   0.478   4.000   6.513  0.3408  0.1020 -0.0765
 3939SOL    HW123450   0.495   3.983   6.420 -1.4760 -0.9770 -0.2010
 3939SOL    HW223451   0.459   3.913   6.548 -0.1024  0.4469  0.5321
 3940SOL     OW23452   2.515   1.664   5.318  0.4815  0.1938  0.1341
 3940SOL    HW123453   2.562   1.730   5.267  0.4696 -0.4325 -0.6825
 3940SOL    HW223454   2.588   1.603   5.333  1.0375  1.1076  1.1783
 3941SOL     OW23455   1.008   4.657   8.033 -0.5605 -0.4119  0.0460
 3941SOL    HW123456   1.033   4.620   8.118  0.0160  0.8619  0.4266
 3941SOL    HW223457   0.948   4.590   8.001 -0.9156 -0.6955  1.3264
 3942SOL     OW23458   0.400   2.794  10.113 -0.0975  0.2856  0.5525
 3942SOL    HW123459   0.327   2.813  10.173 -1.6909 -0.3982 -1.1763
 3942SOL    HW223460   0.424   2.707  10.143 -0.5551 -0.4100 -1.0964
 3943SOL     OW23461   2.486   4.207   2.169  0.3576 -0.1911 -0.1373
 3943SOL    HW123462   2.482   4.180   2.078  0.6206 -2.2693  0.4659
 3943SOL    HW223463   2.393   4.193   2.187  1.1403 -3.5748  1.2374
 3944SOL     OW23464   1.296   4.383   6.643  0.2027  0.5849  0.2266
 3944SOL    HW123465   1.260   4.309   6.691 -0.4007 -0.8450 -2.4242
 3944SOL    HW223466   1.231   4.395   6.574 -2.5757 -0.7829  2.5930
 3945SOL     OW23467   4.386   1.655   3.750  0.3393 -0.3468 -0.3221
 3945SOL    HW123468   4.451   1.588   3.733 -0.8240 -1.7511  0.7083
 3945SOL    HW223469   4.431   1.737   3.770  1.2696 -0.4223 -2.1978
 3946SOL     OW23470   1.497   1.384   6.649 -0.5233  0.5256 -0.2690
 3946SOL    HW123471   1.546   1.423   6.576 -1.7414 -0.5750 -1.6669
 3946SOL    HW223472   1.565   1.356   6.710  1.0088  1.6929 -1.4276
 3947SOL     OW23473   0.547   0.942   3.116 -0.2337  0.0225  0.0764
 3947SOL    HW123474   0.603   0.968   3.189  0.4560 -0.3603 -0.3181
 3947SOL    HW223475   0.502   0.871   3.162 -0.9074  1.6462  1.9188
 3948SOL     OW23476   0.622   2.029   7.648 -0.1927  0.4355  0.8532
 3948SOL    HW123477   0.577   1.945   7.640 -0.1657  0.6200 -1.0945
 3948SOL    HW223478   0.579   2.064   7.726 -0.2464  0.2111  0.9252
 3949SOL     OW23479   3.201   0.017   4.177 -0.4956 -0.0771  0.3336
 3949SOL    HW123480   3.186   0.112   4.172  2.5897  0.3893 -0.1489
 3949SOL    HW223481   3.131   4.712   4.226 -1.2722 -0.2906 -0.9751
 3950SOL     OW23482   3.123   2.334   8.453 -0.1321 -0.6733  0.7971
 3950SOL    HW123483   3.134   2.391   8.529  0.8312  1.7831 -1.1924
 3950SOL    HW223484   3.125   2.403   8.387  3.1214 -0.6471  0.9287
 3951SOL     OW23485   3.129   2.135   0.476  0.1176 -0.1290  0.0606
 3951SOL    HW123486   3.058   2.193   0.504  0.9268  0.0904  1.6568
 3951SOL    HW223487   3.152   2.076   0.548 -1.5580 -0.4012  0.3693
 3952SOL     OW23488   2.765   1.973   0.378  0.5070  0.0892 -0.1827
 3952SOL    HW123489   2.801   2.027   0.307  0.5019  0.1435 -0.1445
 3952SOL    HW223490   2.691   1.927   0.338  1.7856 -1.3459 -0.8953
 3953SOL     OW23491   2.840   3.462   0.973  0.1829  0.0501  0.2244
 3953SOL    HW123492   2.857   3.454   1.066 -1.8250  0.9389  0.6617
 3953SOL    HW223493   2.812   3.376   0.942 -2.1454  0.7315  0.4748
 3954SOL     OW23494   3.370   1.990   9.520  0.3060  0.4626 -0.1787
 3954SOL    HW123495   3.394   2.008   9.429  1.6164 -1.3946 -0.1989
 3954SOL    HW223496   3.429   2.053   9.560 -1.2154  1.7941 -0.0528
 3955SOL     OW23497   4.212   0.821   9.910  0.0943 -0.7482  0.5977
 3955SOL    HW123498   4.300   0.783   9.915  1.2386  1.8231  0.0182
 3955SOL    HW223499   4.188   0.815  10.002  1.0983 -1.1346  0.8404
 3956SOL     OW23500   4.349   0.678  14.163  0.4868  0.5784 -0.4551
 3956SOL    HW123501   4.263   0.658  14.198  0.4560  0.9520 -0.3191
 3956SOL    HW223502   4.351   0.770  14.135  0.3764  0.5514 -0.5534
 3957SOL     OW23503   3.380   1.172  15.168 -0.2152 -0.2858 -0.2186
 3957SOL    HW123504   3.351   1.212  15.250  0.8438 -2.1070  1.0426
 3957SOL    HW223505   3.297   1.169  15.120  1.1129  0.2104 -2.5361
 3958SOL     OW23506   0.619   2.765  10.513  0.2356 -0.5051 -0.3116
 3958SOL    HW123507   0.557   2.815  10.566  1.4721 -0.8016  1.4245
 3958SOL    HW223508   0.639   2.702  10.582 -4.1496 -0.1747  1.2843
 3959SOL     OW23509   3.587   2.731  14.245  0.5206  0.2432  0.0742
 3959SOL    HW123510   3.653   2.736  14.176 -0.4176  0.0271 -0.8362
 3959SOL    HW223511   3.629   2.785  14.311 -1.7140 -0.6354  2.2270
 3960SOL     OW23512   1.651   2.427   5.508  0.1203  0.0102 -0.5213
 3960SOL    HW123513   1.631   2.420   5.601 -0.9488  3.9891 -0.4776
 3960SOL    HW223514   1.735   2.381   5.511  0.0286  0.0050  1.8256
 3961SOL     OW23515   1.197   4.097   6.688 -0.2312  0.3912 -0.0079
 3961SOL    HW123516   1.236   4.041   6.756  0.7855  1.6015  0.3993
 3961SOL    HW223517   1.108   4.118   6.714 -0.2026  1.3235 -0.7085
 3962SOL     OW23518   4.080   4.729   9.897 -0.4828 -0.1297  0.3746
 3962SOL    HW123519   4.161   4.704   9.941 -0.3123 -1.2590 -0.5825
 3962SOL    HW223520   4.052   0.060   9.958  0.1923  0.8015 -0.3616
 3963SOL     OW23521   4.320   4.099   6.223  0.1294  0.1067 -0.6261
 3963SOL    HW123522   4.279   4.014   6.205 -0.6016  0.6298 -1.4573
 3963SOL    HW223523   4.404   4.099   6.176  0.9856 -2.0547  0.9050
 3964SOL     OW23524   0.513   3.520   7.432 -0.1201  0.0143  0.4991
 3964SOL    HW123525   0.540   3.602   7.473  1.6239 -0.5334  0.4126
 3964SOL    HW223526   0.595   3.473   7.417 -0.9045 -1.3751  0.4903
 3965SOL     OW23527   0.931   4.165   3.463 -0.3136 -0.0497 -0.3401
 3965SOL    HW123528   0.913   4.237   3.524 -1.6689 -0.4261 -0.3162
 3965SOL    HW223529   0.847   4.161   3.419  0.5411 -1.5893 -1.8071
 3966SOL     OW23530   1.020   0.798  17.386  0.1241  0.0582  0.1087
 3966SOL    HW123531   1.029   0.797  17.290 -1.3467 -2.4252 -0.0096
 3966SOL    HW223532   0.928   0.782  17.406 -0.4964 -0.5154 -3.2371
 3967SOL     OW23533   0.199   0.905   6.680  0.0911 -0.5354  0.1116
 3967SOL    HW123534   0.260   0.875   6.747  0.4584 -1.7254 -0.7665
 3967SOL    HW223535   0.255   0.942   6.612  1.1656 -2.3802  0.0066
 3968SOL     OW23536   3.717   4.685  11.270  1.0078 -0.1690  0.2086
 3968SOL    HW123537   3.797   4.636  11.285  0.6651 -1.1565 -1.2042
 3968SOL    HW223538   3.697   4.661  11.180  0.7242  1.2778 -0.1126
 3969SOL     OW23539   4.704   0.380   3.771 -0.4474 -0.0558  0.6173
 3969SOL    HW123540   4.679   0.288   3.769 -0.5395 -0.0213  0.1826
 3969SOL    HW223541   0.059   0.375   3.795 -0.9291 -0.3243  2.4276
 3970SOL     OW23542   4.209   4.356  13.162  0.2745 -0.3067 -0.2707
 3970SOL    HW123543   4.250   4.279  13.202  0.0330 -1.3093 -1.9372
 3970SOL    HW223544   4.251   4.428  13.208  2.1493 -0.9828 -0.9389
 3971SOL     OW23545   4.521   4.145   2.602 -0.3210 -0.0339  0.2511
 3971SOL    HW123546   4.446   4.146   2.542 -0.1129 -0.1322 -0.0104
 3971SOL    HW223547   4.590   4.171   2.541  0.5984 -0.9273  0.9053
 3972SOL     OW23548   1.372   3.163  16.726  0.1580 -0.1590  0.5665
 3972SOL    HW123549   1.442   3.131  16.783  1.0007  1.4839  0.4464
 3972SOL    HW223550   1.365   3.258  16.738  1.0744 -0.0898  0.5187
 3973SOL     OW23551   2.675   2.537   2.729  0.2740 -0.2024 -0.0751
 3973SOL    HW123552   2.745   2.473   2.712  1.6867  1.7719 -1.7830
 3973SOL    HW223553   2.713   2.613   2.684  1.6884 -1.4335 -0.9745
 3974SOL     OW23554   0.899   4.130   9.556 -0.3170 -0.1072  0.0005
 3974SOL    HW123555   0.881   4.139   9.650  1.2145 -0.8480  0.3691
 3974SOL    HW223556   0.990   4.157   9.552 -0.4420  0.1134 -1.4608
 3975SOL     OW23557   4.235   3.042   4.147  0.2491  0.2193 -0.1514
 3975SOL    HW123558   4.310   3.002   4.104  0.5010 -0.1726  0.6533
 3975SOL    HW223559   4.269   3.130   4.161  0.8557 -0.0967  0.3088
 3976SOL     OW23560   2.140   3.195   5.626  0.0270  0.1947  0.2049
 3976SOL    HW123561   2.120   3.250   5.701  2.1846  3.1036 -1.3633
 3976SOL    HW223562   2.212   3.242   5.583 -1.4488  1.1178 -1.2476
 3977SOL     OW23563   0.963   1.954   8.408  0.0688  0.0942  0.1452
 3977SOL    HW123564   1.010   1.986   8.331  2.1553 -0.4091  1.2198
 3977SOL    HW223565   0.884   2.008   8.397 -0.2792 -0.0825  1.7869
 3978SOL     OW23566   3.297   3.526  15.156 -0.4953  0.4640  0.2518
 3978SOL    HW123567   3.247   3.566  15.085  0.0593  1.0323  0.1849
 3978SOL    HW223568   3.277   3.589  15.225 -0.6052 -1.5271  2.0701
 3979SOL     OW23569   2.628   1.266  16.800  0.2766  0.1947  0.0427
 3979SOL    HW123570   2.597   1.313  16.723  0.3744 -1.6262 -1.0949
 3979SOL    HW223571   2.591   1.324  16.867 -1.3971 -0.5597 -0.2213
 3980SOL     OW23572   0.886   3.460   3.152  0.5326  0.3653  0.3956
 3980SOL    HW123573   0.876   3.433   3.060 -2.0798  1.8652  0.2248
 3980SOL    HW223574   0.796   3.461   3.185 -0.3375 -0.6488 -1.9469
 3981SOL     OW23575   3.470   3.887   0.789 -0.1907 -0.5451 -0.2188
 3981SOL    HW123576   3.381   3.917   0.808 -1.1260 -3.3846 -0.0856
 3981SOL    HW223577   3.492   3.974   0.756  0.0886 -0.9656 -1.1394
 3982SOL     OW23578   3.518   4.297   6.143 -0.1730 -0.7443  0.4259
 3982SOL    HW123579   3.440   4.253   6.108 -0.8404 -0.2593  1.2846
 3982SOL    HW223580   3.577   4.222   6.149  0.5202 -0.1448  0.9955
 3983SOL     OW23581   3.520   1.396   7.619 -0.0077 -0.3103 -0.0611
 3983SOL    HW123582   3.581   1.457   7.578 -2.7930  2.1171 -0.6003
 3983SOL    HW223583   3.434   1.429   7.592  0.1257 -0.8527 -1.1279
 3984SOL     OW23584   1.620   1.234  11.406  0.5658  0.0514  0.0180
 3984SOL    HW123585   1.707   1.233  11.368  1.0472 -1.5454  1.1298
 3984SOL    HW223586   1.564   1.266  11.335 -0.5583 -1.4412  0.2020
 3985SOL     OW23587   2.284   0.859   5.638 -0.0427 -0.2554 -0.2762
 3985SOL    HW123588   2.240   0.803   5.702  1.5794 -0.4917  0.6338
 3985SOL    HW223589   2.311   0.929   5.698  1.9613 -0.9403 -0.3714
 3986SOL     OW23590   1.913   2.137   7.552  0.0518 -0.0717 -0.2376
 3986SOL    HW123591   1.833   2.169   7.511 -0.9084  0.1103  1.7769
 3986SOL    HW223592   1.916   2.050   7.512  1.6500  0.1586 -0.6441
 3987SOL     OW23593   2.756   3.231  13.186  0.4197 -0.2765 -0.3120
 3987SOL    HW123594   2.816   3.304  13.199  0.2059  0.1077 -1.4991
 3987SOL    HW223595   2.765   3.219  13.091  1.5269 -0.0867 -0.2257
 3988SOL     OW23596   3.985   3.676   8.125  0.2306  0.1494  0.0094
 3988SOL    HW123597   3.981   3.609   8.056 -1.7101 -0.1854  0.4501
 3988SOL    HW223598   3.894   3.705   8.129 -0.1250 -1.1975  1.6365
 3989SOL     OW23599   1.245   3.997   1.728 -0.5855  0.4084 -0.2837
 3989SOL    HW123600   1.259   3.924   1.667 -1.5106 -0.3958  0.4626
 3989SOL    HW223601   1.165   4.027   1.685 -1.7672 -0.8086  1.0680
 3990SOL     OW23602   3.081   1.925   4.525  0.1250 -0.2919 -0.1425
 3990SOL    HW123603   3.073   2.000   4.584  2.5467 -0.5404  0.5115
 3990SOL    HW223604   3.118   1.972   4.450  0.8524  1.9808  1.6294
 3991SOL     OW23605   3.242   0.632   8.979 -0.3196 -0.6681 -0.2181
 3991SOL    HW123606   3.259   0.538   8.988  1.8966 -0.2998 -0.6564
 3991SOL    HW223607   3.149   0.626   9.001 -0.1948  2.3227  1.0965
 3992SOL     OW23608   2.533   2.484   4.831 -0.3697  0.4041 -0.8257
 3992SOL    HW123609   2.440   2.490   4.856  0.1618  2.0951  0.7647
 3992SOL    HW223610   2.565   2.537   4.903  2.0749 -0.3301 -1.3897
 3993SOL     OW23611   1.580   0.814   7.217  0.3700 -0.3663 -0.3298
 3993SOL    HW123612   1.640   0.791   7.288  0.1843 -0.9295 -0.3557
 3993SOL    HW223613   1.639   0.855   7.154 -0.9185  1.7391 -0.1807
 3994SOL     OW23614   3.166   4.387  13.568 -0.3182 -0.4333  0.3631
 3994SOL    HW123615   3.258   4.387  13.542 -0.3653 -1.5228  0.1906
 3994SOL    HW223616   3.114   4.357  13.493  1.0714  1.7740 -1.4903
 3995SOL     OW23617   1.557   2.761   9.982  0.0964  0.1958 -0.5813
 3995SOL    HW123618   1.496   2.690  10.004 -0.0490  0.0981 -1.2827
 3995SOL    HW223619   1.596   2.721   9.904  0.9713  1.5166 -0.8187
 3996SOL     OW23620   1.604   1.298   4.392 -0.1956  0.4097  0.5117
 3996SOL    HW123621   1.577   1.389   4.399  1.5151  0.9527 -0.0325
 3996SOL    HW223622   1.609   1.264   4.303 -0.6220  3.5193 -0.6688
 3997SOL     OW23623   3.885   0.177   1.694  0.6259 -0.0469 -0.2848
 3997SOL    HW123624   3.817   0.215   1.750 -1.0850 -2.2126 -0.9211
 3997SOL    HW223625   3.949   0.147   1.759 -1.6090 -2.4319  0.8089
 3998SOL     OW23626   4.032   3.851   3.104  0.6205  0.4310 -0.0224
 3998SOL    HW123627   3.945   3.891   3.107  0.2785 -0.1818 -1.8461
 3998SOL    HW223628   4.069   3.841   3.192 -0.7935  0.7748  0.6093
 3999SOL     OW23629   3.986   4.491   6.322 -0.1600 -0.5872 -0.4826
 3999SOL    HW123630   4.040   4.553   6.273  0.1795 -0.5468 -0.0618
 3999SOL    HW223631   4.030   4.423   6.271 -1.8849 -0.6736 -1.8551
 4000SOL     OW23632   1.171   4.622   3.901 -0.3582 -0.0627 -0.6138
 4000SOL    HW123633   1.230   4.561   3.944 -0.0620  0.1206 -0.7658
 4000SOL    HW223634   1.236   4.667   3.847  1.8988 -1.7084  0.7650
 4001SOL     OW23635   0.617   3.941   9.692  0.1623  0.4097 -0.2449
 4001SOL    HW123636   0.686   4.007   9.698  0.2277  0.2670  0.6300
 4001SOL    HW223637   0.534   3.976   9.725  0.1363 -0.4729  0.6489
 4002SOL     OW23638   2.624   3.538  12.794 -0.1844  0.0129  0.0616
 4002SOL    HW123639   2.683   3.464  12.780  0.8547  0.5341  1.5462
 4002SOL    HW223640   2.544   3.487  12.801  1.8096 -3.0964  0.4097
 4003SOL     OW23641   3.185   0.532   5.937 -0.7874 -0.2105 -0.9843
 4003SOL    HW123642   3.257   0.505   5.881 -0.4179 -0.5262 -0.3606
 4003SOL    HW223643   3.124   0.461   5.915 -0.7292 -0.6084  0.1036
 4004SOL     OW23644   3.026   1.662   4.502  0.0688 -0.0510  0.0848
 4004SOL    HW123645   3.018   1.757   4.510 -0.4464 -0.1574  0.8109
 4004SOL    HW223646   3.020   1.643   4.596  0.0683  0.2175  0.1401
 4005SOL     OW23647   0.813   2.294   8.777  0.1008  0.3131  0.2045
 4005SOL    HW123648   0.766   2.230   8.829 -0.7062  1.5138  0.9533
 4005SOL    HW223649   0.905   2.288   8.804 -0.5861  1.8659  2.9395
 4006SOL     OW23650   0.916   2.235   4.813  0.0284  1.0206 -0.2888
 4006SOL    HW123651   0.911   2.259   4.906  1.8422 -0.4910  0.2036
 4006SOL    HW223652   0.865   2.311   4.786  0.0280  1.0568 -0.1862
 4007SOL     OW23653   0.890   3.393   7.038 -0.0971 -0.4021  0.2357
 4007SOL    HW123654   0.968   3.382   6.983 -0.1491  0.3045  0.0153
 4007SOL    HW223655   0.839   3.443   6.974 -1.4528 -0.2922  1.4017
 4008SOL     OW23656   4.579   0.440   7.902  0.3825  0.1680  0.7090
 4008SOL    HW123657   4.500   0.482   7.867 -0.7934 -1.5869  1.2744
 4008SOL    HW223658   4.625   0.514   7.940  1.4971  0.6888 -1.6671
 4009SOL     OW23659   0.868   0.463   6.037  0.1461 -0.1424  0.0603
 4009SOL    HW123660   0.923   0.411   6.096  1.1123 -0.0743 -0.7887
 4009SOL    HW223661   0.897   0.435   5.950  0.1390 -1.1684  0.3882
 4010SOL     OW23662   2.735   1.565   4.750 -0.2499 -0.1726 -0.0480
 4010SOL    HW123663   2.664   1.504   4.769 -0.9293  1.0522  1.3205
 4010SOL    HW223664   2.715   1.597   4.662  1.7420  1.3822  0.0679
 4011SOL     OW23665   1.471   2.472   8.354  0.3796 -0.2651 -0.4853
 4011SOL    HW123666   1.563   2.494   8.341 -0.0697  1.1634 -1.3127
 4011SOL    HW223667   1.453   2.525   8.432 -0.0489 -0.4333 -0.4683
 4012SOL     OW23668   4.186   1.955   6.603  0.5318 -0.0869 -0.0798
 4012SOL    HW123669   4.155   1.874   6.562  1.5578 -1.0738  1.1203
 4012SOL    HW223670   4.246   1.997   6.542  0.9574  1.2333  1.2559
 4013SOL     OW23671   1.716   2.576   1.320 -0.3404  0.0131 -0.2697
 4013SOL    HW123672   1.686   2.648   1.376  1.2550 -0.0486  0.6908
 4013SOL    HW223673   1.808   2.575   1.347 -0.3850 -0.5619 -0.1326
 4014SOL     OW23674   2.043   3.245   3.444 -0.2358 -0.0830 -0.4713
 4014SOL    HW123675   1.976   3.180   3.466 -1.5799  1.1510 -0.8921
 4014SOL    HW223676   2.013   3.294   3.368 -0.3980  0.2324 -0.2017
 4015SOL     OW23677   1.121   1.864   3.442 -0.3691 -0.3387  0.0642
 4015SOL    HW123678   1.213   1.888   3.448 -0.6276  0.4516  1.0936
 4015SOL    HW223679   1.126   1.771   3.461  2.5177  0.0644  1.2532
 4016SOL     OW23680   3.527   0.330   1.110  0.0952 -0.0423  0.5829
 4016SOL    HW123681   3.489   0.264   1.167 -1.5976 -0.7372 -1.3344
 4016SOL    HW223682   3.601   0.275   1.087  0.0672 -0.3951  1.3534
 4017SOL     OW23683   1.760   4.260   4.388  0.2694 -0.0378  0.5928
 4017SOL    HW123684   1.699   4.275   4.316 -0.5255 -2.9886  0.6354
 4017SOL    HW223685   1.778   4.166   4.390 -1.7713 -0.4667 -1.4438
 4018SOL     OW23686   1.359   1.900   3.920  0.0973  0.1640 -0.6243
 4018SOL    HW123687   1.360   1.813   3.881 -1.1354 -0.8018  1.5521
 4018SOL    HW223688   1.382   1.961   3.849 -0.1522 -1.6801 -2.2761
 4019SOL     OW23689   3.699   0.293   1.849  0.5243 -0.1511 -0.2357
 4019SOL    HW123690   3.692   0.236   1.926 -0.4311  0.6468  0.2739
 4019SOL    HW223691   3.707   0.375   1.898 -0.9729  0.1630 -0.5106
 4020SOL     OW23692   0.483   1.736   7.057  0.4298  0.1836 -0.2723
 4020SOL    HW123693   0.548   1.788   7.105  1.1680  0.6043 -1.7296
 4020SOL    HW223694   0.407   1.794   7.055 -0.1369 -0.6273 -1.9571
 4021SOL     OW23695   2.758   3.065   3.793  0.1674  0.2406  0.0010
 4021SOL    HW123696   2.785   3.137   3.736 -2.5083 -0.6184 -2.3254
 4021SOL    HW223697   2.747   2.997   3.727  0.0554  1.3998 -1.1605
 4022SOL     OW23698   4.604   0.445  16.340  0.5125  0.1322 -0.7125
 4022SOL    HW123699   4.649   0.385  16.399 -0.8580  0.4869  0.6681
 4022SOL    HW223700   4.657   0.427  16.262  0.5730  0.3727 -0.7253
 4023SOL     OW23701   0.121   0.300  14.251  0.0557  0.0247 -0.4569
 4023SOL    HW123702   0.117   0.383  14.204  0.4070  0.3788  0.1386
 4023SOL    HW223703   0.034   0.267  14.228 -0.7099  1.7677 -0.0459
 4024SOL     OW23704   1.221   0.779   3.051  0.5269  0.6304  0.1038
 4024SOL    HW123705   1.317   0.774   3.052  0.6958  3.3184 -1.4688
 4024SOL    HW223706   1.203   0.833   3.127  0.7942  0.3922  0.3344
 4025SOL     OW23707   0.001   0.261  16.492  0.1101  0.1019 -0.0012
 4025SOL    HW123708   0.082   0.214  16.509  0.5096  1.2960  1.3628
 4025SOL    HW223709   4.695   0.228  16.571 -0.5308  0.3803 -0.2336
 4026SOL     OW23710   4.588   0.915   5.228 -0.0319  0.5079  0.1007
 4026SOL    HW123711   4.657   0.889   5.167 -0.2847  2.5748 -1.0754
 4026SOL    HW223712   4.515   0.854   5.238 -0.2883  0.6788 -0.7207
 4027SOL     OW23713   3.348   1.720   1.687  0.2765 -0.2793  0.4426
 4027SOL    HW123714   3.290   1.768   1.629 -0.8705 -0.2064  1.6335
 4027SOL    HW223715   3.293   1.643   1.700 -0.6993  0.0347 -2.0010
 4028SOL     OW23716   0.270   2.419   5.037  0.1698  0.1552 -0.0714
 4028SOL    HW123717   0.232   2.463   4.961 -0.6963 -1.6203 -0.6873
 4028SOL    HW223718   0.302   2.341   4.992 -0.9948 -0.3706 -0.0045
 4029SOL     OW23719   3.173   1.433  17.732  0.1171  0.3465  0.1238
 4029SOL    HW123720   3.172   1.485   0.064  2.8249 -0.3369  0.6131
 4029SOL    HW223721   3.226   1.356   0.005  0.7093  0.4451 -0.9883
 4030SOL     OW23722   4.496   1.888  11.155  0.5265 -0.2310 -0.8933
 4030SOL    HW123723   4.488   1.793  11.150  0.5233 -0.3323  1.0336
 4030SOL    HW223724   4.517   1.911  11.246 -0.9650 -4.1265  0.4650
 4031SOL     OW23725   3.943   3.467   2.841 -0.8974 -0.3485  0.0948
 4031SOL    HW123726   3.912   3.380   2.814  0.6845 -0.4248 -1.4773
 4031SOL    HW223727   3.862   3.497   2.883  0.4116  2.3274  0.6993
 4032SOL     OW23728   0.322   3.559  12.513  0.5450  0.2338  0.1983
 4032SOL    HW123729   0.412   3.577  12.538  0.7879  1.9694 -1.9467
 4032SOL    HW223730   0.275   3.622  12.567 -1.1322 -1.2056  0.4466
 4033SOL     OW23731   2.705   4.195   7.322  0.1272  0.2041  0.2636
 4033SOL    HW123732   2.638   4.197   7.253 -0.7000 -3.3689  0.9785
 4033SOL    HW223733   2.694   4.107   7.358 -2.3969  0.4117  0.0147
 4034SOL     OW23734   3.164   0.261   2.104  0.2508 -0.1601 -0.6799
 4034SOL    HW123735   3.080   0.232   2.141 -0.8677  2.2908 -1.2529
 4034SOL    HW223736   3.191   0.311   2.181  0.1073 -2.3051  0.7540
 4035SOL     OW23737   1.313   3.006   6.227  0.1236 -0.2786 -0.0572
 4035SOL    HW123738   1.388   2.976   6.176  2.1597 -0.2541  2.9326
 4035SOL    HW223739   1.324   3.101   6.227 -1.3268 -0.1164 -0.1860
 4036SOL     OW23740   3.212   0.748   2.659  0.2390 -0.3657 -0.3229
 4036SOL    HW123741   3.304   0.740   2.632  0.6183  3.5659 -0.1685
 4036SOL    HW223742   3.173   0.723   2.575  0.9255  0.7517 -0.9659
 4037SOL     OW23743   0.094   3.724  16.959 -0.3558  0.6736 -0.2094
 4037SOL    HW123744   0.078   3.640  16.915 -1.4635  2.1914 -2.6920
 4037SOL    HW223745   0.014   3.774  16.942 -0.9102 -0.8209 -2.0113
 4038SOL     OW23746   4.559   3.986   3.156 -0.0765 -0.1506  0.6442
 4038SOL    HW123747   4.595   3.902   3.186 -0.3360 -0.3059  0.5251
 4038SOL    HW223748   4.480   3.961   3.108  0.1200 -0.2074  0.3522
 4039SOL     OW23749   1.377   2.109   1.449  0.1576 -0.4907 -0.2289
 4039SOL    HW123750   1.324   2.140   1.375  0.3642 -0.7106 -0.4671
 4039SOL    HW223751   1.466   2.092   1.419 -0.2051 -1.9552 -0.4557
 4040SOL     OW23752   4.334   3.360   3.508  0.0598 -0.2342 -0.2247
 4040SOL    HW123753   4.376   3.437   3.469 -0.2840 -0.2591 -0.6504
 4040SOL    HW223754   4.411   3.308   3.532  0.5765  0.2564 -0.8064
 4041SOL     OW23755   1.917   2.434   2.303 -0.2815  0.1815 -0.1005
 4041SOL    HW123756   2.003   2.409   2.339 -0.2667 -0.4333 -0.5505
 4041SOL    HW223757   1.913   2.374   2.229 -0.3685  1.3586 -1.0452
 4042SOL     OW23758   3.145   3.124   3.453  0.1230  0.7783 -0.3647
 4042SOL    HW123759   3.213   3.141   3.388  0.6054 -0.0961 -0.0848
 4042SOL    HW223760   3.191   3.126   3.537 -1.8536  0.5211  0.7406
 4043SOL     OW23761   2.777   3.104   5.623 -0.0920 -0.3262  0.1349
 4043SOL    HW123762   2.732   3.052   5.556  1.3893 -2.3119  0.6638
 4043SOL    HW223763   2.724   3.183   5.626 -1.2765 -1.1705  1.0000
 4044SOL     OW23764   3.200   1.019  12.348  0.0341 -0.0840  0.3451
 4044SOL    HW123765   3.212   0.927  12.372  2.5542  0.5292  1.4665
 4044SOL    HW223766   3.117   1.029  12.395 -0.5741  0.2194 -0.7859
 4045SOL     OW23767   3.422   2.817  13.754 -0.0971 -0.7341  0.1918
 4045SOL    HW123768   3.373   2.751  13.706 -3.1047  0.5746  1.5173
 4045SOL    HW223769   3.370   2.821  13.834 -0.0853 -1.4544  0.2360
 4046SOL     OW23770   3.294   1.264   6.949  0.0833 -0.2575  0.6118
 4046SOL    HW123771   3.359   1.279   6.880 -0.4375  2.6115  0.7488
 4046SOL    HW223772   3.223   1.210   6.915  1.4532 -1.6036 -0.1064
 4047SOL     OW23773   3.470   2.385   3.998 -0.1305 -0.1538  0.2684
 4047SOL    HW123774   3.518   2.302   3.995 -0.4690 -0.4005  1.6686
 4047SOL    HW223775   3.422   2.377   3.915  2.1076 -0.3781 -1.0081
 4048SOL     OW23776   0.359   1.972   6.219  0.2796 -0.3492  0.3659
 4048SOL    HW123777   0.292   1.904   6.208 -2.0945  1.6600  2.2586
 4048SOL    HW223778   0.408   1.935   6.293 -0.5038  1.3831  1.7624
 4049SOL     OW23779   4.456   3.730   5.422 -0.2858  0.1004  0.5161
 4049SOL    HW123780   4.402   3.806   5.445 -1.2551 -0.0548 -1.2348
 4049SOL    HW223781   4.518   3.778   5.368  0.3943  0.4759  1.6287
 4050SOL     OW23782   2.814   1.936   6.379 -0.1532  0.3536 -0.1835
 4050SOL    HW123783   2.826   1.942   6.474  0.4806 -1.7440 -0.1186
 4050SOL    HW223784   2.797   1.842   6.379 -2.7439  0.8151  0.2707
 4051SOL     OW23785   0.243   3.817   2.665 -0.6058 -0.2630 -0.0775
 4051SOL    HW123786   0.224   3.777   2.580  3.8229 -1.0389 -0.6946
 4051SOL    HW223787   0.327   3.774   2.683  0.1666  1.0936 -0.3774
 4052SOL     OW23788   4.283   4.282   4.778 -0.6222 -0.0897 -0.0054
 4052SOL    HW123789   4.326   4.365   4.760  1.7773 -1.4396 -0.4942
 4052SOL    HW223790   4.232   4.266   4.698 -0.1216 -0.1609 -0.3131
 4053SOL     OW23791   1.543   4.536   8.082 -0.4559 -0.4904 -0.1514
 4053SOL    HW123792   1.451   4.530   8.109  0.2885 -2.5952  1.8345
 4053SOL    HW223793   1.549   4.631   8.070 -0.5841 -0.2412  1.7413
 4054SOL     OW23794   0.529   1.119   9.469 -0.5429  0.3468 -0.1514
 4054SOL    HW123795   0.601   1.076   9.423 -2.2701 -2.2939 -0.3824
 4054SOL    HW223796   0.488   1.052   9.524  1.1196 -0.4396  0.1210
 4055SOL     OW23797   3.229   1.994   8.195 -0.0830  0.0771 -0.2320
 4055SOL    HW123798   3.171   2.005   8.120  1.2975 -0.6872 -1.4032
 4055SOL    HW223799   3.217   1.903   8.223 -2.1181  0.8840  1.5463
 4056SOL     OW23800   4.427   2.328   7.236 -0.2682  0.1456 -0.0596
 4056SOL    HW123801   4.401   2.240   7.212  0.4856 -0.4557  1.2895
 4056SOL    HW223802   4.345   2.373   7.217 -0.5113 -1.2668 -2.2942
 4057SOL     OW23803   1.867   3.339   1.378 -0.2583 -0.3171  0.0177
 4057SOL    HW123804   1.948   3.330   1.427 -0.1748 -1.3202 -0.3204
 4057SOL    HW223805   1.888   3.264   1.323 -1.4278 -0.9690  0.4620
 4058SOL     OW23806   4.211   0.699  10.839 -0.2783 -0.0430 -0.2936
 4058SOL    HW123807   4.277   0.641  10.877  1.4878  1.5412 -0.9247
 4058SOL    HW223808   4.137   0.660  10.886 -0.6887  0.2429 -0.7024
 4059SOL     OW23809   2.523   0.254   3.690 -0.3704 -0.5205  0.9055
 4059SOL    HW123810   2.611   0.291   3.686  0.6045 -2.6208  3.0572
 4059SOL    HW223811   2.467   0.329   3.668 -0.3952 -0.3892  1.4033
 4060SOL     OW23812   3.772   2.925   4.090 -0.2850 -0.5651  0.7546
 4060SOL    HW123813   3.725   2.877   4.022 -0.2176 -0.2560  0.4877
 4060SOL    HW223814   3.864   2.902   4.074 -0.4139 -2.4394  2.7999
 4061SOL     OW23815   1.551   4.003   6.544  0.7064 -0.1074 -0.4895
 4061SOL    HW123816   1.518   4.091   6.564  0.7887  0.1085 -1.2930
 4061SOL    HW223817   1.611   3.987   6.617 -0.0105  2.0333  0.5596
 4062SOL     OW23818   0.305   4.449  17.385 -0.3592 -0.4516  0.1034
 4062SOL    HW123819   0.314   4.516  17.317  2.4725 -1.9125 -0.9932
 4062SOL    HW223820   0.277   4.491  17.466 -0.1967  1.3477 -0.7596
 4063SOL     OW23821   0.236   3.950   2.220 -0.0489  0.1358  0.0152
 4063SOL    HW123822   0.219   3.900   2.300 -1.3871  0.8638  0.1841
 4063SOL    HW223823   0.160   3.917   2.171  0.2834 -1.7398  0.7340
 4064SOL     OW23824   1.132   2.229  12.532 -0.0748  0.5967 -0.1870
 4064SOL    HW123825   1.108   2.193  12.447  2.3846  0.0495 -0.6380
 4064SOL    HW223826   1.069   2.300  12.542 -0.8463 -0.1788  0.5387
 4065SOL     OW23827   1.029   1.314   1.165 -0.4651  0.2250  0.7355
 4065SOL    HW123828   1.003   1.252   1.233 -1.6763  1.7043  1.6181
 4065SOL    HW223829   1.108   1.268   1.136 -0.3637 -0.5150  2.1899
 4066SOL     OW23830   2.809   4.214  13.673  0.3908  0.2572  0.2237
 4066SOL    HW123831   2.858   4.296  13.686  0.5395  0.2794 -0.4934
 4066SOL    HW223832   2.883   4.162  13.641 -0.2865 -1.0656  0.8184
 4067SOL     OW23833   4.642   4.280   2.801 -0.3022  0.0799 -0.1863
 4067SOL    HW123834   4.718   4.311   2.753  0.6984 -0.8807  0.7519
 4067SOL    HW223835   4.584   4.234   2.740 -1.9334 -1.0618  2.1831
 4068SOL     OW23836   2.737   2.305   4.811 -0.7186 -1.1244  0.2370
 4068SOL    HW123837   2.662   2.363   4.798  0.7602  0.5456 -0.7644
 4068SOL    HW223838   2.797   2.366   4.854  0.0388 -0.5812 -1.6178
 4069SOL     OW23839   4.052   4.369   3.674 -0.6017  0.6207 -0.2538
 4069SOL    HW123840   4.115   4.343   3.741 -0.5600  1.5915  0.0811
 4069SOL    HW223841   3.965   4.347   3.708  0.2022  0.1787  1.5385
 4070SOL     OW23842   4.659   1.819  15.860  0.2693 -0.2947  0.3889
 4070SOL    HW123843   4.711   1.877  15.916 -0.7662  1.3168 -0.3037
 4070SOL    HW223844   4.687   1.837  15.771 -0.9256 -2.6819 -0.4448
 4071SOL     OW23845   0.404   1.828  10.088  0.0572 -0.3845 -0.1004
 4071SOL    HW123846   0.405   1.764  10.159 -0.1096 -1.2133 -0.8417
 4071SOL    HW223847   0.457   1.781  10.023 -1.2857  0.0655 -1.5367
 4072SOL     OW23848   4.459   0.600   8.483  0.0261 -0.1076 -0.6538
 4072SOL    HW123849   4.522   0.606   8.555 -0.3573 -2.0605 -0.1530
 4072SOL    HW223850   4.438   0.694   8.482 -0.7962 -0.2727  1.0066
 4073SOL     OW23851   3.861   0.393  17.570  0.1223  0.8290  0.2329
 4073SOL    HW123852   3.885   0.373  17.660  0.6046 -2.0061 -0.5341
 4073SOL    HW223853   3.945   0.363  17.534 -1.8269 -1.1807 -2.5908
 4074SOL     OW23854   1.559   0.589   9.149 -0.1071  0.7409 -0.1426
 4074SOL    HW123855   1.493   0.572   9.216 -0.1216  1.1217 -0.0575
 4074SOL    HW223856   1.640   0.566   9.194  0.5113 -1.4131 -2.3746
 4075SOL     OW23857   2.306   4.690  10.728  0.3244  0.2209 -0.3695
 4075SOL    HW123858   2.383   4.724  10.682  1.6292 -0.0940  1.5638
 4075SOL    HW223859   2.287   0.026  10.786 -0.5512 -0.0756 -0.2830
 4076SOL     OW23860   0.598   0.028   3.048  0.1082 -0.4010 -0.3059
 4076SOL    HW123861   0.537   0.008   2.977 -0.4895 -1.1295  0.4129
 4076SOL    HW223862   0.674   0.036   2.990  0.7951  1.7561  0.9049
 4077SOL     OW23863   0.456   1.446   5.968 -0.2339 -0.3338  0.0138
 4077SOL    HW123864   0.507   1.405   6.037 -1.0173 -1.0163  0.1868
 4077SOL    HW223865   0.472   1.383   5.897 -1.6901  0.4118 -0.9755
 4078SOL     OW23866   3.017   0.872  10.477 -0.0996  0.2162  0.0970
 4078SOL    HW123867   2.997   0.805  10.542  1.2669 -2.1938 -1.9912
 4078SOL    HW223868   3.048   0.828  10.398 -2.3783  2.9579 -2.3709
 4079SOL     OW23869   2.693   1.994   6.108  0.2293 -0.4993  0.4021
 4079SOL    HW123870   2.754   2.058   6.072 -0.7663  1.0211  1.4159
 4079SOL    HW223871   2.732   1.979   6.195 -0.0924  4.0346  1.3417
 4080SOL     OW23872   0.135   2.353  14.088  0.3393  0.0770  0.0940
 4080SOL    HW123873   0.139   2.405  14.008  2.5988 -1.4507 -0.7923
 4080SOL    HW223874   0.046   2.367  14.121 -0.6744 -1.1623 -2.1387
 4081SOL     OW23875   1.663   0.481  16.321  0.1642  0.3420  0.0208
 4081SOL    HW123876   1.722   0.443  16.256  1.0220  0.3295  0.8184
 4081SOL    HW223877   1.674   0.421  16.394 -0.5885  1.2957  0.9160
 4082SOL     OW23878   3.971   2.202   8.460 -0.3754  0.2996  0.0247
 4082SOL    HW123879   4.030   2.232   8.530 -0.8839 -0.7761  0.9101
 4082SOL    HW223880   3.983   2.283   8.411  0.0570  0.5541  0.5411
 4083SOL     OW23881   2.645   0.277   6.398 -0.0064 -0.0920 -0.1586
 4083SOL    HW123882   2.599   0.353   6.434 -2.1916 -1.8861  0.9176
 4083SOL    HW223883   2.720   0.323   6.360  0.9569 -2.3072 -0.9386
 4084SOL     OW23884   3.535   1.767  13.114 -0.9539  0.1375 -0.1944
 4084SOL    HW123885   3.603   1.828  13.085 -0.1826 -0.5511  0.1564
 4084SOL    HW223886   3.528   1.787  13.207 -0.1991  4.2170 -1.0350
 4085SOL     OW23887   0.483   3.398   2.510  0.0163 -0.0364 -0.1623
 4085SOL    HW123888   0.575   3.374   2.514  0.0506  0.0683 -0.3264
 4085SOL    HW223889   0.473   3.434   2.422 -1.4817  1.3005  0.5520
 4086SOL     OW23890   0.158   2.429   3.644 -0.3945  0.5677  0.1140
 4086SOL    HW123891   0.150   2.475   3.560  0.6998  0.7117  0.0863
 4086SOL    HW223892   0.172   2.342   3.606 -2.2937 -0.3416  1.5200
 4087SOL     OW23893   2.417   0.013   6.475 -0.6435 -0.4320 -0.1503
 4087SOL    HW123894   2.492   0.015   6.534  0.8472  2.1690 -2.1216
 4087SOL    HW223895   2.360   0.080   6.511 -0.0412  0.4633 -0.8842
 4088SOL     OW23896   0.498   2.395   0.458  0.2061  0.8336  0.0033
 4088SOL    HW123897   0.457   2.321   0.414  3.5232 -0.9338 -0.1469
 4088SOL    HW223898   0.419   2.447   0.473 -0.8223 -1.0713  1.2129
 4089SOL     OW23899   3.484   2.207   7.347 -0.3546  0.5554  0.3349
 4089SOL    HW123900   3.457   2.117   7.366  2.4570 -0.7792 -2.0216
 4089SOL    HW223901   3.429   2.220   7.270 -0.0239 -0.8155 -0.1263
 4090SOL     OW23902   0.152   3.157   8.478 -0.1564 -0.0082 -0.2762
 4090SOL    HW123903   0.213   3.226   8.504 -1.4545  1.9777 -2.5404
 4090SOL    HW223904   0.099   3.202   8.412 -0.1046 -2.4109 -1.9521
 4091SOL     OW23905   1.686   3.253   5.602 -0.0351  0.0793 -0.0860
 4091SOL    HW123906   1.621   3.214   5.543 -0.1626  0.4989 -0.2219
 4091SOL    HW223907   1.736   3.310   5.544  0.6108 -0.3299  0.0717
 4092SOL     OW23908   3.094   0.974   8.459 -0.5592 -0.2814 -0.2040
 4092SOL    HW123909   3.170   1.020   8.496 -0.3986 -1.7011  1.2217
 4092SOL    HW223910   3.114   0.880   8.460  0.5817 -0.0532 -1.3436
 4093SOL     OW23911   2.091   0.336   4.946  0.4146 -0.5612 -0.3254
 4093SOL    HW123912   2.056   0.385   4.872  2.6675  1.4777 -0.0462
 4093SOL    HW223913   2.051   0.250   4.932 -1.9601  0.5984 -0.7442
 4094SOL     OW23914   0.554   0.550   5.568  0.3073 -0.3155 -0.3794
 4094SOL    HW123915   0.499   0.499   5.628 -0.5956 -1.3590 -2.1125
 4094SOL    HW223916   0.635   0.502   5.587  0.5847  0.7600  1.1821
 4095SOL     OW23917   1.292   2.852  13.695  0.3415 -0.1573 -0.0384
 4095SOL    HW123918   1.236   2.793  13.643  1.7829 -0.0171 -1.7607
 4095SOL    HW223919   1.247   2.860  13.779  0.2178 -0.1300 -0.1072
 4096SOL     OW23920   2.318   2.491   8.109 -0.2032  0.4385 -0.0870
 4096SOL    HW123921   2.365   2.503   8.192  0.7249  1.0719 -0.7011
 4096SOL    HW223922   2.289   2.581   8.096  0.6943  0.8196  0.5000
 4097SOL     OW23923   3.058   0.121  10.384  0.2176 -0.1939  0.4932
 4097SOL    HW123924   3.102   0.073  10.454  1.0577 -1.2183 -0.7330
 4097SOL    HW223925   2.966   0.130  10.409  0.3474  1.3614  0.4646
 4098SOL     OW23926   2.916   1.368   8.704 -0.2257 -0.2982 -0.2181
 4098SOL    HW123927   2.859   1.444   8.709 -2.9935 -2.3056 -1.4927
 4098SOL    HW223928   3.002   1.409   8.698  0.1922 -1.0445  0.5398
 4099SOL     OW23929   3.561   3.354   3.072  0.0745  0.5356 -0.2724
 4099SOL    HW123930   3.620   3.380   3.001  0.7341  1.6263  0.6834
 4099SOL    HW223931   3.475   3.351   3.031 -0.4234 -0.6463  0.8613
 4100SOL     OW23932   0.343   4.336   7.754  0.2038  0.0039  0.0209
 4100SOL    HW123933   0.343   4.264   7.690  2.6736  0.3094 -0.3197
 4100SOL    HW223934   0.318   4.301   7.839  0.1129  1.4320  0.5712
 4101SOL     OW23935   0.892   2.594   0.902  0.2250  0.1780 -0.1492
 4101SOL    HW123936   0.957   2.619   0.838  0.5242  0.1380  0.1391
 4101SOL    HW223937   0.855   2.679   0.927  1.2487  0.6674 -0.3002
 4102SOL     OW23938   1.376   4.196   4.046 -0.4647  0.8703  0.1867
 4102SOL    HW123939   1.337   4.147   3.973 -0.8452 -0.0001  0.9790
 4102SOL    HW223940   1.368   4.145   4.126  1.7936 -0.7152 -0.6080
 4103SOL     OW23941   4.178   4.690   7.412  0.3937 -0.8204 -0.0432
 4103SOL    HW123942   4.247   0.011   7.382  1.3773 -0.5854  2.6745
 4103SOL    HW223943   4.221   4.604   7.413 -1.9108 -1.9271  3.3368
 4104SOL     OW23944   3.255   4.520   8.122  0.1216  0.1783 -0.3503
 4104SOL    HW123945   3.249   4.429   8.150 -0.2859  0.4350  0.3983
 4104SOL    HW223946   3.255   4.565   8.207 -1.8107 -1.9205  0.7464
 4105SOL     OW23947   3.942   3.182  13.042 -0.3568  0.2387  0.4173
 4105SOL    HW123948   3.861   3.233  13.040 -0.4236  0.0157 -2.4731
 4105SOL    HW223949   3.972   3.190  13.132 -0.8671  1.0591  0.5134
 4106SOL     OW23950   4.080   4.546   8.568 -0.0898 -0.1093  0.0080
 4106SOL    HW123951   4.039   4.573   8.487 -3.1639 -0.9707  1.2766
 4106SOL    HW223952   4.124   4.629   8.587  1.3089 -1.3569  2.2688
 4107SOL     OW23953   0.382   3.838  12.050 -0.6064  0.2140  0.9008
 4107SOL    HW123954   0.291   3.819  12.025 -0.5198  2.1991 -0.8453
 4107SOL    HW223955   0.412   3.748  12.062 -0.8043  0.0622  0.2330
 4108SOL     OW23956   0.515   1.823   2.871 -0.1594 -0.4405  0.2441
 4108SOL    HW123957   0.461   1.855   2.943  0.0867  0.0055  0.2291
 4108SOL    HW223958   0.542   1.899   2.820  0.5289  1.0648  2.8265
 4109SOL     OW23959   3.034   2.655   7.792 -0.3420 -0.3735 -0.5749
 4109SOL    HW123960   3.036   2.716   7.865  1.2649 -1.0685 -0.0287
 4109SOL    HW223961   3.103   2.591   7.811 -1.0700 -0.9314  0.1543
 4110SOL     OW23962   1.421   3.843   8.222 -0.2803  0.5426  0.2634
 4110SOL    HW123963   1.365   3.781   8.174  2.5439  0.7138 -3.2030
 4110SOL    HW223964   1.365   3.880   8.290  0.7648  0.2723  1.2524
 4111SOL     OW23965   0.800   3.165   7.152 -0.3143  0.8492 -0.3669
 4111SOL    HW123966   0.820   3.258   7.154  0.1910  0.7525 -0.9831
 4111SOL    HW223967   0.783   3.150   7.245  3.0351  1.6240  0.3654
 4112SOL     OW23968   3.434   0.877  13.073  0.6736  0.1058 -0.1117
 4112SOL    HW123969   3.515   0.928  13.069  1.1261 -0.6603 -0.6434
 4112SOL    HW223970   3.424   0.849  12.982  2.9371  0.7119 -0.5647
 4113SOL     OW23971   1.168   2.864   7.725 -0.2710 -0.2522  0.8432
 4113SOL    HW123972   1.165   2.793   7.660 -1.3996 -0.9348  1.6347
 4113SOL    HW223973   1.191   2.826   7.810  1.5978 -0.0320  0.4220
 4114SOL     OW23974   2.465   2.835   4.922 -0.0507  0.3534 -0.5410
 4114SOL    HW123975   2.492   2.905   4.981  0.9663 -1.1807  0.7803
 4114SOL    HW223976   2.550   2.823   4.880 -0.5589  1.0768 -1.7881
 4115SOL     OW23977   2.246   2.067   6.259 -0.1444  0.3722 -0.3016
 4115SOL    HW123978   2.281   2.102   6.176  0.3345 -1.2160 -0.7719
 4115SOL    HW223979   2.284   2.123   6.327  1.8685 -0.5182 -0.6869
 4116SOL     OW23980   2.624   4.477  12.486 -0.3531  0.1196 -0.0283
 4116SOL    HW123981   2.572   4.435  12.418 -0.5099 -0.9179  0.7451
 4116SOL    HW223982   2.699   4.419  12.500  1.9415  3.2175  0.6239
 4117SOL     OW23983   1.124   1.401  14.193  0.3769  0.3772  0.4616
 4117SOL    HW123984   1.156   1.387  14.283 -0.1968  0.8090  0.7340
 4117SOL    HW223985   1.029   1.404  14.200  0.2233 -0.7280 -1.4287
 4118SOL     OW23986   3.635   0.886  12.832  0.3219 -0.2542 -0.0013
 4118SOL    HW123987   3.643   0.888  12.737 -2.6398 -0.6411 -0.2473
 4118SOL    HW223988   3.710   0.935  12.865  0.3240 -1.0137  1.1262
 4119SOL     OW23989   1.060   0.459   8.289  0.4523  0.7075 -0.0478
 4119SOL    HW123990   1.137   0.424   8.334 -0.3035 -2.6358 -1.3690
 4119SOL    HW223991   1.031   0.521   8.356  0.0742  1.4673 -0.9115
 4120SOL     OW23992   3.315   3.105   3.239  0.1264 -0.0375  0.5061
 4120SOL    HW123993   3.323   3.151   3.156 -1.2886 -0.9326 -0.1227
 4120SOL    HW223994   3.310   3.019   3.198  1.5623 -0.3824  1.0648
 4121SOL     OW23995   4.137   3.626   2.428  0.0922 -0.6830 -0.1630
 4121SOL    HW123996   4.149   3.591   2.517 -2.1180 -1.3651 -0.1309
 4121SOL    HW223997   4.056   3.672   2.451 -0.4514 -0.3950 -2.6964
 4122SOL     OW23998   3.296   0.716  15.589 -0.0956 -0.0792  0.0609
 4122SOL    HW123999   3.240   0.684  15.660  1.5519 -1.3770  0.7777
 4122SOL    HW224000   3.288   0.647  15.522 -0.8967  0.0562  0.0164
 4123SOL     OW24001   1.596   0.680   7.654  0.2924  0.1122  0.5286
 4123SOL    HW124002   1.628   0.740   7.722  2.5971  1.0073 -1.3555
 4123SOL    HW224003   1.676   0.634   7.629 -0.1369 -0.5339  0.3168
 4124SOL     OW24004   0.463   0.458   4.572 -0.2935  0.1488  0.2702
 4124SOL    HW124005   0.445   0.551   4.585  1.9899  0.3680  1.9309
 4124SOL    HW224006   0.438   0.437   4.483  0.7765 -0.3699  0.0859
 4125SOL     OW24007   2.251   3.764  13.825 -0.1974  0.4001  0.7221
 4125SOL    HW124008   2.162   3.773  13.791 -0.6309 -2.6155  1.0476
 4125SOL    HW224009   2.301   3.811  13.759 -0.9712 -3.8876 -2.9580
 4126SOL     OW24010   3.577   1.646   5.374  0.3605  0.0101  0.2029
 4126SOL    HW124011   3.485   1.625   5.364  0.1941  0.7081  0.2905
 4126SOL    HW224012   3.580   1.664   5.468 -2.4459 -0.3362  0.3493
 4127SOL     OW24013   2.741   1.322   1.461 -0.2259 -0.1360 -0.3033
 4127SOL    HW124014   2.798   1.369   1.522 -2.4733  2.0863  0.1200
 4127SOL    HW224015   2.804   1.300   1.393 -0.3984 -0.7835 -0.2506
 4128SOL     OW24016   0.775   0.813   1.857  0.3920 -0.0440  0.3476
 4128SOL    HW124017   0.750   0.855   1.775  0.7136  0.0924  0.3193
 4128SOL    HW224018   0.800   0.885   1.915 -1.0604 -1.2446  2.4913
 4129SOL     OW24019   2.121   4.397  10.011  0.2535 -0.7466  0.0591
 4129SOL    HW124020   2.157   4.309  10.010 -0.5713 -1.0689 -1.1384
 4129SOL    HW224021   2.195   4.441   9.968 -0.5014  1.7629  1.3260
 4130SOL     OW24022   0.126   2.249  15.470 -0.3261 -0.4499  0.2948
 4130SOL    HW124023   0.210   2.226  15.510 -0.6952 -0.1830  1.2223
 4130SOL    HW224024   0.064   2.220  15.537 -0.4099 -1.0010 -0.0256
 4131SOL     OW24025   2.930   0.203   2.592  0.0479 -0.3693  0.3682
 4131SOL    HW124026   3.008   0.161   2.627  0.0583  0.9490  1.9709
 4131SOL    HW224027   2.862   0.181   2.656 -0.3543 -2.1461 -0.6799
 4132SOL     OW24028   4.037   2.236   0.151 -0.0626  0.3719  0.5952
 4132SOL    HW124029   3.966   2.266   0.096  1.7950  1.4729 -1.1899
 4132SOL    HW224030   4.092   2.315   0.152  2.1754 -1.1669 -0.2992
 4133SOL     OW24031   3.817   1.067   5.747 -0.2850  0.3611  0.8086
 4133SOL    HW124032   3.743   1.005   5.742 -1.3315  1.5543  1.5415
 4133SOL    HW224033   3.797   1.120   5.670 -3.4398 -0.9858  0.6829
 4134SOL     OW24034   3.547   2.725  14.659  0.2206  0.1454  0.1964
 4134SOL    HW124035   3.556   2.679  14.575 -0.1519 -0.9621  0.7608
 4134SOL    HW224036   3.468   2.681  14.690  1.3028  0.7099  3.7586
 4135SOL     OW24037   1.870   2.133   0.731 -0.6517  1.0302  0.2066
 4135SOL    HW124038   1.874   2.213   0.679 -2.2288  0.7722 -0.2823
 4135SOL    HW224039   1.815   2.077   0.677  0.0929 -2.0945  2.7097
 4136SOL     OW24040   0.856   0.118   5.841  0.1288  0.0969  0.3844
 4136SOL    HW124041   0.767   0.143   5.866  0.8724  2.1273  1.0527
 4136SOL    HW224042   0.911   0.197   5.846  0.0531  0.2146 -0.6375
 4137SOL     OW24043   0.060   0.447   4.552  0.0461  0.4581  0.0580
 4137SOL    HW124044   0.099   0.476   4.634 -0.5960  3.0548 -0.5665
 4137SOL    HW224045   4.721   0.503   4.541 -0.1956 -0.2433 -1.9655
 4138SOL     OW24046   2.996   2.106  17.222 -0.1716 -0.0185  0.5597
 4138SOL    HW124047   2.998   2.146  17.135 -0.8064  0.2987  0.6937
 4138SOL    HW224048   2.950   2.168  17.278 -0.1462  0.1875  0.3539
 4139SOL     OW24049   1.461   0.922   2.555  0.7420 -0.1607  0.4855
 4139SOL    HW124050   1.393   0.937   2.490  1.8593  1.8256 -0.2178
 4139SOL    HW224051   1.507   1.006   2.556  1.0621 -0.3319  0.2814
 4140SOL     OW24052   4.248   2.598   5.914 -0.1724  0.0285  0.3142
 4140SOL    HW124053   4.183   2.579   5.981 -1.2662 -0.7335 -0.9510
 4140SOL    HW224054   4.297   2.517   5.928  0.4067  0.7223  2.1637
 4141SOL     OW24055   0.803   3.316   3.463  0.8291 -0.4987  0.2197
 4141SOL    HW124056   0.827   3.408   3.471  2.2409 -0.7872 -0.6029
 4141SOL    HW224057   0.844   3.273   3.539  0.3361 -1.4342 -0.0451
 4142SOL     OW24058   2.264   1.753  13.734 -0.2231  0.4785 -0.6840
 4142SOL    HW124059   2.245   1.685  13.670 -0.0695 -1.1874  1.0642
 4142SOL    HW224060   2.315   1.709  13.802  1.6715  1.2751 -1.5787
 4143SOL     OW24061   3.244   0.698   8.060 -0.7819  0.5118  0.0887
 4143SOL    HW124062   3.319   0.757   8.066 -0.7127  0.3284  1.0411
 4143SOL    HW224063   3.228   0.695   7.966  0.3881 -1.0029 -0.0653
 4144SOL     OW24064   2.431   4.221   9.635  0.2456  0.0150 -0.2439
 4144SOL    HW124065   2.522   4.217   9.663  0.0582 -1.0851  0.1943
 4144SOL    HW224066   2.442   4.213   9.540 -0.4355  1.3837 -0.4460
 4145SOL     OW24067   3.185   1.541   2.015  0.3150 -0.1587 -0.0108
 4145SOL    HW124068   3.279   1.550   1.998  1.1367 -1.5372  3.7032
 4145SOL    HW224069   3.176   1.470   2.079 -1.4243  1.0445  1.0824
 4146SOL     OW24070   1.290   2.421   5.576  0.3177 -0.1421  0.0999
 4146SOL    HW124071   1.346   2.498   5.584  0.3540 -0.0673 -0.8495
 4146SOL    HW224072   1.323   2.361   5.642 -2.8777 -2.0708 -0.0401
 4147SOL     OW24073   3.292   1.548   9.989 -0.0515 -1.1957 -0.0923
 4147SOL    HW124074   3.330   1.498  10.062  0.4116  0.6915  0.9693
 4147SOL    HW224075   3.222   1.587  10.041  0.7662 -0.0221  0.1398
 4148SOL     OW24076   4.596   3.943   5.325  0.3130  0.0450  0.1939
 4148SOL    HW124077   4.607   4.019   5.269 -0.7307 -1.3041 -1.8299
 4148SOL    HW224078   4.678   3.955   5.374  0.3149 -2.3307  0.7600
 4149SOL     OW24079   3.862   1.435   5.967  0.8628  0.2480  0.1476
 4149SOL    HW124080   3.825   1.520   5.989 -1.0194 -0.2330 -1.0630
 4149SOL    HW224081   3.777   1.392   5.951  1.6591 -0.4421 -2.2239
 4150SOL     OW24082   2.646   2.432   2.432  0.2795  0.3943 -0.5791
 4150SOL    HW124083   2.705   2.368   2.473  0.6451  0.0351 -1.6708
 4150SOL    HW224084   2.555   2.405   2.442  0.1259  1.1096 -0.0445
 4151SOL     OW24085   2.756   1.399   2.777  0.3300  0.0932  0.5137
 4151SOL    HW124086   2.740   1.414   2.684  1.7335  0.1216  0.2671
 4151SOL    HW224087   2.758   1.304   2.770 -0.8461  0.0518  0.8849
 4152SOL     OW24088   2.226   0.897   4.343 -0.1641  0.9564 -0.3353
 4152SOL    HW124089   2.312   0.858   4.357  0.3943  1.8030 -1.4328
 4152SOL    HW224090   2.250   0.962   4.277 -0.8432 -1.5961 -3.1228
 4153SOL     OW24091   3.050   4.238   0.738 -0.2182 -0.4380  0.0203
 4153SOL    HW124092   3.111   4.311   0.727  0.4697 -0.9602  0.3573
 4153SOL    HW224093   3.113   4.166   0.731  1.2986  0.9869 -0.9042
 4154SOL     OW24094   1.019   1.645   0.344  0.8138  0.2180 -0.3394
 4154SOL    HW124095   1.091   1.645   0.281  1.4808 -2.3175  0.4062
 4154SOL    HW224096   1.020   1.736   0.372  0.8302  0.7731 -2.2130
 4155SOL     OW24097   4.151   4.570   2.466 -0.5194  0.6535  0.9522
 4155SOL    HW124098   4.184   4.638   2.408 -1.4233  0.6408  0.4313
 4155SOL    HW224099   4.061   4.590   2.490 -0.1084  3.9144 -0.3110
 4156SOL     OW24100   4.506   0.670   9.990  0.2724 -0.0617 -0.3367
 4156SOL    HW124101   4.599   0.689   9.994  0.3920 -0.4420 -1.5872
 4156SOL    HW224102   4.494   0.576  10.006 -1.4477  0.2646  0.3484
 4157SOL     OW24103   3.379   4.214   2.606 -0.0021  0.2144  0.6262
 4157SOL    HW124104   3.417   4.195   2.521  0.6294 -2.6036  1.5381
 4157SOL    HW224105   3.302   4.158   2.611  0.1012  0.1412  1.5630
 4158SOL     OW24106   3.643   3.268   4.749 -0.3258  0.4397  0.5151
 4158SOL    HW124107   3.547   3.274   4.748 -0.3721 -0.4573 -0.3687
 4158SOL    HW224108   3.648   3.176   4.773  0.1235 -0.1852 -1.9399
 4159SOL     OW24109   2.551   4.520   2.629 -0.1760 -0.3306 -0.4226
 4159SOL    HW124110   2.625   4.459   2.633 -1.2404 -1.5038  1.3193
 4159SOL    HW224111   2.533   4.509   2.536  0.3004 -0.0434 -0.5484
 4160SOL     OW24112   1.369   3.665   3.075 -0.2049  0.2589 -0.0620
 4160SOL    HW124113   1.421   3.605   3.020  0.3808 -1.2961  2.2012
 4160SOL    HW224114   1.330   3.729   3.015 -0.3876  0.8283  0.6789
 4161SOL     OW24115   3.448   3.015   6.033 -0.9310 -0.5013  0.5801
 4161SOL    HW124116   3.387   2.974   5.972 -0.3798 -1.3320  0.5784
 4161SOL    HW224117   3.526   2.960   6.028 -1.3240 -1.0289  0.2346
 4162SOL     OW24118   3.047   0.421   6.969 -1.0229 -0.6555 -0.1156
 4162SOL    HW124119   3.020   0.335   6.938 -0.7263 -1.1862  1.1319
 4162SOL    HW224120   3.140   0.423   6.949 -1.3490  1.4113 -1.4621
 4163SOL     OW24121   2.231   2.775   5.447  0.3319  0.1079  0.0021
 4163SOL    HW124122   2.293   2.792   5.375 -0.2818 -0.3636 -0.6419
 4163SOL    HW224123   2.165   2.732   5.392 -1.5306  2.1149  0.6790
 4164SOL     OW24124   3.330   0.353   6.266  0.6066  0.0023  0.3453
 4164SOL    HW124125   3.234   0.361   6.263  0.6475  0.3898  0.1940
 4164SOL    HW224126   3.336   0.258   6.275  1.1350 -0.0711 -0.8197
 4165SOL     OW24127   2.732   0.692   7.914 -0.1957  0.4232  0.6102
 4165SOL    HW124128   2.743   0.598   7.930  1.0270 -0.0113 -2.8390
 4165SOL    HW224129   2.771   0.744   7.985  1.9681  0.5670 -0.6932
 4166SOL     OW24130   4.134   3.691   7.099  0.4438  0.3322  0.6039
 4166SOL    HW124131   4.187   3.727   7.171 -0.2354 -0.8222  1.6947
 4166SOL    HW224132   4.148   3.762   7.037  0.4128  0.2760  0.5336
 4167SOL     OW24133   2.929   0.394  14.095  0.3648  0.0306  1.0403
 4167SOL    HW124134   2.898   0.455  14.028 -0.3460 -1.5254 -0.0633
 4167SOL    HW224135   2.986   0.341  14.038  0.0685 -0.4466  1.1880
 4168SOL     OW24136   2.458   1.187   4.466  0.5553  0.3130  0.2289
 4168SOL    HW124137   2.423   1.167   4.379  1.7147 -3.3207  0.5865
 4168SOL    HW224138   2.451   1.282   4.474 -0.3510  0.3441 -0.8795
 4169SOL     OW24139   3.312   2.282  11.679 -0.1783 -0.3110 -0.0005
 4169SOL    HW124140   3.278   2.340  11.611 -0.0191 -1.9399 -1.4783
 4169SOL    HW224141   3.240   2.232  11.719 -1.2018 -0.3535 -1.9160
 4170SOL     OW24142   2.516   1.946  16.399  0.6874  0.2704 -0.2225
 4170SOL    HW124143   2.440   1.924  16.345 -0.1914 -0.7584  1.4479
 4170SOL    HW224144   2.583   1.970  16.335  0.8925  0.1647 -0.0499
 4171SOL     OW24145   2.088   3.760   4.240  0.1048  0.2008 -0.2085
 4171SOL    HW124146   2.048   3.786   4.323 -1.0684 -1.4778 -0.2416
 4171SOL    HW224147   2.178   3.738   4.263 -0.6047  0.7563  3.0266
 4172SOL     OW24148   3.026   4.280   9.292  0.6012 -0.2845 -0.3681
 4172SOL    HW124149   3.014   4.307   9.201 -0.3382  2.2007  0.4841
 4172SOL    HW224150   3.012   4.187   9.279 -1.0726 -0.3364  1.8431
 4173SOL     OW24151   4.443   3.928  12.017 -0.8406 -0.1397 -0.1363
 4173SOL    HW124152   4.426   3.880  12.099  2.3734 -2.5016 -0.8521
 4173SOL    HW224153   4.420   4.015  12.049 -3.1635 -0.0854 -1.8946
 4174SOL     OW24154   0.164   2.566   7.785  0.0602 -0.0706  0.2206
 4174SOL    HW124155   0.082   2.613   7.797  0.4849  0.2150  1.9620
 4174SOL    HW224156   0.152   2.475   7.812  0.7436 -0.1489  0.2663
 4175SOL     OW24157   4.137   3.344   7.317 -0.1701  0.0791 -0.1045
 4175SOL    HW124158   4.123   3.430   7.279  1.0392 -0.5886 -2.0224
 4175SOL    HW224159   4.179   3.297   7.245 -1.5082 -0.7904 -0.3183
 4176SOL     OW24160   2.848   3.767   5.242  0.1016 -0.4375 -0.0075
 4176SOL    HW124161   2.869   3.798   5.330 -1.7474 -0.5001  0.4687
 4176SOL    HW224162   2.865   3.673   5.249 -0.5594 -0.5153  0.5838
 4177SOL     OW24163   0.697   1.932  12.510  0.5775 -0.2782 -0.3338
 4177SOL    HW124164   0.722   1.910  12.600 -1.7038  0.7351  0.5563
 4177SOL    HW224165   0.777   1.915  12.461  1.3650  0.5872  0.6499
 4178SOL     OW24166   2.317   0.186   1.152 -0.2155 -0.4858 -0.1302
 4178SOL    HW124167   2.377   0.122   1.191  0.6083  0.2563 -0.1851
 4178SOL    HW224168   2.280   0.132   1.082 -1.5585 -1.2452  1.1612
 4179SOL     OW24169   0.789   0.393   5.597  0.2875  0.0760  0.4923
 4179SOL    HW124170   0.779   0.299   5.612  1.1491 -0.4464 -2.1640
 4179SOL    HW224171   0.862   0.386   5.536 -0.6082 -0.1493 -0.5499
 4180SOL     OW24172   2.694   3.451   4.937  0.1633 -0.1194  0.4823
 4180SOL    HW124173   2.616   3.438   4.882  1.4981  0.4586 -1.5487
 4180SOL    HW224174   2.764   3.446   4.872 -0.1893 -1.4425  0.1992
 4181SOL     OW24175   0.351   0.671   0.513  0.6303 -0.6507  0.2991
 4181SOL    HW124176   0.426   0.731   0.519 -1.3195  1.9479 -1.1084
 4181SOL    HW224177   0.336   0.671   0.419 -0.0612 -0.1394  0.4116
 4182SOL     OW24178   0.009   0.845   2.860  0.1514  0.2390  0.4378
 4182SOL    HW124179   0.097   0.858   2.893 -0.3534 -0.6183  2.1247
 4182SOL    HW224180   4.687   0.849   2.935  0.9976  0.6315  1.0857
 4183SOL     OW24181   2.232   0.610  11.814 -0.1435  0.1016 -0.2031
 4183SOL    HW124182   2.273   0.569  11.738 -1.3494  0.5087 -1.0789
 4183SOL    HW224183   2.143   0.615  11.780  0.4101 -2.5009 -2.0189
 4184SOL     OW24184   2.069   3.598  17.142 -0.5971 -0.2742  0.1393
 4184SOL    HW124185   2.042   3.614  17.232 -1.0869  0.4419 -0.1320
 4184SOL    HW224186   2.131   3.671  17.135 -1.1697  0.0223 -1.9522
 4185SOL     OW24187   1.358   3.835   2.679  0.2668  0.5308  0.0142
 4185SOL    HW124188   1.301   3.841   2.602 -1.1113  2.0843  1.1757
 4185SOL    HW224189   1.437   3.783   2.663 -1.0381 -1.6756  0.6875
 4186SOL     OW24190   1.662   4.682  15.135 -0.2280  0.7246  0.1111
 4186SOL    HW124191   1.661   4.601  15.186  1.1978 -0.7180 -2.1355
 4186SOL    HW224192   1.755   4.702  15.124  0.1150 -0.5647  0.7324
 4187SOL     OW24193   3.291   1.779   2.454  0.0743 -0.2034  0.2668
 4187SOL    HW124194   3.246   1.695   2.447 -0.0028 -0.0555 -1.0248
 4187SOL    HW224195   3.369   1.771   2.398 -0.2295 -0.8016 -0.0743
 4188SOL     OW24196   3.964   4.507   7.912  0.3260  0.1186 -0.1011
 4188SOL    HW124197   3.965   4.532   7.819 -1.5609  1.3002  0.2083
 4188SOL    HW224198   3.927   4.588   7.945 -0.5806 -1.0136  1.6375
 4189SOL     OW24199   2.081   4.089  11.969 -0.4312 -0.4015  0.1326
 4189SOL    HW124200   2.163   4.065  11.926 -0.5778  0.9620 -0.9385
 4189SOL    HW224201   2.027   4.013  11.946 -0.5616 -0.7436  1.5910
 4190SOL     OW24202   1.505   2.134   8.013  0.2389  0.1155 -0.1329
 4190SOL    HW124203   1.540   2.090   7.936 -1.3226  0.1850 -0.8860
 4190SOL    HW224204   1.477   2.216   7.971 -1.3016 -0.8724 -1.0233
 4191SOL     OW24205   3.556   0.734   3.362 -0.6994 -0.0256  0.0199
 4191SOL    HW124206   3.623   0.680   3.405  0.2007  0.4830 -0.7543
 4191SOL    HW224207   3.577   0.821   3.397 -1.0253 -0.0082  0.1735
 4192SOL     OW24208   4.339   3.389   7.860 -0.0707 -0.1007 -0.4743
 4192SOL    HW124209   4.319   3.326   7.791  0.6798 -0.1685 -0.6284
 4192SOL    HW224210   4.270   3.380   7.926 -1.8337  0.3620 -2.2738
 4193SOL     OW24211   3.488   1.253   8.571 -0.9077  0.0775 -0.0015
 4193SOL    HW124212   3.427   1.215   8.634 -0.6279 -0.4378 -0.0435
 4193SOL    HW224213   3.547   1.180   8.553 -0.5780  0.0886  1.0690
 4194SOL     OW24214   2.464   0.278   3.001  0.0161  0.4790  0.0081
 4194SOL    HW124215   2.436   0.307   2.914  0.6622 -1.4599 -0.8615
 4194SOL    HW224216   2.407   0.206   3.029  0.3208  0.9198  1.7672
 4195SOL     OW24217   1.760   1.294   8.778 -0.0501 -0.2370  0.1581
 4195SOL    HW124218   1.757   1.219   8.838 -0.8287 -0.8989 -0.7063
 4195SOL    HW224219   1.672   1.314   8.748  1.0620  0.6027 -2.6160
 4196SOL     OW24220   3.530   4.513   3.919 -0.1740  0.0433  0.2524
 4196SOL    HW124221   3.466   4.529   3.988 -1.9330  0.7581 -1.5734
 4196SOL    HW224222   3.559   4.432   3.962  0.7081 -0.2846 -0.9711
 4197SOL     OW24223   3.890   3.681  16.763  0.4351  0.2696 -0.3091
 4197SOL    HW124224   3.906   3.596  16.722  2.3603  1.0108 -1.0567
 4197SOL    HW224225   3.893   3.655  16.855 -2.3996 -3.2662 -1.1992
 4198SOL     OW24226   4.037   3.649   9.573 -0.5340  0.6571 -0.0746
 4198SOL    HW124227   4.016   3.568   9.529 -1.0052 -0.1341  1.5835
 4198SOL    HW224228   3.978   3.633   9.647  0.2776 -0.0446  0.4280
 4199SOL     OW24229   4.596   2.523   0.752  0.3461  0.5788  0.3850
 4199SOL    HW124230   4.533   2.573   0.803  0.5746 -0.3015  1.5446
 4199SOL    HW224231   4.629   2.464   0.820  0.4515 -1.5530 -1.4867
 4200SOL     OW24232   3.025   3.731   4.810 -0.0038 -0.3439 -0.0481
 4200SOL    HW124233   3.030   3.760   4.901 -0.8049  1.0276 -0.4466
 4200SOL    HW224234   2.957   3.664   4.809 -1.5830  1.2628  0.3122
 4201SOL     OW24235   3.924   4.359   4.477 -0.1139  0.2515 -0.2528
 4201SOL    HW124236   3.891   4.346   4.388  0.4748  1.5595 -0.6596
 4201SOL    HW224237   3.835   4.357   4.515 -0.3208  1.0477 -0.6906
 4202SOL     OW24238   0.796   1.494   7.534  0.4000  0.4616 -0.5423
 4202SOL    HW124239   0.813   1.401   7.543 -2.5130  0.1284  1.5917
 4202SOL    HW224240   0.789   1.504   7.439 -1.7252 -0.2221 -0.4619
 4203SOL     OW24241   1.647   2.192   7.399 -0.1673  0.1687  0.0730
 4203SOL    HW124242   1.630   2.214   7.307  0.6647  0.6644  0.0436
 4203SOL    HW224243   1.578   2.126   7.411 -0.1693 -0.0277 -0.9886
 4204SOL     OW24244   3.685   1.130   4.093  0.1369  0.0620  0.0798
 4204SOL    HW124245   3.711   1.075   4.167 -2.4792 -2.3369 -0.7973
 4204SOL    HW224246   3.709   1.219   4.121 -1.4900  0.8915 -1.1852
 4205SOL     OW24247   2.959   4.023  13.323  0.0202  0.1459 -0.2799
 4205SOL    HW124248   3.050   4.010  13.349  0.1791  1.0295 -0.3867
 4205SOL    HW224249   2.959   4.118  13.327 -1.5661  0.1478 -0.1236
 4206SOL     OW24250   0.271   1.036   9.322 -0.3406  0.1653 -0.1847
 4206SOL    HW124251   0.361   1.011   9.343 -0.4799  2.7200  3.2923
 4206SOL    HW224252   0.284   1.111   9.264  1.2099 -1.2070 -1.6035
 4207SOL     OW24253   4.407   0.527  10.905 -0.4028  0.2096 -0.7221
 4207SOL    HW124254   4.492   0.547  10.865 -0.2759  0.4945 -0.3137
 4207SOL    HW224255   4.429   0.479  10.984 -1.9203 -0.1270 -0.5125
 4208SOL     OW24256   3.904   2.243   8.832  0.1393  0.4758 -0.0225
 4208SOL    HW124257   3.937   2.198   8.910 -0.5519 -2.9567 -1.6742
 4208SOL    HW224258   3.988   2.278   8.802  0.0043 -0.0819 -1.0699
 4209SOL     OW24259   1.586   4.019   4.565  0.2159  0.0486  0.4638
 4209SOL    HW124260   1.561   4.044   4.654  2.0513 -0.3243  1.0864
 4209SOL    HW224261   1.554   3.929   4.565 -0.1074  0.1615  1.6745
 4210SOL     OW24262   1.406   4.582   2.760 -0.8648 -0.2559  0.2766
 4210SOL    HW124263   1.424   4.493   2.733  2.5055  0.3876  0.4673
 4210SOL    HW224264   1.317   4.595   2.728 -0.2002  1.0984 -0.9893
 4211SOL     OW24265   0.504   0.089  12.066 -0.2043  0.6793 -0.1389
 4211SOL    HW124266   0.591   0.105  12.103  0.1625 -0.3919 -0.5560
 4211SOL    HW224267   0.476   0.177  12.039  0.0313  0.5804 -0.6982
 4212SOL     OW24268   1.374   3.532   7.529  0.5290 -0.2086  0.2851
 4212SOL    HW124269   1.453   3.518   7.581  0.6426  0.5541  0.3058
 4212SOL    HW224270   1.414   3.590   7.465  1.2720 -0.1889  0.7693
 4213SOL     OW24271   2.796   0.089  10.412 -0.1910  0.3314 -0.3727
 4213SOL    HW124272   2.737   0.082  10.488 -0.1324 -0.1810 -0.3733
 4213SOL    HW224273   2.739   0.145  10.359  1.7374  0.8986 -1.8272
 4214SOL     OW24274   4.037   0.591   3.067 -0.1280  0.5742 -0.1041
 4214SOL    HW124275   4.037   0.617   3.159  0.6174  0.5578 -0.1013
 4214SOL    HW224276   4.123   0.624   3.040 -0.5922 -0.3278 -2.7385
 4215SOL     OW24277   3.824   3.538  17.012  0.0075 -0.3354 -0.2273
 4215SOL    HW124278   3.885   3.473  17.046  0.5206  0.1245 -0.2821
 4215SOL    HW224279   3.771   3.554  17.090 -0.0367 -1.1002 -0.1060
 4216SOL     OW24280   3.714   0.507   5.228 -0.3795  0.5570  0.1635
 4216SOL    HW124281   3.745   0.434   5.174  0.3843  0.9240  0.0973
 4216SOL    HW224282   3.677   0.565   5.162 -2.1244 -1.7156 -0.8365
 4217SOL     OW24283   3.996   2.804   2.016  0.8257  0.0077  0.5174
 4217SOL    HW124284   4.003   2.709   2.019  0.1158 -0.1065 -1.2657
 4217SOL    HW224285   3.988   2.831   2.107  1.4589 -2.0417  1.1755
 4218SOL     OW24286   3.883   2.712   4.299 -0.1735 -0.4913 -0.3003
 4218SOL    HW124287   3.799   2.758   4.302 -0.1214 -0.4123 -0.0731
 4218SOL    HW224288   3.934   2.762   4.235 -0.2822 -1.1356 -0.8999
 4219SOL     OW24289   0.226   2.991   0.495  0.7809 -0.1305  0.8654
 4219SOL    HW124290   0.321   2.999   0.482  0.5428 -0.9430 -1.2464
 4219SOL    HW224291   0.210   3.007   0.588  0.6235  0.4262  0.7455
 4220SOL     OW24292   3.027   4.198  16.349 -0.7033  0.7191  0.0144
 4220SOL    HW124293   2.988   4.112  16.333  0.5857  0.2600 -0.6633
 4220SOL    HW224294   2.948   4.231  16.392 -0.6835  1.8378 -0.8021
 4221SOL     OW24295   3.622   1.261   5.980  0.0586  0.3805  0.2163
 4221SOL    HW124296   3.587   1.181   6.019  0.6345 -0.3029 -0.6871
 4221SOL    HW224297   3.558   1.281   5.912  0.0068  1.0065  0.4501
 4222SOL     OW24298   0.342   3.758   1.453 -0.1144  0.1595 -0.1508
 4222SOL    HW124299   0.325   3.689   1.389  1.4854 -0.3903  0.0024
 4222SOL    HW224300   0.423   3.798   1.421  0.9312 -1.4485  0.4799
 4223SOL     OW24301   3.059   4.102   7.932 -0.3739  0.2415 -0.3160
 4223SOL    HW124302   3.021   4.048   7.863  3.2616 -3.5377  0.5825
 4223SOL    HW224303   3.030   4.184   7.892  0.8708  0.1817 -1.3621
 4224SOL     OW24304   2.374   4.090   4.811  0.0855  0.0595 -0.4864
 4224SOL    HW124305   2.442   4.065   4.873  0.2202 -0.0455 -0.6775
 4224SOL    HW224306   2.406   4.053   4.729 -1.0978  1.8881 -1.7749
 4225SOL     OW24307   4.244   4.107   2.808  0.0008 -0.5750  0.2247
 4225SOL    HW124308   4.268   4.193   2.772 -1.6227 -0.7900 -1.3695
 4225SOL    HW224309   4.249   4.048   2.733  1.3594 -0.2848  0.0762
 4226SOL     OW24310   1.901   4.061  13.113 -0.0792  0.7454  0.4436
 4226SOL    HW124311   1.944   4.146  13.100  2.7174 -0.7880 -0.1986
 4226SOL    HW224312   1.934   4.010  13.039 -1.4922 -1.0256  1.0275
 4227SOL     OW24313   0.483   4.040   3.936 -0.7157 -0.0306  0.4706
 4227SOL    HW124314   0.401   4.061   3.979 -0.3592  0.1499  1.0667
 4227SOL    HW224315   0.488   4.105   3.867  2.8655 -0.0820  0.6514
 4228SOL     OW24316   0.390   0.584   5.353 -0.4485  0.2895 -0.2194
 4228SOL    HW124317   0.348   0.658   5.396  0.4139 -0.0513  1.2269
 4228SOL    HW224318   0.467   0.574   5.409  1.1001  3.5392 -1.8095
 4229SOL     OW24319   4.684   4.471  10.189  0.1922 -0.2633 -0.0884
 4229SOL    HW124320   4.659   4.515  10.270  1.0599 -1.0139  0.5917
 4229SOL    HW224321   0.032   4.505  10.165  0.1725  0.6023  1.1111
 4230SOL     OW24322   2.756   3.703  10.494 -0.6314  0.3604  0.8132
 4230SOL    HW124323   2.668   3.718  10.529 -0.9978  1.0379 -0.4180
 4230SOL    HW224324   2.769   3.618  10.536 -0.6537 -0.5972 -1.1014
 4231SOL     OW24325   0.537   1.922   9.541  0.2799  0.0957  0.0960
 4231SOL    HW124326   0.606   1.968   9.491  0.4620  0.6542  0.8575
 4231SOL    HW224327   0.569   1.836   9.515  0.4751 -0.3432  1.8288
 4232SOL     OW24328   4.256   1.132   4.527  0.1715  0.4340 -0.3854
 4232SOL    HW124329   4.317   1.058   4.520  0.3687  0.5842 -0.2637
 4232SOL    HW224330   4.313   1.204   4.500 -0.9286  1.5308  0.2567
 4233SOL     OW24331   2.352   1.142   3.168  0.0471  0.1974  0.3528
 4233SOL    HW124332   2.410   1.093   3.111  0.3322 -0.1182  0.9134
 4233SOL    HW224333   2.268   1.103   3.141  0.2686  0.6334 -0.9635
 4234SOL     OW24334   1.751   1.796   6.166  0.6673 -0.4821 -0.5127
 4234SOL    HW124335   1.739   1.890   6.150 -0.9693 -0.6543 -0.2503
 4234SOL    HW224336   1.834   1.785   6.120  0.9285  0.9947 -0.3930
 4235SOL     OW24337   1.441   1.872   1.224  0.5406 -0.1425 -0.3106
 4235SOL    HW124338   1.523   1.825   1.211 -1.0536 -2.5013 -1.8808
 4235SOL    HW224339   1.471   1.961   1.203 -1.0831  0.0170 -1.9429
 4236SOL     OW24340   2.873   0.034   3.155 -0.0818 -0.2598  0.8026
 4236SOL    HW124341   2.927   0.109   3.181 -2.1763  1.9040 -1.0195
 4236SOL    HW224342   2.877   4.709   3.227  0.7032  0.2782  1.2238
 4237SOL     OW24343   0.570   4.714   4.994  0.0738 -0.0308 -0.6065
 4237SOL    HW124344   0.584   4.666   4.912  0.0606  0.7909 -1.0795
 4237SOL    HW224345   0.591   0.067   4.974 -3.4155  0.9419  0.1708
 4238SOL     OW24346   1.336   2.851   3.929 -0.5488  0.0795 -1.1084
 4238SOL    HW124347   1.341   2.835   3.835  1.8541 -0.1407 -0.9432
 4238SOL    HW224348   1.246   2.882   3.938 -0.3584  0.1859  0.5059
 4239SOL     OW24349   0.631   1.863   6.615  0.0812 -0.5194  0.1155
 4239SOL    HW124350   0.568   1.847   6.685  1.2076 -0.8793  1.0397
 4239SOL    HW224351   0.695   1.795   6.639  0.2957 -0.0116  0.9766
 4240SOL     OW24352   0.540   4.097  16.842  0.2425  0.1436  0.2596
 4240SOL    HW124353   0.524   4.018  16.895  0.7915  1.0777  1.8066
 4240SOL    HW224354   0.512   4.077  16.753  0.2526  0.1247  0.2607
 4241SOL     OW24355   3.644   1.507   9.359  0.1518 -0.2447  0.1097
 4241SOL    HW124356   3.599   1.531   9.278  2.6571  3.7357 -0.0562
 4241SOL    HW224357   3.643   1.411   9.358 -1.3278 -0.2288 -0.6444
 4242SOL     OW24358   1.015   1.965   2.672  0.1383 -0.2247  0.7071
 4242SOL    HW124359   1.019   1.885   2.725 -0.1569  0.3084  1.5334
 4242SOL    HW224360   1.103   2.001   2.672  0.3639 -0.7718  0.3025
 4243SOL     OW24361   4.605   4.017  13.334 -0.1704 -0.1597 -0.6403
 4243SOL    HW124362   4.516   4.050  13.320 -0.5805 -1.2727 -0.6671
 4243SOL    HW224363   4.650   4.088  13.380 -0.0769 -1.1474  0.7900
 4244SOL     OW24364   4.480   3.758   2.337  0.7096 -0.1800  0.1879
 4244SOL    HW124365   4.437   3.813   2.272 -0.0161 -2.0187 -0.8762
 4244SOL    HW224366   4.444   3.772   2.425  0.8525 -1.1619  0.4055
 4245SOL     OW24367   0.095   0.602   1.721  0.1038  0.7034 -0.0344
 4245SOL    HW124368   0.159   0.531   1.727  0.6176  1.1898  0.2430
 4245SOL    HW224369   0.131   0.667   1.781 -2.7059  0.9480  1.3676
 4246SOL     OW24370   0.635   3.087  10.856  0.0191 -0.3659  0.2771
 4246SOL    HW124371   0.617   3.173  10.895 -0.2915  0.4457 -1.6629
 4246SOL    HW224372   0.730   3.098  10.862  0.0592 -1.9682  2.7053
 4247SOL     OW24373   4.694   4.455   8.165 -0.5141 -0.0186 -0.1983
 4247SOL    HW124374   4.731   4.406   8.091 -2.2019 -2.1802  0.3956
 4247SOL    HW224375   4.600   4.441   8.170 -0.3166 -0.5211  2.0165
 4248SOL     OW24376   3.513   2.964  16.589  0.3734  0.1985 -0.2353
 4248SOL    HW124377   3.585   3.013  16.549  0.4077 -0.8430 -1.4283
 4248SOL    HW224378   3.511   2.886  16.534  0.6050 -0.7248  1.0568
 4249SOL     OW24379   0.586   2.915   9.055 -0.6827  0.3197 -0.0541
 4249SOL    HW124380   0.661   2.902   9.113  0.0554 -1.8985 -1.4877
 4249SOL    HW224381   0.513   2.894   9.115 -0.1806  1.0278  0.8105
 4250SOL     OW24382   3.773   4.543   3.247  0.1066 -0.1729  0.0815
 4250SOL    HW124383   3.747   4.451   3.259  0.2931 -0.1876  0.3835
 4250SOL    HW224384   3.825   4.558   3.326 -0.6233 -1.7648  0.8639
 4251SOL     OW24385   4.712   2.702   7.941  0.5530  0.3512  0.0401
 4251SOL    HW124386   4.733   2.657   8.023 -2.7062 -3.0000 -0.9684
 4251SOL    HW224387   4.641   2.760   7.968  0.1447 -0.9106  1.7307
 4252SOL     OW24388   1.325   4.380  17.145 -0.0418  0.4587 -0.1209
 4252SOL    HW124389   1.270   4.389  17.223  0.7659 -0.2396  0.5201
 4252SOL    HW224390   1.396   4.328  17.182 -0.7851 -0.4393  0.0310
 4253SOL     OW24391   2.458   3.603   3.160 -0.5789  0.2050  0.1544
 4253SOL    HW124392   2.512   3.677   3.189  2.4455 -2.3908  1.1156
 4253SOL    HW224393   2.384   3.621   3.218  0.1412  0.0016  1.1439
 4254SOL     OW24394   2.355   3.756   0.818 -0.4772 -0.1211 -0.7755
 4254SOL    HW124395   2.273   3.730   0.776  0.8759 -1.4253 -2.6952
 4254SOL    HW224396   2.349   3.703   0.898  0.5731 -2.0711 -1.9717
 4255SOL     OW24397   1.866   0.115   9.050  0.1182  0.3490  0.0902
 4255SOL    HW124398   1.773   0.121   9.030  0.3807  1.2559 -0.8738
 4255SOL    HW224399   1.892   0.077   8.966 -0.9044 -1.7407  0.7230
 4256SOL     OW24400   3.938   1.128  16.682 -0.8363  0.1545 -0.1196
 4256SOL    HW124401   3.885   1.201  16.653  1.5584  0.6492 -3.2622
 4256SOL    HW224402   3.940   1.138  16.777 -2.6534 -0.1003 -0.0550
 4257SOL     OW24403   0.135   3.914   7.671  0.7132  0.3080 -0.3655
 4257SOL    HW124404   0.133   3.923   7.575 -0.8179 -1.5583 -0.4961
 4257SOL    HW224405   0.208   3.852   7.669  0.9358  0.5596  0.0074
 4258SOL     OW24406   1.856   3.026   4.635  0.1632 -0.5588  0.6269
 4258SOL    HW124407   1.934   3.071   4.666  1.3084  0.0899 -3.1768
 4258SOL    HW224408   1.786   3.075   4.679 -1.1980 -1.8003 -0.1511
 4259SOL     OW24409   3.561   0.526   6.862 -0.0369 -0.0651  0.2843
 4259SOL    HW124410   3.619   0.451   6.848  0.3064  0.3025 -0.2603
 4259SOL    HW224411   3.551   0.514   6.957 -0.8074 -0.4506  0.1549
 4260SOL     OW24412   4.353   4.546   9.246  0.7425  0.3379  0.5120
 4260SOL    HW124413   4.359   4.563   9.152  1.2590 -1.5982  0.1939
 4260SOL    HW224414   4.412   4.616   9.274  0.6798  0.7240 -0.3308
 4261SOL     OW24415   3.464   2.163  10.436  0.5342  0.5253  0.0968
 4261SOL    HW124416   3.455   2.176  10.530 -0.4717 -4.1170  0.6582
 4261SOL    HW224417   3.528   2.093  10.420 -0.0731  0.1905 -0.8494
 4262SOL     OW24418   1.812   0.218   6.248  0.1168  0.3399  0.0853
 4262SOL    HW124419   1.783   0.308   6.267  0.2783  1.0256 -2.9192
 4262SOL    HW224420   1.780   0.202   6.160  1.2313  0.9091 -0.4289
 4263SOL     OW24421   4.636   2.063   0.195 -0.1066  0.2665  0.2938
 4263SOL    HW124422   4.697   2.126   0.233 -1.0619  0.8578  0.8693
 4263SOL    HW224423   4.550   2.106   0.198  1.2807  3.0261  0.7474
 4264SOL     OW24424   2.857   2.005  14.046 -0.0829 -0.1760  0.6001
 4264SOL    HW124425   2.902   1.954  13.979  2.9187 -0.1125  2.5551
 4264SOL    HW224426   2.888   1.966  14.128 -2.8677 -0.7180  1.3817
 4265SOL     OW24427   3.579   3.715   2.398 -0.1502 -0.5333  0.5705
 4265SOL    HW124428   3.591   3.795   2.448  2.3491  0.6759 -1.9788
 4265SOL    HW224429   3.604   3.646   2.460 -0.6488 -1.0840  0.1541
 4266SOL     OW24430   0.805   1.927   7.485  0.0704  0.0519  0.0366
 4266SOL    HW124431   0.736   1.985   7.518  0.1660  0.0292  0.2709
 4266SOL    HW224432   0.870   1.950   7.552  1.1293 -0.0820 -0.9381
 4267SOL     OW24433   1.642   2.372   6.101  0.2574 -0.3068  0.5272
 4267SOL    HW124434   1.597   2.455   6.114  0.0089 -0.5993  1.5384
 4267SOL    HW224435   1.729   2.390   6.138  1.1459 -0.3477 -1.5589
 4268SOL     OW24436   2.772   0.011  14.769 -0.0515 -0.0102 -0.3363
 4268SOL    HW124437   2.821   0.092  14.783 -2.8315  2.0246 -2.2351
 4268SOL    HW224438   2.680   0.035  14.787 -0.2747 -0.2673 -1.1526
 4269SOL     OW24439   4.670   0.794  14.130  0.0912 -0.2212  0.3827
 4269SOL    HW124440   4.605   0.862  14.115  1.4291  0.7438 -1.0272
 4269SOL    HW224441   4.735   0.839  14.184 -0.1953  1.0243 -0.3135
 4270SOL     OW24442   1.998   2.827   1.752 -0.3045  0.2829 -0.0954
 4270SOL    HW124443   2.092   2.844   1.741 -0.1948 -0.6073 -0.5476
 4270SOL    HW224444   1.995   2.733   1.772  0.7777  0.4828  0.9747
 4271SOL     OW24445   2.053   3.099   6.511  0.3368  0.6279 -0.6729
 4271SOL    HW124446   2.112   3.110   6.436 -0.0908 -2.1000 -1.4193
 4271SOL    HW224447   2.113   3.116   6.583 -1.7481 -0.8259  1.3785
 4272SOL     OW24448   4.332   4.592   4.853  0.2096 -0.2164  0.5547
 4272SOL    HW124449   4.239   4.588   4.833 -0.2063 -1.1719  2.6134
 4272SOL    HW224450   4.349   4.676   4.811  0.4159 -1.2705 -1.4939
 4273SOL     OW24451   0.065   4.353   1.187 -0.4248  0.7233  0.8439
 4273SOL    HW124452   0.089   4.284   1.125 -2.8870 -0.0636  0.7573
 4273SOL    HW224453   0.110   4.428   1.147  0.5652  0.5089  1.5610
 4274SOL     OW24454   3.351   1.077   5.799  0.0539 -0.0975 -0.1795
 4274SOL    HW124455   3.393   1.160   5.824  1.5982 -0.2378 -2.2838
 4274SOL    HW224456   3.291   1.100   5.728  0.4493  2.8957  0.4598
 4275SOL     OW24457   4.549   0.940   9.533 -0.7981  0.1142  0.2562
 4275SOL    HW124458   4.587   0.909   9.615  1.3262 -1.5244 -1.3492
 4275SOL    HW224459   4.630   0.938   9.482 -0.8923 -1.8191  0.1595
 4276SOL     OW24460   1.850   4.159   7.783  0.5826 -0.5183  0.6341
 4276SOL    HW124461   1.946   4.160   7.774  0.5871  0.4253  0.8183
 4276SOL    HW224462   1.829   4.242   7.742  0.0141 -1.1150 -0.2804
 4277SOL     OW24463   2.843   1.932   7.639 -0.3665  0.2519  0.5670
 4277SOL    HW124464   2.831   1.979   7.721 -1.0433  0.4763  0.3399
 4277SOL    HW224465   2.756   1.938   7.601 -0.0672  0.1869 -0.1251
 4278SOL     OW24466   4.512   3.495  17.618  0.1244 -0.0486 -0.6092
 4278SOL    HW124467   4.441   3.448  17.573 -1.4615 -0.4951  2.2813
 4278SOL    HW224468   4.478   3.470  17.705 -0.6037 -2.2694 -1.5348
 4279SOL     OW24469   2.275   3.676   8.479 -0.1009  0.2364  0.1918
 4279SOL    HW124470   2.361   3.709   8.452  0.0350  0.8324  1.3628
 4279SOL    HW224471   2.262   3.706   8.568 -0.1489 -0.3246  0.3742
 4280SOL     OW24472   2.942   3.430   6.298 -0.2718 -0.5647  0.3970
 4280SOL    HW124473   2.912   3.488   6.228 -1.3253 -1.1307  0.3821
 4280SOL    HW224474   2.975   3.495   6.360 -1.1529  0.3133 -0.0649
 4281SOL     OW24475   2.959   3.929   2.377  0.3021 -0.4275 -0.0482
 4281SOL    HW124476   3.006   4.012   2.381 -0.4887  0.0673 -0.9490
 4281SOL    HW224477   2.880   3.954   2.425 -0.1065  0.9630 -1.4517
 4282SOL     OW24478   0.458   0.961   6.840  0.1933  0.3218 -0.4122
 4282SOL    HW124479   0.458   0.979   6.934 -0.1228  0.2128 -0.3903
 4282SOL    HW224480   0.508   1.033   6.802  0.3452 -1.4141 -3.5149
 4283SOL     OW24481   2.774   2.818   2.461  0.4616  0.4069  0.1238
 4283SOL    HW124482   2.756   2.888   2.398 -1.5263  1.8652  2.3141
 4283SOL    HW224483   2.817   2.745   2.416  1.5802  1.3952 -0.4260
 4284SOL     OW24484   4.304   2.084  15.443  0.4997 -0.1508  0.2500
 4284SOL    HW124485   4.229   2.040  15.482  0.4548 -1.2900 -1.1219
 4284SOL    HW224486   4.283   2.177  15.451  1.2778 -0.0260  0.9301
 4285SOL     OW24487   4.244   2.383   8.173  0.0496  0.1008 -0.0371
 4285SOL    HW124488   4.273   2.440   8.102 -0.1182 -3.1282 -2.7382
 4285SOL    HW224489   4.155   2.417   8.184  0.9000  3.0769 -2.4110
 4286SOL     OW24490   4.545   4.174   7.798 -0.9521  0.2187  0.1889
 4286SOL    HW124491   4.621   4.130   7.759 -0.8967 -1.0971  1.7709
 4286SOL    HW224492   4.471   4.114   7.786  0.3255 -1.5021  0.9693
 4287SOL     OW24493   3.255   0.566   2.010  0.0790  0.6616 -0.1720
 4287SOL    HW124494   3.310   0.512   1.954 -0.7599  0.0900 -0.4401
 4287SOL    HW224495   3.238   0.512   2.087 -0.9461 -0.6572 -1.3393
 4288SOL     OW24496   2.821   2.687   3.762  0.1707 -0.3679 -0.0253
 4288SOL    HW124497   2.801   2.627   3.834 -3.2152  0.2550 -0.4412
 4288SOL    HW224498   2.737   2.698   3.718  0.1704 -1.5926 -0.3477
 4289SOL     OW24499   3.348   3.412   4.922 -0.2295 -1.1202  0.1106
 4289SOL    HW124500   3.381   3.495   4.958  1.0596 -1.8437  0.5897
 4289SOL    HW224501   3.325   3.448   4.836 -1.4072  0.9701  1.2968
 4290SOL     OW24502   3.384   3.677   3.057  0.3924  0.1141 -0.4882
 4290SOL    HW124503   3.298   3.662   3.018  0.1055  2.2141 -0.6596
 4290SOL    HW224504   3.427   3.601   3.017 -0.9900 -0.4506 -0.8916
 4291SOL     OW24505   2.938   4.489   3.847  0.4432  0.4186 -0.2184
 4291SOL    HW124506   2.997   4.415   3.833  1.6670  2.1054 -4.3454
 4291SOL    HW224507   2.994   4.560   3.879 -0.2882  0.0833  1.7492
 4292SOL     OW24508   0.667   0.062  10.213  0.0119 -0.2925 -0.2962
 4292SOL    HW124509   0.634   0.119  10.143 -0.1432  0.2419  0.2067
 4292SOL    HW224510   0.612   4.721  10.215 -1.0740  0.4721 -0.1563
 4293SOL     OW24511   4.387   3.911  14.187  0.3651 -0.0695 -0.4471
 4293SOL    HW124512   4.296   3.936  14.171  0.6060  0.7857 -0.5130
 4293SOL    HW224513   4.381   3.816  14.186  0.0615 -0.0640  0.6291
 4294SOL     OW24514   4.064   4.643   4.816 -0.0673 -0.1990  0.1325
 4294SOL    HW124515   4.001   4.708   4.847 -2.3248 -2.7102  0.8475
 4294SOL    HW224516   4.019   4.599   4.744  0.3602 -2.1108  1.0495
 4295SOL     OW24517   2.338   0.991   1.483 -0.1747 -0.1058  0.1704
 4295SOL    HW124518   2.261   1.046   1.487  0.4212  0.5095  3.1950
 4295SOL    HW224519   2.405   1.059   1.475  0.4212 -0.6190  0.7194
 4296SOL     OW24520   3.287   2.320   9.384  0.5284  0.1417  0.2109
 4296SOL    HW124521   3.378   2.308   9.411  0.7705 -1.7598 -1.4300
 4296SOL    HW224522   3.295   2.415   9.388 -1.2475  0.1804  2.5945
 4297SOL     OW24523   1.275   0.842  16.922  0.1210  0.2985  0.0002
 4297SOL    HW124524   1.297   0.934  16.941 -2.4413  0.9819 -0.4124
 4297SOL    HW224525   1.331   0.838  16.845  0.9316  1.3688  0.5185
 4298SOL     OW24526   1.080   2.432   2.031  0.1114 -0.3690 -0.3204
 4298SOL    HW124527   1.011   2.469   1.975  0.9289  2.4981  0.5582
 4298SOL    HW224528   1.104   2.362   1.970 -0.6042 -0.0386 -0.9839
 4299SOL     OW24529   3.376   4.123   7.251 -0.0204  0.0971 -0.3693
 4299SOL    HW124530   3.292   4.081   7.270  0.6919 -0.3765  1.7070
 4299SOL    HW224531   3.352   4.215   7.242  1.0031  0.6615  2.6847
 4300SOL     OW24532   2.413   1.434   8.241 -0.4666  0.4331 -0.1525
 4300SOL    HW124533   2.500   1.416   8.205 -0.7266 -0.1311 -0.5088
 4300SOL    HW224534   2.374   1.493   8.177  0.1010  0.8059 -0.1496
 4301SOL     OW24535   0.862   4.447   7.981 -0.1120 -0.2711  0.0703
 4301SOL    HW124536   0.857   4.359   8.019  0.1916 -0.0954  0.5220
 4301SOL    HW224537   0.856   4.424   7.888  1.9474  0.0139 -0.1228
 4302SOL     OW24538   1.225   1.120   5.435 -0.1670  0.1994  0.5737
 4302SOL    HW124539   1.266   1.037   5.410 -0.3719 -0.3233  1.9442
 4302SOL    HW224540   1.256   1.146   5.521 -0.8602 -1.0125  1.1963
 4303SOL     OW24541   0.831   2.827   7.436  0.2658  0.0487  0.5265
 4303SOL    HW124542   0.859   2.829   7.528 -1.6137  1.4664  1.0848
 4303SOL    HW224543   0.736   2.822   7.453  0.0276  0.2761 -0.7806
 4304SOL     OW24544   4.525   2.818   4.542  0.4057 -0.7771  0.0930
 4304SOL    HW124545   4.521   2.888   4.477 -0.5038 -1.4889 -0.6161
 4304SOL    HW224546   4.603   2.837   4.593 -0.4735  2.8946  0.1210
 4305SOL     OW24547   3.130   2.976   6.115 -0.0335  0.0211  0.3098
 4305SOL    HW124548   3.170   2.898   6.153 -0.0509 -0.6678 -1.0864
 4305SOL    HW224549   3.156   2.988   6.024  1.5641  1.6714  0.9784
 4306SOL     OW24550   2.138   0.635   6.466  0.4580 -0.7416  0.0984
 4306SOL    HW124551   2.195   0.625   6.543  2.6506  0.8112 -1.3626
 4306SOL    HW224552   2.155   0.724   6.437  1.4539 -1.2275 -0.7743
 4307SOL     OW24553   4.493   3.516   3.388  0.1870 -0.6067 -0.5259
 4307SOL    HW124554   4.423   3.531   3.323 -2.8379 -0.3315  2.7839
 4307SOL    HW224555   4.575   3.542   3.347  0.5510  1.5854  1.5543
 4308SOL     OW24556   1.822   4.696   6.924 -0.3944 -0.7229  0.2346
 4308SOL    HW124557   1.761   4.670   6.855 -2.8365  1.9431  1.4019
 4308SOL    HW224558   1.870   0.023   6.873 -0.0777  0.0992  1.5699
 4309SOL     OW24559   1.358   4.141   8.975 -1.1474  0.6518  0.5084
 4309SOL    HW124560   1.317   4.133   8.889 -1.6534  0.3171  0.7772
 4309SOL    HW224561   1.359   4.048   8.998 -2.9601  0.3527 -0.6193
 4310SOL     OW24562   1.085   1.861   1.984  0.5056  0.0654 -0.0174
 4310SOL    HW124563   1.054   1.892   1.899 -2.3532  3.4854  2.2797
 4310SOL    HW224564   1.175   1.869   1.952  0.4959  1.4255  0.2982
 4311SOL     OW24565   0.832   0.819   1.472 -0.4436  0.0845  0.2926
 4311SOL    HW124566   0.759   0.758   1.472  0.2258 -0.7166 -1.2442
 4311SOL    HW224567   0.867   0.819   1.383 -2.1446  0.0127 -0.3758
 4312SOL     OW24568   0.529   1.684   9.888 -0.0808 -0.4339  0.6435
 4312SOL    HW124569   0.479   1.604   9.869  0.1601  1.0157 -5.9507
 4312SOL    HW224570   0.594   1.644   9.947  0.1479 -1.2644 -0.1656
 4313SOL     OW24571   3.420   4.083   5.886 -0.2207 -0.0677  0.1866
 4313SOL    HW124572   3.483   4.020   5.921 -0.3593  0.3198  1.1488
 4313SOL    HW224573   3.464   4.106   5.804 -0.9257 -2.2264 -0.7984
 4314SOL     OW24574   3.606   1.335   7.885 -0.2070  0.3873 -0.7202
 4314SOL    HW124575   3.570   1.354   7.798 -2.8384 -3.0565 -0.4110
 4314SOL    HW224576   3.682   1.284   7.858  0.5136  1.0120  0.1183
 4315SOL     OW24577   1.728   0.986   0.176  0.0715 -0.2435 -0.2277
 4315SOL    HW124578   1.683   0.902   0.187 -2.6005  1.1571 -0.3501
 4315SOL    HW224579   1.774   1.002   0.258 -0.5959  1.3325 -0.1716
 4316SOL     OW24580   4.072   2.541   4.397  0.3535 -0.2154 -0.1098
 4316SOL    HW124581   3.998   2.591   4.361  0.8898  2.7056  2.8403
 4316SOL    HW224582   4.141   2.558   4.333  2.6785  1.4506  2.8284
 4317SOL     OW24583   1.203   2.727  14.042  0.3552  0.0912 -0.3062
 4317SOL    HW124584   1.169   2.722  14.132 -0.8032 -0.0522 -0.7411
 4317SOL    HW224585   1.256   2.648  14.038 -0.2080 -0.4169  2.0862
 4318SOL     OW24586   1.164   3.407   8.639  0.9843 -0.0973 -0.2447
 4318SOL    HW124587   1.170   3.463   8.717 -0.2566 -0.3085 -0.0089
 4318SOL    HW224588   1.188   3.480   8.581  0.2556 -0.0828 -0.5212
 4319SOL     OW24589   2.923   1.651   5.527  0.2448 -0.3895  0.1077
 4319SOL    HW124590   2.955   1.685   5.611  1.3879  0.4686 -0.6832
 4319SOL    HW224591   2.969   1.702   5.461 -0.1632 -0.0524  0.0879
 4320SOL     OW24592   2.206   0.240   6.887  0.0962 -0.0111  0.2560
 4320SOL    HW124593   2.239   0.164   6.934  4.4302  0.1337 -2.5324
 4320SOL    HW224594   2.217   0.294   6.966 -0.5571 -0.2885  0.5289
 4321SOL     OW24595   4.107   0.447   9.290  0.7759 -0.2904 -0.8430
 4321SOL    HW124596   4.069   0.360   9.279  0.5709 -0.4735  1.1865
 4321SOL    HW224597   4.033   0.496   9.326 -0.5234 -2.4455 -0.5936
 4322SOL     OW24598   4.427   4.271  10.248  0.1499  0.5698  0.0827
 4322SOL    HW124599   4.445   4.266  10.342  2.8025  0.7171 -0.4215
 4322SOL    HW224600   4.335   4.295  10.258  0.0843  0.4822 -0.3041
 4323SOL     OW24601   1.517   0.258   6.182 -0.0176 -0.0141  0.3686
 4323SOL    HW124602   1.495   0.300   6.265  1.2317 -0.2318  0.8226
 4323SOL    HW224603   1.561   0.330   6.136 -0.9958 -0.2241 -0.8827
 4324SOL     OW24604   2.800   0.462   0.791  0.2552 -0.1781 -0.5179
 4324SOL    HW124605   2.718   0.417   0.777  0.9466 -2.1711  1.8189
 4324SOL    HW224606   2.797   0.514   0.711 -1.2719  0.6095  0.0518
 4325SOL     OW24607   3.281   2.751   7.261 -0.1810  0.0893  0.6566
 4325SOL    HW124608   3.193   2.713   7.268  0.7432 -2.0700  0.6239
 4325SOL    HW224609   3.257   2.844   7.262 -0.0270  0.1437 -0.5872
 4326SOL     OW24610   3.833   4.326   2.328 -0.4175 -0.1056  0.0164
 4326SOL    HW124611   3.744   4.347   2.357 -1.1038 -0.1176 -2.0782
 4326SOL    HW224612   3.880   4.351   2.408 -4.3324  2.4776  1.5264
 4327SOL     OW24613   3.194   2.204   7.300  0.2862  0.1449 -0.0757
 4327SOL    HW124614   3.167   2.166   7.217 -0.0812  1.5771 -0.6125
 4327SOL    HW224615   3.146   2.156   7.368  1.6253  1.4402  1.7822
 4328SOL     OW24616   0.237   0.020   1.800  0.4629 -0.0482  0.1277
 4328SOL    HW124617   0.276   4.672   1.779  2.0718  0.8600 -0.5960
 4328SOL    HW224618   0.246   0.016   1.895 -2.8658  1.7645  0.5237
 4329SOL     OW24619   0.865   1.359   1.456  0.5841 -0.4961  0.0791
 4329SOL    HW124620   0.875   1.265   1.441 -0.2311 -0.7343  1.0923
 4329SOL    HW224621   0.780   1.372   1.414  0.8461  1.7973  0.2679
 4330SOL     OW24622   3.073   2.020   7.487 -0.0205  0.1531 -0.0303
 4330SOL    HW124623   2.995   2.009   7.541  0.2861  1.8283  0.7524
 4330SOL    HW224624   3.126   1.949   7.524  0.9858  1.9915  2.0437
 4331SOL     OW24625   0.483   3.026   5.964  0.0822  0.4109 -0.4846
 4331SOL    HW124626   0.393   2.999   5.984 -0.0836  1.7994  0.6249
 4331SOL    HW224627   0.482   2.990   5.875 -0.5626 -1.3982  0.2520
 4332SOL     OW24628   4.273   0.862   6.748  0.0649  0.1436  0.5112
 4332SOL    HW124629   4.260   0.768   6.737  0.5878  0.0499  0.6800
 4332SOL    HW224630   4.316   0.885   6.665  0.1640  2.2188  1.1374
 4333SOL     OW24631   1.739   2.217  12.710  0.3798  0.1294 -0.0177
 4333SOL    HW124632   1.701   2.168  12.784 -0.0940  0.4686 -0.0378
 4333SOL    HW224633   1.825   2.177  12.704  0.4540  0.4178 -0.8565
 4334SOL     OW24634   2.507   2.047  16.733  0.1079 -0.2680  0.2418
 4334SOL    HW124635   2.465   2.064  16.817 -0.2281  1.9141 -0.3771
 4334SOL    HW224636   2.449   2.091  16.670 -1.0016 -2.2660 -0.1315
 4335SOL     OW24637   0.408   2.497  11.372 -0.3389 -0.3708 -0.8525
 4335SOL    HW124638   0.344   2.432  11.344 -0.8627 -0.7655  1.2581
 4335SOL    HW224639   0.377   2.576  11.329 -0.9214  0.3756  0.9115
 4336SOL     OW24640   0.015   0.662   3.393  0.0301 -0.7167 -0.0821
 4336SOL    HW124641   4.659   0.669   3.373 -0.7287  1.0656  3.9971
 4336SOL    HW224642   0.033   0.752   3.420 -0.8982 -0.7775  0.7226
 4337SOL     OW24643   0.352   1.361  12.468 -0.1452 -0.1080 -0.1440
 4337SOL    HW124644   0.430   1.316  12.502 -0.7866 -0.2990  1.0584
 4337SOL    HW224645   0.389   1.437  12.423  0.3660  0.1693  0.7391
 4338SOL     OW24646   4.549   0.743  14.414 -0.0577  0.2544  0.3916
 4338SOL    HW124647   4.474   0.742  14.355 -0.7845  0.5417  1.3160
 4338SOL    HW224648   4.590   0.829  14.402  1.6425 -0.6723 -0.4834
 4339SOL     OW24649   2.880   1.645  14.590 -0.2416  0.1314 -0.0301
 4339SOL    HW124650   2.954   1.694  14.554 -0.9067  0.7598 -0.5397
 4339SOL    HW224651   2.816   1.671  14.524  1.1138  0.9876 -1.0072
 4340SOL     OW24652   1.186   4.080   4.406  0.6194  0.3343  0.2960
 4340SOL    HW124653   1.152   4.160   4.367  2.4761  1.3204  0.6891
 4340SOL    HW224654   1.263   4.065   4.351  0.5114 -1.7026  0.6661
 4341SOL     OW24655   0.889   4.365   2.069 -0.3206 -0.2549 -0.6877
 4341SOL    HW124656   0.913   4.457   2.080  0.5034 -0.6934  1.1773
 4341SOL    HW224657   0.894   4.340   2.161 -0.6883  0.5114 -0.4529
 4342SOL     OW24658   1.475   1.206   5.695 -0.3869 -0.6396  0.0175
 4342SOL    HW124659   1.480   1.185   5.602 -3.6639  1.6421 -0.6870
 4342SOL    HW224660   1.456   1.299   5.690 -0.6195 -0.6666  0.3501
 4343SOL     OW24661   0.267   2.445  15.913  0.0765  0.5441  0.3384
 4343SOL    HW124662   0.277   2.446  15.818 -0.3513 -1.2123  0.2789
 4343SOL    HW224663   0.272   2.539  15.932  1.1396  0.6325 -0.3638
 4344SOL     OW24664   2.927   3.447   4.769  0.1927  0.2153 -0.4067
 4344SOL    HW124665   2.964   3.359   4.767  2.1500  0.9894  1.4141
 4344SOL    HW224666   2.912   3.469   4.677 -0.7094 -0.4208 -0.4143
 4345SOL     OW24667   4.550   3.488   1.566 -0.0300 -0.6570  0.1832
 4345SOL    HW124668   4.640   3.493   1.534 -0.1157 -0.8529 -0.0792
 4345SOL    HW224669   4.510   3.550   1.505  2.0741 -0.1375 -0.6700
 4346SOL     OW24670   2.951   1.868   1.863  0.1339 -0.4143  0.6815
 4346SOL    HW124671   2.900   1.941   1.827  1.7456  1.0260  1.2822
 4346SOL    HW224672   2.899   1.788   1.861  0.8780 -0.8837  0.2609
 4347SOL     OW24673   4.656   2.423   9.514 -0.0108 -0.6476 -0.7319
 4347SOL    HW124674   4.671   2.331   9.492 -0.2758 -1.2058  1.4912
 4347SOL    HW224675   4.561   2.433   9.507  0.0767  0.7460  0.0599
 4348SOL     OW24676   0.708   1.734   8.283 -0.0322 -0.1743  0.1268
 4348SOL    HW124677   0.782   1.693   8.237 -0.3044 -1.6277  0.9699
 4348SOL    HW224678   0.698   1.817   8.237 -0.7156 -1.2068 -1.5819
 4349SOL     OW24679   1.571   1.432   7.972  0.2395 -0.2715 -0.2376
 4349SOL    HW124680   1.562   1.412   7.879 -0.4500  0.8266 -0.4045
 4349SOL    HW224681   1.559   1.344   8.009  1.5614  0.1978  1.2865
 4350SOL     OW24682   3.243   1.118   1.445  0.1967 -0.0019  0.3277
 4350SOL    HW124683   3.241   1.025   1.465  1.2473  0.1418  1.1158
 4350SOL    HW224684   3.261   1.110   1.351  1.0033 -0.4569  0.5216
 4351SOL     OW24685   4.449   4.610   4.272  0.0492  0.2251  0.1732
 4351SOL    HW124686   4.524   4.556   4.295 -1.6452 -0.9283  2.9965
 4351SOL    HW224687   4.383   4.540   4.265  1.3181 -0.9270 -0.3487
 4352SOL     OW24688   1.712   2.104  16.740  0.6193 -0.5558 -0.1813
 4352SOL    HW124689   1.640   2.139  16.687 -0.7692 -1.6295  0.9984
 4352SOL    HW224690   1.666   2.101  16.824 -1.9454  0.7434 -1.5157
 4353SOL     OW24691   3.356   1.083   8.797  0.4156  0.1289 -0.3252
 4353SOL    HW124692   3.299   1.008   8.779  2.1250 -1.2053 -0.1383
 4353SOL    HW224693   3.442   1.045   8.783  0.2511  0.5365 -2.4648
 4354SOL     OW24694   4.198   0.294   3.035 -0.5383  0.0542  0.0819
 4354SOL    HW124695   4.217   0.385   3.061  0.0238 -0.8519  2.8611
 4354SOL    HW224696   4.272   0.275   2.978 -0.2507  3.3718 -0.6766
 4355SOL     OW24697   4.006   0.635   0.286  0.7554  0.5424 -0.2993
 4355SOL    HW124698   3.921   0.660   0.250  0.1135 -1.4472 -0.1781
 4355SOL    HW224699   4.042   0.604   0.203  1.4025 -1.3005  0.6653
 4356SOL     OW24700   1.807   1.093   7.918  0.1234 -0.1207  0.2382
 4356SOL    HW124701   1.876   1.151   7.949  1.2653 -1.7375  0.7238
 4356SOL    HW224702   1.801   1.042   7.999 -1.4590  1.2639  1.0004
 4357SOL     OW24703   0.583   1.917  16.628  0.1296 -0.7908  0.3248
 4357SOL    HW124704   0.600   1.843  16.570  1.7819  0.0558 -0.2564
 4357SOL    HW224705   0.673   1.942  16.650  0.6488 -2.2552 -0.1634
 4358SOL     OW24706   2.473   2.100   2.345  0.2626 -0.4305  0.1748
 4358SOL    HW124707   2.378   2.091   2.337  0.3325 -0.4009 -0.7524
 4358SOL    HW224708   2.484   2.195   2.340  3.1352 -0.8149 -0.8993
 4359SOL     OW24709   0.497   0.365  10.527  0.1988  0.1795 -0.4694
 4359SOL    HW124710   0.502   0.402  10.439 -0.6256 -0.6991 -0.8819
 4359SOL    HW224711   0.441   0.289  10.512  1.4094 -0.3956 -2.0080
 4360SOL     OW24712   2.390   3.995   8.196  0.4257 -0.0889  0.2254
 4360SOL    HW124713   2.362   4.087   8.194  0.5641 -0.0797 -1.2830
 4360SOL    HW224714   2.336   3.964   8.123 -0.7209  2.4772 -0.0031
 4361SOL     OW24715   0.902   1.875   8.847 -0.4574  0.1482  0.6634
 4361SOL    HW124716   0.931   1.803   8.903 -0.0802 -1.0486 -1.0619
 4361SOL    HW224717   0.925   1.955   8.894  0.5602  0.5363 -0.5009
 4362SOL     OW24718   2.342   2.256   8.488  0.0618  0.0952 -0.0292
 4362SOL    HW124719   2.303   2.169   8.495  0.3741  0.0402  1.0823
 4362SOL    HW224720   2.265   2.305   8.517  0.5906 -0.4554  2.3398
 4363SOL     OW24721   0.547   1.575   0.212 -0.4246 -0.1831 -0.0007
 4363SOL    HW124722   0.632   1.532   0.210 -0.2608  0.1166  0.5767
 4363SOL    HW224723   0.568   1.667   0.195 -0.0684 -0.3032 -0.2141
 4364SOL     OW24724   3.245   0.310  10.376  0.3402  0.4604 -0.0155
 4364SOL    HW124725   3.171   0.249  10.376  0.7879 -0.0853 -1.7157
 4364SOL    HW224726   3.282   0.280  10.293 -1.5005  4.0175 -2.1242
 4365SOL     OW24727   0.286   1.007   6.076  1.1139  0.1348  0.0978
 4365SOL    HW124728   0.255   1.085   6.123  0.9996 -0.3467  0.8114
 4365SOL    HW224729   0.277   0.950   6.152 -1.7075  3.4584  2.2480
 4366SOL     OW24730   2.242   1.256   1.233  0.2593  0.0074 -0.0219
 4366SOL    HW124731   2.312   1.259   1.168  1.6448  0.0385  1.4547
 4366SOL    HW224732   2.276   1.281   1.319  2.1655  0.1788 -0.8346
 4367SOL     OW24733   0.971   3.575   2.098 -0.6589 -0.0547  0.4684
 4367SOL    HW124734   1.006   3.542   2.015 -0.2962 -0.8237  0.9191
 4367SOL    HW224735   0.966   3.669   2.082  0.2175 -0.2242 -0.7739
 4368SOL     OW24736   1.117   1.710   4.433  0.5013 -0.2184  0.1292
 4368SOL    HW124737   1.158   1.668   4.357 -0.6854  0.2109 -0.7544
 4368SOL    HW224738   1.119   1.800   4.400  0.0924 -0.9099 -1.7699
 4369SOL     OW24739   1.393   1.212   7.512  0.3043 -0.5985  0.2778
 4369SOL    HW124740   1.386   1.158   7.433  0.8522 -0.4314  0.1189
 4369SOL    HW224741   1.474   1.174   7.547  0.8185  1.0838  0.9049
 4370SOL     OW24742   3.253   2.091   1.996  0.7539  0.1670  0.2084
 4370SOL    HW124743   3.262   1.997   2.008 -0.8227  0.0349  0.3079
 4370SOL    HW224744   3.195   2.107   2.070  1.3995 -2.4541  1.2598
 4371SOL     OW24745   4.477   0.210   8.514 -0.4945 -0.2593  0.0240
 4371SOL    HW124746   4.421   0.177   8.444 -0.1519  0.3091 -0.5170
 4371SOL    HW224747   4.523   0.269   8.455  2.2627 -0.2539  2.1645
 4372SOL     OW24748   4.308   2.579   1.352 -0.2727 -0.4934  0.5810
 4372SOL    HW124749   4.282   2.666   1.383  0.7495 -0.0645  0.2228
 4372SOL    HW224750   4.244   2.521   1.393 -1.1417  2.2764  3.0895
 4373SOL     OW24751   4.173   3.267   4.599  0.1731 -0.0128  0.5434
 4373SOL    HW124752   4.209   3.187   4.559  1.9146 -0.1159  2.3592
 4373SOL    HW224753   4.081   3.241   4.601  1.1715 -3.4600  0.9936
 4374SOL     OW24754   4.526   0.948   4.405 -0.2731 -0.3168 -0.1813
 4374SOL    HW124755   4.468   0.991   4.343 -1.7164 -1.6054  0.2770
 4374SOL    HW224756   4.597   0.931   4.343 -0.7693  1.1940 -1.1771
 4375SOL     OW24757   1.308   0.362   6.343 -0.0946 -0.0757 -0.7306
 4375SOL    HW124758   1.284   0.349   6.435  2.2727 -1.4823 -0.3220
 4375SOL    HW224759   1.279   0.451   6.323  2.7816  1.4110  1.7339
 4376SOL     OW24760   3.076   3.667   1.784 -0.0708 -0.5647 -0.0910
 4376SOL    HW124761   3.152   3.648   1.730 -0.8209 -1.1601 -0.9300
 4376SOL    HW224762   3.025   3.586   1.784 -1.0955  0.0810 -1.5846
 4377SOL     OW24763   1.691   2.347  11.458  0.2041 -0.4375 -0.0329
 4377SOL    HW124764   1.768   2.403  11.471  0.6481 -1.0857  0.1239
 4377SOL    HW224765   1.699   2.291  11.535  1.2327 -2.4923 -1.6292
 4378SOL     OW24766   4.559   4.704  17.732  0.6264 -0.0517  0.2766
 4378SOL    HW124767   4.572   0.006  17.646  2.6821  0.6960  0.9245
 4378SOL    HW224768   4.621   0.010   0.043  0.2666  1.7888 -0.6917
 4379SOL     OW24769   1.366   2.956   3.275 -0.5697 -0.4546 -0.1914
 4379SOL    HW124770   1.324   2.910   3.348  0.5095  0.5774  1.1061
 4379SOL    HW224771   1.312   3.036   3.277 -0.8466 -0.6661  0.8158
 4380SOL     OW24772   2.678   2.423  14.562  0.0109  0.2135 -0.2740
 4380SOL    HW124773   2.608   2.382  14.511  0.9621 -1.6709 -0.0593
 4380SOL    HW224774   2.751   2.386  14.513 -0.3911  0.8473 -1.3520
 4381SOL     OW24775   3.023   0.261   4.116  0.7141 -0.1550  0.1272
 4381SOL    HW124776   2.947   0.205   4.101 -1.0341  2.1461  0.3572
 4381SOL    HW224777   2.996   0.298   4.200 -1.1578  0.1126 -0.5854
 4382SOL     OW24778   3.063   1.147   0.256  0.0007 -0.0099  0.4906
 4382SOL    HW124779   3.069   1.107   0.343 -1.0888  0.9287  1.0080
 4382SOL    HW224780   3.056   1.240   0.276 -1.5198  0.3090 -1.5267
 4383SOL     OW24781   4.603   0.595   3.651  0.4507  0.2755 -0.1203
 4383SOL    HW124782   4.677   0.565   3.598  3.4968  4.1906  1.9337
 4383SOL    HW224783   4.612   0.523   3.713  0.3232 -0.7747 -1.3283
 4384SOL     OW24784   3.692   2.216   5.886  0.0996 -0.6881 -0.1616
 4384SOL    HW124785   3.673   2.293   5.940 -0.2453  0.3162 -1.7241
 4384SOL    HW224786   3.787   2.204   5.885  0.5086  2.5338  0.3920
 4385SOL     OW24787   2.533   0.849   5.296  0.1447 -0.1218  0.4597
 4385SOL    HW124788   2.500   0.930   5.335  1.0681 -0.1017  1.2211
 4385SOL    HW224789   2.492   0.858   5.210  1.8117  2.1138 -0.1057
 4386SOL     OW24790   1.846   1.444   5.591  0.4986  0.2709  0.6331
 4386SOL    HW124791   1.862   1.358   5.551 -1.7643 -0.1802  0.6676
 4386SOL    HW224792   1.932   1.470   5.622  1.5551 -0.3906 -1.7012
 4387SOL     OW24793   3.686   3.647   9.027 -0.2152  0.3620  0.0346
 4387SOL    HW124794   3.644   3.720   8.980  1.1159  0.7339 -0.5843
 4387SOL    HW224795   3.777   3.676   9.019  0.2438 -1.3544 -0.8412
 4388SOL     OW24796   2.221   3.782  11.959 -0.4367 -0.0385  0.0839
 4388SOL    HW124797   2.290   3.720  11.982 -1.1301 -1.4812 -1.7768
 4388SOL    HW224798   2.272   3.854  11.921 -0.1996 -1.0098 -1.4277
 4389SOL     OW24799   4.709   0.426   6.494  0.3397  0.1405 -0.1217
 4389SOL    HW124800   4.737   0.335   6.507  0.7645  0.1660 -0.8437
 4389SOL    HW224801   0.051   0.479   6.506  0.9871 -1.2073  1.6133
 4390SOL     OW24802   2.370   1.274   2.133 -0.4372 -0.2244  0.0948
 4390SOL    HW124803   2.413   1.324   2.202 -1.0704 -0.7221  0.8572
 4390SOL    HW224804   2.389   1.183   2.157 -0.9724 -0.1868  0.6525
 4391SOL     OW24805   1.747   0.532   8.189 -0.4409 -0.1370 -0.2184
 4391SOL    HW124806   1.825   0.506   8.140  1.0008  0.0274  1.9509
 4391SOL    HW224807   1.789   0.564   8.269  0.7321 -0.3299 -0.7511
 4392SOL     OW24808   2.845   0.454   2.349  0.0879  0.5920  0.1781
 4392SOL    HW124809   2.761   0.499   2.344 -0.0369  0.1474 -1.6868
 4392SOL    HW224810   2.878   0.468   2.438 -0.6426 -0.1795  0.5667
 4393SOL     OW24811   3.278   0.905   3.246  0.1306 -0.0241  0.4325
 4393SOL    HW124812   3.251   0.996   3.257  0.7248  0.3059 -0.9644
 4393SOL    HW224813   3.365   0.910   3.207 -0.3323  1.2174 -0.4171
 4394SOL     OW24814   3.938   2.945   3.026 -0.0623  0.4308  0.2584
 4394SOL    HW124815   3.929   3.037   3.002  0.9834 -0.1335 -2.3838
 4394SOL    HW224816   3.862   2.928   3.082  0.2510  0.0534  0.5663
 4395SOL     OW24817   3.838   2.709  12.874 -0.1384  0.4424 -0.1320
 4395SOL    HW124818   3.858   2.617  12.856 -1.3668  0.2465 -0.4791
 4395SOL    HW224819   3.912   2.714  12.935 -3.4600  1.0327  3.8648
 4396SOL     OW24820   3.765   2.939   6.933  0.1851 -0.0282  0.1051
 4396SOL    HW124821   3.782   2.878   7.005 -0.2000 -2.3288 -1.7580
 4396SOL    HW224822   3.670   2.951   6.945  0.4885  1.0071  1.5362
 4397SOL     OW24823   2.095   3.256   7.586 -0.0357  0.4957 -0.3991
 4397SOL    HW124824   2.150   3.181   7.605 -0.2489  0.0916 -1.3610
 4397SOL    HW224825   2.126   3.273   7.497  1.5649  2.0651  0.4496
 4398SOL     OW24826   4.452   2.249   5.156  0.4270 -0.9571  0.0044
 4398SOL    HW124827   4.363   2.260   5.189  1.1870 -0.0584  1.7517
 4398SOL    HW224828   4.471   2.159   5.184 -0.6265 -1.2196 -0.1260
 4399SOL     OW24829   3.711   1.318   4.349 -0.2388  0.6118  0.1405
 4399SOL    HW124830   3.758   1.236   4.334  0.4037  1.0575 -0.2859
 4399SOL    HW224831   3.650   1.290   4.418 -0.5132 -0.4441 -0.5273
 4400SOL     OW24832   0.206   3.515   3.825 -0.0359  0.0220 -0.3688
 4400SOL    HW124833   0.223   3.592   3.880  4.2491 -0.3138 -1.2167
 4400SOL    HW224834   0.285   3.461   3.830  0.2374  0.6645  2.1341
 4401SOL     OW24835   3.384   0.363   9.205  0.1080 -0.0094 -0.6063
 4401SOL    HW124836   3.480   0.360   9.199  0.2259  0.6917  0.8142
 4401SOL    HW224837   3.371   0.297   9.138  1.4874  0.5876 -1.4609
 4402SOL     OW24838   4.372   2.881   0.749 -0.1501  0.4382  0.2836
 4402SOL    HW124839   4.447   2.868   0.691 -1.4195  2.2847 -1.7559
 4402SOL    HW224840   4.396   2.962   0.795  2.6154 -0.2066 -0.0234
 4403SOL     OW24841   4.031   1.639   7.431 -0.4427 -0.3585 -0.5874
 4403SOL    HW124842   3.989   1.690   7.500 -0.8314 -0.7983 -0.4997
 4403SOL    HW224843   4.060   1.706   7.368  0.3876 -0.3292 -0.1786
 4404SOL     OW24844   4.365   3.907   2.124  0.4060  0.4016 -0.0341
 4404SOL    HW124845   4.396   3.980   2.071 -0.1197 -0.3312 -1.3713
 4404SOL    HW224846   4.319   3.858   2.055  0.0859  0.1714  0.3417
 4405SOL     OW24847   2.288   0.042   4.555  0.6279 -0.3140 -0.5932
 4405SOL    HW124848   2.295   0.029   4.460 -0.5446  1.5141 -0.9346
 4405SOL    HW224849   2.195   0.063   4.566  1.1971  2.5415 -1.0740
 4406SOL     OW24850   3.254   1.110   7.616  0.0891  0.1344  0.7130
 4406SOL    HW124851   3.267   1.127   7.523 -0.7452  2.2976  1.0006
 4406SOL    HW224852   3.161   1.125   7.631 -0.1766 -1.6160  0.8620
 4407SOL     OW24853   3.272   0.746  12.432 -0.7419 -0.5145 -0.2317
 4407SOL    HW124854   3.334   0.786  12.494 -0.9839 -1.1748  0.4360
 4407SOL    HW224855   3.298   0.654  12.435 -0.0426 -0.3281 -0.5253
 4408SOL     OW24856   4.438   3.011   5.778  0.3513 -0.2489 -0.0291
 4408SOL    HW124857   4.437   2.931   5.831 -2.1033 -1.3420 -1.7087
 4408SOL    HW224858   4.345   3.019   5.756  0.1893  0.0599  0.7744
 4409SOL     OW24859   0.782   3.152  16.149  0.1091  0.5293 -0.1106
 4409SOL    HW124860   0.855   3.118  16.098  0.0144 -1.0936  0.8249
 4409SOL    HW224861   0.809   3.241  16.169 -0.8297  1.2765 -2.1668
 4410SOL     OW24862   3.212   1.021   4.136  0.0755 -0.1974  0.0987
 4410SOL    HW124863   3.137   0.973   4.100  1.2205 -1.5532 -0.4707
 4410SOL    HW224864   3.225   0.985   4.223 -0.0673 -0.8717 -0.1557
 4411SOL     OW24865   0.018   2.063  11.224 -0.3358  0.1791 -0.0193
 4411SOL    HW124866   0.020   1.992  11.160  0.0474  0.6583 -0.5410
 4411SOL    HW224867   0.046   2.016  11.303 -0.7313 -0.6799 -0.3861
 4412SOL     OW24868   2.632   2.972   8.984 -0.0260  0.1180 -0.6065
 4412SOL    HW124869   2.663   3.061   8.968 -0.1707  0.4183  0.8017
 4412SOL    HW224870   2.537   2.988   8.988 -0.1550 -1.1911  1.2392
 4413SOL     OW24871   3.221   1.677  17.403 -0.2081 -0.4068 -0.0023
 4413SOL    HW124872   3.192   1.768  17.400 -0.1288 -0.3439  1.3845
 4413SOL    HW224873   3.205   1.650  17.312  0.8478  0.3414 -0.4098
 4414SOL     OW24874   0.185   0.752  14.659  0.6360  0.2815 -1.0592
 4414SOL    HW124875   0.159   0.750  14.567 -0.2927  0.1341 -0.7853
 4414SOL    HW224876   0.232   0.670  14.674 -1.4612 -0.2998  2.4534
 4415SOL     OW24877   2.219   2.440   1.772  0.1988  0.4726 -0.7306
 4415SOL    HW124878   2.232   2.366   1.713 -0.4136  0.6207 -1.0537
 4415SOL    HW224879   2.124   2.449   1.771  0.3252  2.0374  1.8157
 4416SOL     OW24880   3.669   0.282   9.187 -0.0588 -0.4847 -0.0994
 4416SOL    HW124881   3.627   0.205   9.149  1.1216 -0.8446 -0.6787
 4416SOL    HW224882   3.726   0.242   9.253 -0.3644 -0.0763  0.4115
 4417SOL     OW24883   4.077   2.057   3.595 -0.1353  0.5220  0.2559
 4417SOL    HW124884   4.088   1.969   3.560 -0.5242  1.4920 -2.2459
 4417SOL    HW224885   4.077   2.028   3.687  0.3273 -1.0463 -0.2473
 4418SOL     OW24886   1.645   0.287   7.585  0.5637  0.1859  0.0384
 4418SOL    HW124887   1.640   0.341   7.663 -2.1582  2.0862 -1.4871
 4418SOL    HW224888   1.740   0.290   7.571  0.2343  0.8386 -2.0189
 4419SOL     OW24889   1.133   0.024  13.112 -0.1882 -0.3624  0.2336
 4419SOL    HW124890   1.068   4.698  13.082  0.1047 -0.9215  0.7703
 4419SOL    HW224891   1.083   0.096  13.151 -1.5280 -0.8444 -0.6143
 4420SOL     OW24892   4.306   0.838   4.962 -0.1434 -0.0943  0.0542
 4420SOL    HW124893   4.337   0.768   5.019 -0.0187 -0.5636 -0.5829
 4420SOL    HW224894   4.300   0.794   4.877 -0.2465 -2.0637  1.0855
 4421SOL     OW24895   0.532   3.917   3.279 -0.2913 -0.4367  0.4692
 4421SOL    HW124896   0.610   3.903   3.333 -0.1370  1.4047  0.6975
 4421SOL    HW224897   0.543   3.854   3.207 -1.9125 -1.5143  1.1703
 4422SOL     OW24898   0.955   3.898   3.253  0.1517 -0.1186  0.5265
 4422SOL    HW124899   0.913   3.827   3.204  1.2199 -0.6376  0.3393
 4422SOL    HW224900   1.018   3.927   3.187  1.1465  1.5191  2.1903
 4423SOL     OW24901   1.374   4.543  15.597  0.4094 -0.1684 -0.2390
 4423SOL    HW124902   1.302   4.481  15.589 -1.1593  1.6890 -0.6679
 4423SOL    HW224903   1.370   4.600  15.520 -0.3652 -1.2603 -0.9940
 4424SOL     OW24904   4.119   1.635   0.109 -0.3664  0.5748 -0.7930
 4424SOL    HW124905   4.085   1.547   0.098 -1.8475  0.8536  1.4562
 4424SOL    HW224906   4.076   1.648   0.194  1.4735  0.3856  0.1725
 4425SOL     OW24907   1.598   2.603   9.751 -0.5265 -0.1566 -0.1012
 4425SOL    HW124908   1.653   2.539   9.706 -0.6728  0.2678 -0.8882
 4425SOL    HW224909   1.639   2.683   9.718 -0.9855  0.1891  0.1743
 4426SOL     OW24910   2.237   2.824   7.862 -0.9483 -0.2036  0.0105
 4426SOL    HW124911   2.248   2.806   7.955 -1.2578  0.0630  0.0989
 4426SOL    HW224912   2.183   2.752   7.831 -0.2065 -0.2518 -1.1780
 4427SOL     OW24913   1.847   4.115   2.660  0.1122  0.1499  0.3299
 4427SOL    HW124914   1.759   4.077   2.658  0.6663 -1.0636 -1.5002
 4427SOL    HW224915   1.842   4.185   2.595  0.8093 -0.2507 -0.1574
 4428SOL     OW24916   3.415   0.163   2.613  0.2832 -0.0245  0.9582
 4428SOL    HW124917   3.392   0.243   2.661 -0.4286  1.1402 -1.3188
 4428SOL    HW224918   3.413   0.099   2.683  0.1626 -0.2447  0.7523
 4429SOL     OW24919   0.609   1.699  14.283 -0.3296 -0.2085 -0.0221
 4429SOL    HW124920   0.518   1.674  14.266  0.2485 -3.2505  1.4271
 4429SOL    HW224921   0.639   1.705  14.192  0.2203 -0.2485  0.1604
 4430SOL     OW24922   4.723   1.631   4.464 -0.0778 -0.0309 -0.1375
 4430SOL    HW124923   0.069   1.674   4.481 -0.4494  0.7235 -0.2204
 4430SOL    HW224924   4.669   1.699   4.505  0.3699 -0.3251  0.9486
 4431SOL     OW24925   0.647   0.904   2.186  0.2699 -0.9559  0.0772
 4431SOL    HW124926   0.694   0.987   2.181 -0.7496 -0.5574 -3.0446
 4431SOL    HW224927   0.560   0.940   2.171  0.5199 -0.9920 -1.4701
 4432SOL     OW24928   3.097   1.309   5.982  0.0878  0.7444  0.7506
 4432SOL    HW124929   3.059   1.396   5.994  1.1922  0.8728  3.1808
 4432SOL    HW224930   3.186   1.333   6.007  0.7616 -0.5064 -0.4512
 4433SOL     OW24931   0.939   1.085   6.624  0.1535  0.1017  0.2406
 4433SOL    HW124932   0.933   1.140   6.545 -0.4318 -0.4201 -0.0813
 4433SOL    HW224933   1.011   1.127   6.671 -1.0513  1.8570  0.5130
 4434SOL     OW24934   3.624   2.694   7.807  0.5854  0.1746  0.3403
 4434SOL    HW124935   3.561   2.727   7.871  0.1556 -1.6748  0.8453
 4434SOL    HW224936   3.563   2.649   7.749  0.1124  0.1088  0.8899
 4435SOL     OW24937   0.626   3.253  10.595 -0.4978  0.0713 -0.0284
 4435SOL    HW124938   0.655   3.172  10.553  1.4697  0.8955 -0.2912
 4435SOL    HW224939   0.596   3.216  10.678 -1.4875 -1.9627 -1.3002
 4436SOL     OW24940   3.413   4.191   3.038 -0.1033  0.5300  0.2404
 4436SOL    HW124941   3.339   4.223   3.091 -1.0124 -1.6605  0.2640
 4436SOL    HW224942   3.358   4.136   2.983  0.5686  0.1241 -0.0196
 4437SOL     OW24943   1.625   0.299   9.896 -0.6406 -0.0633  0.0302
 4437SOL    HW124944   1.571   0.344   9.831 -1.5463 -1.5668 -0.2615
 4437SOL    HW224945   1.556   0.257   9.948  0.6591 -2.2273  0.0131
 4438SOL     OW24946   0.694   3.819   5.684 -0.2606  0.1135  0.2548
 4438SOL    HW124947   0.759   3.888   5.673 -0.7960  0.5203 -0.4117
 4438SOL    HW224948   0.708   3.789   5.773 -1.5769 -2.5424 -0.4333
 4439SOL     OW24949   3.960   0.600   8.789 -0.4462  0.2095 -0.2155
 4439SOL    HW124950   4.025   0.598   8.858 -0.3520  2.3364 -0.2316
 4439SOL    HW224951   4.012   0.642   8.720 -0.1443 -1.3327 -0.9331
 4440SOL     OW24952   1.894   3.398   3.724  0.3526 -0.4147  0.0981
 4440SOL    HW124953   1.870   3.431   3.810  2.2811  1.2977 -0.0187
 4440SOL    HW224954   1.968   3.340   3.741  1.3940  1.0309  0.5675
 4441SOL     OW24955   2.606   0.852   0.046  0.1258  0.6067 -0.2502
 4441SOL    HW124956   2.545   0.782   0.069 -1.5802  1.5139 -1.9963
 4441SOL    HW224957   2.685   0.798   0.048 -0.6058 -0.2879  3.9628
 4442SOL     OW24958   1.820   0.110   7.132 -0.2462  0.9660 -0.3803
 4442SOL    HW124959   1.909   0.138   7.153 -0.7964  2.1969  0.2442
 4442SOL    HW224960   1.846   0.049   7.062 -1.1464 -0.5298  0.5737
 4443SOL     OW24961   0.527   1.589   9.586 -0.1422  0.2795 -0.0361
 4443SOL    HW124962   0.435   1.585   9.558  0.4295 -0.6868 -1.7608
 4443SOL    HW224963   0.531   1.531   9.661 -0.8676 -0.4726 -0.5732
 4444SOL     OW24964   1.767   3.412   8.007 -0.1543 -0.1752 -0.0890
 4444SOL    HW124965   1.730   3.485   7.957 -1.4066  0.8526  2.3459
 4444SOL    HW224966   1.844   3.383   7.957  0.2761  0.9270 -0.0623
 4445SOL     OW24967   1.663   2.448  10.102 -0.0550 -0.1527 -0.4259
 4445SOL    HW124968   1.651   2.533  10.143  0.2243 -0.6549  0.6968
 4445SOL    HW224969   1.570   2.423  10.100 -0.1974  0.2275  1.6187
 4446SOL     OW24970   4.697   1.507  13.572 -0.2058  0.2491  0.7251
 4446SOL    HW124971   4.736   1.594  13.568 -0.8692  0.4678 -0.9194
 4446SOL    HW224972   0.036   1.450  13.566 -1.6221 -1.3740 -1.7473
 4447SOL     OW24973   3.968   4.374   6.012  0.4789 -0.0132 -0.0671
 4447SOL    HW124974   4.040   4.365   6.074 -0.9416 -0.1230  1.5649
 4447SOL    HW224975   4.013   4.406   5.934  2.3564  0.3539  1.1695
 4448SOL     OW24976   3.381   4.313   0.438  0.9414 -0.6445 -0.2656
 4448SOL    HW124977   3.460   4.268   0.408  1.2012 -1.4084  1.5543
 4448SOL    HW224978   3.349   4.340   0.352 -2.9527 -0.0808  1.3494
 4449SOL     OW24979   3.841   0.198   3.951  0.1480 -0.0275 -0.3515
 4449SOL    HW124980   3.772   0.149   3.905  1.2960 -0.3177 -1.7630
 4449SOL    HW224981   3.903   0.127   3.963  1.3490  0.9791 -0.6037
 4450SOL     OW24982   1.101   3.430   3.328 -0.3956  0.2554 -0.0030
 4450SOL    HW124983   1.015   3.408   3.292 -0.8694  1.2315  0.5207
 4450SOL    HW224984   1.085   3.490   3.402  0.3858  1.2788 -0.6563
 4451SOL     OW24985   2.651   3.526   7.277  0.3857 -0.6838  0.0827
 4451SOL    HW124986   2.740   3.544   7.248  0.4287 -0.1768  0.5228
 4451SOL    HW224987   2.642   3.439   7.238  0.3204 -1.5483  2.0224
 4452SOL     OW24988   3.290   1.461   5.539 -0.5291 -0.0096 -0.0828
 4452SOL    HW124989   3.208   1.509   5.551 -1.0728 -1.0894  0.4580
 4452SOL    HW224990   3.317   1.503   5.456  0.3670  1.0444  0.7379
 4453SOL     OW24991   2.117   0.390   4.543 -0.4825 -0.5389  0.2529
 4453SOL    HW124992   2.121   0.465   4.485  1.1304 -0.5962  0.3105
 4453SOL    HW224993   2.066   0.415   4.620  0.0490  1.3305 -0.0167
 4454SOL     OW24994   4.089   2.989   9.132  0.8322 -0.1115 -0.6046
 4454SOL    HW124995   4.150   3.038   9.187  1.2437 -0.4709 -0.7373
 4454SOL    HW224996   4.044   3.064   9.093  0.7547  0.6625  0.9833
 4455SOL     OW24997   0.438   1.056   1.901 -0.4143  0.1292  0.0254
 4455SOL    HW124998   0.504   1.081   1.966 -1.8143 -0.6976  1.7666
 4455SOL    HW224999   0.361   1.051   1.958  0.9292  1.5802  1.9874
 4456SOL     OW25000   4.318   4.540  10.468 -0.6602 -0.3126 -1.1608
 4456SOL    HW125001   4.324   4.449  10.497  0.0971  0.0357 -0.2383
 4456SOL    HW225002   4.391   4.587  10.507 -1.3844 -0.3524  0.2366
 4457SOL     OW25003   3.620   1.774   7.642 -0.0530 -0.2172  0.0401
 4457SOL    HW125004   3.712   1.753   7.658 -0.3246 -0.2966  1.5496
 4457SOL    HW225005   3.595   1.800   7.731  0.4739 -2.2295  0.7891
 4458SOL     OW25006   3.223   1.555   8.752 -0.5220 -0.6895 -0.0186
 4458SOL    HW125007   3.200   1.613   8.680  0.6588  0.5837  0.6075
 4458SOL    HW225008   3.147   1.571   8.809  0.6108  0.7533  1.1131
 4459SOL     OW25009   2.258   0.270   2.764 -1.0085  0.0185  0.2719
 4459SOL    HW125010   2.181   0.229   2.725 -1.6552  0.6683  0.8542
 4459SOL    HW225011   2.330   0.237   2.710 -2.3020 -2.0304 -0.2034
 4460SOL     OW25012   0.985   3.234   2.990 -0.3421 -0.8929  0.7233
 4460SOL    HW125013   1.049   3.168   2.964 -0.4547 -0.6048 -0.2811
 4460SOL    HW225014   1.042   3.304   3.021 -1.0445  0.5534 -1.2589
 4461SOL     OW25015   0.963   1.991   3.636  0.4945  0.4244 -0.3352
 4461SOL    HW125016   1.014   1.954   3.564  0.8099 -1.1691  0.6995
 4461SOL    HW225017   0.880   1.945   3.626 -0.6524  2.8716 -1.9891
 4462SOL     OW25018   1.887   1.826  15.848  0.2225 -0.2784  0.0933
 4462SOL    HW125019   1.949   1.893  15.877 -2.2004  1.5274  1.0524
 4462SOL    HW225020   1.865   1.789  15.934 -1.0804 -2.9182 -1.3670
 4463SOL     OW25021   2.980   0.028   8.409  0.0922  0.1658 -0.2916
 4463SOL    HW125022   2.887   0.045   8.422  0.1948  0.5634 -0.0595
 4463SOL    HW225023   2.998   4.730   8.496  2.1761  0.8070 -0.4695
 4464SOL     OW25024   1.993   1.477   8.173 -0.1406 -0.4322 -0.5194
 4464SOL    HW125025   2.053   1.456   8.245 -0.3603 -1.5469 -0.6608
 4464SOL    HW225026   1.914   1.441   8.214 -1.1486  0.2013 -1.9002
 4465SOL     OW25027   2.856   2.769   4.675  0.5308 -0.1214 -0.3559
 4465SOL    HW125028   2.811   2.790   4.593 -0.4810 -1.9766 -0.2761
 4465SOL    HW225029   2.800   2.809   4.741 -1.6823 -1.4149 -1.4862
 4466SOL     OW25030   1.122   2.309   4.519 -0.0416  0.6117  0.4437
 4466SOL    HW125031   1.177   2.308   4.597  0.6140  3.1790  0.0172
 4466SOL    HW225032   1.192   2.293   4.456 -1.8001  0.2844 -1.4143
 4467SOL     OW25033   1.422   4.135  17.703 -0.3052 -0.4027 -0.2523
 4467SOL    HW125034   1.410   4.222  17.663 -0.6150 -0.8234 -1.0819
 4467SOL    HW225035   1.331   4.107  17.694 -0.2467 -0.8270  0.5321
 4468SOL     OW25036   1.772   1.243  12.215 -0.0308  0.1202 -0.0741
 4468SOL    HW125037   1.772   1.326  12.169 -0.2334  0.4969  0.5947
 4468SOL    HW225038   1.783   1.284  12.301 -2.8099  2.5479 -0.8923
 4469SOL     OW25039   4.206   2.459   7.218  0.2834 -0.1057 -0.4329
 4469SOL    HW125040   4.132   2.402   7.235  0.3172 -0.1656 -0.4853
 4469SOL    HW225041   4.170   2.522   7.155 -0.5179 -1.8911 -1.7495
 4470SOL     OW25042   2.949   3.486  16.838  0.2488  0.5914 -0.6299
 4470SOL    HW125043   2.935   3.426  16.911 -1.9040 -0.5910 -2.0208
 4470SOL    HW225044   2.948   3.432  16.759  1.5786  0.9928 -0.9344
 4471SOL     OW25045   2.816   4.186  16.526 -0.4839  0.0205  0.6215
 4471SOL    HW125046   2.732   4.149  16.501 -1.5582  2.3486  0.7646
 4471SOL    HW225047   2.836   4.131  16.602 -0.3897 -0.5979  0.1514
 4472SOL     OW25048   2.630   4.276   5.354 -0.1132  0.4632 -0.0203
 4472SOL    HW125049   2.547   4.269   5.400 -2.1295  1.1241 -3.5500
 4472SOL    HW225050   2.601   4.272   5.263 -2.3221  0.6472  0.6784
 4473SOL     OW25051   1.935   0.835  12.082 -0.2509  0.2371  0.3999
 4473SOL    HW125052   1.871   0.772  12.116  0.0461  0.5101  1.4343
 4473SOL    HW225053   1.871   0.903  12.062 -2.6385 -1.8302  1.0319
 4474SOL     OW25054   0.044   1.450  16.449 -0.0956 -0.2348 -0.1938
 4474SOL    HW125055   4.715   1.385  16.472 -2.0823  1.1863 -1.9139
 4474SOL    HW225056   0.083   1.420  16.366  1.4000  2.1451 -0.3660
 4475SOL     OW25057   0.483   2.123   6.867  0.8570  0.2914 -0.0534
 4475SOL    HW125058   0.475   2.111   6.773  0.9553 -2.0619  0.2294
 4475SOL    HW225059   0.396   2.103   6.901  0.7687 -0.2993 -0.6365
 4476SOL     OW25060   1.453   2.959   2.938 -0.4924 -0.7771  0.4657
 4476SOL    HW125061   1.450   2.865   2.921 -2.6531 -0.7221  0.6037
 4476SOL    HW225062   1.499   2.985   2.858 -0.3274  0.5523  0.9937
 4477SOL     OW25063   3.040   1.391   7.660 -0.0205  0.7136  0.4488
 4477SOL    HW125064   3.023   1.479   7.694 -1.2358 -0.0489  1.8404
 4477SOL    HW225065   2.949   1.361   7.669 -0.1417  0.5962 -1.1713
 4478SOL     OW25066   1.699   2.831   1.508 -0.6146 -0.1056  0.0226
 4478SOL    HW125067   1.619   2.804   1.554  0.1244 -1.4507  0.5261
 4478SOL    HW225068   1.666   2.902   1.453 -2.2033 -2.1714 -1.6570
 4479SOL     OW25069   0.538   2.097  10.145 -0.1843  0.8446 -0.5825
 4479SOL    HW125070   0.546   2.002  10.137  0.7815  0.9541 -0.8684
 4479SOL    HW225071   0.525   2.097  10.240 -1.4204 -0.9838 -0.7353
 4480SOL     OW25072   2.435   2.686   2.304  0.2999 -0.5141  0.5703
 4480SOL    HW125073   2.452   2.774   2.269 -0.2934 -0.1695  1.1408
 4480SOL    HW225074   2.433   2.697   2.399  2.2517  1.0244  0.4285
 4481SOL     OW25075   2.579   3.987  13.642  0.0602  0.4103 -0.4474
 4481SOL    HW125076   2.612   4.040  13.569 -2.3358  0.6587 -1.3460
 4481SOL    HW225077   2.641   4.023  13.706 -0.4971 -0.7590  0.7395
 4482SOL     OW25078   2.932   0.577   8.625 -0.6361 -0.3652 -0.0469
 4482SOL    HW125079   2.902   0.491   8.596  1.8451 -0.8366 -1.2747
 4482SOL    HW225080   3.000   0.596   8.560  0.4816 -0.8739  0.9580
 4483SOL     OW25081   2.356   0.685   6.967  0.3995 -0.1342 -0.6735
 4483SOL    HW125082   2.427   0.651   7.022  0.0001 -0.2775 -0.2410
 4483SOL    HW225083   2.354   0.778   6.991 -1.2311 -0.5264  0.6842
 4484SOL     OW25084   2.799   2.823  17.579  0.3013  1.0138  0.0279
 4484SOL    HW125085   2.875   2.792  17.530 -0.3526  0.0775 -0.4033
 4484SOL    HW225086   2.772   2.880  17.507 -0.0908  1.0342  0.1922
 4485SOL     OW25087   1.839   4.494   5.484 -0.1927  0.0116  0.0977
 4485SOL    HW125088   1.795   4.490   5.569  0.5657  0.6036  0.5137
 4485SOL    HW225089   1.875   4.582   5.487  0.8757 -0.3919 -1.0335
 4486SOL     OW25090   3.021   0.655   9.793 -0.4360  0.3328  0.2830
 4486SOL    HW125091   3.073   0.722   9.838 -0.5205  0.4705  0.1739
 4486SOL    HW225092   2.967   0.630   9.868  2.5686  1.5510  2.8984
 4487SOL     OW25093   3.391   1.810   6.963  0.6378 -0.4091 -0.3861
 4487SOL    HW125094   3.404   1.749   6.890  2.3877 -0.4264 -0.0745
 4487SOL    HW225095   3.329   1.878   6.937 -0.1147 -1.0268 -0.1933
 4488SOL     OW25096   2.387   4.526   1.276  0.4431 -1.0109 -0.8298
 4488SOL    HW125097   2.437   4.445   1.265  1.5357 -0.3264 -0.9167
 4488SOL    HW225098   2.450   4.589   1.311  0.3601 -1.2235 -0.3032
 4489SOL     OW25099   1.788   2.349   4.260  0.0484 -0.3389 -0.2302
 4489SOL    HW125100   1.875   2.388   4.272 -0.5692  0.4471  1.6495
 4489SOL    HW225101   1.809   2.256   4.271  2.5228  0.2898  0.4313
 4490SOL     OW25102   0.062   4.673   4.448  0.0322  0.1170 -0.9018
 4490SOL    HW125103   0.120   4.628   4.387  0.1103 -2.2422  0.9462
 4490SOL    HW225104   4.736   4.604   4.463  0.8086  0.0619  1.9873
 4491SOL     OW25105   0.120   2.650   9.586  0.7600  0.3142 -0.2058
 4491SOL    HW125106   0.171   2.640   9.667 -0.5938  1.3455  0.7799
 4491SOL    HW225107   0.067   2.570   9.583  0.3155  0.6053 -0.1892
 4492SOL     OW25108   0.769   0.107   8.363  0.2407  0.7869  0.2670
 4492SOL    HW125109   0.791   0.170   8.294  0.8528  0.7664  0.4399
 4492SOL    HW225110   0.779   0.170   8.434  0.1273  1.1452 -0.0322
 4493SOL     OW25111   3.567   0.659   5.028  0.3076 -0.2676  0.3739
 4493SOL    HW125112   3.498   0.712   4.989  0.8272  0.4047  0.3508
 4493SOL    HW225113   3.593   0.728   5.089 -0.7900  0.2567  0.2329
 4494SOL     OW25114   3.269   1.192  12.062  0.3316  0.3118  0.7984
 4494SOL    HW125115   3.224   1.245  12.128 -1.6443  0.2586 -0.5249
 4494SOL    HW225116   3.335   1.257  12.040 -0.2349  0.3870 -0.6180
 4495SOL     OW25117   3.109   3.134   9.049  0.2688  0.5985  0.5204
 4495SOL    HW125118   3.160   3.214   9.058  1.8136 -0.5645  2.0358
 4495SOL    HW225119   3.023   3.164   9.077  0.4490  2.3109 -0.7443
 4496SOL     OW25120   4.212   3.440   7.066 -0.1278 -0.0868  0.0321
 4496SOL    HW125121   4.159   3.393   7.002 -1.0532  0.8837  0.0770
 4496SOL    HW225122   4.168   3.525   7.062  0.2125 -0.0343 -2.9922
 4497SOL     OW25123   4.100   3.366   9.812 -0.3255 -0.1909 -0.4380
 4497SOL    HW125124   4.081   3.326   9.728 -1.5299  1.2014 -0.8165
 4497SOL    HW225125   4.041   3.319   9.870 -2.1626  2.0919 -0.4680
 4498SOL     OW25126   3.195   0.434   2.304 -0.1596  0.1908 -0.8674
 4498SOL    HW125127   3.251   0.410   2.378 -0.5870 -1.4575 -1.0877
 4498SOL    HW225128   3.166   0.521   2.331 -2.6369 -1.6009  2.1653
 4499SOL     OW25129   0.253   0.170  16.568  0.4283 -0.2905 -0.0626
 4499SOL    HW125130   0.314   0.227  16.521 -0.7406  1.7400  0.8869
 4499SOL    HW225131   0.305   0.112  16.624  0.7723  0.5609  0.4966
 4500SOL     OW25132   2.300   4.367   6.740 -1.1434 -0.0909  0.5447
 4500SOL    HW125133   2.304   4.401   6.650  2.1918 -2.3702 -0.1395
 4500SOL    HW225134   2.210   4.380   6.771 -0.9059  1.0023  0.8019
 4501SOL     OW25135   2.211   2.289   7.303  0.3098 -0.0855  0.3596
 4501SOL    HW125136   2.159   2.364   7.331 -1.1010  0.2110 -3.0541
 4501SOL    HW225137   2.139   2.232   7.274  0.5155  0.5027 -1.3382
 4502SOL     OW25138   0.980   1.322   9.153 -0.3973  0.0914 -0.4222
 4502SOL    HW125139   0.930   1.356   9.227  2.5810 -0.7081  1.9654
 4502SOL    HW225140   0.976   1.394   9.091  2.2031 -0.4347 -1.1738
 4503SOL     OW25141   3.574   4.441   7.105 -0.4622 -0.5812  1.0723
 4503SOL    HW125142   3.545   4.418   7.193 -0.9048 -0.5598  0.9358
 4503SOL    HW225143   3.665   4.413   7.099 -0.6468 -0.1763 -3.9387
 4504SOL     OW25144   3.145   1.431   1.220 -0.0156 -0.2387  0.3969
 4504SOL    HW125145   3.241   1.425   1.222 -0.0065 -0.0447  0.6019
 4504SOL    HW225146   3.135   1.525   1.235  1.0046 -0.1393  0.4445
 4505SOL     OW25147   4.013   2.705   9.789 -0.4304 -0.3637 -0.6726
 4505SOL    HW125148   4.105   2.678   9.797  0.1184  1.8617  0.3384
 4505SOL    HW225149   4.017   2.733   9.698 -2.8203  1.8651 -0.0815
 4506SOL     OW25150   1.387   1.262  15.736  0.4486 -0.3221 -0.2880
 4506SOL    HW125151   1.471   1.220  15.718  0.5196 -0.1589 -0.3420
 4506SOL    HW225152   1.379   1.329  15.668  0.3557  2.7499  2.7929
 4507SOL     OW25153   3.364   3.391   5.357  0.2100  0.0749  0.6564
 4507SOL    HW125154   3.270   3.377   5.368  0.3409  0.0923  1.7758
 4507SOL    HW225155   3.385   3.326   5.291 -0.4431  0.3438  0.1825
 4508SOL     OW25156   0.577   3.056  16.283  0.1557 -0.4109 -0.1234
 4508SOL    HW125157   0.595   3.123  16.348 -1.2797  1.5385 -1.7139
 4508SOL    HW225158   0.626   3.098  16.212 -0.7526 -1.6107 -1.4915
 4509SOL     OW25159   3.436   1.994   8.457 -0.9658  0.3541 -0.0135
 4509SOL    HW125160   3.407   1.999   8.366 -0.5377  2.5788 -0.0305
 4509SOL    HW225161   3.354   2.029   8.492 -0.7332  0.7379  0.1399
 4510SOL     OW25162   3.026   1.020   3.716 -0.0847  0.1977  0.4965
 4510SOL    HW125163   3.071   1.072   3.783  1.1967  0.8500 -0.8584
 4510SOL    HW225164   3.088   1.020   3.643 -0.2394 -0.5065  0.3672
 4511SOL     OW25165   1.240   3.282  17.526 -0.4526 -0.2580  0.1813
 4511SOL    HW125166   1.237   3.193  17.492 -0.1892 -0.3410  0.3741
 4511SOL    HW225167   1.324   3.315  17.492 -0.0532 -0.3020  1.1327
 4512SOL     OW25168   2.133   1.540   0.547  0.2826 -0.1401 -0.2370
 4512SOL    HW125169   2.113   1.631   0.572  0.1460 -0.8900  2.4338
 4512SOL    HW225170   2.069   1.519   0.480  1.0070  1.9068 -1.5639
 4513SOL     OW25171   2.956   0.178   9.824  0.5307  0.2165 -0.0647
 4513SOL    HW125172   3.005   0.137   9.894 -1.5483 -0.2119  1.1367
 4513SOL    HW225173   3.003   0.259   9.803 -1.8252  1.4125 -0.7104
 4514SOL     OW25174   2.211   3.121   6.278  0.4138 -0.2078  0.1664
 4514SOL    HW125175   2.218   3.043   6.223  1.3519 -1.1008  1.5516
 4514SOL    HW225176   2.270   3.179   6.231 -1.9547  0.1661 -2.3758
 4515SOL     OW25177   4.211   2.708   4.630  0.2075 -0.4756 -0.6411
 4515SOL    HW125178   4.127   2.753   4.617  0.2274  0.4440  2.4828
 4515SOL    HW225179   4.172   2.637   4.682  2.0627 -0.6694  0.4610
 4516SOL     OW25180   4.710   0.806   9.717  0.4206 -0.2638  0.1071
 4516SOL    HW125181   0.053   0.807   9.665  1.5781  0.6073  1.8998
 4516SOL    HW225182   4.735   0.770   9.801 -0.2722 -0.6874  0.1299
 4517SOL     OW25183   4.079   1.099  12.356 -0.4200  0.3214 -0.1631
 4517SOL    HW125184   4.003   1.119  12.302  0.5419  1.8320 -0.9443
 4517SOL    HW225185   4.105   1.185  12.389  0.9987 -0.1933  0.0729
 4518SOL     OW25186   4.006   0.923   8.834 -0.8274 -0.1156  0.2678
 4518SOL    HW125187   3.973   0.906   8.922 -1.3821  1.0493  0.2752
 4518SOL    HW225188   4.078   0.982   8.854  0.6685 -1.3300 -1.4693
 4519SOL     OW25189   0.627   3.150   4.031 -0.3625 -0.5171 -0.2753
 4519SOL    HW125190   0.609   3.228   4.084  0.5323 -1.6588  1.7181
 4519SOL    HW225191   0.587   3.080   4.084 -2.2015  0.5464 -0.2388
 4520SOL     OW25192   1.924   2.768   8.042  0.6413  0.3136  0.2088
 4520SOL    HW125193   1.877   2.844   8.076  1.8381  1.0772  0.1746
 4520SOL    HW225194   2.013   2.801   8.029  0.4903  1.1917  1.4009
 4521SOL     OW25195   3.001   3.533  11.847 -0.3106  0.1394 -0.0512
 4521SOL    HW125196   3.095   3.536  11.828  0.0426 -0.8158  1.5684
 4521SOL    HW225197   2.965   3.555  11.761 -1.6454  1.0937  0.7554
 4522SOL     OW25198   1.617   3.134  11.589  0.1858 -0.1566  0.3144
 4522SOL    HW125199   1.707   3.165  11.580  0.1750 -0.5742 -1.3523
 4522SOL    HW225200   1.616   3.042  11.563  1.5284 -0.3137  0.8193
 4523SOL     OW25201   2.063   0.770   3.140  0.3738 -0.0018 -0.3835
 4523SOL    HW125202   2.004   0.739   3.207 -0.4412  0.2165 -1.0001
 4523SOL    HW225203   2.083   0.859   3.168 -0.2273 -0.4740  1.4929
 4524SOL     OW25204   2.855   4.056  15.123  0.9032 -0.0154  0.2864
 4524SOL    HW125205   2.922   4.078  15.188  0.6104 -2.1238  1.2992
 4524SOL    HW225206   2.788   4.121  15.146  1.5876  0.9951 -0.5749
 4525SOL     OW25207   0.377   4.275   6.919  0.3865 -0.1802  0.1928
 4525SOL    HW125208   0.349   4.249   7.007 -1.1111 -0.3608 -0.3374
 4525SOL    HW225209   0.344   4.202   6.867  1.0471  0.0224 -0.5044
 4526SOL     OW25210   2.498   2.076   6.615 -0.2226  0.0628  0.3708
 4526SOL    HW125211   2.405   2.096   6.603  0.7091  2.7735 -2.1577
 4526SOL    HW225212   2.509   2.116   6.702 -1.3901 -0.3372  0.7078
 4527SOL     OW25213   3.377   0.741   4.848  0.1711  0.4076 -0.6193
 4527SOL    HW125214   3.361   0.675   4.781 -0.2714 -0.4546  0.3400
 4527SOL    HW225215   3.453   0.790   4.816  0.4236  1.3196  1.3353
 4528SOL     OW25216   1.266   0.352  14.403  0.1718  0.0659  0.9478
 4528SOL    HW125217   1.325   0.396  14.464  1.2272  0.6929 -0.5076
 4528SOL    HW225218   1.263   0.406  14.324 -0.3431 -2.5091 -0.7737
 4529SOL     OW25219   2.447   1.582   6.985  0.1741  0.1481 -0.4828
 4529SOL    HW125220   2.415   1.617   7.068 -2.5501 -1.4488 -0.8197
 4529SOL    HW225221   2.542   1.592   6.981  0.1757 -0.1324 -1.1661
 4530SOL     OW25222   4.698   3.954  15.365  0.2284  0.2481 -0.2516
 4530SOL    HW125223   4.694   3.896  15.289 -0.8389  0.2148 -0.1748
 4530SOL    HW225224   4.627   4.016  15.349 -2.2477 -1.8355  2.5235
 4531SOL     OW25225   4.368   3.110   9.193 -0.6541 -0.0647  0.0867
 4531SOL    HW125226   4.362   3.174   9.121 -0.4900 -1.5020 -1.2036
 4531SOL    HW225227   4.441   3.139   9.247 -0.6948  1.3417 -0.6012
 4532SOL     OW25228   2.499   3.956   4.117 -0.7538  0.2966 -1.2767
 4532SOL    HW125229   2.554   3.961   4.039  1.2378 -0.8734  0.0385
 4532SOL    HW225230   2.412   3.960   4.078 -1.2009 -2.1765 -0.5188
 4533SOL     OW25231   2.122   1.257  17.495 -0.0682 -0.8172  0.9003
 4533SOL    HW125232   2.195   1.273  17.435 -1.4830 -1.5580 -0.9990
 4533SOL    HW225233   2.160   1.180  17.535  2.5263 -0.9305 -1.7669
 4534SOL     OW25234   2.150   0.991   8.011 -0.8853 -0.1493  0.4569
 4534SOL    HW125235   2.178   0.977   8.101 -2.1135 -0.4662  0.7887
 4534SOL    HW225236   2.101   1.073   8.011 -0.2448  0.2248  1.6193
 4535SOL     OW25237   1.863   3.764   3.585 -0.1629  0.0487  0.5675
 4535SOL    HW125238   1.909   3.819   3.649 -0.3224 -1.6064  2.1309
 4535SOL    HW225239   1.850   3.825   3.513 -0.3049  0.5330  0.9973
 4536SOL     OW25240   2.445   0.007   3.833  0.4799  0.3317  0.1400
 4536SOL    HW125241   2.535   4.719   3.811  0.5631  0.3682  0.4371
 4536SOL    HW225242   2.440   0.100   3.810 -0.6265  0.0708 -0.6723
 4537SOL     OW25243   1.026   1.310   5.509 -0.2827 -0.0854  0.0125
 4537SOL    HW125244   1.069   1.235   5.469  1.3160  0.7669  0.1215
 4537SOL    HW225245   0.952   1.308   5.449  0.8445 -0.8260 -1.3515
 4538SOL     OW25246   2.794   2.363   8.028 -0.1062 -0.1781 -0.1807
 4538SOL    HW125247   2.702   2.385   8.014  0.4990  0.1219 -3.6616
 4538SOL    HW225248   2.811   2.346   8.120  2.4948 -1.0618 -0.8135
 4539SOL     OW25249   0.690   0.087   5.437 -0.1665 -0.1334  0.0016
 4539SOL    HW125250   0.680   0.012   5.379 -2.9132 -1.6539  2.4436
 4539SOL    HW225251   0.781   0.090   5.466  0.2613 -1.6897 -1.1917
 4540SOL     OW25252   1.252   4.320   9.139  0.5227 -0.5511 -0.4764
 4540SOL    HW125253   1.280   4.262   9.068  1.1578 -1.4792  0.5267
 4540SOL    HW225254   1.335   4.337   9.184 -0.3895  0.6966  0.7725
 4541SOL     OW25255   0.005   2.114   6.191 -0.2245  0.3744 -0.3360
 4541SOL    HW125256   0.075   2.145   6.248  0.2692 -1.3673  0.0170
 4541SOL    HW225257   4.675   2.182   6.198 -0.1950  0.6610 -2.7419
 4542SOL     OW25258   1.908   1.880   1.002  0.3849  0.5150  0.1418
 4542SOL    HW125259   1.881   1.969   1.022  1.6738  1.0745 -0.6222
 4542SOL    HW225260   1.927   1.848   1.091  2.1902 -0.9903 -0.7893
 4543SOL     OW25261   0.872   3.622   7.569 -0.1889 -0.3282 -0.4333
 4543SOL    HW125262   0.908   3.542   7.529 -2.0897 -0.1573 -2.4830
 4543SOL    HW225263   0.857   3.592   7.659  2.2866  1.1195  0.4424
 4544SOL     OW25264   3.813   2.592  13.187 -0.2504 -0.1894 -0.8001
 4544SOL    HW125265   3.759   2.529  13.140 -0.0926 -1.6094  0.9291
 4544SOL    HW225266   3.890   2.540  13.207 -0.6364 -0.0420  1.0596
 4545SOL     OW25267   2.341   1.531   7.307 -0.1046 -0.7198  0.0363
 4545SOL    HW125268   2.416   1.474   7.319  1.0725  0.8705  0.2322
 4545SOL    HW225269   2.347   1.595   7.378  0.5155  0.1552 -0.8022
 4546SOL     OW25270   2.059   0.269  10.884  0.3522 -0.3249  0.4643
 4546SOL    HW125271   2.019   0.195  10.929 -0.2714 -0.8557 -0.9458
 4546SOL    HW225272   2.011   0.346  10.914 -0.6978 -0.3734 -1.0778
 4547SOL     OW25273   0.695   4.730  12.660 -0.7897 -0.3079  0.6223
 4547SOL    HW125274   0.631   4.693  12.721 -0.8722 -1.1055  0.0541
 4547SOL    HW225275   0.761   4.660  12.663  0.8219  1.1755 -0.3974
 4548SOL     OW25276   4.602   0.005   7.792 -0.6897  0.7663  0.3318
 4548SOL    HW125277   4.545   4.735   7.715 -1.3307 -0.2166  0.9022
 4548SOL    HW225278   4.550   0.069   7.840 -0.3946 -0.2625  2.0128
 4549SOL     OW25279   3.504   1.149  16.155 -0.1381  0.2443 -0.3953
 4549SOL    HW125280   3.426   1.167  16.208  0.2851  2.1189 -0.4071
 4549SOL    HW225281   3.573   1.140  16.220 -2.2736 -2.1509  1.5539
 4550SOL     OW25282   1.924   1.735  16.949  0.6044 -0.0758  0.3070
 4550SOL    HW125283   1.858   1.674  16.915  0.5174  0.0956  0.1713
 4550SOL    HW225284   1.905   1.752  17.041 -0.7609 -1.4869  0.3001
 4551SOL     OW25285   1.308   3.880  14.500 -0.0883 -0.3148  0.0796
 4551SOL    HW125286   1.242   3.812  14.486  1.6925 -1.8956 -0.4751
 4551SOL    HW225287   1.382   3.862  14.443 -0.3383 -0.0804 -0.3228
 4552SOL     OW25288   3.185   1.687   3.680 -0.3451 -0.1894 -0.0073
 4552SOL    HW125289   3.215   1.729   3.599  1.0319  1.0449  1.1440
 4552SOL    HW225290   3.259   1.691   3.741 -0.8643 -0.7893  0.6617
 4553SOL     OW25291   2.013   3.456  14.838  0.4223 -0.2531  0.0151
 4553SOL    HW125292   1.934   3.509  14.828  2.0087  2.3489  1.1259
 4553SOL    HW225293   2.062   3.524  14.885 -3.0933  0.7958  2.1722
 4554SOL     OW25294   0.207   4.165   6.544 -0.3979 -1.0336 -0.0292
 4554SOL    HW125295   0.168   4.252   6.543  0.3102 -0.7439 -2.2665
 4554SOL    HW225296   0.284   4.181   6.488 -0.8357  0.6418 -0.1439
 4555SOL     OW25297   2.358   2.596  16.289 -0.1360 -0.7731  0.3722
 4555SOL    HW125298   2.443   2.635  16.265 -2.2415  1.2020 -3.9617
 4555SOL    HW225299   2.302   2.662  16.247  0.8138  0.0093  0.3140
 4556SOL     OW25300   2.647   2.353   9.377 -0.0781  1.1993  0.3752
 4556SOL    HW125301   2.664   2.264   9.405  0.7057  1.2172 -0.0361
 4556SOL    HW225302   2.707   2.350   9.302  1.3164 -2.1037  1.6713
 4557SOL     OW25303   2.697   1.176   9.412 -0.5077 -0.0320  0.3740
 4557SOL    HW125304   2.676   1.209   9.499 -0.3910 -2.2687  1.2537
 4557SOL    HW225305   2.713   1.084   9.433  0.4095  0.2383  0.8407
 4558SOL     OW25306   0.762   1.191  12.351 -0.5841  0.1956 -0.0096
 4558SOL    HW125307   0.846   1.232  12.330 -0.1868 -0.6223 -0.0451
 4558SOL    HW225308   0.723   1.254  12.411  1.1992  1.8559 -0.5893
 4559SOL     OW25309   2.706   2.589   4.012 -0.3975  0.0624  0.5375
 4559SOL    HW125310   2.624   2.545   3.990  1.2648 -2.6776 -0.1846
 4559SOL    HW225311   2.671   2.675   4.033 -0.6703  0.2914 -0.8819
 4560SOL     OW25312   3.770   1.277  12.332 -0.0459  0.1898  0.0528
 4560SOL    HW125313   3.712   1.348  12.308  0.3960  0.0045 -1.5216
 4560SOL    HW225314   3.784   1.232  12.249 -0.7108  0.2362 -0.0803
 4561SOL     OW25315   2.722   0.027   5.907  0.0637 -0.0752 -0.8382
 4561SOL    HW125316   2.682   0.105   5.870 -1.7962 -0.5895  0.0710
 4561SOL    HW225317   2.647   0.001   5.961 -0.2584 -2.0466 -2.2551
 4562SOL     OW25318   3.457   0.781   1.990  0.2182  0.3321 -0.1920
 4562SOL    HW125319   3.444   0.793   1.896  0.2411  1.9819  0.0287
 4562SOL    HW225320   3.388   0.715   2.002  2.0583 -1.7955 -1.2282
 4563SOL     OW25321   3.885   4.578   1.460  0.1126  0.3575  0.1587
 4563SOL    HW125322   3.979   4.569   1.442  0.4528 -0.3280  2.3072
 4563SOL    HW225323   3.893   4.561   1.553  0.3644  2.7886  0.5748
 4564SOL     OW25324   2.788   2.322   3.000 -0.0646  0.0109 -0.4332
 4564SOL    HW125325   2.745   2.283   2.924 -0.1173  1.3014 -1.0638
 4564SOL    HW225326   2.814   2.253   3.061 -0.0686  0.4244  0.0331
 4565SOL     OW25327   2.488   2.360   1.931  0.2688  0.6318  0.3072
 4565SOL    HW125328   2.395   2.378   1.943  0.5444  1.1790  1.5816
 4565SOL    HW225329   2.517   2.417   2.002 -1.4350 -0.9251  2.2672
 4566SOL     OW25330   0.465   0.540   5.085  0.5048 -0.6013  0.0891
 4566SOL    HW125331   0.413   0.464   5.058 -2.5769  0.5220  2.8331
 4566SOL    HW225332   0.419   0.559   5.167  0.2168  0.3489 -0.3005
 4567SOL     OW25333   1.531   2.175   5.263  0.0296  0.0460 -0.0853
 4567SOL    HW125334   1.467   2.244   5.275  0.2066  0.0533  0.8398
 4567SOL    HW225335   1.549   2.160   5.356 -0.8326  0.5632  0.1640
 4568SOL     OW25336   3.533   2.727  10.505  0.1635  0.2040 -0.5474
 4568SOL    HW125337   3.503   2.636  10.505  1.0548 -0.0949 -1.3232
 4568SOL    HW225338   3.612   2.718  10.451 -1.1734  0.5756 -2.5401
 4569SOL     OW25339   2.280   4.228  15.596 -0.5130  0.4796 -0.2790
 4569SOL    HW125340   2.345   4.204  15.530  2.0782 -0.0418  2.4471
 4569SOL    HW225341   2.251   4.137  15.605 -0.4542  0.4167 -0.7204
 4570SOL     OW25342   3.552   0.995  16.800  0.2934  0.2008  0.1454
 4570SOL    HW125343   3.576   0.944  16.877 -0.0530 -1.5906 -0.9371
 4570SOL    HW225344   3.625   0.977  16.741 -0.6755 -1.7233 -0.4958
 4571SOL     OW25345   4.544   1.925   7.136  0.1006  0.5037 -0.2888
 4571SOL    HW125346   4.535   1.839   7.178 -1.5185  0.9103  0.1831
 4571SOL    HW225347   4.639   1.936   7.149  0.2021 -1.2307  0.5303
 4572SOL     OW25348   0.480   2.606  10.302  0.5121  0.6499 -0.5493
 4572SOL    HW125349   0.443   2.539  10.360 -0.3833 -0.0455 -1.9374
 4572SOL    HW225350   0.528   2.667  10.358 -0.0327 -1.8712  2.6612
 4573SOL     OW25351   3.560   4.409   2.673 -0.2250 -0.6397  0.1311
 4573SOL    HW125352   3.515   4.325   2.671 -2.2626  0.4693 -0.4033
 4573SOL    HW225353   3.506   4.449   2.741 -1.2960 -0.0039 -1.0913
 4574SOL     OW25354   0.994   1.480   6.557 -0.3695 -0.3038 -0.2953
 4574SOL    HW125355   0.992   1.573   6.533  0.9027  0.3446  2.1658
 4574SOL    HW225356   1.089   1.468   6.555 -0.5396 -1.4852 -1.4326
 4575SOL     OW25357   0.929   2.846   4.362 -0.4611 -0.5153 -0.6758
 4575SOL    HW125358   0.898   2.846   4.271 -0.2696  0.8871 -0.7430
 4575SOL    HW225359   0.964   2.933   4.379  1.6086 -1.6750  1.0147
 4576SOL     OW25360   0.993   2.812   6.646 -0.3745  0.5193  0.0583
 4576SOL    HW125361   0.963   2.878   6.583  0.3410  1.4459  0.6921
 4576SOL    HW225362   0.929   2.749   6.613 -0.6931 -0.9940  3.6231
 4577SOL     OW25363   1.053   0.864  12.333 -1.1116 -0.1149 -0.4330
 4577SOL    HW125364   1.066   0.959  12.325  1.8947 -0.4041  1.0893
 4577SOL    HW225365   1.030   0.853  12.240 -1.2524 -1.4831 -0.2331
 4578SOL     OW25366   1.253   3.323   4.122 -0.3531  0.4554 -0.0532
 4578SOL    HW125367   1.219   3.285   4.202  1.4434 -0.8272  0.0979
 4578SOL    HW225368   1.259   3.416   4.145 -2.2449  1.4825 -3.6652
 4579SOL     OW25369   1.641   1.567   2.587 -0.3358  0.1179 -0.1164
 4579SOL    HW125370   1.622   1.522   2.669 -3.0882 -0.1841 -0.8977
 4579SOL    HW225371   1.559   1.545   2.542  0.9087 -0.7537 -1.9687
 4580SOL     OW25372   2.250   1.478   9.183  0.5916  0.3745 -0.1440
 4580SOL    HW125373   2.295   1.546   9.133 -0.8390  0.8322 -0.8076
 4580SOL    HW225374   2.171   1.531   9.185  1.7732  2.1740 -0.5642
 4581SOL     OW25375   4.336   3.455   9.912  0.3820  0.4142  0.3364
 4581SOL    HW125376   4.261   3.418   9.865  0.0832  1.4298  0.0076
 4581SOL    HW225377   4.388   3.501   9.847 -0.5719  0.6363 -0.2700
 4582SOL     OW25378   4.160   1.486   3.493  0.2002 -0.5077 -0.0692
 4582SOL    HW125379   4.142   1.510   3.584 -1.1436 -0.0608 -0.4475
 4582SOL    HW225380   4.082   1.506   3.440 -0.5163 -0.8079  0.8856
 4583SOL     OW25381   1.036   4.374   1.835 -0.5110  0.0415  0.2480
 4583SOL    HW125382   1.009   4.322   1.910 -0.5719 -1.7628 -1.0125
 4583SOL    HW225383   1.126   4.394   1.861 -1.6036  1.4899  2.9086
 4584SOL     OW25384   2.650   4.342   4.136 -0.0314  0.7876 -0.1028
 4584SOL    HW125385   2.731   4.303   4.170  0.0414 -0.0226 -1.2192
 4584SOL    HW225386   2.615   4.355   4.224  1.4889  2.0167  0.3162
 4585SOL     OW25387   0.513   2.651   4.926  0.2801 -0.2032  0.1542
 4585SOL    HW125388   0.428   2.646   4.881 -1.7015  1.5245  3.7200
 4585SOL    HW225389   0.570   2.685   4.857  2.1963 -2.3755  0.6544
 4586SOL     OW25390   4.036   1.302   9.434  0.0522  0.0793  0.2468
 4586SOL    HW125391   4.021   1.343   9.519 -0.8630 -1.4439  0.8174
 4586SOL    HW225392   4.132   1.301   9.432  0.0532 -1.1476  1.4480
 4587SOL     OW25393   1.970   0.934   4.175  0.4935 -0.3279  0.3062
 4587SOL    HW125394   1.919   0.942   4.256  0.3795 -3.3176  0.5291
 4587SOL    HW225395   2.058   0.932   4.212  0.2958  4.0764  1.0240
 4588SOL     OW25396   4.234   1.195  15.893  0.1728  0.4879 -0.1160
 4588SOL    HW125397   4.225   1.136  15.967  0.2771  0.5169 -0.0807
 4588SOL    HW225398   4.149   1.238  15.890 -0.0330  0.2450  2.7054
 4589SOL     OW25399   0.800   0.390   8.258 -0.2390 -0.0411  0.6126
 4589SOL    HW125400   0.887   0.428   8.268 -0.0777 -0.0669 -0.6971
 4589SOL    HW225401   0.788   0.372   8.165  0.5780 -2.0343  0.8916
 4590SOL     OW25402   1.490   4.581   7.622  0.4205  0.2101  0.0612
 4590SOL    HW125403   1.408   4.602   7.578 -0.5259  1.5028  2.4267
 4590SOL    HW225404   1.472   4.501   7.671 -1.4403  0.6712  0.1261
 4591SOL     OW25405   3.339   3.059   3.655  0.3747  0.4268 -0.2448
 4591SOL    HW125406   3.408   2.996   3.634  1.2914  0.1710  3.5349
 4591SOL    HW225407   3.397   3.120   3.702  1.0011  1.6060 -2.5113
 4592SOL     OW25408   2.958   3.545   8.126 -0.2421  0.3955  0.5131
 4592SOL    HW125409   2.890   3.528   8.191 -1.0462 -0.1126 -0.4638
 4592SOL    HW225410   2.994   3.459   8.105 -1.1260  0.2122 -0.2115
 4593SOL     OW25411   1.914   4.204   2.931 -0.0067 -0.0147  0.4449
 4593SOL    HW125412   1.933   4.115   2.961 -0.0891 -0.0265  0.4624
 4593SOL    HW225413   1.873   4.179   2.848 -0.2198  1.3547  0.1339
 4594SOL     OW25414   0.171   2.927   4.085  0.1385 -0.5346 -0.1863
 4594SOL    HW125415   0.255   2.932   4.040 -0.1840  1.4102 -0.5795
 4594SOL    HW225416   0.146   2.834   4.091 -2.7088  0.3488  1.6619
 4595SOL     OW25417   1.367   3.199   2.727  0.2064  0.0656 -0.7059
 4595SOL    HW125418   1.321   3.180   2.645  0.6313 -1.4778 -0.5854
 4595SOL    HW225419   1.453   3.158   2.716  0.1844 -0.2363  0.3146
 4596SOL     OW25420   1.833   1.210   8.507  0.0295  0.2374 -0.2796
 4596SOL    HW125421   1.919   1.235   8.538 -0.0159 -1.6281  1.3653
 4596SOL    HW225422   1.786   1.192   8.589  0.6593 -0.6488 -0.1047
 4597SOL     OW25423   4.077   2.067  13.644 -0.2330  0.3000 -0.7746
 4597SOL    HW125424   4.008   2.002  13.660  1.2281 -0.2562  3.2853
 4597SOL    HW225425   4.130   2.024  13.578 -1.7054 -2.2449 -0.3110
 4598SOL     OW25426   4.028   3.506  14.862  0.1477 -0.4824 -0.2181
 4598SOL    HW125427   3.943   3.513  14.906 -0.3587  1.0045 -1.4121
 4598SOL    HW225428   4.004   3.502  14.769 -1.1536  0.4988  0.0739
 4599SOL     OW25429   1.310   3.432   7.040  0.0170  0.3160  0.3640
 4599SOL    HW125430   1.274   3.438   6.952 -0.8574  0.0490  0.7098
 4599SOL    HW225431   1.261   3.355   7.068  0.1480  0.4696  1.0324
 4600SOL     OW25432   1.543   1.378   8.675 -0.3128  0.3411  0.1168
 4600SOL    HW125433   1.460   1.416   8.705 -0.7182 -0.3903 -0.0783
 4600SOL    HW225434   1.516   1.329   8.597  0.0186  1.2024 -0.5467
 4601SOL     OW25435   3.474   2.316   6.710 -0.3193  0.4521 -0.1770
 4601SOL    HW125436   3.500   2.403   6.681 -0.0093 -0.1773 -1.7783
 4601SOL    HW225437   3.529   2.276   6.642 -1.7608  0.5911 -1.4147
 4602SOL     OW25438   2.028   3.936   9.714  0.0432  0.0465 -0.2812
 4602SOL    HW125439   2.064   4.023   9.731 -0.2216  0.2333 -0.6953
 4602SOL    HW225440   2.031   3.941   9.619 -0.5265  0.8482 -0.2568
 4603SOL     OW25441   0.870   0.190   3.237 -0.2356  0.9892  0.1526
 4603SOL    HW125442   0.834   0.268   3.280  0.5297  1.1670  0.4704
 4603SOL    HW225443   0.917   0.249   3.178 -2.1840  4.0173  1.6118
 4604SOL     OW25444   0.592   1.328   3.863  0.2578  0.0343  0.1441
 4604SOL    HW125445   0.610   1.328   3.957  0.7790 -1.6724  0.0464
 4604SOL    HW225446   0.502   1.362   3.861  0.2247 -0.0551  0.0869
 4605SOL     OW25447   0.871   3.029   4.884 -0.5004  0.4001 -0.3757
 4605SOL    HW125448   0.881   3.062   4.973  0.5256  1.2901 -0.8085
 4605SOL    HW225449   0.862   3.114   4.839 -4.2503  1.1502  1.8449
 4606SOL     OW25450   4.428   3.594   7.059 -0.6391  0.4253  0.0818
 4606SOL    HW125451   4.351   3.544   7.085  0.7602 -1.5286  0.4869
 4606SOL    HW225452   4.455   3.540   6.984 -1.9015  0.5573 -0.4638
 4607SOL     OW25453   2.688   2.292   7.010  0.2982  0.9623 -0.4017
 4607SOL    HW125454   2.777   2.326   7.005  1.1288 -0.9137  1.8605
 4607SOL    HW225455   2.646   2.332   7.086  2.4985  1.0002  0.7975
 4608SOL     OW25456   4.735   3.828   2.157 -0.4630  0.2000 -0.2415
 4608SOL    HW125457   4.651   3.784   2.160 -0.5468  0.4052  0.4759
 4608SOL    HW225458   0.034   3.788   2.078 -0.6965 -0.5852  0.0544
 4609SOL     OW25459   4.364   0.963  10.840 -0.6680  0.2994 -0.0855
 4609SOL    HW125460   4.299   0.893  10.851  0.7875 -1.2695 -1.4752
 4609SOL    HW225461   4.319   1.010  10.769  1.2598  0.8483 -0.9399
 4610SOL     OW25462   0.164   0.166   8.116  0.8655  0.1561  0.2964
 4610SOL    HW125463   0.216   0.152   8.036  0.6960  0.9263  0.0542
 4610SOL    HW225464   0.099   0.096   8.107  1.6016 -0.3597 -0.9989
 4611SOL     OW25465   2.871   4.266   9.960  0.1436 -0.0188  0.5520
 4611SOL    HW125466   2.799   4.206   9.977  3.2628 -3.4381  1.8979
 4611SOL    HW225467   2.840   4.353   9.985  1.7761  1.2642 -1.8731
 4612SOL     OW25468   3.733   3.148  16.524  0.4811  0.2078 -0.0545
 4612SOL    HW125469   3.816   3.187  16.497 -1.0155  3.8702  0.7396
 4612SOL    HW225470   3.679   3.226  16.515 -2.0342 -1.4016  1.1951
 4613SOL     OW25471   2.701   0.405  16.299  0.0008  0.5179  0.1035
 4613SOL    HW125472   2.747   0.345  16.358 -0.0070  1.7813  1.4103
 4613SOL    HW225473   2.652   0.346  16.243  0.0121  0.4351  0.1813
 4614SOL     OW25474   1.746   4.589   3.297 -0.0697 -0.1492  0.0782
 4614SOL    HW125475   1.817   4.610   3.236  0.0212  0.5097  0.4127
 4614SOL    HW225476   1.749   4.493   3.297  0.8494 -0.1204  2.2967
 4615SOL     OW25477   0.877   4.489   1.634 -0.1126 -0.0290  0.6400
 4615SOL    HW125478   0.934   4.435   1.689  0.3604  0.1254  0.2984
 4615SOL    HW225479   0.820   4.425   1.591  0.9227  0.7869 -1.9758
 4616SOL     OW25480   2.877   1.911   0.912 -0.1095  0.1969 -0.4556
 4616SOL    HW125481   2.849   1.936   0.824  3.0399 -0.1603 -1.5271
 4616SOL    HW225482   2.930   1.988   0.931 -1.0321  0.7009  0.1149
 4617SOL     OW25483   4.271   3.136   7.178 -0.4872 -0.2591 -0.3405
 4617SOL    HW125484   4.352   3.175   7.143  0.3924 -0.3391  1.5985
 4617SOL    HW225485   4.295   3.098   7.263 -2.0393  1.5079  0.9027
 4618SOL     OW25486   3.804   4.157  13.021 -0.1017  0.0758  0.3547
 4618SOL    HW125487   3.755   4.102  13.082  3.0123  0.6495  3.3914
 4618SOL    HW225488   3.740   4.163  12.951  2.1534  2.1062 -1.5146
 4619SOL     OW25489   1.781   3.718   2.978  0.1013  0.2844 -0.2429
 4619SOL    HW125490   1.756   3.684   3.063 -1.5395 -1.3514 -1.3914
 4619SOL    HW225491   1.828   3.648   2.933  1.0617 -1.6620  3.8631
 4620SOL     OW25492   2.605   2.375  12.697  0.2555  0.6465 -0.1637
 4620SOL    HW125493   2.698   2.382  12.717  0.3391  1.0658 -0.6980
 4620SOL    HW225494   2.599   2.300  12.637 -1.7648 -2.5238  4.0191
 4621SOL     OW25495   4.105   2.699   0.057  0.3960  0.6574  0.3483
 4621SOL    HW125496   4.151   2.623   0.092 -1.0285  0.0572  0.9304
 4621SOL    HW225497   4.016   2.665   0.068  1.9134 -2.7895  2.0198
 4622SOL     OW25498   0.315   3.317   2.699  0.0640 -0.3268  0.3515
 4622SOL    HW125499   0.242   3.377   2.681  1.1683  0.8795 -0.1525
 4622SOL    HW225500   0.383   3.347   2.638  0.1769 -1.9311 -0.3133
 4623SOL     OW25501   0.579   0.113   9.236  0.1812  0.2529  0.1675
 4623SOL    HW125502   0.564   0.093   9.144 -0.8636  1.1333  0.1389
 4623SOL    HW225503   0.543   0.038   9.282  0.1195  0.0591 -0.1949
 4624SOL     OW25504   3.425   1.117   1.817 -0.3573 -0.0237 -0.7739
 4624SOL    HW125505   3.424   1.021   1.817  1.6961 -0.0553  0.3077
 4624SOL    HW225506   3.433   1.140   1.725  0.5061  1.0194 -0.4455
 4625SOL     OW25507   3.412   2.315  14.715 -0.2197 -0.2082 -0.1878
 4625SOL    HW125508   3.433   2.235  14.763 -1.5162  0.7842  2.0097
 4625SOL    HW225509   3.443   2.378  14.780  0.7673 -1.4158  0.5213
 4626SOL     OW25510   2.768   0.779   8.468  1.5428 -0.0280  0.2923
 4626SOL    HW125511   2.846   0.781   8.522  1.6100 -1.6641  0.2354
 4626SOL    HW225512   2.724   0.706   8.512 -1.6063  1.6178 -0.0718
 4627SOL     OW25513   4.534   1.397   9.459 -0.2384 -0.2571  0.2862
 4627SOL    HW125514   4.592   1.354   9.396 -0.1327 -0.7015  0.6886
 4627SOL    HW225515   4.544   1.340   9.535  1.6120  1.2831  1.1979
 4628SOL     OW25516   0.742   3.268   8.515  0.0337  0.0366 -0.0810
 4628SOL    HW125517   0.830   3.302   8.500  0.2113 -0.0386  0.7698
 4628SOL    HW225518   0.758   3.178   8.487 -2.2788  0.2710 -2.1267
 4629SOL     OW25519   0.633   3.954   2.426  0.3218 -0.0674 -0.0452
 4629SOL    HW125520   0.691   4.012   2.475 -2.9059  1.3406  2.0640
 4629SOL    HW225521   0.551   4.000   2.441 -0.2313 -1.2419  0.5693
 4630SOL     OW25522   2.670   1.806   3.916  0.1011 -0.6244 -0.4313
 4630SOL    HW125523   2.624   1.840   3.839  3.1234 -0.7173 -2.2799
 4630SOL    HW225524   2.732   1.748   3.871  0.0120 -0.1291 -1.1870
 4631SOL     OW25525   3.058   1.997   1.296  0.3581  0.3247 -0.1133
 4631SOL    HW125526   3.114   2.074   1.292 -1.9650  1.9356 -1.0705
 4631SOL    HW225527   2.979   2.028   1.253  0.3232  1.4696  0.7909
 4632SOL     OW25528   0.392   4.171  12.227 -0.4213 -0.1817  0.2125
 4632SOL    HW125529   0.469   4.168  12.285  0.4356  1.4712 -0.8246
 4632SOL    HW225530   0.343   4.089  12.228 -1.0251  0.1943  1.4779
 4633SOL     OW25531   3.823   0.191   3.343 -0.3743 -0.0883  0.2172
 4633SOL    HW125532   3.902   0.166   3.295 -0.7323  1.0351 -0.9383
 4633SOL    HW225533   3.810   0.271   3.293  0.9432 -0.1940 -0.2905
 4634SOL     OW25534   3.318   4.136  16.412 -0.0797 -0.0836 -0.1158
 4634SOL    HW125535   3.242   4.079  16.418  0.1858 -0.5658 -1.5142
 4634SOL    HW225536   3.326   4.142  16.317 -0.0406  1.8895  0.0138
 4635SOL     OW25537   0.960   2.486   5.354 -0.1740 -0.2017 -0.6418
 4635SOL    HW125538   0.936   2.546   5.425 -0.1966  0.2718 -1.0558
 4635SOL    HW225539   0.951   2.402   5.400 -1.6286  0.7747  0.8250
 4636SOL     OW25540   3.112   2.800   8.702  0.0460 -0.1947 -0.7555
 4636SOL    HW125541   3.067   2.797   8.786  0.1101  3.9407 -0.5425
 4636SOL    HW225542   3.154   2.885   8.718  0.9941 -0.9445  0.7724
 4637SOL     OW25543   1.575   2.801  13.737  0.0616 -0.0732  0.0818
 4637SOL    HW125544   1.594   2.800  13.831 -0.5540  0.9791  0.2230
 4637SOL    HW225545   1.481   2.818  13.736  0.2143  0.9023  2.0337
 4638SOL     OW25546   1.882   4.688   6.285  0.0078 -0.5649 -0.0913
 4638SOL    HW125547   1.882   4.672   6.379  0.6248 -0.5482 -0.0899
 4638SOL    HW225548   1.840   0.037   6.289  1.1399 -0.0126 -0.2758
 4639SOL     OW25549   0.426   2.039  16.815 -0.4441 -0.6837 -0.1137
 4639SOL    HW125550   0.452   2.020  16.725 -2.7043  2.6115 -1.4712
 4639SOL    HW225551   0.415   1.949  16.844  0.7614  0.1177  2.8508
 4640SOL     OW25552   0.979   2.212   1.012  0.3314 -0.2859 -0.5091
 4640SOL    HW125553   0.973   2.159   1.091 -0.8665  1.5179  0.6273
 4640SOL    HW225554   1.072   2.218   0.992 -0.2127  1.0045 -2.6598
 4641SOL     OW25555   0.923   4.723   3.848 -0.3798 -0.4725  0.3043
 4641SOL    HW125556   0.853   4.660   3.832  0.6136 -1.5961  0.4358
 4641SOL    HW225557   1.002   4.670   3.851  1.7513  2.6820 -0.4303
 4642SOL     OW25558   4.732   4.131   1.874 -0.6113  0.2475  0.4812
 4642SOL    HW125559   4.655   4.167   1.830  0.1746 -0.2704 -1.3304
 4642SOL    HW225560   0.036   4.211   1.906 -2.6274  0.6187  2.2336
 4643SOL     OW25561   0.784   1.265   0.340 -0.4681 -0.4030  0.2627
 4643SOL    HW125562   0.811   1.290   0.428  0.8812 -0.5751 -0.1123
 4643SOL    HW225563   0.801   1.342   0.286  0.3036  0.9362  2.4308
 4644SOL     OW25564   1.201   0.046  11.141 -0.2786 -0.5732 -0.1558
 4644SOL    HW125565   1.296   0.039  11.142 -0.2004  0.5991  1.0266
 4644SOL    HW225566   1.182   0.139  11.127  0.7592 -0.4474 -0.7167
 4645SOL     OW25567   3.232   3.040   7.069 -0.3107 -0.0471  0.1572
 4645SOL    HW125568   3.145   3.007   7.044 -0.2384 -0.5842  0.6068
 4645SOL    HW225569   3.220   3.106   7.137  1.5251  1.4955 -1.0150
 4646SOL     OW25570   4.260   3.505  17.491  0.1672  0.0825 -0.5667
 4646SOL    HW125571   4.217   3.585  17.460  1.4830  1.1349  0.2797
 4646SOL    HW225572   4.223   3.497  17.579  0.9814  2.2191 -0.0106
 4647SOL     OW25573   4.072   1.464   8.779 -1.0816  0.1032  0.0783
 4647SOL    HW125574   4.131   1.429   8.845  0.3617 -0.9376 -1.7506
 4647SOL    HW225575   3.994   1.492   8.827 -1.8701 -3.0093  0.6027
 4648SOL     OW25576   1.237   2.191   1.222 -0.2755 -0.1202 -0.3610
 4648SOL    HW125577   1.278   2.226   1.143  1.6908 -1.2068  0.1658
 4648SOL    HW225578   1.239   2.099   1.195 -1.0852 -0.8030  1.8586
 4649SOL     OW25579   2.559   1.201   5.732 -0.0359 -0.1296  0.1786
 4649SOL    HW125580   2.476   1.198   5.778 -0.3215 -0.4600 -0.3626
 4649SOL    HW225581   2.625   1.196   5.802  0.8068  0.7160 -0.5534
 4650SOL     OW25582   0.461   1.320   2.659 -0.7856  0.3663  0.5205
 4650SOL    HW125583   0.475   1.401   2.708  2.1936 -0.7370  1.5530
 4650SOL    HW225584   0.546   1.292   2.694 -0.9922  1.3944  1.8244
 4651SOL     OW25585   0.562   2.731   6.770  0.2305  0.1791 -0.2695
 4651SOL    HW125586   0.548   2.738   6.865  0.0489 -1.2869 -0.1794
 4651SOL    HW225587   0.607   2.647   6.759  1.1873  0.6360  0.2234
 4652SOL     OW25588   1.227   0.977   6.304 -0.2264  0.7554 -0.1102
 4652SOL    HW125589   1.260   1.009   6.220  2.4136  0.1363  0.7053
 4652SOL    HW225590   1.202   1.059   6.347 -1.8700 -1.1559  2.5963
 4653SOL     OW25591   1.051   3.050  14.224  0.1728 -0.3273 -0.5101
 4653SOL    HW125592   1.052   3.100  14.143 -0.8393 -3.6610 -2.5761
 4653SOL    HW225593   1.007   2.967  14.209  0.6179 -0.8324  0.9307
 4654SOL     OW25594   1.601   1.154   2.929  0.3248  1.0204 -1.0597
 4654SOL    HW125595   1.645   1.069   2.932  0.4050  1.0645 -0.9786
 4654SOL    HW225596   1.511   1.122   2.931  1.1245 -1.1146  1.0424
 4655SOL     OW25597   3.294   1.140   6.407  0.5760 -0.1616  0.2048
 4655SOL    HW125598   3.257   1.110   6.490 -0.9058  0.0218 -0.3756
 4655SOL    HW225599   3.332   1.060   6.369 -0.7171 -0.4930 -0.4029
 4656SOL     OW25600   0.688   3.620   8.271  0.3042 -0.1290  0.5017
 4656SOL    HW125601   0.592   3.626   8.269  0.5149  2.6366 -0.3625
 4656SOL    HW225602   0.703   3.526   8.259 -0.5538 -0.0664 -1.0858
 4657SOL     OW25603   3.203   4.099   9.391  0.5226 -0.3979 -0.5478
 4657SOL    HW125604   3.251   4.077   9.312 -2.0392  0.1873 -2.2614
 4657SOL    HW225605   3.183   4.191   9.371 -2.2595 -1.4939 -2.7278
 4658SOL     OW25606   2.861   4.525   7.981  0.7584 -0.0215 -0.2289
 4658SOL    HW125607   2.874   4.463   8.053 -1.6237 -1.6082 -1.1929
 4658SOL    HW225608   2.769   4.547   7.996  0.2424 -2.9452  0.9613
 4659SOL     OW25609   4.184   3.586  12.354 -0.0060 -0.7931 -0.3606
 4659SOL    HW125610   4.108   3.633  12.320  0.4497 -1.1225 -1.8262
 4659SOL    HW225611   4.148   3.497  12.359  1.9798 -1.5121  1.0331
 4660SOL     OW25612   3.776   0.661  11.670  0.4898  0.1703  0.3249
 4660SOL    HW125613   3.773   0.670  11.765 -0.9836 -0.2923  0.3297
 4660SOL    HW225614   3.705   0.597  11.660  1.0043 -0.6532  1.9176
 4661SOL     OW25615   0.826   4.123   9.109  0.7299  0.4159 -1.2382
 4661SOL    HW125616   0.741   4.080   9.101 -0.1099  2.0192 -0.7979
 4661SOL    HW225617   0.795   4.175   9.183 -0.3318 -0.7118 -0.8802
 4662SOL     OW25618   3.097   0.883   6.202 -0.4603  0.4616 -0.3683
 4662SOL    HW125619   3.058   0.966   6.228  2.4935  1.4345  0.9256
 4662SOL    HW225620   3.102   0.900   6.108  1.6577 -1.8860 -0.6691
 4663SOL     OW25621   0.234   0.479   4.775  0.0421  0.3164  0.1657
 4663SOL    HW125622   0.284   0.561   4.771 -0.0286  0.3272 -0.5213
 4663SOL    HW225623   0.308   0.426   4.747 -0.8301 -0.4850 -0.5974
 4664SOL     OW25624   0.125   0.590   5.660  0.4573  0.6196  0.9399
 4664SOL    HW125625   0.043   0.611   5.615  0.2510  0.0387  1.0417
 4664SOL    HW225626   0.103   0.613   5.751  0.4596 -1.8438  1.5577
 4665SOL     OW25627   2.352   2.118   3.242 -1.0964  0.4780  0.0703
 4665SOL    HW125628   2.320   2.126   3.152  2.6740 -1.0980 -1.3883
 4665SOL    HW225629   2.339   2.024   3.256 -3.5574  1.0515  1.6611
 4666SOL     OW25630   3.016   1.585  17.573 -0.3246 -0.0822 -0.1434
 4666SOL    HW125631   3.069   1.607  17.496  1.5366 -0.1953  1.1008
 4666SOL    HW225632   3.071   1.528  17.628  0.1164  1.0882  0.6264
 4667SOL     OW25633   0.981   3.862   9.970 -0.6893  0.1372  0.3406
 4667SOL    HW125634   0.978   3.800  10.043 -2.0223  0.6486  0.7197
 4667SOL    HW225635   1.052   3.827   9.915 -1.6612 -0.2002 -0.6961
 4668SOL     OW25636   1.138   3.796   9.249  0.4481  0.1703  0.2100
 4668SOL    HW125637   1.086   3.819   9.326 -1.5426 -0.9362 -0.7858
 4668SOL    HW225638   1.159   3.708   9.280  0.0792 -0.8973 -2.5033
 4669SOL     OW25639   0.034   4.227   9.313  0.1163 -0.2913  0.9439
 4669SOL    HW125640   0.038   4.132   9.297 -0.4369  0.0484 -1.0757
 4669SOL    HW225641   4.722   4.272   9.245 -1.9147 -2.5568  0.9263
 4670SOL     OW25642   3.088   2.636   6.743 -0.3173  0.1534  0.3150
 4670SOL    HW125643   3.041   2.681   6.813 -2.7886  0.6158 -1.6266
 4670SOL    HW225644   3.123   2.716   6.703  3.1917 -2.1217 -1.1482
 4671SOL     OW25645   2.320   4.573   6.954  0.1534 -0.0396 -0.1215
 4671SOL    HW125646   2.241   4.524   6.931  1.2001 -0.3725 -2.9756
 4671SOL    HW225647   2.379   4.526   6.895 -0.7584  1.6083 -2.3631
 4672SOL     OW25648   2.187   4.598   3.304  0.1019 -0.1504  0.4276
 4672SOL    HW125649   2.203   4.594   3.399  0.8050 -1.4026  0.2606
 4672SOL    HW225650   2.159   4.689   3.299 -0.0781 -0.2165  0.2215
 4673SOL     OW25651   0.924   2.592   6.990 -0.3970 -0.2563 -0.4612
 4673SOL    HW125652   0.831   2.589   6.965 -0.5644  0.8732  0.0607
 4673SOL    HW225653   0.950   2.683   6.976  0.0472  0.0939  2.7591
 4674SOL     OW25654   3.155   3.727   6.699  0.0347  0.8998  0.4161
 4674SOL    HW125655   3.119   3.647   6.737 -0.9671  1.2926  0.2938
 4674SOL    HW225656   3.077   3.757   6.653  0.4147  1.5042  0.1538
 4675SOL     OW25657   1.442   3.746  14.881  0.0633  0.0479 -0.3296
 4675SOL    HW125658   1.499   3.705  14.946 -2.0542 -1.0054  0.8657
 4675SOL    HW225659   1.476   3.696  14.807  1.0629 -0.1895  0.2846
 4676SOL     OW25660   0.514   2.289   4.775  0.1419  0.1119 -0.2109
 4676SOL    HW125661   0.530   2.325   4.688  4.7094 -2.9295 -0.6402
 4676SOL    HW225662   0.581   2.221   4.782  2.6424  2.3907 -2.0972
 4677SOL     OW25663   0.741   3.901   3.699  0.2429 -0.4008  0.4387
 4677SOL    HW125664   0.787   3.984   3.713 -0.1639 -0.0504 -0.3430
 4677SOL    HW225665   0.764   3.859   3.782 -0.6711 -0.7952  0.4950
 4678SOL     OW25666   1.183   1.860  11.001  0.0794  1.1875 -0.4280
 4678SOL    HW125667   1.187   1.829  11.091  2.0838  1.1994 -0.5207
 4678SOL    HW225668   1.207   1.952  11.008  0.2120  1.3193 -2.5397
 4679SOL     OW25669   4.607   3.794   7.712 -0.5276  0.5943  0.2943
 4679SOL    HW125670   4.655   3.713   7.694 -0.8524  0.1833  1.2509
 4679SOL    HW225671   4.671   3.861   7.689  0.3002  0.0714  1.0841
 4680SOL     OW25672   4.232   3.217  17.677  0.2022 -0.3932 -0.2156
 4680SOL    HW125673   4.228   3.298  17.728 -1.5229 -0.0807 -0.8576
 4680SOL    HW225674   4.285   3.159  17.731  1.3780  0.1790 -0.7347
 4681SOL     OW25675   2.798   1.519   7.900 -0.0794  0.3424  0.3399
 4681SOL    HW125676   2.746   1.487   7.974 -0.5101  0.1103 -0.0649
 4681SOL    HW225677   2.817   1.441   7.848 -0.5323  0.6084 -0.2203
 4682SOL     OW25678   1.863   2.888   4.970 -0.1593  0.5422 -0.5709
 4682SOL    HW125679   1.938   2.844   4.932  0.4499  0.9501  0.1539
 4682SOL    HW225680   1.899   2.965   5.014  0.3010 -0.3578  0.6339
 4683SOL     OW25681   3.862   0.531   9.421  0.1091 -0.2414  0.3108
 4683SOL    HW125682   3.782   0.564   9.380  0.3411 -0.3402 -0.2233
 4683SOL    HW225683   3.882   0.609   9.473  2.0285  0.5697 -1.6274
 4684SOL     OW25684   4.113   1.938  10.234  0.6547  0.0217 -0.1420
 4684SOL    HW125685   4.054   1.970  10.165 -0.2271 -0.1493  0.5331
 4684SOL    HW225686   4.131   2.024  10.272 -0.7228 -0.4387  1.5439
 4685SOL     OW25687   2.027   3.637   5.720  0.3591 -0.0064  0.1088
 4685SOL    HW125688   2.050   3.679   5.803  2.1952 -0.2120 -0.2840
 4685SOL    HW225689   1.942   3.680   5.710 -0.2646 -0.7731  2.0845
 4686SOL     OW25690   2.105   3.785   7.327 -0.5263 -0.5121 -0.1198
 4686SOL    HW125691   2.175   3.849   7.319 -0.1298 -0.5487  3.0676
 4686SOL    HW225692   2.141   3.731   7.397  0.4256 -0.5003 -0.5994
 4687SOL     OW25693   3.277   1.478   0.469 -0.6606  0.1378 -0.1352
 4687SOL    HW125694   3.272   1.569   0.497 -0.9867 -0.3045  1.2415
 4687SOL    HW225695   3.368   1.464   0.497 -0.7198 -0.0532 -0.0403
 4688SOL     OW25696   3.891   1.401   1.787  0.3032 -0.1457 -0.2728
 4688SOL    HW125697   3.809   1.411   1.739  0.2655  2.8182  0.4512
 4688SOL    HW225698   3.895   1.473   1.850  1.4246 -0.9689  0.6048
 4689SOL     OW25699   0.672   1.859   6.888 -0.1094  0.1436  0.4830
 4689SOL    HW125700   0.719   1.793   6.837  0.7374  2.7262 -2.0448
 4689SOL    HW225701   0.601   1.803   6.920  1.1726 -1.0499  1.1995
 4690SOL     OW25702   3.181   0.805   7.121 -0.6330 -0.2086  0.0514
 4690SOL    HW125703   3.128   0.875   7.159  0.1429  0.8825 -0.8551
 4690SOL    HW225704   3.256   0.793   7.180  0.0199  3.0484 -0.1312
 4691SOL     OW25705   3.263   0.009   5.486 -0.1040 -0.5702 -0.0155
 4691SOL    HW125706   3.306   4.664   5.508 -2.5489 -1.0839  2.8787
 4691SOL    HW225707   3.176   4.713   5.466 -0.9713  1.4599  0.2933
 4692SOL     OW25708   0.476   2.494   3.389  0.2681 -0.4442  0.2226
 4692SOL    HW125709   0.450   2.404   3.369  0.2481 -0.7756  1.7121
 4692SOL    HW225710   0.554   2.480   3.442 -1.6341 -1.7808  2.6949
 4693SOL     OW25711   0.660   1.518   3.339  0.1401 -0.5865 -0.1964
 4693SOL    HW125712   0.686   1.610   3.346 -0.1384 -0.4694 -0.6520
 4693SOL    HW225713   0.745   1.475   3.347  0.7854  0.5132 -1.1282
 4694SOL     OW25714   0.868   1.944   7.910  0.4491  0.4929  0.0835
 4694SOL    HW125715   0.862   1.867   7.854 -0.6680  1.6173 -1.3284
 4694SOL    HW225716   0.920   2.006   7.859  0.1842  1.2273  0.6932
 4695SOL     OW25717   3.794   1.986  13.581 -0.4843 -0.4031 -0.7579
 4695SOL    HW125718   3.700   1.973  13.567 -0.7587  2.5261 -1.5936
 4695SOL    HW225719   3.839   1.934  13.514 -1.9061 -0.5488 -1.5885
 4696SOL     OW25720   1.529   1.918   7.413 -0.3887  0.0228 -0.0677
 4696SOL    HW125721   1.453   1.922   7.471 -1.0706  3.6220 -1.1561
 4696SOL    HW225722   1.545   1.826   7.433 -1.4495  0.0192  0.7522
 4697SOL     OW25723   1.349   0.508  11.656  0.1358  0.5866  0.2111
 4697SOL    HW125724   1.274   0.466  11.697 -0.2070 -0.3485 -1.3882
 4697SOL    HW225725   1.399   0.522  11.737 -0.6056  2.4927  0.3541
 4698SOL     OW25726   2.116   4.087   2.718  0.2216 -0.1847  0.0287
 4698SOL    HW125727   2.028   4.077   2.683  0.1177 -1.2574  0.5889
 4698SOL    HW225728   2.146   3.996   2.714 -0.8364 -0.5639  0.5586
 4699SOL     OW25729   2.902   1.945   6.648 -0.1643  0.5009 -0.4676
 4699SOL    HW125730   2.826   1.903   6.688 -0.0184 -0.5518 -1.3015
 4699SOL    HW225731   2.926   2.007   6.717 -0.2983  0.8538 -0.7402
 4700SOL     OW25732   2.680   4.204  13.436 -0.3660 -0.5533 -0.2124
 4700SOL    HW125733   2.718   4.239  13.517 -1.0565 -0.3139  0.0125
 4700SOL    HW225734   2.587   4.220  13.456  0.4936  2.2978  1.3945
 4701SOL     OW25735   1.374   0.713  11.485  0.1023 -0.0417  0.0753
 4701SOL    HW125736   1.298   0.709  11.427 -0.4807  0.1333  0.8279
 4701SOL    HW225737   1.367   0.633  11.538 -0.9315 -0.1170 -0.1810
 4702SOL     OW25738   3.831   2.933  12.733 -0.3374 -0.1967  0.3355
 4702SOL    HW125739   3.756   2.926  12.675 -1.6824  2.0923  1.7899
 4702SOL    HW225740   3.836   2.848  12.776 -2.0965 -0.6325 -0.3135
 4703SOL     OW25741   1.759   1.672   6.400 -0.3684  0.1225 -0.0057
 4703SOL    HW125742   1.754   1.718   6.316 -0.8801 -1.0070 -0.5843
 4703SOL    HW225743   1.854   1.674   6.413 -0.2617 -1.0374 -0.6798
 4704SOL     OW25744   1.515   1.507   8.287  0.0516 -0.0600  0.1179
 4704SOL    HW125745   1.514   1.465   8.201  0.0340 -0.1215  0.1483
 4704SOL    HW225746   1.460   1.446   8.336 -1.3917 -0.0554 -1.5176
 4705SOL     OW25747   2.757   1.122   3.660 -0.3618  0.2176  0.0760
 4705SOL    HW125748   2.847   1.099   3.683 -0.3744  0.5028  0.4126
 4705SOL    HW225749   2.708   1.099   3.739 -0.2188  1.1002  0.4165
 4706SOL     OW25750   0.257   2.920  12.848 -0.0551  0.5394  0.0874
 4706SOL    HW125751   0.243   3.010  12.879  0.8227  0.7886 -0.2290
 4706SOL    HW225752   0.204   2.857  12.896 -0.6931  0.1006 -1.2162
 4707SOL     OW25753   3.057   4.174   2.397  0.4037 -0.1507  0.4116
 4707SOL    HW125754   3.097   4.194   2.313 -2.3531 -1.2016 -1.1573
 4707SOL    HW225755   2.994   4.245   2.408 -0.2245 -0.4373 -1.4600
 4708SOL     OW25756   2.027   2.097   2.089  0.1466 -0.0629  0.5799
 4708SOL    HW125757   2.087   2.120   2.018  0.2432  1.6059  1.1967
 4708SOL    HW225758   1.981   2.025   2.047  0.8175  0.0049 -0.2628
 4709SOL     OW25759   2.667   2.118   5.621  0.1027  0.5838  0.0771
 4709SOL    HW125760   2.690   2.036   5.664 -1.0424  0.4390  0.4183
 4709SOL    HW225761   2.572   2.117   5.633 -0.0297  0.7012 -0.9752
 4710SOL     OW25762   0.835   0.598   1.089  0.0512 -0.0712 -0.1871
 4710SOL    HW125763   0.798   0.514   1.063  1.3135 -1.5400  2.7192
 4710SOL    HW225764   0.757   0.652   1.077 -0.1042  0.0862  1.4704
 4711SOL     OW25765   3.258   3.986   2.847 -0.6792 -0.1464 -0.0612
 4711SOL    HW125766   3.221   4.022   2.766  0.6570 -0.1385 -0.6809
 4711SOL    HW225767   3.176   3.956   2.885 -0.6871  1.6092  1.3044
 4712SOL     OW25768   1.187   0.692   8.751 -0.3856  0.1016  0.3004
 4712SOL    HW125769   1.184   0.762   8.686 -2.4277  0.2222  0.5405
 4712SOL    HW225770   1.170   0.623   8.687  1.5420  0.4132 -0.5745
 4713SOL     OW25771   2.312   1.384   4.169  0.1675 -0.1245 -0.0524
 4713SOL    HW125772   2.392   1.435   4.184  1.4032 -1.5348 -1.9037
 4713SOL    HW225773   2.243   1.439   4.207  0.6148  1.5820 -1.7471
 4714SOL     OW25774   0.736   0.639   7.790  0.0231 -0.0543  0.3365
 4714SOL    HW125775   0.760   0.612   7.879 -0.8920  1.6802  1.1111
 4714SOL    HW225776   0.734   0.559   7.739 -0.5257  1.2773 -1.7137
 4715SOL     OW25777   3.041   1.660   7.060 -0.6055  0.1009  0.0987
 4715SOL    HW125778   3.011   1.569   7.063 -0.8867  0.2559  2.1402
 4715SOL    HW225779   3.101   1.655   6.986 -1.4385 -2.7184 -0.3907
 4716SOL     OW25780   0.459   1.724   3.647 -0.0397 -0.1553  0.3301
 4716SOL    HW125781   0.425   1.811   3.627  0.3228 -0.3598 -1.1559
 4716SOL    HW225782   0.396   1.697   3.714  1.9760 -1.1234  1.8272
 4717SOL     OW25783   3.042   1.487   2.634 -0.0415 -0.7269 -0.2259
 4717SOL    HW125784   2.952   1.469   2.664 -0.1422 -0.1192 -0.1590
 4717SOL    HW225785   3.028   1.577   2.604 -1.0974 -0.3942  1.2904
 4718SOL     OW25786   2.402   3.886  16.942  0.1684  0.1117 -0.3438
 4718SOL    HW125787   2.396   3.791  16.954  2.4801  0.3938  2.9338
 4718SOL    HW225788   2.420   3.900  16.849 -1.1886  1.5133 -0.3842
 4719SOL     OW25789   3.101   0.932   4.929 -0.3362 -0.0817  0.2526
 4719SOL    HW125790   3.035   0.874   4.892  1.8392 -1.8481 -0.9134
 4719SOL    HW225791   3.093   0.927   5.025 -2.4551 -1.9217 -0.0383
 4720SOL     OW25792   2.664   4.139   3.221 -0.0705 -0.0577  0.3321
 4720SOL    HW125793   2.721   4.099   3.155 -1.2150 -0.1806 -0.5795
 4720SOL    HW225794   2.581   4.126   3.176  0.6613  2.1059 -1.6300
 4721SOL     OW25795   3.049   0.642   1.656  0.2685  0.3362 -0.3011
 4721SOL    HW125796   3.027   0.630   1.748  0.9950  0.1932 -0.1441
 4721SOL    HW225797   2.962   0.633   1.616  0.6985 -2.4174 -0.6156
 4722SOL     OW25798   3.067   2.469   3.011  0.0445  0.4893 -0.8178
 4722SOL    HW125799   3.099   2.485   2.922 -1.5643  1.4734 -1.2254
 4722SOL    HW225800   2.982   2.428   2.996  1.0255 -1.2012 -1.7539
 4723SOL     OW25801   1.954   0.376   5.189  0.6249 -0.1551  0.4641
 4723SOL    HW125802   2.019   0.376   5.118  0.0233  2.5792 -0.0764
 4723SOL    HW225803   1.960   0.467   5.218 -1.1831  0.3951 -0.9016
 4724SOL     OW25804   3.249   1.498   7.216  0.1848  0.1796 -0.0647
 4724SOL    HW125805   3.185   1.452   7.270  0.5615  1.4363  1.4183
 4724SOL    HW225806   3.206   1.583   7.208 -1.8342 -0.9241 -0.9567
 4725SOL     OW25807   1.280   1.676   4.217  0.0559 -0.1730 -0.1201
 4725SOL    HW125808   1.233   1.758   4.197 -1.1829 -0.9052 -0.2110
 4725SOL    HW225809   1.255   1.619   4.145  0.3458 -0.1289 -0.2571
 4726SOL     OW25810   1.832   3.395  15.101 -0.0785  0.2623 -0.0083
 4726SOL    HW125811   1.868   3.367  15.017  1.3207 -1.6932  1.2508
 4726SOL    HW225812   1.739   3.378  15.085 -0.4914  1.8843  0.6866
 4727SOL     OW25813   1.299   1.670  17.016  0.3616  0.4454 -0.5619
 4727SOL    HW125814   1.253   1.691  16.935  1.7702 -0.3400 -1.5721
 4727SOL    HW225815   1.224   1.692  17.072  0.5152 -1.7852  0.4928
 4728SOL     OW25816   3.319   1.441   3.883 -0.4144  0.5985  0.3988
 4728SOL    HW125817   3.275   1.501   3.944 -1.1773 -0.0053  0.4458
 4728SOL    HW225818   3.382   1.501   3.843 -0.7205  0.3233 -0.4992
 4729SOL     OW25819   0.698   2.280   8.223 -0.0795  0.1448 -0.4399
 4729SOL    HW125820   0.665   2.321   8.303  0.7939 -0.3388  0.1687
 4729SOL    HW225821   0.642   2.323   8.159 -0.1800  0.6813  0.0085
 4730SOL     OW25822   3.657   2.983   0.470  0.3993 -0.1194  0.5300
 4730SOL    HW125823   3.734   2.996   0.525 -1.4515  1.5670  2.7533
 4730SOL    HW225824   3.606   2.916   0.516  1.8775 -0.1855  2.0529
 4731SOL     OW25825   4.695   0.962  14.352 -0.1908 -0.2628  0.6898
 4731SOL    HW125826   0.042   0.995  14.381  0.2038  0.3111 -1.1530
 4731SOL    HW225827   4.657   1.040  14.312 -2.0154 -0.9755  1.0158
 4732SOL     OW25828   1.112   0.929   1.920 -0.0460  0.2935  0.2050
 4732SOL    HW125829   1.120   0.834   1.905  1.7989  0.5164 -0.1830
 4732SOL    HW225830   1.134   0.939   2.012 -2.5406  2.5487  0.5401
 4733SOL     OW25831   1.708   0.221   5.235 -1.0780 -0.2714  0.1133
 4733SOL    HW125832   1.772   0.287   5.210 -2.6061  2.2724  2.9071
 4733SOL    HW225833   1.657   0.218   5.155 -0.9132 -0.8563  0.0312
 4734SOL     OW25834   1.815   3.430   2.878 -0.0240  0.4262 -0.1462
 4734SOL    HW125835   1.778   3.394   2.958 -0.8735  1.7170  0.0399
 4734SOL    HW225836   1.905   3.399   2.873  0.5768  1.9308  1.5052
 4735SOL     OW25837   0.329   1.252   5.230  0.7039  0.2796  0.7587
 4735SOL    HW125838   0.342   1.340   5.264 -0.8588  1.0190 -0.5601
 4735SOL    HW225839   0.237   1.234   5.250  0.2750  1.2058 -0.3867
 4736SOL     OW25840   0.233   2.492   9.064 -0.2232  0.3187 -0.1039
 4736SOL    HW125841   0.246   2.540   9.145  1.3535 -0.2690 -0.0112
 4736SOL    HW225842   0.177   2.425   9.103  1.4017  0.8036  3.1178
 4737SOL     OW25843   0.487   4.594   5.972 -0.3780  0.6125 -0.7833
 4737SOL    HW125844   0.579   4.576   5.952  0.2160  1.5649  1.1965
 4737SOL    HW225845   0.460   4.571   5.883  0.3931 -0.4755 -0.7456
 4738SOL     OW25846   3.957   1.464   7.637  0.0992 -0.3947 -0.0416
 4738SOL    HW125847   3.937   1.553   7.665 -0.3024  0.3098 -2.4975
 4738SOL    HW225848   4.008   1.477   7.556  1.9516  1.9926  1.5043
 4739SOL     OW25849   4.195   1.361   2.248  0.2761  0.3025 -0.4104
 4739SOL    HW125850   4.227   1.272   2.235  0.7810  0.7115 -1.9246
 4739SOL    HW225851   4.197   1.351   2.343 -0.2569  0.0801 -0.4269
 4740SOL     OW25852   1.859   2.255   6.295 -0.4408  0.2982 -0.1138
 4740SOL    HW125853   1.815   2.170   6.292 -1.3822  0.7857 -0.1932
 4740SOL    HW225854   1.929   2.238   6.232 -0.8391  0.8317 -0.7006
 4741SOL     OW25855   3.941   2.857  16.281  0.1517 -0.2552 -0.1969
 4741SOL    HW125856   3.860   2.854  16.333 -0.0520 -0.4155 -0.5177
 4741SOL    HW225857   3.938   2.945  16.244  0.0027  0.1285  0.7407
 4742SOL     OW25858   2.996   2.986  16.562 -0.5927  0.2627 -0.1225
 4742SOL    HW125859   2.976   2.912  16.504  2.8877 -0.7329 -0.0528
 4742SOL    HW225860   3.091   2.984  16.568 -0.7112  0.3012  1.7234
 4743SOL     OW25861   3.500   3.997   7.013 -0.8829 -0.0438  0.3974
 4743SOL    HW125862   3.472   4.033   7.098  0.6698  2.2834 -0.0677
 4743SOL    HW225863   3.419   3.959   6.979 -0.0492 -0.0936 -1.5233
 4744SOL     OW25864   3.929   3.262   7.492 -0.2433 -0.1657 -0.0292
 4744SOL    HW125865   3.953   3.175   7.457 -1.8267  0.5721 -2.9565
 4744SOL    HW225866   3.999   3.309   7.447  1.2992 -0.2276  2.3272
 4745SOL     OW25867   2.725   1.541  16.649 -0.2399 -0.2136  0.8479
 4745SOL    HW125868   2.646   1.511  16.603  0.3482 -0.4861  0.0353
 4745SOL    HW225869   2.695   1.633  16.647  1.5437  0.3170 -0.5688
 4746SOL     OW25870   0.785   2.905   5.699  0.0199 -0.8250 -0.1416
 4746SOL    HW125871   0.722   2.836   5.720 -2.3807  1.6019  0.4897
 4746SOL    HW225872   0.868   2.872   5.734  0.9284 -0.9678 -2.4295
 4747SOL     OW25873   1.774   3.907   9.875  0.1663 -0.7712  0.0343
 4747SOL    HW125874   1.817   3.831   9.914  0.0815 -0.5779  0.5118
 4747SOL    HW225875   1.850   3.934   9.824 -1.7181  3.8764 -0.3533
 4748SOL     OW25876   4.624   0.879   3.116  0.3117 -0.3386 -0.1962
 4748SOL    HW125877   4.644   0.972   3.103 -0.6546 -0.0707  0.2424
 4748SOL    HW225878   4.563   0.887   3.189  0.7101 -0.0284  0.1025
 4749SOL     OW25879   4.218   3.483   1.632  0.0594  0.3783 -0.1972
 4749SOL    HW125880   4.239   3.461   1.541  0.2781  0.0272 -0.0631
 4749SOL    HW225881   4.284   3.439   1.685 -0.2696  2.0124  1.5792
 4750SOL     OW25882   4.603   4.480   3.704 -0.1785  0.2343  0.6533
 4750SOL    HW125883   4.547   4.556   3.716  0.9681  1.3052 -0.7084
 4750SOL    HW225884   4.682   4.525   3.674  1.6361 -2.1246  1.8871
 4751SOL     OW25885   3.443   0.758   3.704 -0.7661 -0.2227 -0.1999
 4751SOL    HW125886   3.487   0.837   3.672 -2.3251  0.9054  0.4212
 4751SOL    HW225887   3.518   0.734   3.758 -1.3998 -0.1965  0.6828
 4752SOL     OW25888   4.119   2.212   1.728 -0.3176  0.5517  0.4056
 4752SOL    HW125889   4.072   2.265   1.792 -0.5223 -0.5155  1.1364
 4752SOL    HW225890   4.046   2.168   1.685  0.0275 -0.8921  1.3020
 4753SOL     OW25891   0.024   0.258   7.054 -0.3905 -0.3604  0.2657
 4753SOL    HW125892   0.035   0.183   6.996 -1.8819 -1.7247  1.7369
 4753SOL    HW225893   0.049   0.334   7.001 -0.7045 -0.2252  0.3128
 4754SOL     OW25894   1.473   0.597   0.484 -0.2322 -0.3176 -0.7289
 4754SOL    HW125895   1.443   0.673   0.433 -0.9245 -0.2699 -0.2433
 4754SOL    HW225896   1.490   0.531   0.416 -0.9665  0.7765 -1.9935
 4755SOL     OW25897   0.714   1.649  16.726 -0.1894 -0.1878 -0.0907
 4755SOL    HW125898   0.628   1.607  16.739  0.2478 -1.4635 -1.3029
 4755SOL    HW225899   0.776   1.579  16.742 -1.6458 -1.5545 -0.3581
 4756SOL     OW25900   2.599   4.483   3.411  0.3989 -0.1756 -0.3287
 4756SOL    HW125901   2.599   4.516   3.321  0.7100 -1.1488 -0.6814
 4756SOL    HW225902   2.579   4.567   3.454 -0.5710 -0.6685  0.1774
 4757SOL     OW25903   1.799   2.455  16.922 -0.0258  0.0803  0.5275
 4757SOL    HW125904   1.839   2.531  16.879  1.1395 -0.4356  0.7003
 4757SOL    HW225905   1.735   2.429  16.856  1.2914 -2.0929  0.0969
 4758SOL     OW25906   1.412   0.555   7.001 -0.3437 -0.3939 -0.2379
 4758SOL    HW125907   1.370   0.502   7.069  0.9206 -1.1576 -0.0333
 4758SOL    HW225908   1.396   0.487   6.935 -0.9698  0.4970 -0.9986
 4759SOL     OW25909   1.782   0.831   1.144  0.9151 -0.1865 -0.3447
 4759SOL    HW125910   1.838   0.903   1.116 -1.8338  2.2864  0.4272
 4759SOL    HW225911   1.779   0.833   1.240  3.3380  0.4852 -0.2948
 4760SOL     OW25912   3.027   2.701  17.466 -0.9418  0.3068 -0.9413
 4760SOL    HW125913   3.089   2.772  17.481 -1.7262  0.7740  0.0681
 4760SOL    HW225914   3.057   2.642  17.535  0.3602  2.2023  0.1134
 4761SOL     OW25915   3.276   0.161   6.808  0.2132  0.2504 -0.3302
 4761SOL    HW125916   3.320   0.093   6.858 -1.5542  1.0145  2.2448
 4761SOL    HW225917   3.256   0.116   6.725 -1.4329 -0.1171  0.2607
 4762SOL     OW25918   1.435   1.219   2.478  0.2022 -0.1125  0.0636
 4762SOL    HW125919   1.392   1.238   2.394  1.4001 -0.0235 -0.5313
 4762SOL    HW225920   1.412   1.294   2.531 -1.2816 -0.1901 -0.4747
 4763SOL     OW25921   2.952   3.701   4.086 -0.0073 -0.2690 -0.6653
 4763SOL    HW125922   3.010   3.727   4.014 -0.3975  0.9870 -0.5267
 4763SOL    HW225923   3.014   3.671   4.153  0.9409  0.4247 -1.2259
 4764SOL     OW25924   0.214   0.373   8.475  0.0213  0.1898 -0.0814
 4764SOL    HW125925   0.260   0.398   8.395 -0.3906  1.6193  0.1394
 4764SOL    HW225926   0.160   0.303   8.437  1.3002 -1.1276  0.5056
 4765SOL     OW25927   1.946   0.864  17.734 -0.2728  0.2418 -0.1985
 4765SOL    HW125928   1.963   0.950   0.024  0.9111  0.1885 -0.6139
 4765SOL    HW225929   1.922   0.885  17.643  0.0046  2.6997  0.2981
 4766SOL     OW25930   1.718   1.604   3.309 -0.1577  0.5016  0.3284
 4766SOL    HW125931   1.641   1.652   3.341 -0.0034  0.1678  1.2143
 4766SOL    HW225932   1.691   1.515   3.333  0.0467  0.2892 -0.2178
 4767SOL     OW25933   2.593   0.346   7.306 -0.2763 -0.0124 -0.5288
 4767SOL    HW125934   2.528   0.277   7.317 -2.9547  3.1209  3.3556
 4767SOL    HW225935   2.660   0.306   7.250 -0.5669  2.1006 -2.3868
 4768SOL     OW25936   1.309   3.303  17.052  0.1377 -0.5051  0.0389
 4768SOL    HW125937   1.297   3.387  17.096 -0.2848 -0.7508  0.4011
 4768SOL    HW225938   1.228   3.298  17.002  0.9085  2.1600 -1.4699
 4769SOL     OW25939   1.470   2.676   0.729  0.0525 -0.8058 -0.2726
 4769SOL    HW125940   1.432   2.643   0.647  0.6348  1.5768 -1.5001
 4769SOL    HW225941   1.560   2.701   0.708  0.2742  0.0533  1.6538
 4770SOL     OW25942   3.766   0.812  12.423 -0.1043 -0.0467 -0.2756
 4770SOL    HW125943   3.724   0.758  12.491 -1.0491  1.7338  0.5605
 4770SOL    HW225944   3.735   0.903  12.429  0.3068 -0.0215  1.4035
 4771SOL     OW25945   1.435   2.913   1.861 -0.9087 -0.1306  0.2842
 4771SOL    HW125946   1.374   2.927   1.788 -0.6587 -0.7131 -0.0386
 4771SOL    HW225947   1.486   2.994   1.867  0.0695 -0.8736  1.8240
 4772SOL     OW25948   3.558   2.428   9.598 -0.3209  0.0128  0.0224
 4772SOL    HW125949   3.633   2.487   9.590  1.2199 -2.1264 -1.0782
 4772SOL    HW225950   3.602   2.346   9.619 -1.7293 -0.9971 -1.0011
 4773SOL     OW25951   4.549   4.277  17.677 -0.2152 -0.5231 -0.0379
 4773SOL    HW125952   4.567   4.236   0.013  0.3934 -0.7851 -0.2892
 4773SOL    HW225953   4.581   4.206  17.621  0.8004 -0.0495 -0.0710
 4774SOL     OW25954   4.101   4.382   5.305  0.2471 -0.5357 -0.1695
 4774SOL    HW125955   4.156   4.335   5.367  0.3499 -1.0841 -0.6814
 4774SOL    HW225956   4.164   4.391   5.234 -0.2608  0.0271 -0.5507
 4775SOL     OW25957   2.111   2.060  13.502 -0.3675  0.2241  0.1327
 4775SOL    HW125958   2.153   2.061  13.588 -0.9203  2.0295  0.3851
 4775SOL    HW225959   2.155   2.131  13.454 -2.3194  0.5488 -1.1675
 4776SOL     OW25960   0.282   2.066   9.500 -0.2027  0.1700 -0.5144
 4776SOL    HW125961   0.367   2.053   9.542 -0.9761 -0.1698  0.9445
 4776SOL    HW225962   0.262   1.982   9.460  1.6812 -0.2065 -0.6708
 4777SOL     OW25963   4.136   4.131   7.835  0.1296 -0.1476 -0.6958
 4777SOL    HW125964   4.127   4.116   7.740 -1.4681 -0.8614 -0.4318
 4777SOL    HW225965   4.059   4.179   7.865  2.1490  1.1762  2.3199
 4778SOL     OW25966   3.163   3.963  16.181 -0.0350 -0.1736 -0.5358
 4778SOL    HW125967   3.095   3.928  16.240  0.9090 -0.3260  0.4611
 4778SOL    HW225968   3.151   3.916  16.098 -0.8536  0.0367 -0.5419
 4779SOL     OW25969   0.542   0.369   8.369  0.2544  0.5589  0.1547
 4779SOL    HW125970   0.636   0.372   8.350  0.2591 -0.4111  0.0250
 4779SOL    HW225971   0.511   0.451   8.330 -2.4250 -0.6212 -0.1814
 4780SOL     OW25972   4.303   2.892  10.359 -0.0222 -0.1001 -0.4575
 4780SOL    HW125973   4.391   2.861  10.380 -0.3456 -0.7853 -0.1082
 4780SOL    HW225974   4.250   2.812  10.355  0.1402 -0.2479  0.5144
 4781SOL     OW25975   2.661   4.066   8.634  0.5249 -0.4749 -0.9756
 4781SOL    HW125976   2.735   4.070   8.572  1.1363  1.9388 -0.0942
 4781SOL    HW225977   2.649   3.971   8.634  0.0782 -0.4140 -0.4102
 4782SOL     OW25978   2.326   3.462   2.994 -0.0281 -0.4441 -0.0861
 4782SOL    HW125979   2.381   3.516   3.051 -1.3169  0.8492 -0.0423
 4782SOL    HW225980   2.241   3.498   3.022 -0.4729  0.0453 -2.0885
 4783SOL     OW25981   0.961   2.954   8.760  0.1161 -0.4320  0.5218
 4783SOL    HW125982   1.051   2.985   8.748  0.5937 -2.1086 -0.1174
 4783SOL    HW225983   0.940   3.012   8.834 -0.4008  0.9495 -0.7049
 4784SOL     OW25984   2.893   2.287  17.413  0.1347  0.5236 -0.0134
 4784SOL    HW125985   2.818   2.344  17.431  1.7860  2.4342  0.6754
 4784SOL    HW225986   2.940   2.295  17.495  1.8981  0.1571 -0.9843
 4785SOL     OW25987   2.846   3.503  13.191 -0.2848  0.4889 -0.1690
 4785SOL    HW125988   2.920   3.550  13.229  0.3005 -1.1072  0.6880
 4785SOL    HW225989   2.779   3.500  13.260  1.1238  0.5100  1.1818
 4786SOL     OW25990   1.899   3.855  11.913  0.3102 -0.4681  0.9039
 4786SOL    HW125991   1.982   3.808  11.923  0.5878 -0.3913 -1.0407
 4786SOL    HW225992   1.840   3.781  11.899  1.5058 -1.0841 -0.7574
 4787SOL     OW25993   3.953   1.821   2.644 -0.3384 -0.3234  0.0517
 4787SOL    HW125994   3.905   1.870   2.577 -0.6064 -0.2427  0.3001
 4787SOL    HW225995   4.004   1.899   2.666 -0.8788 -0.2553  1.0921
 4788SOL     OW25996   1.523   1.200   4.635 -0.4454  0.4091 -0.1529
 4788SOL    HW125997   1.556   1.226   4.549  0.9853 -0.3408  0.1564
 4788SOL    HW225998   1.599   1.217   4.691 -0.5141 -1.0750  0.4074
 4789SOL     OW25999   3.685   4.179   9.301  0.2890 -0.8243 -0.1142
 4789SOL    HW126000   3.703   4.248   9.237 -0.8752 -2.0690 -1.7684
 4789SOL    HW226001   3.682   4.214   9.390  0.8716  0.7462 -0.7052
 4790SOL     OW26002   4.521   4.448   6.620  0.1452 -0.0833  0.0566
 4790SOL    HW126003   4.471   4.424   6.542  0.2507 -0.7067  0.1741
 4790SOL    HW226004   4.612   4.431   6.596  0.3564  1.8221 -0.4868
 4791SOL     OW26005   2.165   1.523   6.142  0.1608  0.4687 -0.1545
 4791SOL    HW126006   2.147   1.589   6.209 -0.6272  0.6710 -0.5546
 4791SOL    HW226007   2.083   1.537   6.094  0.3606  2.6022  0.1213
 4792SOL     OW26008   2.114   2.331  16.786  0.1332 -0.3083 -0.0078
 4792SOL    HW126009   2.040   2.327  16.725  0.7098 -1.3638 -0.6345
 4792SOL    HW226010   2.149   2.414  16.754 -0.7421  0.4476  0.9914
 4793SOL     OW26011   1.349   4.269   3.095  0.5565  0.3928  0.2129
 4793SOL    HW126012   1.431   4.268   3.146  0.2658  1.1864  0.6847
 4793SOL    HW226013   1.308   4.350   3.123  1.8119  0.6773  1.2226
 4794SOL     OW26014   0.599   3.474   3.194  0.2596  0.1728  0.8931
 4794SOL    HW126015   0.549   3.393   3.183  0.3668  0.0764  1.1139
 4794SOL    HW226016   0.530   3.524   3.236 -0.2528 -0.4746  0.8211
 4795SOL     OW26017   4.092   3.225   9.565  0.1878  0.3397 -0.2459
 4795SOL    HW126018   4.138   3.147   9.534  1.8841  0.1268  2.7364
 4795SOL    HW226019   4.170   3.279   9.560 -0.0028  0.7310  0.9574
 4796SOL     OW26020   1.372   3.782   6.708 -0.0634 -0.6937 -0.1569
 4796SOL    HW126021   1.447   3.766   6.764 -0.2008 -0.8371 -0.0113
 4796SOL    HW226022   1.421   3.776   6.626  0.3730 -0.6038  0.0990
 4797SOL     OW26023   4.686   2.329  11.121 -0.3934 -0.6255  0.0992
 4797SOL    HW126024   4.675   2.291  11.034 -2.6556 -1.1049  0.6005
 4797SOL    HW226025   4.705   2.249  11.171 -2.5198 -0.4497  1.1716
 4798SOL     OW26026   2.171   3.604   7.513 -0.5255  0.1972 -0.6766
 4798SOL    HW126027   2.248   3.551   7.494 -1.8073 -2.2772  1.0191
 4798SOL    HW226028   2.098   3.548   7.486  0.5586 -0.3713 -2.4502
 4799SOL     OW26029   2.259   0.539   2.591  0.0059  1.0787  0.0795
 4799SOL    HW126030   2.247   0.502   2.504  0.8156  0.3517  0.2803
 4799SOL    HW226031   2.324   0.481   2.629  0.5596  1.5642 -0.1231
 4800SOL     OW26032   3.014   1.566   4.752  0.1706 -0.1672  0.0791
 4800SOL    HW126033   2.923   1.535   4.752  0.5625 -1.3192 -1.1187
 4800SOL    HW226034   3.023   1.594   4.843  1.0107 -0.0701 -0.0376
 4801SOL     OW26035   0.067   3.963   9.230  0.1618  0.3148  0.0525
 4801SOL    HW126036   0.083   3.900   9.300 -1.5794  0.5174  0.6549
 4801SOL    HW226037   0.048   3.907   9.155  2.1731  0.7731 -0.8041
 4802SOL     OW26038   1.539   1.270   0.053 -0.1463  0.4007 -0.5034
 4802SOL    HW126039   1.475   1.231  17.740 -0.6676  0.5306 -0.0447
 4802SOL    HW226040   1.610   1.206   0.047  0.0595  0.5973 -0.1160
 4803SOL     OW26041   3.625   0.767   6.009 -0.2278 -0.6225  0.0187
 4803SOL    HW126042   3.601   0.674   6.008 -2.0842 -0.1010 -2.7078
 4803SOL    HW226043   3.714   0.760   6.045 -0.6575 -0.1275  1.1574
 4804SOL     OW26044   1.418   2.008   4.269  0.0908 -0.3502  0.1952
 4804SOL    HW126045   1.363   2.083   4.249  0.0301 -0.6689 -0.8543
 4804SOL    HW226046   1.469   1.998   4.188 -0.5923 -1.0000 -0.1521
 4805SOL     OW26047   3.519   0.436   6.485  0.2699  0.0602  0.6201
 4805SOL    HW126048   3.461   0.468   6.416 -1.3679 -1.7971  1.1184
 4805SOL    HW226049   3.604   0.478   6.472  0.0404  0.2854 -0.1644
 4806SOL     OW26050   1.013   3.858   6.317 -0.7783 -0.1590 -0.1160
 4806SOL    HW126051   1.076   3.921   6.352 -1.0094 -0.4493  0.8369
 4806SOL    HW226052   1.055   3.773   6.326 -0.0681  0.1366 -0.6593
 4807SOL     OW26053   2.042   0.689   3.644  0.1812  0.4165  0.0421
 4807SOL    HW126054   2.033   0.785   3.644 -0.1467  0.3882  0.7880
 4807SOL    HW226055   2.033   0.653   3.732 -0.3712 -0.4469 -0.3737
 4808SOL     OW26056   3.310   3.482   6.615  0.4603 -0.1573  0.1677
 4808SOL    HW126057   3.322   3.414   6.683 -0.4639  2.1292  2.6112
 4808SOL    HW226058   3.389   3.533   6.634  1.4868 -1.3857 -0.7345
 4809SOL     OW26059   2.472   2.022  17.009  0.0158  0.4020 -0.0817
 4809SOL    HW126060   2.509   2.103  17.045  0.2252  1.2200 -2.1677
 4809SOL    HW226061   2.554   1.978  16.985  0.2586  1.2852 -0.8559
 4810SOL     OW26062   0.740   2.929  12.704 -0.1982  0.3735  0.2806
 4810SOL    HW126063   0.699   3.015  12.691 -1.5588 -0.3585 -0.2117
 4810SOL    HW226064   0.754   2.922  12.799 -0.1614  1.6823  0.3817
 4811SOL     OW26065   4.353   4.609   2.658  0.0871  0.3515 -0.1315
 4811SOL    HW126066   4.278   4.617   2.599  0.3113 -1.1441 -0.6319
 4811SOL    HW226067   4.425   4.576   2.604  0.8200 -1.3575  1.9061
 4812SOL     OW26068   1.193   3.923   5.862 -1.3531 -0.0734  0.0297
 4812SOL    HW126069   1.133   3.908   5.935 -1.7434  0.2647 -0.2222
 4812SOL    HW226070   1.195   3.838   5.820 -3.0606 -0.1372  0.0863
 4813SOL     OW26071   0.370   2.231   3.359  0.1042  0.3272  0.0427
 4813SOL    HW126072   0.319   2.194   3.432  2.6133  0.3556  1.8301
 4813SOL    HW226073   0.437   2.164   3.353 -1.8803 -1.6266 -0.3163
 4814SOL     OW26074   4.506   0.963   6.577 -0.7868 -0.5820 -0.1173
 4814SOL    HW126075   4.509   1.042   6.522  0.6142 -0.7722 -0.3228
 4814SOL    HW226076   4.540   1.012   6.652 -0.5111  1.6286 -1.6594
 4815SOL     OW26077   3.013   0.810   8.143 -0.5023  0.4097 -0.6919
 4815SOL    HW126078   3.049   0.898   8.155  0.8045 -0.5965  2.7811
 4815SOL    HW226079   3.091   0.758   8.127 -0.4378 -0.0965  1.2506
 4816SOL     OW26080   2.972   1.121   6.141  0.1136  0.4971 -0.4104
 4816SOL    HW126081   2.935   1.086   6.060 -0.0248  1.8750 -0.9458
 4816SOL    HW226082   3.028   1.187   6.101  0.2884  0.7045  0.1941
 4817SOL     OW26083   2.498   0.120   9.626  0.3409  0.1566 -0.1383
 4817SOL    HW126084   2.557   0.185   9.663  0.6030 -0.9144  1.2962
 4817SOL    HW226085   2.572   0.062   9.608  1.1076  1.0060  0.2865
 4818SOL     OW26086   4.698   2.851  12.713 -0.3017 -0.3087 -0.2112
 4818SOL    HW126087   0.014   2.829  12.637  1.9817 -0.1701  1.3407
 4818SOL    HW226088   4.729   2.788  12.779 -2.0988 -1.7014 -0.7129
 4819SOL     OW26089   0.197   3.362   9.538  0.1765  0.1061 -0.5354
 4819SOL    HW126090   0.250   3.425   9.587  0.5335 -1.2203  0.8218
 4819SOL    HW226091   0.254   3.296   9.499 -0.4378 -1.4219  1.1378
 4820SOL     OW26092   0.079   2.314   7.897 -0.2389 -0.4073  0.0552
 4820SOL    HW126093   4.737   2.300   7.950 -0.6061  3.3361  0.4798
 4820SOL    HW226094   0.139   2.278   7.963  0.3272  3.0698  1.3954
 4821SOL     OW26095   1.231   1.075   4.339  0.4986  0.4720 -0.1642
 4821SOL    HW126096   1.190   1.104   4.421 -0.1075 -0.9928  0.0502
 4821SOL    HW226097   1.305   1.025   4.372  0.8895  1.6833  0.8265
 4822SOL     OW26098   3.048   0.654   5.425 -0.1002  0.1463 -0.4896
 4822SOL    HW126099   3.015   0.724   5.369 -1.0270  0.7549  0.8086
 4822SOL    HW226100   2.975   0.637   5.484 -0.3989  2.1864 -0.2816
 4823SOL     OW26101   0.495   4.054   2.173 -0.0705  0.4745  0.1231
 4823SOL    HW126102   0.424   3.990   2.171 -1.9117  2.5311 -0.1783
 4823SOL    HW226103   0.473   4.088   2.259 -0.6257 -0.1054  0.2049
 4824SOL     OW26104   4.442   3.753   9.239 -0.3792  0.2236 -0.3177
 4824SOL    HW126105   4.422   3.826   9.179 -1.4283  0.0348 -0.1802
 4824SOL    HW226106   4.376   3.759   9.307 -1.0479 -0.7362 -0.8933
 4825SOL     OW26107   4.214   3.556   2.671 -0.0948  0.0221 -0.3621
 4825SOL    HW126108   4.200   3.589   2.760 -0.0863 -1.6025  0.2598
 4825SOL    HW226109   4.303   3.521   2.679 -0.1560 -0.2763 -0.9814
 4826SOL     OW26110   3.337   4.046   8.525 -0.0178  0.5360 -0.1881
 4826SOL    HW126111   3.302   4.132   8.547  0.0788  0.6766 -0.5756
 4826SOL    HW226112   3.279   4.006   8.461  0.6569  0.1454 -0.5658
 4827SOL     OW26113   3.648   1.601  13.536 -0.1234 -0.3463  0.1278
 4827SOL    HW126114   3.570   1.573  13.489  0.8574 -1.6218 -0.7321
 4827SOL    HW226115   3.612   1.616  13.623 -1.5743  1.1593 -0.7314
 4828SOL     OW26116   2.984   0.901   4.045  0.2828 -0.0257  0.4999
 4828SOL    HW126117   2.970   0.829   3.983  0.5480  0.7893 -0.5083
 4828SOL    HW226118   2.898   0.942   4.054 -0.4843 -1.8403  1.3790
 4829SOL     OW26119   3.199   0.959   2.418 -0.3918 -0.1061 -0.2014
 4829SOL    HW126120   3.284   0.916   2.431 -0.4601 -0.5167 -1.1710
 4829SOL    HW226121   3.211   1.044   2.461  0.3679  0.0640 -0.7422
 4830SOL     OW26122   0.245   2.020   8.035  0.6213  0.5870 -0.5469
 4830SOL    HW126123   0.323   2.057   7.995 -0.3322  3.4883  0.2441
 4830SOL    HW226124   0.198   1.972   7.967  0.8375  1.3890 -1.2539
 4831SOL     OW26125   1.386   4.462   4.016  0.0372 -0.3355  0.6827
 4831SOL    HW126126   1.394   4.367   4.023 -1.6791 -0.6472 -1.3379
 4831SOL    HW226127   1.380   4.485   4.108  1.0182 -0.1595  0.6925
 4832SOL     OW26128   3.194   1.776   7.246 -0.6027 -0.0494  0.3286
 4832SOL    HW126129   3.114   1.767   7.195  0.2281  1.0580 -1.1854
 4832SOL    HW226130   3.226   1.855   7.202 -1.2315 -0.6727 -1.2521
 4833SOL     OW26131   2.845   1.809  16.759  0.1033  0.4800  0.3919
 4833SOL    HW126132   2.865   1.901  16.742  1.0921  0.1394 -0.2710
 4833SOL    HW226133   2.773   1.806  16.697 -0.8343 -0.4029  1.5208
 4834SOL     OW26134   1.401   2.521   8.892 -0.5898  0.3361  0.0003
 4834SOL    HW126135   1.348   2.544   8.816 -2.3692  0.5484  1.3067
 4834SOL    HW226136   1.478   2.486   8.846  1.0616  2.0499  1.4339
 4835SOL     OW26137   4.065   2.967  13.290  0.3465  0.3447 -0.6191
 4835SOL    HW126138   4.008   2.921  13.229  0.4851 -1.3102  0.4940
 4835SOL    HW226139   4.071   2.900  13.358  1.8349  0.8161 -0.2921
 4836SOL     OW26140   0.250   3.453   3.534 -0.1698  0.1872  0.1762
 4836SOL    HW126141   0.223   3.502   3.612 -0.9902 -0.7402  0.4603
 4836SOL    HW226142   0.176   3.396   3.514  0.8060 -0.9724 -0.1202
 4837SOL     OW26143   1.796   4.233   1.610  0.8476 -0.4720 -0.3408
 4837SOL    HW126144   1.786   4.238   1.515  0.9949  0.6706 -0.3006
 4837SOL    HW226145   1.840   4.318   1.618 -0.6333  0.2826 -0.0626
 4838SOL     OW26146   4.404   3.265  10.120  0.3237 -0.4846 -0.3233
 4838SOL    HW126147   4.380   3.337  10.062 -0.7417 -0.6919 -0.1433
 4838SOL    HW226148   4.416   3.198  10.052  0.5941 -1.9992  1.2126
 4839SOL     OW26149   4.588   0.215   5.017  0.4970 -0.0010  0.3090
 4839SOL    HW126150   4.542   0.294   4.988  1.5234  1.0229  1.4727
 4839SOL    HW226151   4.599   0.228   5.111 -0.1247 -0.2118  0.4088
 4840SOL     OW26152   1.391   1.597  13.992  0.3088  0.7060 -0.2336
 4840SOL    HW126153   1.405   1.669  13.931 -0.1459 -0.4789 -1.7395
 4840SOL    HW226154   1.375   1.639  14.076  1.2173  2.1200 -0.7661
 4841SOL     OW26155   0.977   1.113   5.046 -0.0345  0.0860  0.5697
 4841SOL    HW126156   0.904   1.088   4.989  0.6719  1.8469 -1.1002
 4841SOL    HW226157   0.930   1.087   5.125  1.8099 -1.2855  1.2279
 4842SOL     OW26158   0.490   0.912   4.053 -0.3743 -0.4449  0.4864
 4842SOL    HW126159   0.404   0.870   4.055 -1.2254  1.2716  0.0358
 4842SOL    HW226160   0.500   0.920   3.958 -0.0907 -0.5583  0.5076
 4843SOL     OW26161   1.455   0.732  15.394  0.8912 -0.4328 -0.7140
 4843SOL    HW126162   1.534   0.717  15.446  0.7309 -1.1388 -0.6759
 4843SOL    HW226163   1.500   0.741  15.309  0.2694 -0.6407 -1.0607
 4844SOL     OW26164   0.930   2.319   8.100 -0.0027  0.4616  0.0291
 4844SOL    HW126165   0.849   2.287   8.140  1.0412 -0.5423  1.3322
 4844SOL    HW226166   0.956   2.229   8.084  0.1588  0.6717 -0.9147
 4845SOL     OW26167   0.099   4.452   6.502  0.5133  0.0385 -0.2657
 4845SOL    HW126168   0.080   4.420   6.414  1.0822  1.6859 -1.0010
 4845SOL    HW226169   0.139   4.537   6.483 -0.5077  0.4058 -0.7728
 4846SOL     OW26170   1.177   3.021   7.266 -0.1578 -0.6410 -0.6134
 4846SOL    HW126171   1.264   3.009   7.305  0.3395 -2.6285 -2.3665
 4846SOL    HW226172   1.123   3.031   7.345  2.7083 -1.4171  1.4481
 4847SOL     OW26173   3.952   3.859   5.972  0.3246  0.3480 -0.0860
 4847SOL    HW126174   3.977   3.782   5.922 -1.0462  1.7364 -2.9650
 4847SOL    HW226175   3.909   3.813   6.045 -1.6799 -2.1454 -2.8369
 4848SOL     OW26176   0.236   2.737   4.918 -0.2831  0.0785  0.9277
 4848SOL    HW126177   0.170   2.782   4.972 -2.6886 -1.2742 -0.8937
 4848SOL    HW226178   0.245   2.800   4.847 -0.2022  0.5124  1.3193
 4849SOL     OW26179   0.235   1.755  16.531  0.0270  0.2580 -0.5365
 4849SOL    HW126180   0.141   1.737  16.527 -0.0406 -0.1939  2.5006
 4849SOL    HW226181   0.235   1.843  16.567  0.7231  0.6723 -1.5554
 4850SOL     OW26182   4.449   0.715   2.762 -0.4435 -0.3517 -0.0298
 4850SOL    HW126183   4.363   0.752   2.780  0.0741  0.5977  0.4955
 4850SOL    HW226184   4.480   0.690   2.849  1.7025  1.0909 -0.3858
 4851SOL     OW26185   1.933   4.309   6.667 -0.0422 -0.0635  0.4851
 4851SOL    HW126186   1.849   4.348   6.644  0.9711  3.1690  2.1885
 4851SOL    HW226187   1.956   4.364   6.742  2.3811 -0.3863 -0.0281
 4852SOL     OW26188   1.904   2.651  16.739  0.5785  0.0254 -0.3023
 4852SOL    HW126189   1.915   2.580  16.676 -0.0674  0.3874 -0.8281
 4852SOL    HW226190   1.988   2.695  16.736  0.2469  0.6260 -0.6847
 4853SOL     OW26191   4.441   2.594   4.794 -0.4745  0.1080 -0.0909
 4853SOL    HW126192   4.526   2.610   4.836 -1.1373 -0.8649  1.6183
 4853SOL    HW226193   4.408   2.525   4.852 -2.1179  0.5561 -0.5001
 4854SOL     OW26194   0.303   1.451   0.210 -0.2772 -0.1023 -0.4152
 4854SOL    HW126195   0.364   1.383   0.237  0.9180  1.6818  1.3824
 4854SOL    HW226196   0.369   1.510   0.175 -0.5011  0.0357 -0.6050
 4855SOL     OW26197   0.783   2.737   6.126  0.0697 -0.0436 -0.3636
 4855SOL    HW126198   0.833   2.816   6.147 -0.7414  0.5871 -0.8113
 4855SOL    HW226199   0.827   2.664   6.169  0.0420 -0.1157 -0.4581
 4856SOL     OW26200   1.808   0.584   1.930 -0.1937  0.1991 -0.1590
 4856SOL    HW126201   1.870   0.526   1.973 -0.4585  0.9660  1.2677
 4856SOL    HW226202   1.857   0.666   1.939 -1.7605  0.9241  1.7531
 4857SOL     OW26203   4.663   4.272   6.071  0.6534  0.1746 -0.2504
 4857SOL    HW126204   4.718   4.325   6.129 -0.7845  0.8467  0.4883
 4857SOL    HW226205   4.719   4.242   5.999  1.0321  0.6627 -0.1637
 4858SOL     OW26206   0.744   4.438  14.726  0.7474 -0.6452 -0.6372
 4858SOL    HW126207   0.823   4.468  14.679 -1.3930  2.7686 -2.0189
 4858SOL    HW226208   0.777   4.428  14.815 -1.4088  0.4679  0.2833
 4859SOL     OW26209   0.727   0.132  12.212 -0.0830  0.0722 -0.0802
 4859SOL    HW126210   0.749   0.039  12.212  2.8619  0.7565  1.5029
 4859SOL    HW226211   0.814   0.164  12.235 -1.6851  2.5661  2.5011
 4860SOL     OW26212   2.501   3.980   4.605  0.8682  0.3081 -0.4896
 4860SOL    HW126213   2.586   4.022   4.595  0.9513 -0.2719 -2.3930
 4860SOL    HW226214   2.502   3.908   4.542  2.1172  0.2915 -0.4436
 4861SOL     OW26215   0.587   3.336   5.491  0.8517 -0.0159 -0.4429
 4861SOL    HW126216   0.565   3.354   5.582 -0.0222 -2.5040 -0.1478
 4861SOL    HW226217   0.586   3.240   5.487  0.5036  0.0894 -2.8284
 4862SOL     OW26218   1.178   1.882   1.338 -0.1272 -0.2172 -0.0646
 4862SOL    HW126219   1.269   1.885   1.308  0.3321  0.5281  1.4072
 4862SOL    HW226220   1.168   1.788   1.350  0.9877 -0.5426 -1.6504
 4863SOL     OW26221   1.242   4.612  11.347 -0.2415 -0.2529  0.2177
 4863SOL    HW126222   1.167   4.653  11.390  1.3968  1.7225  1.2358
 4863SOL    HW226223   1.236   4.660  11.264 -0.9596 -1.0462 -0.1810
 4864SOL     OW26224   2.570   0.191   7.735  0.3000 -0.5206 -0.4653
 4864SOL    HW126225   2.478   0.212   7.723  0.1974 -0.9645 -0.4475
 4864SOL    HW226226   2.616   0.256   7.681 -0.9367  0.1375 -0.7254
 4865SOL     OW26227   4.367   3.294   4.113  0.1158  0.2919  0.3159
 4865SOL    HW126228   4.448   3.337   4.140  0.4148 -0.9784  1.4385
 4865SOL    HW226229   4.376   3.311   4.019  0.7833 -1.0033  0.1489
 4866SOL     OW26230   4.597   1.388  14.087  0.4568 -0.3759 -0.4262
 4866SOL    HW126231   4.555   1.380  14.001  1.6411  0.1821 -1.0570
 4866SOL    HW226232   4.530   1.436  14.136  2.0626  0.4770  0.9129
 4867SOL     OW26233   4.600   0.304  14.161 -0.7067 -0.3790  0.6225
 4867SOL    HW126234   4.588   0.391  14.122  1.2021 -1.0508 -1.4246
 4867SOL    HW226235   4.520   0.261  14.129 -0.5277 -0.5918  0.4593
 4868SOL     OW26236   3.950   0.874   4.460  0.2195 -0.1572  0.3537
 4868SOL    HW126237   3.979   0.832   4.380  0.4733  1.5873 -0.4594
 4868SOL    HW226238   3.904   0.807   4.511  2.3427 -1.9732 -0.1699
 4869SOL     OW26239   1.283   4.289   8.112  0.0980  0.0933 -1.0032
 4869SOL    HW126240   1.377   4.272   8.112 -0.0649 -0.8491 -1.1442
 4869SOL    HW226241   1.250   4.223   8.173 -2.0826  0.9634 -1.2284
 4870SOL     OW26242   4.733   2.588  17.164 -0.5051 -0.0750 -0.0091
 4870SOL    HW126243   4.678   2.629  17.231  0.7050  1.4034  0.0822
 4870SOL    HW226244   0.048   2.537  17.226  0.7008  0.5694 -0.4951
 4871SOL     OW26245   0.101   1.334   4.425 -0.1572  0.5687 -0.2567
 4871SOL    HW126246   0.087   1.337   4.330  1.8506  0.0373 -0.5761
 4871SOL    HW226247   0.098   1.428   4.444  2.8860  0.8383 -1.1780
 4872SOL     OW26248   4.537   1.765   9.186  0.2752  0.3210  0.5233
 4872SOL    HW126249   4.484   1.693   9.220  0.8667  0.2522  1.3000
 4872SOL    HW226250   4.615   1.717   9.156  0.6042  2.3082 -1.7969
 4873SOL     OW26251   0.482   1.974   3.936  0.2671  0.1227  0.1072
 4873SOL    HW126252   0.488   2.052   3.992 -1.1899  0.0212  0.4108
 4873SOL    HW226253   0.554   1.929   3.981 -0.0882  0.9189  1.4935
 4874SOL     OW26254   2.198   1.709  15.839 -0.3452 -0.4193 -0.1655
 4874SOL    HW126255   2.243   1.763  15.774  0.7980 -1.4191 -0.1870
 4874SOL    HW226256   2.194   1.778  15.905  0.6494 -1.6372  1.1451
 4875SOL     OW26257   3.884   0.826  13.434 -0.4998  0.3533  0.2042
 4875SOL    HW126258   3.892   0.833  13.339  0.0864 -0.4550  0.1975
 4875SOL    HW226259   3.974   0.810  13.465 -0.2609  1.0466 -0.1182
 4876SOL     OW26260   1.173   3.419   3.019 -0.3869 -0.5504  0.3924
 4876SOL    HW126261   1.196   3.454   2.933 -3.2336  1.0665  0.2829
 4876SOL    HW226262   1.219   3.479   3.078  0.5050 -0.4104 -0.4502
 4877SOL     OW26263   4.301   2.409   4.534 -0.7880 -0.1997  0.2767
 4877SOL    HW126264   4.327   2.325   4.496  0.7798  0.4762 -0.1570
 4877SOL    HW226265   4.225   2.428   4.479  2.3148  3.9431 -2.5385
 4878SOL     OW26266   4.032   2.138  17.562 -0.0534 -0.1103 -0.0952
 4878SOL    HW126267   4.011   2.232  17.558 -1.4943 -0.5206 -2.3214
 4878SOL    HW226268   4.090   2.140  17.638 -0.3179  2.4201  0.0495
 4879SOL     OW26269   4.209   1.728  16.780 -0.4629 -0.1196  0.4333
 4879SOL    HW126270   4.230   1.818  16.754 -1.0789 -0.3925 -1.0541
 4879SOL    HW226271   4.120   1.719  16.746 -0.3807 -0.2142  0.2432
 4880SOL     OW26272   3.153   1.942  17.363 -0.0938 -0.3501 -0.5229
 4880SOL    HW126273   3.229   1.998  17.348  0.8913 -1.1115  1.5912
 4880SOL    HW226274   3.082   1.992  17.323  0.5792  1.3614  0.4530
 4881SOL     OW26275   0.849   1.707   2.499 -0.1815 -0.4420 -0.2532
 4881SOL    HW126276   0.892   1.758   2.430  0.3364 -0.4153  0.0906
 4881SOL    HW226277   0.916   1.699   2.566  0.1123  2.6739 -0.1968
 4882SOL     OW26278   3.768   1.160   6.540 -0.0659 -0.2607 -0.5834
 4882SOL    HW126279   3.856   1.123   6.550  0.9969  2.9263  1.8081
 4882SOL    HW226280   3.718   1.098   6.486  0.9419 -0.0829 -1.6873
 4883SOL     OW26281   1.941   1.505   5.957 -0.5040  0.0357 -0.6646
 4883SOL    HW126282   1.894   1.559   5.894 -2.3448 -0.2828  0.4657
 4883SOL    HW226283   1.884   1.428   5.959 -1.8593  1.0590 -0.5665
 4884SOL     OW26284   3.977   2.721   0.718  0.2591 -0.2809  0.1736
 4884SOL    HW126285   4.019   2.802   0.690  0.8882 -0.6730  0.0010
 4884SOL    HW226286   4.049   2.663   0.698 -0.1881 -0.4515 -0.9409
 4885SOL     OW26287   0.695   0.338   1.042 -0.4784  0.6565  0.0579
 4885SOL    HW126288   0.715   0.251   1.077 -2.2418  0.5291  0.7609
 4885SOL    HW226289   0.619   0.364   1.094  0.0612 -1.0387  1.7083
 4886SOL     OW26290   2.692   1.829   4.606  0.2495  0.1269  0.1417
 4886SOL    HW126291   2.602   1.844   4.578  0.0980  0.6586  0.8955
 4886SOL    HW226292   2.721   1.918   4.628 -2.3388  0.7554  1.0337
 4887SOL     OW26293   1.312   2.209   8.335 -0.4221  0.5052  0.2449
 4887SOL    HW126294   1.338   2.194   8.426  0.6193 -1.7760 -0.4269
 4887SOL    HW226295   1.347   2.298   8.336  0.8922 -0.0297  0.8647
 4888SOL     OW26296   4.281   2.302  12.637  0.2705  0.7505  0.4131
 4888SOL    HW126297   4.207   2.356  12.607  1.5335  2.3838  0.2237
 4888SOL    HW226298   4.350   2.368  12.638  0.7051  0.2965  0.2149
 4889SOL     OW26299   3.057   0.515   4.696  0.2136  0.2435 -0.2318
 4889SOL    HW126300   3.029   0.487   4.783 -0.0498  0.7411 -0.1546
 4889SOL    HW226301   2.977   0.506   4.644  0.5407  0.9109 -0.8547
 4890SOL     OW26302   0.365   2.774   7.670  0.1961 -0.4670 -0.0996
 4890SOL    HW126303   0.349   2.753   7.762 -0.7859  2.8404  0.4719
 4890SOL    HW226304   0.293   2.721   7.635 -0.8462 -0.0928  1.5074
 4891SOL     OW26305   1.744   4.456   7.063  0.2473  0.4384  0.1300
 4891SOL    HW126306   1.775   4.534   7.017  1.7285  0.3923  1.0321
 4891SOL    HW226307   1.757   4.466   7.158 -1.9640  0.0468  0.4789
 4892SOL     OW26308   4.231   4.138   3.393  0.4724 -0.0636  0.3376
 4892SOL    HW126309   4.315   4.164   3.429 -0.6830  3.6750  0.3685
 4892SOL    HW226310   4.236   4.163   3.300 -0.3760 -0.4151  0.1921
 4893SOL     OW26311   0.624   0.349   9.404 -0.0250 -0.3542 -0.0223
 4893SOL    HW126312   0.627   0.265   9.357 -3.9004  0.1256 -1.1170
 4893SOL    HW226313   0.568   0.398   9.344  0.1173 -1.8222 -1.3641
 4894SOL     OW26314   3.410   2.516  14.902  0.1421 -0.9640  0.3008
 4894SOL    HW126315   3.371   2.601  14.879  0.3814 -1.3036 -1.3409
 4894SOL    HW226316   3.334   2.459  14.890 -1.8175  1.8097 -0.6074
 4895SOL     OW26317   1.555   4.096   6.145 -0.4170 -0.7721  0.0085
 4895SOL    HW126318   1.466   4.130   6.146  0.7912  2.3806  0.9967
 4895SOL    HW226319   1.537   4.012   6.102 -0.2215 -1.6697  1.6787
 4896SOL     OW26320   2.362   0.722   7.430  0.2037 -0.1569 -0.4457
 4896SOL    HW126321   2.346   0.693   7.520 -0.3128  0.8274 -0.2251
 4896SOL    HW226322   2.414   0.800   7.445  0.0259  0.4576 -3.1764
 4897SOL     OW26323   1.188   0.899   2.169 -0.4621 -0.4360 -0.6301
 4897SOL    HW126324   1.279   0.872   2.183 -0.5768  0.6274  2.1684
 4897SOL    HW226325   1.151   0.883   2.256  0.5614 -1.2134 -0.3380
 4898SOL     OW26326   0.193   3.865  15.115 -0.2349 -1.0512 -0.2282
 4898SOL    HW126327   0.158   3.849  15.202  1.2978  0.4006  0.6557
 4898SOL    HW226328   0.156   3.950  15.090  2.3201  1.1034  3.3160
 4899SOL     OW26329   2.907   1.231  17.729  0.1685  0.4207 -0.8567
 4899SOL    HW126330   2.819   1.257  17.703 -0.2090 -0.3965 -0.3681
 4899SOL    HW226331   2.932   1.309   0.030  0.7558  0.4789 -1.2348
 4900SOL     OW26332   4.555   0.505   4.711 -0.4796  0.3322 -0.2318
 4900SOL    HW126333   4.513   0.420   4.714 -2.3326  1.1440 -2.7619
 4900SOL    HW226334   4.486   0.544   4.656 -0.7809  1.0115  0.6186
 4901SOL     OW26335   1.323   2.807   8.713 -0.8019 -0.1858 -0.2187
 4901SOL    HW126336   1.364   2.817   8.799 -0.6496  0.8044 -0.3995
 4901SOL    HW226337   1.329   2.897   8.680  0.4734 -1.1593 -2.6132
 4902SOL     OW26338   3.848   2.313   3.755  0.2389 -0.1793  0.4846
 4902SOL    HW126339   3.942   2.311   3.739  0.0133  0.6262 -0.9349
 4902SOL    HW226340   3.832   2.386   3.814  1.0304 -0.0083  0.4884
 4903SOL     OW26341   0.770   3.534  15.479 -0.3244 -0.0758  0.7016
 4903SOL    HW126342   0.720   3.600  15.527  0.8870 -0.5858  2.7054
 4903SOL    HW226343   0.727   3.450  15.495 -0.0126  0.0095  1.9919
 4904SOL     OW26344   3.130   3.619   6.426  0.1105 -0.3414 -0.0564
 4904SOL    HW126345   3.190   3.551   6.395 -0.8694 -1.6653  0.9330
 4904SOL    HW226346   3.168   3.643   6.510 -0.3274 -3.3633  1.0110
 4905SOL     OW26347   1.546   4.247   6.690 -0.0407  0.5110 -0.6873
 4905SOL    HW126348   1.462   4.287   6.665 -1.7683 -2.8454 -0.2698
 4905SOL    HW226349   1.606   4.319   6.670  0.1618  0.4579 -0.2563
 4906SOL     OW26350   0.059   3.237  10.738  0.0702 -0.0717  0.2092
 4906SOL    HW126351   4.730   3.302  10.758 -1.5978 -0.7262 -3.2551
 4906SOL    HW226352   0.027   3.209  10.652  1.4630  0.0847 -0.3609
 4907SOL     OW26353   2.215   1.950   2.753  0.2190  0.2868  0.0967
 4907SOL    HW126354   2.131   1.922   2.718 -0.3702  0.8764  1.0124
 4907SOL    HW226355   2.253   1.885   2.812  1.4537  1.3185  0.4602
 4908SOL     OW26356   2.237   3.917   5.676  0.0296 -0.0504 -0.2137
 4908SOL    HW126357   2.330   3.939   5.676  0.0630 -0.2127  2.1822
 4908SOL    HW226358   2.234   3.871   5.760  1.3213  1.1033  0.4681
 4909SOL     OW26359   2.017   0.550   1.332 -0.0122 -0.9284 -0.2915
 4909SOL    HW126360   2.079   0.618   1.307 -0.5946  0.7070  2.7526
 4909SOL    HW226361   2.060   0.477   1.287  0.7180  0.3146 -1.6062
 4910SOL     OW26362   4.638   3.845   3.766  0.6649  0.1877 -0.1759
 4910SOL    HW126363   4.631   3.778   3.697 -1.2514  1.9146 -1.6789
 4910SOL    HW226364   4.731   3.836   3.783  0.5509 -0.5866  0.0462
 4911SOL     OW26365   2.936   3.732  11.315 -0.2771 -0.0711 -0.5953
 4911SOL    HW126366   2.940   3.671  11.389  1.2458 -0.6182 -1.1295
 4911SOL    HW226367   2.870   3.694  11.257  0.3079 -2.6703  0.4699
 4912SOL     OW26368   1.422   1.847  17.282  0.1566 -0.2709  0.3557
 4912SOL    HW126369   1.404   1.801  17.201  3.1286  0.0568 -0.5019
 4912SOL    HW226370   1.482   1.914  17.248 -1.4139  0.0407 -1.8263
 4913SOL     OW26371   4.356   2.096   9.411  0.2275  0.0927  0.4326
 4913SOL    HW126372   4.400   2.157   9.351 -0.7488 -0.3988 -0.7836
 4913SOL    HW226373   4.431   2.037   9.417  0.4274 -0.0034 -2.7407
 4914SOL     OW26374   3.978   4.377  15.859 -0.1426  0.0590  0.6415
 4914SOL    HW126375   3.928   4.329  15.794 -0.7564  1.1583  0.3018
 4914SOL    HW226376   4.023   4.308  15.908  2.6349  3.2628  2.6119
 4915SOL     OW26377   2.915   2.408   4.025  0.0807 -0.1603 -0.5070
 4915SOL    HW126378   2.884   2.362   3.947  1.6912 -0.9542 -0.6966
 4915SOL    HW226379   2.858   2.484   4.032  0.2201 -0.2727  1.8301
 4916SOL     OW26380   4.490   4.420   1.373 -0.2412 -0.1868  0.3716
 4916SOL    HW126381   4.501   4.476   1.297  1.1732  0.1191  0.8042
 4916SOL    HW226382   4.440   4.349   1.333  0.7494 -1.5491  1.5372
 4917SOL     OW26383   0.139   0.187   1.268 -0.2197 -0.0756 -0.2334
 4917SOL    HW126384   0.195   0.112   1.246  1.6675  0.6830  2.0009
 4917SOL    HW226385   0.148   0.184   1.363 -1.0552  0.6967 -0.1315
 4918SOL     OW26386   3.507   3.479   7.452 -0.0096  0.3173 -0.3209
 4918SOL    HW126387   3.585   3.475   7.507  0.8681 -0.4993 -1.6061
 4918SOL    HW226388   3.507   3.390   7.415 -1.2806  0.9886 -1.9051
 4919SOL     OW26389   3.757   4.662   4.051 -0.1569 -0.2454  0.1176
 4919SOL    HW126390   3.664   4.656   4.031 -0.7342  0.1460  2.6345
 4919SOL    HW226391   3.749   4.697   4.140 -0.3827  0.3802 -0.1472
 4920SOL     OW26392   4.156   0.693   8.175  0.4538  0.7896 -0.3871
 4920SOL    HW126393   4.247   0.672   8.197  0.6611  1.9070 -0.1815
 4920SOL    HW226394   4.170   0.783   8.147  0.0346  0.4305 -1.7640
 4921SOL     OW26395   1.257   2.128   4.944 -0.0585 -0.3670  0.3045
 4921SOL    HW126396   1.199   2.071   4.892  0.5638  0.3220 -1.1262
 4921SOL    HW226397   1.205   2.142   5.024  1.9532  1.2105  1.3221
 4922SOL     OW26398   4.601   4.014  10.298 -0.1506 -0.2204 -0.1905
 4922SOL    HW126399   4.663   4.084  10.277  1.6936 -1.8572 -0.2261
 4922SOL    HW226400   4.613   4.005  10.393  0.3426 -1.3532 -0.3649
 4923SOL     OW26401   2.939   0.383   8.330  0.4036  0.3663  0.4154
 4923SOL    HW126402   2.860   0.395   8.277 -1.6694 -0.4745  3.3347
 4923SOL    HW226403   3.007   0.435   8.286  0.6988 -1.2866 -1.1020
 4924SOL     OW26404   1.354   4.217   9.886 -0.5748 -0.9620  0.2445
 4924SOL    HW126405   1.401   4.259   9.958 -1.2595  0.6680 -0.2752
 4924SOL    HW226406   1.268   4.188   9.917 -1.4565 -0.5532 -1.8198
 4925SOL     OW26407   1.688   2.652   4.217  0.5780 -0.0300  0.6642
 4925SOL    HW126408   1.723   2.736   4.246 -1.2033  0.8173  0.3139
 4925SOL    HW226409   1.761   2.623   4.161 -0.5517  0.6807 -1.1606
 4926SOL     OW26410   3.429   2.727  16.424 -0.0465  0.4702 -0.0593
 4926SOL    HW126411   3.446   2.634  16.437  0.6396  0.4243 -1.2772
 4926SOL    HW226412   3.358   2.722  16.360 -0.9754 -0.2958  1.0245
 4927SOL     OW26413   0.919   2.701  16.142 -0.0774  0.0688 -0.5548
 4927SOL    HW126414   0.981   2.631  16.122 -0.2290 -0.1980 -0.0961
 4927SOL    HW226415   0.837   2.655  16.120 -1.2560  0.5013  2.9713
 4928SOL     OW26416   2.749   4.649   4.166 -0.1381  0.1235 -0.1669
 4928SOL    HW126417   2.707   4.576   4.121  2.2051 -0.5539 -1.2521
 4928SOL    HW226418   2.776   4.607   4.247  1.0748  1.0863 -0.0716
 4929SOL     OW26419   4.674   1.859   8.058  0.4268  0.2903  0.4227
 4929SOL    HW126420   4.626   1.868   8.139 -0.0916  3.2960 -0.2109
 4929SOL    HW226421   4.615   1.827   7.990  0.9399  1.2700 -0.5036
 4930SOL     OW26422   2.577   3.715  16.296  0.5344 -0.0559 -0.1915
 4930SOL    HW126423   2.486   3.745  16.290  0.7299  0.0811 -2.3701
 4930SOL    HW226424   2.623   3.799  16.292  1.5280 -0.5694  0.5277
 4931SOL     OW26425   3.355   2.904   9.451  0.4499  0.4350 -0.1711
 4931SOL    HW126426   3.448   2.883   9.463  0.2412 -0.4646 -0.1424
 4931SOL    HW226427   3.316   2.896   9.538 -0.1671 -2.2176 -0.6685
 4932SOL     OW26428   2.591   2.948   0.060 -0.6238  0.0334 -0.4724
 4932SOL    HW126429   2.536   2.963  17.732 -0.3319  0.8621 -0.5192
 4932SOL    HW226430   2.567   3.017   0.122  3.4898  2.9386 -2.1343
 4933SOL     OW26431   1.123   4.008   7.568 -0.2304  0.4934  0.2309
 4933SOL    HW126432   1.051   4.069   7.556  0.0585  0.7450 -0.2336
 4933SOL    HW226433   1.129   4.007   7.663  0.8916  1.7039  0.1755
 4934SOL     OW26434   1.540   1.709   0.149  0.1172  0.7787 -0.4646
 4934SOL    HW126435   1.621   1.733   0.104 -0.4636  0.6867 -1.5689
 4934SOL    HW226436   1.566   1.743   0.235  0.9474  0.8358 -0.7403
 4935SOL     OW26437   1.558   2.761   3.190 -0.1375  0.4925 -0.2368
 4935SOL    HW126438   1.517   2.846   3.198 -1.0889 -0.0993  1.0793
 4935SOL    HW226439   1.516   2.719   3.114 -0.6429 -0.5104  0.5990
 4936SOL     OW26440   1.383   0.641   7.492 -0.7372 -0.1969 -0.5226
 4936SOL    HW126441   1.468   0.646   7.535 -1.2820 -0.2114  0.5869
 4936SOL    HW226442   1.399   0.565   7.436 -0.3437 -1.1636  0.8890
 4937SOL     OW26443   3.626   0.665  14.926 -0.6099 -1.0965  0.3641
 4937SOL    HW126444   3.555   0.633  14.982 -0.1117 -0.2153  1.5054
 4937SOL    HW226445   3.658   0.744  14.969 -0.0073 -0.8445 -0.5421
 4938SOL     OW26446   1.412   2.521   0.495 -0.6667  0.0281 -0.0704
 4938SOL    HW126447   1.367   2.542   0.413 -0.2298  0.1812 -0.2717
 4938SOL    HW226448   1.493   2.480   0.464  0.2994  0.7594  1.4949
 4939SOL     OW26449   2.946   4.296  13.313 -1.2288  0.1860 -0.0582
 4939SOL    HW126450   2.950   4.316  13.219 -0.8389  1.7064  0.2747
 4939SOL    HW226451   2.885   4.367  13.336 -1.4736  0.0509 -0.2808
 4940SOL     OW26452   2.382   1.443   5.276  0.0309 -0.1118 -0.4315
 4940SOL    HW126453   2.440   1.518   5.293 -1.3360  1.0308 -0.7901
 4940SOL    HW226454   2.424   1.414   5.196  0.8154 -0.3479  0.0661
 4941SOL     OW26455   3.562   0.610   5.486  0.1278 -0.2923 -0.1932
 4941SOL    HW126456   3.629   0.581   5.425 -0.0086 -1.0502  0.0218
 4941SOL    HW226457   3.591   0.701   5.491 -2.9468  0.7588 -1.2334
 4942SOL     OW26458   3.234   0.182   8.726  0.4621 -0.5842 -0.2633
 4942SOL    HW126459   3.166   0.225   8.673 -0.0375  0.6092  1.3412
 4942SOL    HW226460   3.307   0.241   8.705 -1.7317  1.9366 -0.9698
 4943SOL     OW26461   2.891   0.587  13.755 -0.1434 -0.5826  0.5055
 4943SOL    HW126462   2.859   0.623  13.672  3.1439 -0.5693 -0.7531
 4943SOL    HW226463   2.884   0.657  13.819  1.6856 -0.8931  1.0241
 4944SOL     OW26464   2.108   3.208  10.558 -0.4925 -0.2156  0.3841
 4944SOL    HW126465   2.059   3.133  10.591  0.6499 -1.1667 -0.0647
 4944SOL    HW226466   2.130   3.253  10.639 -2.6789 -0.2651  1.0133
 4945SOL     OW26467   3.247   3.434   2.063 -0.0119  0.3353 -0.0938
 4945SOL    HW126468   3.253   3.528   2.049  0.2446  0.1708 -1.0437
 4945SOL    HW226469   3.272   3.433   2.156 -0.3006 -0.3245 -0.0176
 4946SOL     OW26470   0.448   3.823   8.815 -0.4350 -0.2737 -0.0404
 4946SOL    HW126471   0.387   3.838   8.743 -0.9363  1.8318  0.8271
 4946SOL    HW226472   0.500   3.904   8.812  1.1772 -1.2362  1.7398
 4947SOL     OW26473   4.136   0.091   7.626 -0.3718  0.8376 -0.5956
 4947SOL    HW126474   4.165   0.047   7.546  1.1370  3.3534 -1.4314
 4947SOL    HW226475   4.192   0.051   7.692 -0.4858  0.6711 -0.5988
 4948SOL     OW26476   2.695   0.563   5.516 -0.1143  0.5998 -0.4953
 4948SOL    HW126477   2.617   0.606   5.549  0.0364 -0.4313  1.1842
 4948SOL    HW226478   2.664   0.540   5.428 -0.3632 -0.4880 -0.1225
 4949SOL     OW26479   0.779   0.470   1.365  0.1883  0.1670 -0.3735
 4949SOL    HW126480   0.862   0.479   1.319 -0.3693  0.5244 -1.2985
 4949SOL    HW226481   0.732   0.544   1.326  1.7968  0.8094 -1.1291
 4950SOL     OW26482   4.265   2.570   0.965 -0.3625 -0.2681  0.1595
 4950SOL    HW126483   4.223   2.506   0.908  2.3009 -2.8316  1.0582
 4950SOL    HW226484   4.290   2.519   1.042 -2.2751 -1.6591 -0.1566
 4951SOL     OW26485   1.634   4.210  16.973  0.1373 -0.4053  0.1386
 4951SOL    HW126486   1.668   4.223  17.061 -1.8713  0.4426  0.7814
 4951SOL    HW226487   1.693   4.137  16.952 -1.0640 -1.8056  1.6663
 4952SOL     OW26488   3.147   4.020   1.728  0.5794 -0.6376  0.2707
 4952SOL    HW126489   3.061   3.995   1.695  1.3175 -1.6077 -0.9870
 4952SOL    HW226490   3.124   4.109   1.750  1.5020  0.0740 -1.5984
 4953SOL     OW26491   2.325   4.198   6.947  0.0665 -0.2813 -0.3182
 4953SOL    HW126492   2.236   4.228   6.965  0.2852 -1.0854  2.0923
 4953SOL    HW226493   2.338   4.246   6.866 -0.2294 -0.0577 -0.2344
 4954SOL     OW26494   1.003   4.589   2.173 -0.2249  0.2217 -0.1520
 4954SOL    HW126495   1.017   4.683   2.174  0.6318  0.0478  2.8008
 4954SOL    HW226496   0.995   4.583   2.268 -2.2458  1.1857 -0.2511
 4955SOL     OW26497   1.565   2.840   4.978 -0.2068 -0.1588 -0.1189
 4955SOL    HW126498   1.658   2.861   4.968 -0.3946  1.1219  0.8453
 4955SOL    HW226499   1.536   2.803   4.894  0.1277  2.4997 -1.4013
 4956SOL     OW26500   2.889   3.027   1.112 -0.4227  0.2211 -0.1289
 4956SOL    HW126501   2.832   2.981   1.173 -1.6179  0.7122 -0.8681
 4956SOL    HW226502   2.922   2.955   1.059 -3.5380 -2.5813  1.6791
 4957SOL     OW26503   0.559   2.764   1.863  0.4483 -0.4064  0.3059
 4957SOL    HW126504   0.528   2.850   1.893 -1.0296 -0.5870 -0.6949
 4957SOL    HW226505   0.570   2.782   1.770  2.4498 -1.2283  0.3898
 4958SOL     OW26506   0.564   3.959   9.080  0.3430 -0.5573 -0.1155
 4958SOL    HW126507   0.511   3.959   9.160  0.2438 -0.9218 -0.1817
 4958SOL    HW226508   0.573   3.864   9.068  0.0697 -0.4387 -1.2312
 4959SOL     OW26509   0.964   3.637   2.365  0.4917  0.4566  0.4634
 4959SOL    HW126510   1.016   3.716   2.381  0.4384  0.8885 -1.5575
 4959SOL    HW226511   1.001   3.625   2.278 -2.2583  0.9413 -0.7668
 4960SOL     OW26512   2.900   1.595   1.502  0.7292  0.0374  0.5141
 4960SOL    HW126513   2.863   1.555   1.581 -0.7804  0.1847 -0.1180
 4960SOL    HW226514   2.887   1.689   1.514  1.2094 -0.1787  2.7841
 4961SOL     OW26515   2.960   0.332  17.098  0.2230  0.3410  0.2252
 4961SOL    HW126516   2.992   0.412  17.056  2.2253  0.2638  1.6354
 4961SOL    HW226517   2.878   0.367  17.134 -1.1389 -1.2533 -1.3743
 4962SOL     OW26518   2.151   2.877   6.185 -0.2873  0.4149 -0.5848
 4962SOL    HW126519   2.200   2.817   6.240  1.3329  2.5278  0.3042
 4962SOL    HW226520   2.060   2.874   6.213 -0.2991 -1.1573 -0.8028
 4963SOL     OW26521   0.031   4.166  12.157  0.8708  0.3797  0.5523
 4963SOL    HW126522   4.676   4.166  12.179  0.8139 -3.2872  0.4337
 4963SOL    HW226523   0.039   4.082  12.111 -1.6329  0.9977 -0.9873
 4964SOL     OW26524   0.807   1.587   5.030  0.2310 -0.4744 -0.2947
 4964SOL    HW126525   0.848   1.502   5.048  1.5443  0.3111  0.4597
 4964SOL    HW226526   0.828   1.595   4.937  1.6188 -1.6027 -0.0933
 4965SOL     OW26527   4.182   4.505   3.986  0.1605 -0.5511 -0.0312
 4965SOL    HW126528   4.259   4.471   3.940  0.3301  1.9019 -1.5312
 4965SOL    HW226529   4.172   4.431   4.046 -3.2806  2.7748  3.4879
 4966SOL     OW26530   3.612   3.235   7.411 -0.1206  0.1699 -0.4483
 4966SOL    HW126531   3.586   3.145   7.429 -1.7800  0.5384 -1.0456
 4966SOL    HW226532   3.706   3.225   7.426  0.0358  0.0757 -1.4949
 4967SOL     OW26533   1.654   4.436  14.465 -0.2268 -0.3425 -0.5023
 4967SOL    HW126534   1.656   4.522  14.422  1.8095 -0.0580  0.1370
 4967SOL    HW226535   1.560   4.428  14.481 -0.6860  2.1387 -1.9401
 4968SOL     OW26536   0.393   0.941   6.466  0.3682 -0.0779 -0.1492
 4968SOL    HW126537   0.414   0.849   6.450 -0.4406 -0.1172 -1.0120
 4968SOL    HW226538   0.463   0.976   6.412 -0.1120  0.0040 -0.7150
 4969SOL     OW26539   2.255   1.658   2.015  0.5174  0.7228  0.0729
 4969SOL    HW126540   2.281   1.586   1.957  1.9955  3.2792 -2.4480
 4969SOL    HW226541   2.337   1.698   2.043 -0.4640  3.0268 -0.3994
 4970SOL     OW26542   1.203   0.424   0.955  0.0366 -0.5248  0.5885
 4970SOL    HW126543   1.288   0.465   0.972  0.7616 -1.2420 -1.3449
 4970SOL    HW226544   1.174   0.470   0.877  0.4789  1.2908  1.4928
 4971SOL     OW26545   1.555   4.724   2.974  0.2681 -1.4009 -0.0673
 4971SOL    HW126546   1.494   4.704   3.045 -1.0724 -0.2895 -0.8998
 4971SOL    HW226547   1.531   4.663   2.905  1.0029 -1.7396 -0.0266
 4972SOL     OW26548   3.202   1.448   9.135 -0.6613 -0.3209 -0.0083
 4972SOL    HW126549   3.282   1.419   9.091 -0.4961 -2.6411  1.8683
 4972SOL    HW226550   3.137   1.420   9.071 -1.3463 -0.1033  0.5935
 4973SOL     OW26551   0.060   1.856   9.723  0.4951 -0.7050 -0.0033
 4973SOL    HW126552   0.040   1.887   9.635  0.1342 -1.5085 -0.2024
 4973SOL    HW226553   0.155   1.859   9.720  0.4196  3.6558  0.9644
 4974SOL     OW26554   4.230   3.056   5.637  0.1148 -0.0109  0.0068
 4974SOL    HW126555   4.163   3.122   5.622  0.7181  0.6684  0.3059
 4974SOL    HW226556   4.292   3.085   5.570 -3.0408 -0.4459 -3.0844
 4975SOL     OW26557   4.136   2.361   0.766  0.1166 -0.4743 -0.3871
 4975SOL    HW126558   4.176   2.275   0.751 -0.4966 -1.1350  1.7593
 4975SOL    HW226559   4.139   2.407   0.683 -0.3168  0.9926  0.4002
 4976SOL     OW26560   3.908   1.756   7.653 -0.2504 -0.4371 -0.1555
 4976SOL    HW126561   3.869   1.772   7.740  0.7327  2.5126 -0.2861
 4976SOL    HW226562   3.924   1.849   7.642 -1.5339 -0.2010 -0.0854
 4977SOL     OW26563   1.675   3.564   7.636 -0.0904  0.0579  0.0452
 4977SOL    HW126564   1.723   3.487   7.608 -0.4394 -0.1182 -0.0706
 4977SOL    HW226565   1.735   3.635   7.611 -0.6558  0.4581 -0.1853
 4978SOL     OW26566   3.253   3.826   5.682 -0.1611  0.2517 -0.3525
 4978SOL    HW126567   3.222   3.754   5.627  0.6556  0.5843 -1.2297
 4978SOL    HW226568   3.196   3.818   5.759  1.4796 -2.7253  0.5470
 4979SOL     OW26569   2.106   3.413   5.084 -0.5267  0.3108  0.1321
 4979SOL    HW126570   2.037   3.372   5.137 -0.6367  0.7249  0.3098
 4979SOL    HW226571   2.186   3.383   5.127 -0.8380  0.6402  0.9299
 4980SOL     OW26572   3.811   3.706   4.261  0.5588 -0.6392 -0.1878
 4980SOL    HW126573   3.809   3.611   4.248  1.4277 -0.6134 -0.4904
 4980SOL    HW226574   3.901   3.729   4.284  0.0641 -0.0425  1.1643
 4981SOL     OW26575   1.848   0.354  10.013  0.1914 -0.5354  0.1692
 4981SOL    HW126576   1.866   0.280  10.071  2.6619 -2.4611 -3.0244
 4981SOL    HW226577   1.764   0.317   9.985 -0.7248  0.8640  1.1017
 4982SOL     OW26578   0.585   2.578   3.719  0.2495 -0.4396  0.0049
 4982SOL    HW126579   0.679   2.564   3.729  0.2676 -0.8449 -0.7430
 4982SOL    HW226580   0.573   2.639   3.793  1.8825 -0.4732  0.2959
 4983SOL     OW26581   1.672   0.214  13.402 -0.6570  0.0223 -0.4870
 4983SOL    HW126582   1.703   0.283  13.462  2.3378  0.2666 -2.2970
 4983SOL    HW226583   1.607   0.173  13.459 -0.7741  1.3137  0.3215
 4984SOL     OW26584   2.400   3.418   8.326 -0.3425  0.2800 -0.1738
 4984SOL    HW126585   2.439   3.431   8.239  0.6827 -1.4403  0.0423
 4984SOL    HW226586   2.335   3.349   8.311 -1.8039  1.0571  2.7263
 4985SOL     OW26587   1.236   2.687   4.631 -0.3749 -0.4466 -0.0086
 4985SOL    HW126588   1.170   2.626   4.665 -0.2100  1.1889  3.1988
 4985SOL    HW226589   1.208   2.765   4.679  0.5494  0.7668 -1.4500
 4986SOL     OW26590   2.791   1.612  17.407 -0.2425 -0.2401 -0.1541
 4986SOL    HW126591   2.722   1.570  17.459 -0.5631  0.4741 -0.0053
 4986SOL    HW226592   2.860   1.604  17.472 -0.7178  1.1483  0.5044
 4987SOL     OW26593   0.587   0.173   5.969  0.0980  0.2763  0.0978
 4987SOL    HW126594   0.577   0.256   6.016 -0.4045  0.3538 -0.1478
 4987SOL    HW226595   0.619   0.113   6.036  0.7748 -0.2159 -0.6714
 4988SOL     OW26596   4.128   1.692   4.511 -0.0073  0.0505 -0.1656
 4988SOL    HW126597   4.200   1.735   4.557 -0.3030  1.0741 -0.6568
 4988SOL    HW226598   4.173   1.636   4.448 -0.9410  1.3457 -1.9842
 4989SOL     OW26599   3.652   4.268   6.873 -0.5065  0.4702 -0.1351
 4989SOL    HW126600   3.626   4.198   6.813 -0.7838 -0.8572  1.5342
 4989SOL    HW226601   3.578   4.256   6.933 -0.2029 -1.2617 -0.0997
 4990SOL     OW26602   1.166   0.554   4.677 -0.6761 -0.0676 -0.1389
 4990SOL    HW126603   1.082   0.508   4.673 -0.4845 -0.4587  0.2773
 4990SOL    HW226604   1.180   0.570   4.770  1.0873  0.1805 -0.4440
 4991SOL     OW26605   1.319   2.780   6.932 -0.3685  0.8259  0.2074
 4991SOL    HW126606   1.414   2.777   6.919  0.0369  0.8962  3.0647
 4991SOL    HW226607   1.308   2.721   7.006  1.5997  2.5981  1.9429
 4992SOL     OW26608   3.118   2.344   5.837  0.0881  0.1099 -0.5289
 4992SOL    HW126609   3.060   2.418   5.821  0.1984  0.2748 -0.1530
 4992SOL    HW226610   3.053   2.295   5.886  0.1695 -1.1019 -1.6318
 4993SOL     OW26611   4.025   4.710   3.976  0.4148  0.2848  0.3645
 4993SOL    HW126612   3.934   4.694   4.003  0.1354 -1.8682 -1.9021
 4993SOL    HW226613   4.064   4.623   3.969  1.7965  1.0430 -1.4887
 4994SOL     OW26614   3.500   0.541   7.667  0.0698  0.2552  0.1297
 4994SOL    HW126615   3.593   0.558   7.655  0.1685 -1.7763 -2.1056
 4994SOL    HW226616   3.480   0.566   7.757  1.6071  0.8492  0.2999
 4995SOL     OW26617   3.068   2.124   5.134  0.1519 -0.6926 -0.3059
 4995SOL    HW126618   3.048   2.046   5.083  1.3513  0.5884 -2.7460
 4995SOL    HW226619   3.003   2.185   5.100  1.1984  0.5590 -0.0540
 4996SOL     OW26620   3.098   3.360   5.385 -0.2139  0.1422  0.1996
 4996SOL    HW126621   3.050   3.285   5.350  0.6948 -0.3661  0.0319
 4996SOL    HW226622   3.077   3.347   5.478  0.3408 -0.0684  0.2977
 4997SOL     OW26623   3.302   3.208   6.334 -0.2122  0.2011 -0.0222
 4997SOL    HW126624   3.347   3.200   6.249  0.1001  1.9060 -0.0252
 4997SOL    HW226625   3.275   3.300   6.328 -0.1711  0.2138 -0.0090
 4998SOL     OW26626   0.605   0.932   7.328  0.0894  0.3031  0.1162
 4998SOL    HW126627   0.647   0.954   7.411  0.7843 -0.2811 -0.0791
 4998SOL    HW226628   0.552   0.861   7.364  0.3799 -0.7264 -1.5027
 4999SOL     OW26629   3.570   2.369   5.308 -0.6300 -0.0217 -0.1018
 4999SOL    HW126630   3.659   2.355   5.342 -0.9845  0.2547  0.9500
 4999SOL    HW226631   3.522   2.362   5.391  1.8471  0.8504  1.4082
 5000SOL     OW26632   2.522   2.242  14.365 -0.2616 -0.0684  0.2017
 5000SOL    HW126633   2.532   2.161  14.315  2.6973  0.8622 -0.6820
 5000SOL    HW226634   2.507   2.318  14.309  3.0127  1.3299  1.2327
 5001SOL     OW26635   2.520   1.340   9.048  0.1131 -0.2430 -0.4886
 5001SOL    HW126636   2.476   1.312   9.128 -0.3070 -2.0240 -1.3462
 5001SOL    HW226637   2.602   1.294   9.065  0.0750  0.0710  0.6061
 5002SOL     OW26638   1.776   1.270   1.524  0.1700  0.0419 -0.3390
 5002SOL    HW126639   1.835   1.330   1.570 -2.1323  1.4036  0.8433
 5002SOL    HW226640   1.831   1.277   1.446  0.9549 -0.0005  0.2147
 5003SOL     OW26641   4.450   1.181   2.276  0.1114 -0.5218  0.0199
 5003SOL    HW126642   4.514   1.248   2.301 -0.9828 -0.0492  1.5548
 5003SOL    HW226643   4.432   1.138   2.359  1.9227 -0.6410  0.3484
 5004SOL     OW26644   0.163   4.303   3.696 -0.0463  0.0431 -0.1920
 5004SOL    HW126645   0.143   4.331   3.606 -3.2755 -1.8012 -0.0570
 5004SOL    HW226646   0.084   4.251   3.709 -0.8871  0.7616 -2.4567
 5005SOL     OW26647   2.092   2.604   7.860  0.5786  0.6651  0.3390
 5005SOL    HW126648   2.010   2.631   7.902  0.7871  1.2574  0.3622
 5005SOL    HW226649   2.074   2.511   7.848  0.0241  0.7440  0.5505
 5006SOL     OW26650   0.598   0.653   1.277 -0.4822 -0.1893  0.2457
 5006SOL    HW126651   0.574   0.708   1.203  1.9516 -1.7213 -1.6517
 5006SOL    HW226652   0.517   0.668   1.326 -0.5994  1.4661 -0.4717
 5007SOL     OW26653   1.299   2.804   2.647 -0.4958  0.7196  0.0400
 5007SOL    HW126654   1.293   2.898   2.629 -0.6795  0.6132 -0.4718
 5007SOL    HW226655   1.237   2.801   2.720  0.0136  0.2027  0.4479
 5008SOL     OW26656   4.402   2.408   8.815  0.0522 -0.2003  0.6837
 5008SOL    HW126657   4.416   2.501   8.832 -2.0980 -0.1741  2.3029
 5008SOL    HW226658   4.479   2.370   8.858  1.0116 -1.5966 -2.2492
 5009SOL     OW26659   0.236   1.782   8.838 -0.1607 -0.2942 -0.3661
 5009SOL    HW126660   0.144   1.768   8.813  0.3748 -1.3862 -1.7218
 5009SOL    HW226661   0.280   1.771   8.754  0.5100  0.2407 -0.0823
 5010SOL     OW26662   3.916   4.273  13.306  0.0860  0.0786 -0.4642
 5010SOL    HW126663   3.896   4.361  13.339  0.9944  0.0813  0.0635
 5010SOL    HW226664   3.987   4.250  13.366 -0.6780  0.1229  0.4622
 5011SOL     OW26665   0.179   2.358  11.556 -0.7803  0.0601 -0.3761
 5011SOL    HW126666   0.103   2.358  11.614 -1.5592  0.4650 -1.4135
 5011SOL    HW226667   0.236   2.314  11.619 -0.9755  0.7915  0.3283
 5012SOL     OW26668   0.497   4.207   3.271 -0.1192  0.6757  0.0999
 5012SOL    HW126669   0.484   4.112   3.265 -0.8869  0.5254  4.3076
 5012SOL    HW226670   0.410   4.230   3.241 -1.2327 -0.9348  2.1158
 5013SOL     OW26671   0.154   4.236   5.930  0.2897 -0.3969  0.5522
 5013SOL    HW126672   0.132   4.210   5.841  1.0704 -0.0146  0.2496
 5013SOL    HW226673   0.192   4.318   5.898  0.4554  0.3498  2.6238
 5014SOL     OW26674   2.416   3.749  15.146 -0.2458 -0.5984 -0.2546
 5014SOL    HW126675   2.464   3.754  15.064 -1.1285  0.8041 -0.6783
 5014SOL    HW226676   2.399   3.657  15.166  1.4901 -0.3005  2.7259
 5015SOL     OW26677   3.260   1.239   5.156 -0.6993  0.4502  0.1162
 5015SOL    HW126678   3.304   1.208   5.077  2.4891  1.9901  1.2832
 5015SOL    HW226679   3.327   1.208   5.216 -2.4817 -2.1589  0.7791
 5016SOL     OW26680   2.771   1.278   9.844 -0.5295  0.2417  0.1933
 5016SOL    HW126681   2.842   1.276   9.779 -0.1150 -0.2720  0.6592
 5016SOL    HW226682   2.695   1.266   9.788  0.4074 -0.5801 -0.9028
 5017SOL     OW26683   2.092   0.691  10.334  0.5859 -0.6153  0.2736
 5017SOL    HW126684   2.081   0.600  10.360 -1.2271 -0.0892  1.3262
 5017SOL    HW226685   2.006   0.731  10.346  1.7255  1.9947 -0.2652
 5018SOL     OW26686   2.512   1.315   6.930 -0.2438 -0.0971  0.1548
 5018SOL    HW126687   2.473   1.371   6.997  2.9212  1.6607  0.5222
 5018SOL    HW226688   2.487   1.363   6.852  0.1945 -0.9177 -0.4915
 5019SOL     OW26689   0.029   3.841   8.976  0.8203 -0.1928  0.1864
 5019SOL    HW126690   4.698   3.801   8.922  1.3935 -0.0599 -0.6346
 5019SOL    HW226691   0.029   3.932   8.948  0.6775 -0.3215 -0.2381
 5020SOL     OW26692   2.184   4.256   3.002 -0.3945  0.1367 -0.0093
 5020SOL    HW126693   2.131   4.295   3.072  1.3461  2.2022  0.1701
 5020SOL    HW226694   2.110   4.237   2.945 -0.6272 -0.4172  0.4790
 5021SOL     OW26695   3.908   3.438  16.644 -0.0895 -0.3844  0.3701
 5021SOL    HW126696   3.983   3.480  16.603 -2.5227  1.2240 -2.3672
 5021SOL    HW226697   3.858   3.407  16.570  0.4119 -1.3256  0.4289
 5022SOL     OW26698   2.404   2.495   8.714  0.2284 -0.3787 -0.0518
 5022SOL    HW126699   2.311   2.518   8.718  0.3500 -0.0581  0.9312
 5022SOL    HW226700   2.408   2.401   8.732  0.0021 -0.6005 -1.1465
 5023SOL     OW26701   1.772   4.291  16.122  0.5596  0.4269 -0.2366
 5023SOL    HW126702   1.835   4.310  16.052  0.0850  1.2333 -0.4438
 5023SOL    HW226703   1.713   4.364  16.105  2.0950  1.6565 -0.3203
 5024SOL     OW26704   1.423   0.962   8.657 -0.2246  0.3409 -0.0048
 5024SOL    HW126705   1.365   0.959   8.733  0.2083 -0.9906  0.2757
 5024SOL    HW226706   1.414   1.057   8.650 -3.4376 -0.2012 -3.3204
 5025SOL     OW26707   3.030   0.299   2.889 -0.3233 -0.3449 -0.2073
 5025SOL    HW126708   2.958   0.333   2.943 -0.0878  0.1561 -0.2101
 5025SOL    HW226709   3.004   0.207   2.893  0.0336 -0.4778 -1.0950
 5026SOL     OW26710   2.230   0.493   2.926  0.0979  0.4229  0.8721
 5026SOL    HW126711   2.254   0.426   2.862  2.3504  0.4485  1.6919
 5026SOL    HW226712   2.143   0.464   2.953  0.1847  0.2514  0.9670
 5027SOL     OW26713   2.598   2.615   7.594  0.9262  0.1446  0.0949
 5027SOL    HW126714   2.678   2.642   7.548  0.7987 -0.2757 -0.3742
 5027SOL    HW226715   2.591   2.681   7.664 -2.0301 -0.7382  0.6096
 5028SOL     OW26716   0.564   3.026   1.160 -0.5235 -0.1667 -1.0134
 5028SOL    HW126717   0.576   2.932   1.150  0.6862  0.2896 -3.8285
 5028SOL    HW226718   0.634   3.057   1.103 -0.2360 -1.0674 -1.1532
 5029SOL     OW26719   3.242   1.937  11.787  0.7706  0.5100 -0.2294
 5029SOL    HW126720   3.235   2.027  11.819  2.4279  0.9607 -1.1055
 5029SOL    HW226721   3.152   1.908  11.798  0.6876  0.4983 -0.9564
 5030SOL     OW26722   2.823   0.604   0.558  0.0895 -0.0343 -0.5586
 5030SOL    HW126723   2.825   0.680   0.499  0.9033  0.0444 -0.4251
 5030SOL    HW226724   2.895   0.550   0.527  0.3048  1.3521 -2.4884
 5031SOL     OW26725   3.295   1.331  12.486  0.1251 -0.2683 -0.2726
 5031SOL    HW126726   3.206   1.356  12.460  0.4903 -1.4072 -2.6111
 5031SOL    HW226727   3.330   1.406  12.534 -1.8501 -1.4339  2.9377
 5032SOL     OW26728   0.672   2.321   7.744  1.0343  0.2559 -0.0467
 5032SOL    HW126729   0.759   2.283   7.760  0.9679  0.3551  0.5361
 5032SOL    HW226730   0.657   2.318   7.649  0.3479  1.6133  0.0288
 5033SOL     OW26731   3.671   3.184   4.072 -0.4932 -0.0663  0.5544
 5033SOL    HW126732   3.605   3.134   4.024  1.9030 -1.7864 -0.9141
 5033SOL    HW226733   3.739   3.117   4.066  0.7743  1.4176 -2.0003
 5034SOL     OW26734   3.900   1.578   2.003  0.0657 -0.2217  0.3926
 5034SOL    HW126735   3.948   1.652   2.039 -0.2882  0.0794  0.2410
 5034SOL    HW226736   3.896   1.509   2.069  2.7081  0.7139  1.5420
 5035SOL     OW26737   4.229   3.587   6.135  0.0973 -0.0357 -0.1175
 5035SOL    HW126738   4.258   3.559   6.221  1.6776 -0.4393 -0.7991
 5035SOL    HW226739   4.137   3.559   6.130 -0.9201  3.0763  1.0989
 5036SOL     OW26740   0.866   0.495   9.891  0.1645  0.5471 -0.1607
 5036SOL    HW126741   0.958   0.472   9.899  0.4012  1.5491 -0.0249
 5036SOL    HW226742   0.836   0.448   9.813 -1.9634 -0.2977  1.1784
 5037SOL     OW26743   2.482   1.758  17.733 -0.1770  0.5238  0.3952
 5037SOL    HW126744   2.492   1.817  17.658 -2.0458 -0.1997 -0.3982
 5037SOL    HW226745   2.521   1.681  17.691 -1.4533 -0.2324  0.6009
 5038SOL     OW26746   0.643   4.238  16.107 -0.3350 -0.4106 -0.1201
 5038SOL    HW126747   0.583   4.238  16.032 -0.1574 -0.2949 -0.2621
 5038SOL    HW226748   0.713   4.290  16.069  2.5387 -2.0728  2.9041
 5039SOL     OW26749   0.220   2.951   9.483  0.1566  0.4188 -0.1001
 5039SOL    HW126750   0.142   2.957   9.427 -0.4986 -1.8886  0.5565
 5039SOL    HW226751   0.210   2.858   9.501  0.4622  0.7457  1.7186
 5040SOL     OW26752   2.175   0.390   6.133 -0.1374  0.0954  0.0605
 5040SOL    HW126753   2.150   0.309   6.178 -0.7595 -0.9186 -2.1122
 5040SOL    HW226754   2.148   0.369   6.044 -0.5352  2.7277 -0.4294
 5041SOL     OW26755   4.198   1.932   4.301 -0.2985 -0.3013 -0.0680
 5041SOL    HW126756   4.114   1.943   4.257 -2.1472 -4.5724  2.4424
 5041SOL    HW226757   4.236   1.851   4.266 -0.5062  0.3618 -1.8600
 5042SOL     OW26758   1.396   1.973  17.512 -0.0632  0.5294  0.8536
 5042SOL    HW126759   1.392   2.068  17.499  0.7233  0.5675  0.9004
 5042SOL    HW226760   1.400   1.932  17.426  4.0142 -2.7630  2.6014
 5043SOL     OW26761   4.019   1.603   5.369  0.5366 -0.0336  0.1815
 5043SOL    HW126762   4.071   1.657   5.310  0.8268 -0.4750  0.0296
 5043SOL    HW226763   3.936   1.594   5.321 -0.7270  4.2205  1.6331
 5044SOL     OW26764   2.242   1.541  13.555 -0.0577 -0.2230 -0.1474
 5044SOL    HW126765   2.289   1.462  13.529 -3.8037 -2.9154  1.2121
 5044SOL    HW226766   2.152   1.513  13.537  0.7098 -1.9109 -1.3275
 5045SOL     OW26767   2.797   2.364   5.597  0.2619  0.0929 -0.2788
 5045SOL    HW126768   2.782   2.270   5.607  0.6243  0.3308  2.3309
 5045SOL    HW226769   2.856   2.357   5.522 -1.3029 -0.6945 -1.4488
 5046SOL     OW26770   4.711   1.651   8.277 -0.1892  0.3786 -0.3717
 5046SOL    HW126771   0.042   1.704   8.237 -0.0926  0.7980  0.3555
 5046SOL    HW226772   4.664   1.727   8.310  1.3395  0.2509  2.0701
 5047SOL     OW26773   3.548   4.398   8.449 -0.1643  0.6266 -0.0114
 5047SOL    HW126774   3.568   4.491   8.456  1.1374  0.2359  1.3362
 5047SOL    HW226775   3.571   4.365   8.535 -0.8865  1.5104  0.5232
 5048SOL     OW26776   4.584   0.892  16.760 -0.3748  0.4798 -0.2928
 5048SOL    HW126777   4.501   0.938  16.774  0.1160  1.2335  0.1167
 5048SOL    HW226778   4.605   0.918  16.671 -2.8385  1.7381 -0.5095
 5049SOL     OW26779   4.089   0.137   3.213 -0.1509  0.3103 -0.2397
 5049SOL    HW126780   4.137   0.192   3.151  0.1496  0.5164  0.1822
 5049SOL    HW226781   4.161   0.081   3.243 -0.5066 -0.9657 -1.6974
 5050SOL     OW26782   3.361   3.372   8.546  0.2384 -0.0109  0.5074
 5050SOL    HW126783   3.366   3.302   8.610  0.6746 -0.6514 -0.2247
 5050SOL    HW226784   3.455   3.389   8.535  0.1618  0.1311  0.0578
 5051SOL     OW26785   2.532   3.017   7.969 -0.5249 -1.1037 -0.2520
 5051SOL    HW126786   2.599   3.081   7.997 -0.9133 -0.2687 -1.2414
 5051SOL    HW226787   2.454   3.066   7.995  2.0578  3.1367 -0.4131
 5052SOL     OW26788   1.653   0.373  14.057 -0.5595  0.0568  0.0959
 5052SOL    HW126789   1.643   0.445  13.995  1.5810 -1.1567 -1.6593
 5052SOL    HW226790   1.561   0.378  14.084 -0.9384 -2.5700 -0.7095
 5053SOL     OW26791   3.587   2.032   5.255 -0.1613 -0.8356 -0.0795
 5053SOL    HW126792   3.621   2.072   5.336  1.9578  1.2433 -1.9750
 5053SOL    HW226793   3.506   2.076   5.229 -1.0133 -2.3004  0.1194
 5054SOL     OW26794   2.057   1.670   1.472  0.5227  0.6508 -0.1471
 5054SOL    HW126795   2.066   1.596   1.532  0.0447  0.2164 -0.6261
 5054SOL    HW226796   2.129   1.644   1.415  1.4609  1.2154  0.7657
 5055SOL     OW26797   3.985   3.005   9.881 -0.3368 -0.1815 -0.3048
 5055SOL    HW126798   4.036   2.982   9.803  0.2856  2.2546 -0.6299
 5055SOL    HW226799   4.057   2.984   9.940 -0.9151  1.8608  1.1157
 5056SOL     OW26800   1.655   1.040  11.648  0.2756  0.5630  0.1125
 5056SOL    HW126801   1.662   1.097  11.572 -0.9180 -0.3264 -0.6602
 5056SOL    HW226802   1.569   1.007  11.622 -0.3056  0.8310  1.6809
 5057SOL     OW26803   3.051   0.718   2.103 -0.0172 -0.2977  0.3962
 5057SOL    HW126804   2.985   0.689   2.040  2.2441 -1.1237 -1.6026
 5057SOL    HW226805   3.125   0.672   2.063 -0.4838 -0.6254 -0.0881
 5058SOL     OW26806   2.320   0.174  15.808 -0.0972  0.8850  0.1750
 5058SOL    HW126807   2.350   0.084  15.799 -1.9388  0.3505 -0.7134
 5058SOL    HW226808   2.233   0.164  15.769 -0.0828  0.1812  0.3213
 5059SOL     OW26809   1.469   2.501   5.073 -0.2031  0.2028 -0.3019
 5059SOL    HW126810   1.411   2.444   5.125 -0.9735  0.4528 -0.8860
 5059SOL    HW226811   1.406   2.568   5.045 -1.5940 -0.5719  0.9230
 5060SOL     OW26812   2.370   3.278   5.038 -0.7975  0.2172  0.4527
 5060SOL    HW126813   2.298   3.227   5.075  0.9885 -2.5236  0.1469
 5060SOL    HW226814   2.447   3.248   5.086 -0.8822 -1.2074 -0.2772
 5061SOL     OW26815   2.981   0.473   5.022 -0.6008 -0.6688 -0.0496
 5061SOL    HW126816   2.928   0.534   5.074 -0.6407 -0.2382 -0.5917
 5061SOL    HW226817   3.063   0.521   5.011  0.2520 -1.8852  1.0077
 5062SOL     OW26818   4.642   3.390   7.748 -0.3215 -0.1809  0.1291
 5062SOL    HW126819   4.552   3.377   7.778 -0.0804 -0.3048  0.7937
 5062SOL    HW226820   4.678   3.308   7.783 -1.7702 -0.4279  1.0590
 5063SOL     OW26821   0.583   0.712   3.777 -0.5588  0.6533  0.0339
 5063SOL    HW126822   0.544   0.793   3.812 -1.1520 -0.5114  2.1099
 5063SOL    HW226823   0.547   0.707   3.689 -1.4726 -0.1701  0.4500
 5064SOL     OW26824   1.055   4.616   6.740 -0.2054 -0.0678  0.2382
 5064SOL    HW126825   1.087   4.694   6.694  3.2130 -1.1990  0.7088
 5064SOL    HW226826   1.058   4.548   6.673  1.8751  0.1487  0.1055
 5065SOL     OW26827   2.622   0.280  12.860  0.4494 -0.6092 -0.1262
 5065SOL    HW126828   2.702   0.332  12.859  0.6717 -0.9371  0.3783
 5065SOL    HW226829   2.595   0.281  12.769 -0.8816 -0.1098  0.2665
 5066SOL     OW26830   4.029   1.463   9.661 -0.2645  0.1372 -0.5528
 5066SOL    HW126831   3.950   1.517   9.671  1.2618  2.4414 -1.0416
 5066SOL    HW226832   4.014   1.408   9.738  0.6228  0.0206 -0.4685
 5067SOL     OW26833   3.166   3.234   1.592 -0.1655  0.1882 -0.5730
 5067SOL    HW126834   3.231   3.221   1.660 -0.2665 -1.2440 -0.7602
 5067SOL    HW226835   3.100   3.169   1.617  0.9684  0.9342  4.2642
 5068SOL     OW26836   3.799   4.673   9.892 -0.6848 -0.2457 -0.2543
 5068SOL    HW126837   3.894   4.687   9.889 -0.5643 -1.0683 -0.0805
 5068SOL    HW226838   3.781   0.029   9.905 -2.5369 -0.2711 -2.6979
 5069SOL     OW26839   2.162   3.652  15.012  0.1732  1.2028 -0.0671
 5069SOL    HW126840   2.224   3.606  15.068 -0.7329  0.2167  0.1312
 5069SOL    HW226841   2.222   3.676  14.942 -0.0277 -0.4307 -0.7998
 5070SOL     OW26842   2.046   0.875   2.400  0.0223  0.5456 -0.1706
 5070SOL    HW126843   2.053   0.935   2.473 -1.5458  0.3463  0.1358
 5070SOL    HW226844   1.973   0.822   2.432  0.7820  0.2317  1.0268
 5071SOL     OW26845   0.440   1.258   6.302  0.1285 -0.3621 -0.1427
 5071SOL    HW126846   0.483   1.343   6.301  1.9707 -1.2999 -0.3553
 5071SOL    HW226847   0.514   1.198   6.300 -0.7552 -1.5128  1.1825
 5072SOL     OW26848   3.107   0.954   9.260  0.4028 -0.2005  0.1709
 5072SOL    HW126849   3.096   0.872   9.309  1.2243 -0.6458 -0.3699
 5072SOL    HW226850   3.195   0.943   9.224  1.4100  0.1889  2.5173
 5073SOL     OW26851   0.675   1.804   3.348  0.3711 -0.2142 -0.2498
 5073SOL    HW126852   0.609   1.871   3.332 -0.9171 -1.0524  1.5432
 5073SOL    HW226853   0.725   1.824   3.269  0.1414  1.3260  0.0005
 5074SOL     OW26854   4.619   1.274   3.525  0.7869 -0.2338 -0.0007
 5074SOL    HW126855   4.531   1.246   3.503  0.8141  1.2951 -2.0294
 5074SOL    HW226856   4.604   1.354   3.576 -2.4012 -0.9866  0.2225
 5075SOL     OW26857   2.056   0.019   2.272 -0.1305 -0.3551  0.2011
 5075SOL    HW126858   2.033   0.106   2.239  0.8434 -0.1721  0.0051
 5075SOL    HW226859   2.000   4.707   2.213  1.9511 -2.1105 -0.3337
 5076SOL     OW26860   2.417   3.481   8.049  0.7336 -0.1895  0.0768
 5076SOL    HW126861   2.462   3.505   7.969  1.1702 -1.5270 -0.0920
 5076SOL    HW226862   2.371   3.564   8.062  1.8029  0.2319  1.1984
 5077SOL     OW26863   0.442   3.849   5.492 -0.2051 -0.3810  0.5057
 5077SOL    HW126864   0.519   3.842   5.548 -0.9188  0.5357  1.6058
 5077SOL    HW226865   0.431   3.943   5.477  1.0289 -0.1563  1.0584
 5078SOL     OW26866   2.083   1.708  14.706  0.4428 -0.1916  0.0249
 5078SOL    HW126867   2.110   1.758  14.783  0.6453  1.9776 -1.4632
 5078SOL    HW226868   2.033   1.773  14.656  1.1447  0.4695  0.1771
 5079SOL     OW26869   2.298   2.162  15.359  0.1619 -0.7989  0.4060
 5079SOL    HW126870   2.370   2.208  15.400 -0.1232  0.1139 -0.1200
 5079SOL    HW226871   2.249   2.119  15.429 -0.5457 -1.8257 -0.6944
 5080SOL     OW26872   2.240   4.422   9.624  0.1110 -0.2750  0.4568
 5080SOL    HW126873   2.304   4.351   9.632 -0.6354 -0.8059  1.6549
 5080SOL    HW226874   2.218   4.436   9.716 -1.8343  1.0167 -0.2164
 5081SOL     OW26875   4.412   4.577   8.489  0.3731 -0.0779 -0.0127
 5081SOL    HW126876   4.431   4.647   8.551  0.6253 -0.4043  0.2752
 5081SOL    HW226877   4.427   4.624   8.407 -2.7685  0.2524 -0.4254
 5082SOL     OW26878   4.057   4.097   5.089 -0.3196  0.4094  0.3185
 5082SOL    HW126879   4.063   4.017   5.037 -1.0508  0.2763  0.4306
 5082SOL    HW226880   4.096   4.163   5.032  0.2117 -0.8853 -0.8227
 5083SOL     OW26881   3.130   1.750   8.250  0.5632  0.3108  0.0031
 5083SOL    HW126882   3.094   1.662   8.237 -0.3647  0.3199  2.5444
 5083SOL    HW226883   3.051   1.803   8.252  0.1314 -0.4340  2.4711
 5084SOL     OW26884   2.281   2.454  13.070 -0.1221 -0.1866 -0.1846
 5084SOL    HW126885   2.218   2.440  13.141 -0.8864  3.0919 -0.2154
 5084SOL    HW226886   2.289   2.363  13.043  1.8916  0.2376 -0.9619
 5085SOL     OW26887   1.787   2.126   4.655 -0.2440 -0.2587 -0.4697
 5085SOL    HW126888   1.796   2.220   4.670 -0.6975 -0.4499  0.9359
 5085SOL    HW226889   1.692   2.116   4.654 -0.3278  0.5130  0.3638
 5086SOL     OW26890   1.927   0.062   5.304 -0.5221  0.0086 -0.2338
 5086SOL    HW126891   1.912   0.149   5.268 -2.4988  0.3931  1.5313
 5086SOL    HW226892   1.835   0.049   5.330 -0.0130 -0.0266  1.6015
 5087SOL     OW26893   3.300   1.962   4.190 -0.0370  0.2125  0.1347
 5087SOL    HW126894   3.287   1.883   4.242 -1.3643 -0.5757 -1.4319
 5087SOL    HW226895   3.272   2.024   4.258 -1.8078  1.2411 -1.5521
 5088SOL     OW26896   2.437   1.046   6.940  0.5779 -0.3424  0.1090
 5088SOL    HW126897   2.373   1.046   6.869 -0.2845  0.0480  0.8921
 5088SOL    HW226898   2.473   1.133   6.923  1.7543 -1.1831 -1.7201
 5089SOL     OW26899   4.494   4.534   7.163 -0.2126 -0.2498 -0.5370
 5089SOL    HW126900   4.558   4.528   7.091  1.0173 -0.6666  0.5906
 5089SOL    HW226901   4.425   4.577   7.113 -1.5728  0.4437  1.9417
 5090SOL     OW26902   0.030   3.311   6.255  0.4539 -0.3541 -0.4380
 5090SOL    HW126903   4.691   3.357   6.222  0.8551  0.0494 -0.8146
 5090SOL    HW226904   0.040   3.341   6.346 -0.1287  0.4614 -0.6390
 5091SOL     OW26905   1.036   3.298   8.400  0.6525  0.5007 -0.4938
 5091SOL    HW126906   1.077   3.333   8.480  2.0797  1.7747 -1.7614
 5091SOL    HW226907   1.075   3.211   8.401  0.8365  0.5858 -0.1748
 5092SOL     OW26908   4.432   0.094   4.763 -0.1220 -0.2441  0.5114
 5092SOL    HW126909   4.389   0.179   4.767  0.7324  0.2589 -1.1059
 5092SOL    HW226910   4.504   0.127   4.818  1.9561 -1.0901 -1.7110
 5093SOL     OW26911   4.665   1.337  14.708 -0.3346 -0.3269 -0.2268
 5093SOL    HW126912   4.734   1.291  14.660  0.6620 -0.5177  1.4051
 5093SOL    HW226913   4.699   1.425  14.721 -0.2600 -0.2767 -0.7326
 5094SOL     OW26914   1.620   2.716   7.887 -0.8871 -0.1914 -0.5902
 5094SOL    HW126915   1.671   2.796   7.894 -0.6176 -0.3711 -0.4795
 5094SOL    HW226916   1.535   2.728   7.929 -0.8594  2.7509 -1.4326
 5095SOL     OW26917   4.669   4.427   4.425  0.4325  0.5089 -0.7036
 5095SOL    HW126918   0.016   4.393   4.457  1.0288  2.8574  0.2053
 5095SOL    HW226919   4.610   4.357   4.453 -0.1780  0.7441 -1.4079
 5096SOL     OW26920   2.509   0.806   6.113  0.4652 -0.2544  0.0643
 5096SOL    HW126921   2.592   0.770   6.082  1.1018  0.5716  0.8113
 5096SOL    HW226922   2.483   0.733   6.168 -0.0943  0.4247  0.6969
 5097SOL     OW26923   0.785   3.136  12.886  0.0382  0.4715 -0.2708
 5097SOL    HW126924   0.845   3.139  12.960 -0.0158  0.6399 -0.2332
 5097SOL    HW226925   0.706   3.173  12.927  0.5901  1.1018  0.2118
 5098SOL     OW26926   0.646   1.386   9.226  0.3187 -0.2122  0.0183
 5098SOL    HW126927   0.712   1.380   9.296  1.6270 -0.0276 -1.2018
 5098SOL    HW226928   0.600   1.465   9.254 -0.3625  0.0989 -1.9985
 5099SOL     OW26929   2.475   2.065   5.115 -0.4530  0.2024  0.3221
 5099SOL    HW126930   2.471   2.145   5.168 -0.8225  1.0743 -1.0137
 5099SOL    HW226931   2.386   2.069   5.080 -1.0036  0.0730  1.7008
 5100SOL     OW26932   0.215   2.697  14.354 -0.3048 -0.1230 -0.3227
 5100SOL    HW126933   0.293   2.728  14.308  1.0424 -2.2009  0.5965
 5100SOL    HW226934   0.213   2.741  14.439 -2.6718 -1.0194  0.0916
 5101SOL     OW26935   3.610   1.492  12.275 -0.3093 -0.1497  0.2409
 5101SOL    HW126936   3.634   1.584  12.264  3.7507 -1.0591  1.5604
 5101SOL    HW226937   3.569   1.490  12.362 -0.5452 -1.3098  0.1049
 5102SOL     OW26938   0.239   1.192   4.714 -0.5754  0.2189 -0.1276
 5102SOL    HW126939   0.307   1.133   4.747 -0.1317  1.2439  0.8072
 5102SOL    HW226940   0.182   1.142   4.656 -1.8875  1.0779  0.4183
 5103SOL     OW26941   4.515   1.647  13.758  0.5867 -0.0097 -0.4602
 5103SOL    HW126942   4.533   1.697  13.679 -0.3594 -0.4039 -0.9242
 5103SOL    HW226943   4.599   1.610  13.786  0.1913  0.9260  1.9425
 5104SOL     OW26944   1.584   2.442   5.804 -0.1516 -0.6330  0.5626
 5104SOL    HW126945   1.563   2.356   5.841 -0.1897 -0.6132  0.5876
 5104SOL    HW226946   1.679   2.445   5.820  0.4472  2.3676 -3.6052
 5105SOL     OW26947   3.520   0.184   2.368 -0.3998  0.3870 -0.2975
 5105SOL    HW126948   3.595   0.218   2.418  1.3049 -0.7393 -2.1025
 5105SOL    HW226949   3.446   0.198   2.427 -1.0587 -1.1305 -0.7790
 5106SOL     OW26950   1.395   3.572   6.350 -0.1365  0.3052  0.3811
 5106SOL    HW126951   1.472   3.601   6.399  1.4663  1.8940 -3.1257
 5106SOL    HW226952   1.397   3.479   6.374 -1.0841 -0.1277 -1.2245
 5107SOL     OW26953   0.620   3.189   5.067 -0.4671 -0.3212  0.4469
 5107SOL    HW126954   0.570   3.111   5.090  1.7116 -1.8233  0.0541
 5107SOL    HW226955   0.706   3.181   5.109  0.4710 -0.9001 -1.5939
 5108SOL     OW26956   3.310   4.016   3.571 -0.4406 -0.4013 -0.4968
 5108SOL    HW126957   3.332   4.105   3.541 -1.4444 -0.4555 -1.4261
 5108SOL    HW226958   3.224   4.008   3.529 -1.0175 -0.7220  0.7465
 5109SOL     OW26959   4.130   2.519   3.484 -0.5530  0.3341 -0.1160
 5109SOL    HW126960   4.153   2.446   3.427  1.0383 -0.8433  2.0625
 5109SOL    HW226961   4.092   2.577   3.418  0.8055  1.1829 -0.1474
 5110SOL     OW26962   4.233   4.590   2.992 -0.1573  0.2084  0.6525
 5110SOL    HW126963   4.295   4.656   3.021  0.4102  0.2288 -0.6151
 5110SOL    HW226964   4.287   4.518   2.960 -1.1941 -0.9708  1.5486
 5111SOL     OW26965   0.593   4.347  12.131  0.0288 -0.1472 -0.2697
 5111SOL    HW126966   0.517   4.289  12.133  0.4804 -0.7132  0.4622
 5111SOL    HW226967   0.616   4.330  12.222  2.8922 -0.3685 -1.0450
 5112SOL     OW26968   3.792   4.607  10.744 -0.1091  0.4094  0.6918
 5112SOL    HW126969   3.879   4.587  10.710  0.0430  1.3129  0.5426
 5112SOL    HW226970   3.742   4.526  10.732  0.2133  0.4379 -0.9604
 5113SOL     OW26971   4.721   4.259   1.415 -0.3936  0.2006  0.6050
 5113SOL    HW126972   0.024   4.290   1.334 -1.7126 -1.5551 -0.7481
 5113SOL    HW226973   4.633   4.296   1.406 -0.6978 -0.6048  0.1670
 5114SOL     OW26974   1.964   0.514   4.748  0.0006 -0.4183 -0.1645
 5114SOL    HW126975   1.878   0.504   4.790  0.9068 -1.6980  1.3550
 5114SOL    HW226976   1.981   0.605   4.773 -1.2138 -0.8829  2.3398
 5115SOL     OW26977   1.888   1.377   2.257 -0.0626 -0.2172 -0.1759
 5115SOL    HW126978   1.907   1.471   2.266 -0.6221 -0.2723  1.6025
 5115SOL    HW226979   1.927   1.353   2.173  1.4375  1.0120  0.1798
 5116SOL     OW26980   3.185   1.761   6.675  0.6944  0.4022  0.4025
 5116SOL    HW126981   3.093   1.779   6.690  0.9471  0.8202  1.4822
 5116SOL    HW226982   3.202   1.667   6.677  0.9854  0.4474  0.1507
 5117SOL     OW26983   0.229   1.524   6.111 -0.3858  0.5538  0.0120
 5117SOL    HW126984   0.193   1.435   6.118  1.8361 -0.4458 -1.3109
 5117SOL    HW226985   0.309   1.499   6.064 -0.4143 -0.6969  0.6281
 5118SOL     OW26986   1.901   4.102   6.241  0.2343  0.2943 -0.3513
 5118SOL    HW126987   1.850   4.021   6.243  2.2639 -1.0098 -1.6063
 5118SOL    HW226988   1.916   4.109   6.335  0.0150  1.2893 -0.3915
 5119SOL     OW26989   1.756   1.506  12.103  0.3893 -0.0081 -0.3732
 5119SOL    HW126990   1.820   1.553  12.050  1.6258 -2.2626 -0.9017
 5119SOL    HW226991   1.736   1.575  12.166  1.4973  0.0409 -0.0878
 5120SOL     OW26992   0.305   1.689   3.860  0.0424  0.1437  0.7818
 5120SOL    HW126993   0.270   1.741   3.932  1.7622 -1.0422  2.4573
 5120SOL    HW226994   0.224   1.674   3.810  1.9164 -1.9334 -1.6488
 5121SOL     OW26995   0.742   1.868   9.120  0.5156  0.6333 -0.0419
 5121SOL    HW126996   0.650   1.841   9.119  1.4293 -2.3977  0.1580
 5121SOL    HW226997   0.738   1.961   9.096 -1.2127  1.6667  4.2762
 5122SOL     OW26998   2.669   4.165   5.713  0.3360 -0.1306  0.7444
 5122SOL    HW126999   2.731   4.219   5.664  1.3045 -3.2375 -1.4726
 5122SOL    HW227000   2.723   4.124   5.780 -2.1282 -0.3703  2.5888
 5123SOL     OW27001   1.225   1.241   9.010 -0.5044 -0.9930  0.1352
 5123SOL    HW127002   1.136   1.258   9.040 -1.3965  0.1501 -3.1422
 5123SOL    HW227003   1.233   1.295   8.931  0.8406  0.9634  1.6041
 5124SOL     OW27004   3.691   1.710  11.299 -0.4718  0.2370  0.2538
 5124SOL    HW127005   3.685   1.712  11.395 -0.8120 -1.2288  0.2534
 5124SOL    HW227006   3.703   1.804  11.285 -0.7046 -0.5745 -5.2106
 5125SOL     OW27007   1.970   3.164  12.938 -0.2244 -0.2404 -0.4758
 5125SOL    HW127008   1.926   3.107  12.874 -0.2862 -1.6351  0.8083
 5125SOL    HW227009   1.912   3.156  13.014 -1.7967  2.1851 -1.4357
 5126SOL     OW27010   3.783   4.107   5.615 -0.1256 -0.2719  0.7978
 5126SOL    HW127011   3.708   4.160   5.640  0.2348 -0.4338  2.2041
 5126SOL    HW227012   3.783   4.104   5.519 -1.7248 -0.1897  0.7990
 5127SOL     OW27013   0.853   3.022   3.227 -0.1771 -0.7100  0.1155
 5127SOL    HW127014   0.878   3.093   3.168 -0.4841 -0.5464  0.1849
 5127SOL    HW227015   0.912   3.048   3.299  1.4152 -0.1208 -1.4119
 5128SOL     OW27016   4.372   2.022   3.587 -0.7684 -0.4661 -0.6407
 5128SOL    HW127017   4.402   2.052   3.501 -1.1364  1.9256  0.0803
 5128SOL    HW227018   4.277   2.023   3.577 -0.2990 -0.0084 -5.0731
 5129SOL     OW27019   1.414   3.773   5.462  0.2495 -1.0292 -0.3224
 5129SOL    HW127020   1.425   3.846   5.522  0.6534 -2.0486  0.8407
 5129SOL    HW227021   1.470   3.706   5.502  1.3993 -0.6954 -1.3361
 5130SOL     OW27022   2.301   0.506   5.789 -0.2873 -0.2211  0.2109
 5130SOL    HW127023   2.283   0.426   5.837 -1.5838  0.4857  0.9242
 5130SOL    HW227024   2.344   0.462   5.716 -0.2734  0.2857 -0.0914
 5131SOL     OW27025   1.747   4.034   0.788  0.3856  0.3089  0.1905
 5131SOL    HW127026   1.720   3.943   0.791  1.0766  0.1763  2.0313
 5131SOL    HW227027   1.832   4.011   0.824  0.8579 -1.5542 -2.1105
 5132SOL     OW27028   4.427   0.467   6.592  0.1012  0.2836 -0.1512
 5132SOL    HW127029   4.411   0.491   6.501  1.5303 -0.0199 -0.4901
 5132SOL    HW227030   4.521   0.484   6.595 -0.1215  1.5351 -0.1674
 5133SOL     OW27031   4.237   3.806   7.346 -0.5533  0.9756  0.1663
 5133SOL    HW127032   4.265   3.896   7.363  0.2707  1.3482 -3.0606
 5133SOL    HW227033   4.305   3.762   7.396 -2.6001 -1.7170  0.6098
 5134SOL     OW27034   0.824   1.941   4.361 -0.3207  0.9245 -0.8746
 5134SOL    HW127035   0.918   1.942   4.376 -0.5431  0.8498  0.5634
 5134SOL    HW227036   0.807   2.029   4.327 -0.5468 -0.4801 -4.3741
 5135SOL     OW27037   1.055   2.505   4.826  0.0478 -0.0583  0.5855
 5135SOL    HW127038   1.003   2.425   4.835  0.2211  0.2155  4.1221
 5135SOL    HW227039   1.012   2.568   4.884 -0.5732 -1.8427  2.0637
 5136SOL     OW27040   3.449   1.563   8.271  0.4283 -0.0240 -0.0886
 5136SOL    HW127041   3.502   1.568   8.351 -0.8384 -0.5923  0.7950
 5136SOL    HW227042   3.391   1.494   8.302 -1.1690  0.3829 -2.2542
 5137SOL     OW27043   1.246   4.283   5.528  0.1912  0.2908  0.2399
 5137SOL    HW127044   1.290   4.216   5.476  0.4473  0.7144 -0.0933
 5137SOL    HW227045   1.246   4.232   5.609  1.1317 -0.9180 -0.5333
 5138SOL     OW27046   2.416   2.304  14.880  0.1648 -0.5126  0.6225
 5138SOL    HW127047   2.476   2.237  14.848 -0.6384 -0.4347 -1.0493
 5138SOL    HW227048   2.336   2.256  14.903 -0.3878  0.7438  1.3396
 5139SOL     OW27049   3.156   3.662   2.893 -0.1308 -0.1881 -0.3026
 5139SOL    HW127050   3.126   3.753   2.893 -0.0749 -0.1703  0.1973
 5139SOL    HW227051   3.201   3.655   2.809 -0.9175 -0.0256 -0.7483
 5140SOL     OW27052   4.686   1.987   3.370  0.4009 -0.1505  0.1061
 5140SOL    HW127053   4.667   1.908   3.320  0.3840  0.3174 -0.6244
 5140SOL    HW227054   4.677   2.067   3.318  1.7757 -0.0852 -0.0307
 5141SOL     OW27055   3.919   0.097   6.006 -0.0161 -0.0457  0.2112
 5141SOL    HW127056   3.948   0.096   6.097  1.3991 -2.6739 -0.2532
 5141SOL    HW227057   3.832   0.133   6.018  1.2579  3.5122 -1.2988
 5142SOL     OW27058   0.116   2.248   0.361  0.5521  0.4473  0.1211
 5142SOL    HW127059   0.182   2.192   0.400  0.0237 -1.6075 -1.9717
 5142SOL    HW227060   0.089   2.308   0.432 -1.5673 -0.9902  0.5536
 5143SOL     OW27061   0.371   0.038   3.371 -0.1479  0.0669  0.1559
 5143SOL    HW127062   0.447   0.074   3.327  0.0474 -1.1800 -0.5182
 5143SOL    HW227063   0.378   4.685   3.339  0.2457  0.4117 -0.7086
 5144SOL     OW27064   0.864   3.194   3.700 -0.4732  0.6401  0.0434
 5144SOL    HW127065   0.795   3.128   3.698  0.5742 -0.4309 -0.9722
 5144SOL    HW227066   0.938   3.151   3.743  0.0858  0.3065 -1.2401
 5145SOL     OW27067   1.661   0.932   4.687  0.0157 -0.3943  0.5087
 5145SOL    HW127068   1.616   1.016   4.682  0.7843  0.0036  0.2967
 5145SOL    HW227069   1.709   0.941   4.769  0.2476 -2.0546  0.5595
 5146SOL     OW27070   3.853   4.472   2.594 -0.0080  0.3353 -0.1494
 5146SOL    HW127071   3.803   4.553   2.607 -2.3921 -1.3059  0.9312
 5146SOL    HW227072   3.866   4.442   2.684  3.6102 -1.8698 -1.4439
 5147SOL     OW27073   0.670   1.497  14.972 -0.1040  0.0957 -0.0042
 5147SOL    HW127074   0.596   1.470  14.919  0.7495 -0.6821 -0.7923
 5147SOL    HW227075   0.631   1.489  15.059 -2.1272  1.2640 -0.8200
 5148SOL     OW27076   1.976   4.040   7.415 -0.5981  0.0463 -0.0835
 5148SOL    HW127077   1.973   3.965   7.355  0.0391  0.5924 -0.8061
 5148SOL    HW227078   1.904   4.030   7.477  0.1708 -0.3765  0.7344
 5149SOL     OW27079   2.949   4.435   9.090  0.2615 -0.0144 -0.0228
 5149SOL    HW127080   2.866   4.439   9.137 -0.7842 -0.6723 -1.8323
 5149SOL    HW227081   2.920   4.459   9.002 -1.8251  1.3648  1.0459
 5150SOL     OW27082   1.241   4.728   9.713  0.1269  0.6469  0.1429
 5150SOL    HW127083   1.264   4.690   9.798 -2.1540 -1.7467 -0.3064
 5150SOL    HW227084   1.227   4.660   9.647 -1.7697 -0.4001  1.6105
 5151SOL     OW27085   0.265   4.452   8.192 -0.2368  0.3563 -0.4768
 5151SOL    HW127086   0.274   4.397   8.269 -1.4074 -0.3675 -0.8539
 5151SOL    HW227087   0.174   4.482   8.204 -0.1225  1.0149 -1.2686
 5152SOL     OW27088   2.150   2.635   8.354  0.0252 -0.6878  0.8845
 5152SOL    HW127089   2.108   2.572   8.412  0.8289 -0.1704  2.0327
 5152SOL    HW227090   2.203   2.664   8.428 -1.3430  2.1179  0.7654
 5153SOL     OW27091   1.905   0.666   8.631 -0.0522 -0.1511  0.3254
 5153SOL    HW127092   1.902   0.761   8.640 -0.4460 -0.1178 -0.1572
 5153SOL    HW227093   1.997   0.653   8.610 -0.3280 -1.8313  0.1824
 5154SOL     OW27094   3.699   4.669   8.445  0.2174  0.1777 -0.2556
 5154SOL    HW127095   3.638   4.733   8.409 -0.9001 -0.2039  0.9597
 5154SOL    HW227096   3.696   4.701   8.535 -0.5238 -0.9408  0.1209
 5155SOL     OW27097   3.200   3.012   2.370  0.4488 -0.0112 -0.1908
 5155SOL    HW127098   3.160   2.925   2.361 -0.4528  0.6518 -2.6042
 5155SOL    HW227099   3.293   3.003   2.391  0.7954  2.0001 -0.9288
 5156SOL     OW27100   3.861   1.341   4.641  0.1412 -0.2782 -0.4243
 5156SOL    HW127101   3.767   1.321   4.641  0.1945 -0.5272  0.6400
 5156SOL    HW227102   3.896   1.256   4.615  1.5258  0.6711 -1.6566
 5157SOL     OW27103   1.920   1.559  16.163 -0.5094  0.0757  0.2306
 5157SOL    HW127104   1.907   1.469  16.191  2.8182  0.3139  2.5544
 5157SOL    HW227105   1.889   1.540  16.074 -0.7620  3.0435 -0.3261
 5158SOL     OW27106   3.582   0.983   3.593  0.8070 -0.1071  0.4201
 5158SOL    HW127107   3.664   0.997   3.639 -0.6202  3.2303  1.9223
 5158SOL    HW227108   3.583   1.041   3.517  0.1368 -0.6561 -0.0097
 5159SOL     OW27109   1.164   0.238   0.179 -0.2883 -0.2760 -0.0425
 5159SOL    HW127110   1.155   0.240   0.275  0.3333 -0.4557  0.0202
 5159SOL    HW227111   1.083   0.279   0.149 -0.9643 -0.2037  1.8689
 5160SOL     OW27112   3.567   0.487  12.278 -0.0309 -0.1203  0.8362
 5160SOL    HW127113   3.550   0.404  12.322  0.6358 -0.3597  0.6487
 5160SOL    HW227114   3.599   0.540  12.350  0.0335  0.2094  0.5655
 5161SOL     OW27115   3.749   0.379   2.242  0.2445  0.0270 -0.4641
 5161SOL    HW127116   3.715   0.290   2.232 -0.0694  0.1816 -0.7467
 5161SOL    HW227117   3.819   0.384   2.178 -0.3879  2.3912 -0.9439
 5162SOL     OW27118   3.120   1.611   5.993 -0.1736  0.4580  0.2474
 5162SOL    HW127119   3.108   1.602   6.088 -0.1673 -1.8989  0.0440
 5162SOL    HW227120   3.212   1.638   5.986 -0.3075  1.3262  1.7334
 5163SOL     OW27121   1.508   2.144   4.021 -0.2579  0.1854  0.4761
 5163SOL    HW127122   1.480   2.215   4.078  1.9277  1.0576  0.4544
 5163SOL    HW227123   1.434   2.135   3.962 -0.6835  0.1982  1.0015
 5164SOL     OW27124   0.770   2.107   6.707  0.3784  0.0431  0.0306
 5164SOL    HW127125   0.818   2.124   6.625 -0.7849  2.9709 -0.0393
 5164SOL    HW227126   0.731   2.024   6.679 -0.8331  0.2124  1.2586
 5165SOL     OW27127   3.308   3.630   8.437 -0.0381  0.3487  0.4181
 5165SOL    HW127128   3.403   3.637   8.448 -0.0921 -0.9662  1.7919
 5165SOL    HW227129   3.302   3.534   8.440  3.4586  0.2340  4.0444
 5166SOL     OW27130   4.330   1.462  13.869  0.0813  0.2586 -0.5638
 5166SOL    HW127131   4.253   1.487  13.818 -0.4254  0.4236  0.3029
 5166SOL    HW227132   4.383   1.540  13.856  0.6093 -0.4322 -2.6247
 5167SOL     OW27133   0.585   2.326   7.457 -0.9710 -0.2306 -0.1807
 5167SOL    HW127134   0.539   2.410   7.457 -0.8185 -0.1545 -1.9650
 5167SOL    HW227135   0.513   2.263   7.448 -0.0921 -1.2826  0.0838
 5168SOL     OW27136   3.504   1.235  12.784  0.1096 -0.0279  0.1102
 5168SOL    HW127137   3.587   1.276  12.762  0.9511  0.6562  4.4371
 5168SOL    HW227138   3.531   1.188  12.864  0.6744 -0.4800 -0.3490
 5169SOL     OW27139   2.920   0.817   6.393 -0.2901  0.8493  0.4779
 5169SOL    HW127140   2.888   0.864   6.471 -1.9888 -0.5932  0.6595
 5169SOL    HW227141   2.994   0.877   6.381  0.5725 -0.2504  0.2578
 5170SOL     OW27142   0.542   1.333   8.519 -0.1030  0.0700 -0.3547
 5170SOL    HW127143   0.597   1.399   8.563  1.3756 -1.4724  0.1480
 5170SOL    HW227144   0.523   1.375   8.436 -0.7812  1.3388  0.4521
 5171SOL     OW27145   2.497   1.867  13.613 -0.1410 -0.2051  0.1308
 5171SOL    HW127146   2.403   1.869  13.629 -0.5237  0.9655 -2.2061
 5171SOL    HW227147   2.522   1.842  13.702  4.0184 -1.0076 -1.2573
 5172SOL     OW27148   0.822   1.016   1.636  0.7262 -0.0652  0.1805
 5172SOL    HW127149   0.824   0.935   1.584  0.1537  0.0859 -0.0799
 5172SOL    HW227150   0.734   1.046   1.610 -0.3876 -1.5904  2.1829
 5173SOL     OW27151   0.963   0.957   8.719  0.2033 -0.3992 -0.0348
 5173SOL    HW127152   1.047   0.924   8.750 -1.4366 -0.9111  3.8966
 5173SOL    HW227153   0.940   1.009   8.797  0.7976  0.5630 -0.4920
 5174SOL     OW27154   0.216   2.980   4.818  0.4959  0.4252 -0.3643
 5174SOL    HW127155   0.286   3.031   4.777 -1.1958  3.6245  0.6971
 5174SOL    HW227156   0.163   3.046   4.861 -1.5533 -2.7602  1.9803
 5175SOL     OW27157   0.798   4.388  11.997  0.2918 -0.3942  0.4566
 5175SOL    HW127158   0.776   4.295  11.991  2.9901 -1.0236  0.3774
 5175SOL    HW227159   0.727   4.420  12.053 -0.2323  2.2071 -1.6679
 5176SOL     OW27160   1.782   3.042   6.605  0.5736 -0.1582  0.2769
 5176SOL    HW127161   1.869   3.072   6.581  0.6910 -0.6462  0.0949
 5176SOL    HW227162   1.743   3.127   6.623 -1.0011 -0.4992 -1.5294
 5177SOL     OW27163   0.730   2.048   9.427 -0.5354 -0.0391 -0.1914
 5177SOL    HW127164   0.771   2.128   9.460 -1.7432  1.0366 -1.2704
 5177SOL    HW227165   0.758   2.047   9.335  2.0058  0.8533  0.5786
 5178SOL     OW27166   0.904   0.139   7.823 -0.0080 -0.1718 -1.0074
 5178SOL    HW127167   0.829   0.082   7.808  0.6604 -1.1765 -0.5049
 5178SOL    HW227168   0.929   0.108   7.910  1.4532 -2.2772 -2.1661
 5179SOL     OW27169   2.785   3.456   1.273  0.1812  0.0417  0.0806
 5179SOL    HW127170   2.835   3.375   1.277  1.0083  0.5834  0.6144
 5179SOL    HW227171   2.734   3.438   1.353  2.0820 -2.8030  0.6490
 5180SOL     OW27172   1.494   1.844  12.914 -0.1878 -0.2324  0.4561
 5180SOL    HW127173   1.488   1.802  12.828 -1.9987  2.7275 -0.8770
 5180SOL    HW227174   1.520   1.772  12.972 -1.6114  1.6571  3.4725
 5181SOL     OW27175   0.217   3.366   1.233  0.3262  0.1184  0.0352
 5181SOL    HW127176   0.161   3.289   1.239  1.3477 -0.6241 -0.0262
 5181SOL    HW227177   0.258   3.351   1.148  0.0613 -0.3753 -0.0043
 5182SOL     OW27178   3.521   3.922   3.132  1.2453 -0.3492  0.2921
 5182SOL    HW127179   3.497   3.997   3.079  0.8518  1.7626  3.4861
 5182SOL    HW227180   3.479   3.846   3.090  2.1487  0.3982 -1.9764
 5183SOL     OW27181   2.197   1.228   5.561 -0.6885 -0.2484  0.1758
 5183SOL    HW127182   2.218   1.252   5.651  0.2671  0.8911 -0.3455
 5183SOL    HW227183   2.104   1.207   5.563 -0.1654 -2.3736  1.7535
 5184SOL     OW27184   2.559   2.709   3.609 -0.1077  0.1525  0.0990
 5184SOL    HW127185   2.496   2.658   3.559  0.0594 -3.0166  3.1366
 5184SOL    HW227186   2.513   2.716   3.693  0.8814 -0.9112  0.7356
 5185SOL     OW27187   3.445   0.447   1.833 -0.6826  0.0208 -0.5703
 5185SOL    HW127188   3.482   0.500   1.762 -2.2643  1.6174 -0.2186
 5185SOL    HW227189   3.454   0.356   1.807 -0.2702 -0.3007  0.6656
 5186SOL     OW27190   3.305   0.427  11.024  0.2505  0.1542 -0.6879
 5186SOL    HW127191   3.313   0.332  11.025 -0.7526  0.0805 -0.1369
 5186SOL    HW227192   3.264   0.459  11.104 -2.9651 -0.5108 -2.0861
 5187SOL     OW27193   1.884   2.077   4.293  0.3577 -0.1773 -0.0679
 5187SOL    HW127194   1.963   2.110   4.337 -1.2441  1.1675  1.8399
 5187SOL    HW227195   1.873   1.991   4.334  0.4184 -0.9624 -1.7178
 5188SOL     OW27196   2.704   1.133   2.787 -0.5577  0.3006  0.3312
 5188SOL    HW127197   2.764   1.090   2.727  0.0839  0.2802  0.9877
 5188SOL    HW227198   2.636   1.067   2.784  0.1685 -0.4023 -0.4581
 5189SOL     OW27199   1.157   3.057   8.408  0.2265  0.3682  0.0734
 5189SOL    HW127200   1.096   2.990   8.376  0.1157  0.6287 -0.2597
 5189SOL    HW227201   1.238   3.031   8.366 -0.8011 -0.6750 -1.2408
 5190SOL     OW27202   4.363   0.724   5.738 -0.1678  0.1628  0.4063
 5190SOL    HW127203   4.308   0.669   5.794 -0.2775 -0.5619 -0.3995
 5190SOL    HW227204   4.433   0.747   5.798 -1.2529  2.4475  0.7840
 5191SOL     OW27205   2.536   4.310  17.684  0.6893 -0.4951 -0.3475
 5191SOL    HW127206   2.564   4.220  17.698  1.2047 -0.9146 -4.0905
 5191SOL    HW227207   2.461   4.302  17.625 -0.6392  1.3174  1.0940
 5192SOL     OW27208   4.374   4.027   3.682  0.4367 -0.2072  0.5904
 5192SOL    HW127209   4.418   4.109   3.659  0.0756  0.5722  2.7371
 5192SOL    HW227210   4.401   3.967   3.612  1.0008  1.7219 -0.8509
 5193SOL     OW27211   0.036   2.513   3.872 -0.3679  0.2499  0.4184
 5193SOL    HW127212   0.085   2.478   3.797  0.2834  0.6267  0.6681
 5193SOL    HW227213   4.713   2.441   3.891 -0.3460  0.3139  0.7356
 5194SOL     OW27214   1.528   4.383   8.695 -0.0568  0.3503  0.2452
 5194SOL    HW127215   1.483   4.431   8.764 -0.5358 -0.0629  0.2211
 5194SOL    HW227216   1.554   4.304   8.742 -2.9674 -1.1058 -0.5714
 5195SOL     OW27217   2.669   0.098   2.703  0.0215 -0.2991 -0.3321
 5195SOL    HW127218   2.597   0.125   2.646 -1.3295  0.7871  1.8567
 5195SOL    HW227219   2.673   0.007   2.676  0.0024 -0.6900  0.9519
 5196SOL     OW27220   0.519   4.560   2.191  0.4426  0.3525 -0.2590
 5196SOL    HW127221   0.517   4.481   2.137 -1.3461  0.1234  0.1320
 5196SOL    HW227222   0.613   4.572   2.200  0.4532 -1.8575  2.9288
 5197SOL     OW27223   2.718   3.502   1.824 -0.1269  0.4118  0.4556
 5197SOL    HW127224   2.780   3.559   1.868  0.7727  0.0254 -0.3179
 5197SOL    HW227225   2.784   3.436   1.804  0.8171  1.5826 -0.2286
 5198SOL     OW27226   3.029   0.284   8.578 -0.2573 -0.6064 -0.2678
 5198SOL    HW127227   2.962   0.296   8.645  0.4456  2.2701 -0.1041
 5198SOL    HW227228   2.993   0.286   8.490  0.9092  0.1651 -0.7223
 5199SOL     OW27229   2.063   1.249   2.031  0.0624 -0.3551 -0.0811
 5199SOL    HW127230   2.149   1.290   2.030 -0.4726  0.7678 -0.6604
 5199SOL    HW227231   2.088   1.168   2.075  0.2470 -1.6587 -2.5678
 5200SOL     OW27232   3.899   4.298   8.251  0.0004  0.2610  0.3509
 5200SOL    HW127233   3.922   4.386   8.279  0.3696  0.3980 -0.3676
 5200SOL    HW227234   3.917   4.300   8.157  1.7629  1.4062  0.7199
 5201SOL     OW27235   0.909   0.511   2.659 -0.5814  0.0058  0.1810
 5201SOL    HW127236   0.988   0.458   2.672  1.3882  3.2070  1.2514
 5201SOL    HW227237   0.919   0.576   2.728 -0.5517  1.5842 -1.3142
 5202SOL     OW27238   2.996   2.124   6.826  0.4657 -0.3384  0.0363
 5202SOL    HW127239   2.985   2.219   6.839 -0.3526  0.0318 -3.3472
 5202SOL    HW227240   3.059   2.129   6.754  0.6271 -1.2789  0.1194
 5203SOL     OW27241   2.993   0.380  13.594 -0.6123  0.3521  0.3084
 5203SOL    HW127242   3.034   0.344  13.673  1.0334  1.1307 -0.1815
 5203SOL    HW227243   2.942   0.452  13.630 -0.2571  0.6602  0.1849
 5204SOL     OW27244   3.110   4.709   6.360  0.0036 -0.1066  0.6221
 5204SOL    HW127245   3.051   4.683   6.290  1.4890  1.2972 -1.1455
 5204SOL    HW227246   3.194   4.701   6.315 -0.1276  1.5075  0.0801
 5205SOL     OW27247   3.066   1.229  16.985 -0.1992  0.0236 -0.1411
 5205SOL    HW127248   3.033   1.140  16.977 -2.0541  0.8241 -1.3095
 5205SOL    HW227249   3.033   1.268  16.904 -0.0987 -1.0019 -0.6686
 5206SOL     OW27250   4.101   0.245   4.568  0.1838  0.2655 -0.1733
 5206SOL    HW127251   4.136   0.162   4.535 -1.1740  0.0276 -1.0260
 5206SOL    HW227252   4.052   0.276   4.492  1.8518  1.7578 -0.6175
 5207SOL     OW27253   2.688   0.911  15.118  0.2451 -0.4460 -0.5979
 5207SOL    HW127254   2.600   0.873  15.110 -0.9774  1.5759  2.9936
 5207SOL    HW227255   2.683   0.938  15.210  1.0312  1.3560 -1.0723
 5208SOL     OW27256   4.492   0.631  16.813 -0.6733 -0.4517 -0.1837
 5208SOL    HW127257   4.544   0.710  16.801  0.4520 -1.0740  0.5862
 5208SOL    HW227258   4.472   0.598  16.726 -1.3177  2.2038 -1.0344
 5209SOL     OW27259   1.447   1.122   4.009 -0.1734 -0.0101 -0.4087
 5209SOL    HW127260   1.448   1.037   4.054  0.3824  0.0173 -0.3748
 5209SOL    HW227261   1.536   1.154   4.019 -0.1629 -0.2315  0.2269
 5210SOL     OW27262   3.447   1.938  11.569 -0.2886 -0.8937  0.8085
 5210SOL    HW127263   3.509   2.002  11.605 -1.1361  0.7030 -0.5546
 5210SOL    HW227264   3.376   1.937  11.634 -0.9360  1.0803  0.1334
 5211SOL     OW27265   2.660   0.216   4.266  0.1927  0.0837  0.0070
 5211SOL    HW127266   2.720   0.177   4.329  0.3749 -0.5178 -0.5367
 5211SOL    HW227267   2.652   0.148   4.199  0.6920  1.1222 -1.1297
 5212SOL     OW27268   4.603   3.708  15.936  0.3181  0.0219 -0.2522
 5212SOL    HW127269   4.639   3.735  16.020 -0.0112 -1.6472  0.4151
 5212SOL    HW227270   4.617   3.793  15.893 -0.2783  0.3316  0.1713
 5213SOL     OW27271   1.355   2.317  15.572 -0.2264  0.0081  0.4003
 5213SOL    HW127272   1.435   2.344  15.618  2.7006 -2.5360 -3.1966
 5213SOL    HW227273   1.381   2.250  15.510  1.2616 -0.8860  1.9930
 5214SOL     OW27274   2.047   1.690  11.567 -0.0126 -0.1035  0.3386
 5214SOL    HW127275   2.130   1.720  11.605 -0.3653 -1.0155  1.8251
 5214SOL    HW227276   2.072   1.621  11.505 -1.6683  1.3831 -1.9577
 5215SOL     OW27277   0.451   3.575  13.249  0.0152  0.5207  0.1163
 5215SOL    HW127278   0.426   3.552  13.159  1.2080  1.3390 -0.4200
 5215SOL    HW227279   0.388   3.523  13.299 -0.6316  1.0675 -0.1344
 5216SOL     OW27280   0.093   1.529   9.817  0.5929 -0.5942  0.0540
 5216SOL    HW127281   0.135   1.455   9.773  0.5376 -0.6031  0.0169
 5216SOL    HW227282   0.101   1.606   9.762  0.7357  1.1618  2.5254
 5217SOL     OW27283   3.527   1.725  17.232 -0.2469 -0.4032 -0.4728
 5217SOL    HW127284   3.534   1.648  17.290 -0.0903 -0.2473 -0.2825
 5217SOL    HW227285   3.569   1.786  17.293 -0.2596 -3.0657  2.1928
 5218SOL     OW27286   0.770   2.854   0.948  0.5050 -0.6418 -0.3073
 5218SOL    HW127287   0.743   2.946   0.949  1.7664 -0.3221  2.8206
 5218SOL    HW227288   0.682   2.822   0.967 -0.6543  1.6695 -1.7463
 5219SOL     OW27289   1.412   2.233   2.146  0.2559  0.2871  0.1284
 5219SOL    HW127290   1.395   2.246   2.240 -2.2870  1.2385 -0.4735
 5219SOL    HW227291   1.368   2.148   2.142  0.9593 -0.0449 -0.5437
 5220SOL     OW27292   1.447   1.807   8.227 -0.1094 -0.2114  0.2503
 5220SOL    HW127293   1.453   1.727   8.278 -1.2564  0.7875  1.9582
 5220SOL    HW227294   1.469   1.864   8.301  0.3374 -0.5459  0.3719
 5221SOL     OW27295   3.178   1.423   8.058  0.7193 -0.0873  0.2150
 5221SOL    HW127296   3.251   1.379   8.014 -0.7174 -1.7931 -0.4409
 5221SOL    HW227297   3.118   1.352   8.038 -2.3469  1.5532  3.5126
 5222SOL     OW27298   0.140   0.136   2.681  0.1346 -0.4499 -0.2455
 5222SOL    HW127299   0.103   0.197   2.617  0.1049  0.1718  0.3706
 5222SOL    HW227300   0.088   0.058   2.664 -0.2241 -0.5519  1.4098
 5223SOL     OW27301   2.572   1.938   1.363  0.1702  0.1911 -0.1530
 5223SOL    HW127302   2.593   2.022   1.406  1.1417  0.6696 -1.5736
 5223SOL    HW227303   2.622   1.872   1.410  1.0455  1.5418  0.8107
 5224SOL     OW27304   4.607   1.435   3.743  0.1123  0.8349  0.3105
 5224SOL    HW127305   4.635   1.353   3.783  0.1413  0.8222  0.2642
 5224SOL    HW227306   4.606   1.487   3.823 -1.1369  0.7576  0.3375
 5225SOL     OW27307   1.661   1.008  12.338  0.3019  0.2391 -0.2665
 5225SOL    HW127308   1.690   1.063  12.266  0.1611  1.9766  0.9878
 5225SOL    HW227309   1.652   0.921  12.299  0.6496  0.6087 -1.1606
 5226SOL     OW27310   3.125   3.876  15.592 -0.4323 -0.1196 -0.0246
 5226SOL    HW127311   3.090   3.952  15.639 -1.0118  1.1601 -2.5236
 5226SOL    HW227312   3.178   3.916  15.524 -0.0180 -0.9245 -0.1756
 5227SOL     OW27313   0.947   2.370   2.460 -0.3650  0.1859  0.0954
 5227SOL    HW127314   0.957   2.302   2.394  1.2015  1.3273 -0.8436
 5227SOL    HW227315   0.853   2.366   2.478 -0.5396 -2.1963 -1.3913
 5228SOL     OW27316   0.456   0.519   8.046  0.2415 -0.5234  0.2843
 5228SOL    HW127317   0.421   0.567   7.971 -0.4921 -0.9241  0.3668
 5228SOL    HW227318   0.502   0.578   8.106  0.5834  0.3913 -0.8804
 5229SOL     OW27319   2.023   2.425   4.018  0.2220 -0.4643 -0.4481
 5229SOL    HW127320   2.103   2.377   3.997  0.1824 -0.7312  0.0251
 5229SOL    HW227321   1.952   2.389   3.964 -1.4211  1.0212  0.7405
 5230SOL     OW27322   3.544   2.301   8.736 -0.1632 -0.0391  0.0284
 5230SOL    HW127323   3.469   2.264   8.782 -0.4075  0.2504 -0.1341
 5230SOL    HW227324   3.529   2.273   8.646  0.6685  0.3046 -0.2197
 5231SOL     OW27325   3.365   2.231   5.454 -0.0708  0.8326 -0.0970
 5231SOL    HW127326   3.331   2.320   5.443 -0.1415  0.4686 -2.9043
 5231SOL    HW227327   3.362   2.216   5.549  0.3530  0.6041 -0.1201
 5232SOL     OW27328   1.470   1.754   2.808 -0.0852  0.4509 -0.5184
 5232SOL    HW127329   1.428   1.742   2.723  1.8884 -3.5352 -0.9683
 5232SOL    HW227330   1.497   1.662   2.811  3.6367  1.5115 -1.6482
 5233SOL     OW27331   2.586   4.730   9.163 -0.2295  0.1666  0.1945
 5233SOL    HW127332   2.523   0.003   9.235  1.1072 -1.6967  1.6307
 5233SOL    HW227333   2.537   4.681   9.098 -1.5662  1.1801  0.4247
 5234SOL     OW27334   0.124   3.841   6.604 -0.0890 -0.1115  0.5738
 5234SOL    HW127335   0.059   3.891   6.555 -0.4968 -0.4730  0.7470
 5234SOL    HW227336   0.074   3.793   6.669 -3.0059  0.7287 -1.0505
 5235SOL     OW27337   3.079   3.174   5.207 -0.2760 -0.2938 -0.4244
 5235SOL    HW127338   3.075   3.253   5.152  0.4497  2.9843  4.2581
 5235SOL    HW227339   3.134   3.120   5.151 -1.0908  0.3713 -1.8783
 5236SOL     OW27340   0.378   0.989   2.197 -0.1568  0.9934  0.2882
 5236SOL    HW127341   0.373   1.035   2.281 -0.2488  0.3905  0.6113
 5236SOL    HW227342   0.290   0.952   2.192 -0.1289  0.7218  1.9140
 5237SOL     OW27343   1.706   0.104   5.868  0.5970 -0.1851 -0.0476
 5237SOL    HW127344   1.641   0.147   5.812 -1.5393 -2.0039  1.0412
 5237SOL    HW227345   1.666   0.027   5.909  0.7385 -0.1602  0.1383
 5238SOL     OW27346   2.824   1.491   9.022  0.1605  0.4722 -0.0397
 5238SOL    HW127347   2.817   1.421   9.088 -2.0771 -0.6617 -1.4728
 5238SOL    HW227348   2.770   1.558   9.064  0.6453  2.3054 -2.3567
 5239SOL     OW27349   0.345   0.339   7.435  0.1101 -0.1640 -0.5476
 5239SOL    HW127350   0.336   0.333   7.340 -0.8404  0.9907 -0.5414
 5239SOL    HW227351   0.259   0.326   7.473  0.1777 -0.5197 -0.5208
 5240SOL     OW27352   1.425   4.045   4.301 -0.2972  0.3499  0.1365
 5240SOL    HW127353   1.437   3.950   4.298  1.4486  0.5308  1.5151
 5240SOL    HW227354   1.506   4.079   4.336 -0.2082  2.0218 -1.6961
 5241SOL     OW27355   4.153   2.797   2.919  0.0584 -0.2902  0.0765
 5241SOL    HW127356   4.084   2.783   2.854  0.3465  1.0942 -0.5297
 5241SOL    HW227357   4.107   2.863   2.972  2.1040 -0.4652  2.0641
 5242SOL     OW27358   0.840   0.051  13.562  0.1030  0.1084 -0.3833
 5242SOL    HW127359   0.799   0.107  13.497  0.2157 -0.1788 -0.7058
 5242SOL    HW227360   0.782   4.713  13.551  0.6291 -0.7533  2.8511
 5243SOL     OW27361   3.996   1.375   5.723  0.4140 -0.3392 -0.1826
 5243SOL    HW127362   3.908   1.350   5.697  0.5205 -1.1897  0.2766
 5243SOL    HW227363   3.984   1.390   5.817 -1.0640 -0.5192 -0.3426
 5244SOL     OW27364   2.461   2.635  10.721 -0.0151 -0.2189 -0.2091
 5244SOL    HW127365   2.459   2.718  10.672 -1.5384 -0.1689 -0.0658
 5244SOL    HW227366   2.434   2.576  10.650 -3.8163  1.1537  0.0863
 5245SOL     OW27367   2.868   1.657   0.265 -0.4603  0.3421  0.5062
 5245SOL    HW127368   2.942   1.702   0.307 -0.5255 -0.3787  1.4012
 5245SOL    HW227369   2.790   1.700   0.300 -1.4648  1.1542 -2.7329
 5246SOL     OW27370   0.910   4.046  14.538  0.1092  0.2800 -0.3536
 5246SOL    HW127371   0.980   4.059  14.474  0.5067 -0.0650  0.0129
 5246SOL    HW227372   0.917   4.133  14.578  0.0626 -0.0188  0.2896
 5247SOL     OW27373   0.348   2.703   6.171  0.6063  0.2122  0.0749
 5247SOL    HW127374   0.332   2.732   6.261  0.5830  0.7232 -0.0912
 5247SOL    HW227375   0.271   2.648   6.158 -0.1558  1.8142 -2.1319
 5248SOL     OW27376   0.434   3.787   6.944 -0.4013 -0.0239 -0.2060
 5248SOL    HW127377   0.405   3.714   6.889  0.5490 -0.1806 -0.5139
 5248SOL    HW227378   0.521   3.808   6.909 -0.3653 -1.9848 -1.3485
 5249SOL     OW27379   1.038   1.757   2.839 -0.1351  0.2587  0.5762
 5249SOL    HW127380   1.068   1.666   2.832 -0.5157  0.0263  1.9035
 5249SOL    HW227381   1.078   1.796   2.917 -0.8602  2.6403 -0.2331
 5250SOL     OW27382   0.377   0.016   2.046 -0.2374  0.2832 -0.3238
 5250SOL    HW127383   0.431   0.078   2.095  0.6311 -0.3754 -0.4494
 5250SOL    HW227384   0.412   4.670   2.077  2.2621  1.5214  0.2106
 5251SOL     OW27385   3.930   0.735   8.366  0.1882  0.0621 -0.2940
 5251SOL    HW127386   3.951   0.704   8.454 -1.2180 -1.9200 -0.6860
 5251SOL    HW227387   4.017   0.744   8.325 -0.3471  1.8773 -1.0560
 5252SOL     OW27388   3.455   1.988   5.635  0.0851  0.1793 -0.2112
 5252SOL    HW127389   3.390   2.041   5.681 -0.7566 -1.1163  0.0791
 5252SOL    HW227390   3.516   2.052   5.597 -0.8749  1.0606 -0.2815
 5253SOL     OW27391   0.900   1.353  17.565  0.0143  0.1126  0.8199
 5253SOL    HW127392   0.969   1.399  17.518 -1.8357  1.9281 -0.0972
 5253SOL    HW227393   0.949   1.325  17.643  1.2305  1.5980  0.5864
 5254SOL     OW27394   0.935   0.837   3.881  0.2810  0.4242  0.2166
 5254SOL    HW127395   0.909   0.749   3.907  1.5241  0.4002  1.3457
 5254SOL    HW227396   1.030   0.823   3.888  0.1786  1.0637  2.6224
 5255SOL     OW27397   0.700   3.023   2.752 -0.1477  0.0361  0.2317
 5255SOL    HW127398   0.605   3.011   2.761  0.1070 -0.8016  1.8292
 5255SOL    HW227399   0.701   3.036   2.657 -1.1949  0.1309  0.2365
 5256SOL     OW27400   4.016   4.045   2.058  0.9065  0.1795 -0.6298
 5256SOL    HW127401   4.074   3.978   2.096 -1.3436 -1.5374 -0.2223
 5256SOL    HW227402   3.930   4.004   2.068 -0.0408  1.8751 -1.8072
 5257SOL     OW27403   0.520   3.004   0.476 -0.1992 -0.2674  0.1771
 5257SOL    HW127404   0.577   2.927   0.472 -0.3130 -0.3202 -0.4352
 5257SOL    HW227405   0.533   3.043   0.389 -0.0699 -1.4517 -0.3290
 5258SOL     OW27406   4.692   3.840   1.829  0.0201 -0.5052  0.0903
 5258SOL    HW127407   0.038   3.797   1.846 -0.0799 -0.2449  1.2007
 5258SOL    HW227408   4.713   3.932   1.843  1.2633 -0.5669 -1.3677
 5259SOL     OW27409   2.464   3.831   8.400 -0.0465  0.0769  0.1902
 5259SOL    HW127410   2.437   3.872   8.318  1.0284  0.3700 -0.0224
 5259SOL    HW227411   2.555   3.812   8.377 -0.3044 -0.8847 -0.0276
 5260SOL     OW27412   2.520   0.414   4.356 -0.0677 -0.5571 -0.1456
 5260SOL    HW127413   2.594   0.366   4.319 -1.5477 -1.4680 -1.9317
 5260SOL    HW227414   2.452   0.351   4.332 -0.6296 -0.5003  1.2934
 5261SOL     OW27415   3.985   4.492   3.456  0.6570  0.8225 -0.1074
 5261SOL    HW127416   4.028   4.446   3.528 -2.9354 -2.7487 -0.2631
 5261SOL    HW227417   4.045   4.463   3.387  0.5032 -1.0015  0.5496
 5262SOL     OW27418   2.796   4.337   0.688  0.3051 -0.0534 -0.0723
 5262SOL    HW127419   2.881   4.304   0.714  1.1007  1.5392 -0.6733
 5262SOL    HW227420   2.745   4.257   0.705 -1.6945  1.4060  0.7952
 5263SOL     OW27421   3.204   0.799   9.961 -0.4103  0.7855  0.6078
 5263SOL    HW127422   3.154   0.791  10.042  0.8857  0.3640  1.3608
 5263SOL    HW227423   3.287   0.828   9.998 -0.4470  2.5367 -0.7102
 5264SOL     OW27424   0.922   4.604  12.687  0.4240 -0.3661 -0.2803
 5264SOL    HW127425   0.905   4.522  12.734  1.9486 -1.2557 -1.2672
 5264SOL    HW227426   1.012   4.616  12.717  0.2488 -0.8658  0.4687
 5265SOL     OW27427   2.865   1.687  13.054 -0.0906 -0.1863  0.1968
 5265SOL    HW127428   2.803   1.755  13.080 -1.2439 -0.7514 -1.0887
 5265SOL    HW227429   2.811   1.609  13.048 -2.5327  1.4945  0.5192
 5266SOL     OW27430   0.638   4.351  16.912 -0.0010 -0.0999  0.5128
 5266SOL    HW127431   0.613   4.263  16.884  2.8549 -0.9523  0.6574
 5266SOL    HW227432   0.731   4.330  16.925  0.0056  0.5659  1.4983
 5267SOL     OW27433   1.976   1.549   4.051  0.3069  0.2631  0.5471
 5267SOL    HW127434   2.000   1.488   3.981  0.0824 -0.5805  1.2118
 5267SOL    HW227435   1.904   1.597   4.009 -1.2111  1.3701  4.4880
 5268SOL     OW27436   0.497   3.428  15.365  0.1800 -0.1426 -0.1589
 5268SOL    HW127437   0.510   3.334  15.358  0.3400  0.2078 -4.1941
 5268SOL    HW227438   0.519   3.434  15.458  0.6934 -1.1086 -0.2167
 5269SOL     OW27439   2.408   0.951   8.838  0.0350  0.1123  0.0043
 5269SOL    HW127440   2.444   0.863   8.853 -0.4022 -0.1037 -0.1841
 5269SOL    HW227441   2.490   0.988   8.807 -0.0957 -0.8660 -1.5004
 5270SOL     OW27442   2.342   0.886   8.501 -0.1058  0.0040 -0.2860
 5270SOL    HW127443   2.418   0.851   8.548  0.4315  1.5536  0.0023
 5270SOL    HW227444   2.349   0.981   8.512 -0.2880  0.2133 -1.8826
 5271SOL     OW27445   1.989   3.788   7.640  0.3560  0.4081  0.0300
 5271SOL    HW127446   2.049   3.715   7.623 -0.4529 -0.2806  0.0880
 5271SOL    HW227447   1.915   3.780   7.580  0.2221  0.8814  0.1344
 5272SOL     OW27448   1.251   0.621   6.285 -0.2251  0.0824 -0.1014
 5272SOL    HW127449   1.186   0.621   6.354  0.3678  0.7442  0.4561
 5272SOL    HW227450   1.209   0.672   6.216 -0.8158  1.2448  1.1368
 5273SOL     OW27451   2.905   2.229   3.300 -0.8175  0.1870  0.0342
 5273SOL    HW127452   2.996   2.257   3.290 -1.0974  1.5983  1.3764
 5273SOL    HW227453   2.871   2.287   3.368 -1.4412  0.0816 -0.1881
 5274SOL     OW27454   2.625   4.279   4.659 -0.8812  0.4362 -0.2286
 5274SOL    HW127455   2.635   4.319   4.745  0.6825  1.6524 -0.9762
 5274SOL    HW227456   2.624   4.351   4.597 -3.3368  1.0915  0.5757
 5275SOL     OW27457   0.310   3.123  10.714 -0.2820 -0.5133 -0.0548
 5275SOL    HW127458   0.230   3.170  10.735  0.7862  0.2706  2.1547
 5275SOL    HW227459   0.369   3.175  10.768 -1.2047 -0.6320  1.0617
 5276SOL     OW27460   0.359   4.001   9.763 -0.6904 -0.7400 -0.0230
 5276SOL    HW127461   0.342   4.085   9.804 -0.7036 -1.6649  1.8463
 5276SOL    HW227462   0.331   4.015   9.672  1.8279  0.1779 -0.6600
 5277SOL     OW27463   2.927   2.621   6.198  0.3853 -0.0801  0.8247
 5277SOL    HW127464   2.866   2.639   6.270 -2.3953 -2.0863 -1.0356
 5277SOL    HW227465   2.881   2.662   6.125 -1.1817 -2.1527  0.6563
 5278SOL     OW27466   3.510   4.197   5.626 -0.3093  0.2745  0.2177
 5278SOL    HW127467   3.429   4.154   5.597  0.4290  0.2383 -1.8007
 5278SOL    HW227468   3.494   4.281   5.582  0.3318  1.5395  2.3674
 5279SOL     OW27469   0.752   3.338   7.973  0.0927  0.7333  0.1684
 5279SOL    HW127470   0.743   3.246   7.947  2.0985  1.1261 -1.9041
 5279SOL    HW227471   0.723   3.332   8.064  0.7805  1.9628  0.4709
 5280SOL     OW27472   2.782   0.488   4.648 -0.0696  0.8080  0.2606
 5280SOL    HW127473   2.736   0.404   4.653  0.5389  0.4722  0.1960
 5280SOL    HW227474   2.775   0.519   4.738 -0.7660  0.3194  0.3718
 5281SOL     OW27475   3.152   1.367   6.349 -0.5234  0.0288  0.2545
 5281SOL    HW127476   3.202   1.432   6.300 -0.2006  0.2079  0.8108
 5281SOL    HW227477   3.214   1.294   6.355 -2.1495 -1.4746 -1.4732
 5282SOL     OW27478   4.008   3.366   5.117 -0.5919  0.3516 -0.1936
 5282SOL    HW127479   4.055   3.372   5.034  0.9992 -0.2222  0.6647
 5282SOL    HW227480   3.919   3.365   5.083 -0.5695 -0.4985 -0.2154
 5283SOL     OW27481   0.708   4.021   8.592 -0.1903  0.9798 -0.0180
 5283SOL    HW127482   0.679   4.027   8.683 -0.7052 -3.2989  0.0910
 5283SOL    HW227483   0.709   4.114   8.570 -1.6720  1.8499  3.5661
 5284SOL     OW27484   0.179   1.372   3.093 -1.0071 -0.5730 -0.0810
 5284SOL    HW127485   0.239   1.300   3.072  0.0109 -0.0454  1.0073
 5284SOL    HW227486   0.220   1.434   3.033 -3.0168 -1.3655 -2.2614
 5285SOL     OW27487   3.645   2.999   8.231  0.0351  0.3829 -0.0474
 5285SOL    HW127488   3.648   2.906   8.252 -0.3482  0.4328  0.2472
 5285SOL    HW227489   3.575   3.019   8.293 -0.3968 -0.1160 -0.3835
 5286SOL     OW27490   0.478   1.137   0.635  0.0735  0.6394  1.0425
 5286SOL    HW127491   0.555   1.172   0.680  0.4981 -0.8196  1.4576
 5286SOL    HW227492   0.425   1.217   0.631 -0.0730  0.5015  0.2991
 5287SOL     OW27493   0.501   4.306   9.989 -0.1853  0.3148 -0.1463
 5287SOL    HW127494   0.526   4.214  10.000 -0.5642  0.3187  0.7753
 5287SOL    HW227495   0.407   4.292   9.977 -0.5113  1.5221  0.9285
 5288SOL     OW27496   2.721   4.339   6.003  0.4368  0.6578 -0.5176
 5288SOL    HW127497   2.787   4.360   5.937  2.0079 -0.8565  0.5840
 5288SOL    HW227498   2.690   4.427   6.025 -0.8761 -0.6266  2.8642
 5289SOL     OW27499   3.245   3.800  15.948 -0.0225  0.1098  0.1570
 5289SOL    HW127500   3.294   3.877  15.920 -1.7447  0.9095 -0.6847
 5289SOL    HW227501   3.272   3.741  15.878 -3.0895  0.8105 -1.6272
 5290SOL     OW27502   0.455   2.897  10.691  0.6324  0.0431  0.7060
 5290SOL    HW127503   0.520   2.914  10.759  0.7085  0.3892  0.5463
 5290SOL    HW227504   0.395   2.970  10.704 -2.1381 -2.2794  0.9632
 5291SOL     OW27505   3.702   2.227  13.109 -0.1510 -0.8722 -0.2780
 5291SOL    HW127506   3.761   2.214  13.183 -0.6564 -0.7577  0.1469
 5291SOL    HW227507   3.718   2.318  13.083 -1.4299 -0.5675 -0.0143
 5292SOL     OW27508   3.506   2.404  13.914 -0.4124 -0.3192  0.1931
 5292SOL    HW127509   3.472   2.471  13.973  0.6309 -1.6343  2.2759
 5292SOL    HW227510   3.419   2.381  13.879  0.2044 -1.9354 -0.2656
 5293SOL     OW27511   2.654   1.021   8.365 -0.3679  0.1244  0.1302
 5293SOL    HW127512   2.715   0.948   8.363 -3.0075 -2.1021  1.5811
 5293SOL    HW227513   2.696   1.061   8.440 -1.0551 -0.5861  0.8917
 5294SOL     OW27514   0.229   2.523   6.382  0.6946  0.1701  0.0178
 5294SOL    HW127515   0.262   2.579   6.452 -1.8568  0.4735  0.9912
 5294SOL    HW227516   0.220   2.441   6.431  0.3911  1.3314  1.9089
 5295SOL     OW27517   1.356   3.776   4.915  0.3982 -0.0479 -0.8805
 5295SOL    HW127518   1.354   3.765   5.010 -0.3287  0.1192 -0.8756
 5295SOL    HW227519   1.260   3.776   4.911  0.2693  0.4212  1.7880
 5296SOL     OW27520   2.842   2.384   8.621  0.0528  0.2169 -0.1063
 5296SOL    HW127521   2.808   2.472   8.639 -0.6161 -0.2047  0.6897
 5296SOL    HW227522   2.937   2.397   8.626  0.0400  0.8668 -1.5646
 5297SOL     OW27523   2.190   0.705  12.074 -0.5857  0.5303  0.0892
 5297SOL    HW127524   2.100   0.730  12.052 -0.9224  0.2044  1.0825
 5297SOL    HW227525   2.234   0.709  11.989 -0.3160 -0.8700  0.1790
 5298SOL     OW27526   0.242   2.075   7.022  0.1747  0.5522 -0.4806
 5298SOL    HW127527   0.185   2.144   6.987 -0.5508  0.1024 -0.1700
 5298SOL    HW227528   0.184   2.002   7.042 -1.1386  1.5132 -0.7389
 5299SOL     OW27529   3.267   4.700   3.519 -0.0198 -0.0235  0.0010
 5299SOL    HW127530   3.222   4.650   3.452 -0.5691  0.2334  0.1776
 5299SOL    HW227531   3.340   4.641   3.538 -1.4542 -1.1575  1.9841
 5300SOL     OW27532   3.043   0.321   1.826  0.1828 -0.1258 -0.9969
 5300SOL    HW127533   3.133   0.339   1.798  0.0008 -0.2719 -1.6777
 5300SOL    HW227534   3.061   0.332   1.919 -0.5490 -1.5305 -0.7008
 5301SOL     OW27535   1.361   4.145  16.979  0.4210 -0.5081  0.4267
 5301SOL    HW127536   1.456   4.158  16.980  0.5457 -1.3586 -1.5959
 5301SOL    HW227537   1.340   4.195  17.058  1.3230 -0.8623  0.8885
 5302SOL     OW27538   4.561   1.786   9.879 -0.5638  0.4485 -0.1296
 5302SOL    HW127539   4.651   1.795   9.847 -0.2023  2.0361  1.3334
 5302SOL    HW227540   4.551   1.859   9.940  0.8917  0.4948  0.0628
 5303SOL     OW27541   0.163   0.416   8.917 -0.6185 -0.7408  0.2978
 5303SOL    HW127542   0.090   0.435   8.975 -0.7322 -0.4361  0.0598
 5303SOL    HW227543   0.216   0.354   8.966  0.4565 -1.6398 -1.9805
 5304SOL     OW27544   0.678   4.542  13.533  0.0195  0.0415  0.3127
 5304SOL    HW127545   0.750   4.482  13.552  1.3480  1.4651 -0.2456
 5304SOL    HW227546   0.600   4.486  13.528 -1.9211  2.7714  0.5090
 5305SOL     OW27547   1.294   1.047   6.018 -0.3047  0.4980  0.2531
 5305SOL    HW127548   1.198   1.041   6.013 -0.1211 -2.4463  0.2006
 5305SOL    HW227549   1.297   1.138   5.988  0.6228  0.6523  0.8072
 5306SOL     OW27550   2.497   3.116   2.698  0.4230  0.6366  0.1602
 5306SOL    HW127551   2.498   3.130   2.793 -3.0715 -1.0993  0.4526
 5306SOL    HW227552   2.566   3.051   2.687 -1.1411 -0.5951 -2.2843
 5307SOL     OW27553   1.072   1.241   8.708 -0.3122  0.0062 -0.3919
 5307SOL    HW127554   0.981   1.213   8.717  0.1860 -2.2153 -2.0553
 5307SOL    HW227555   1.072   1.330   8.743 -1.8043  0.8459 -2.5331
 5308SOL     OW27556   0.346   1.960   7.385 -0.3355  0.4507 -0.2758
 5308SOL    HW127557   0.281   1.902   7.424 -0.1504  0.4328  0.0036
 5308SOL    HW227558   0.410   1.900   7.347 -1.9581 -1.0999 -0.5642
 5309SOL     OW27559   4.286   2.624   0.359  0.1735 -0.2257  0.3493
 5309SOL    HW127560   4.287   2.719   0.367  1.8121 -0.2176  0.0105
 5309SOL    HW227561   4.380   2.607   0.348 -0.0211 -2.4603  2.2158
 5310SOL     OW27562   0.658   3.292   9.176 -0.0919  0.3043  0.1964
 5310SOL    HW127563   0.661   3.230   9.250 -0.5916  0.5223  0.4014
 5310SOL    HW227564   0.734   3.348   9.190 -0.4957  0.6191  1.1659
 5311SOL     OW27565   4.480   4.490   5.557  0.2664 -0.1038  0.0463
 5311SOL    HW127566   4.524   4.460   5.477  0.6286 -0.9048  0.5438
 5311SOL    HW227567   4.412   4.422   5.561  0.9638 -0.8052 -0.0394
 5312SOL     OW27568   3.907   0.317   5.598 -0.5340  0.6028  0.4094
 5312SOL    HW127569   3.920   0.365   5.515 -2.5088  2.1938  1.0204
 5312SOL    HW227570   3.833   0.259   5.577  0.2859 -0.4761  0.5057
 5313SOL     OW27571   3.152   1.251  15.615  0.2694 -0.3620 -0.3451
 5313SOL    HW127572   3.091   1.320  15.639  1.5198  0.3528  0.7454
 5313SOL    HW227573   3.162   1.185  15.684 -0.8648  0.1182  0.2663
 5314SOL     OW27574   0.099   0.539   2.669  0.1391  0.1849 -0.2362
 5314SOL    HW127575   0.094   0.561   2.576  1.1849  2.5340  0.2717
 5314SOL    HW227576   0.025   0.478   2.677  0.5017 -0.3621 -1.0906
 5315SOL     OW27577   2.969   2.802   1.010  0.5418  0.0587  0.6048
 5315SOL    HW127578   3.037   2.780   1.073  0.1890 -2.4016  0.1387
 5315SOL    HW227579   2.903   2.735   1.027  1.8064 -0.7135  2.4821
 5316SOL     OW27580   3.974   1.580   6.770  0.3695  0.2753 -0.0920
 5316SOL    HW127581   3.935   1.545   6.850  1.1889 -0.6468 -0.0896
 5316SOL    HW227582   3.930   1.664   6.756 -0.4950 -0.5319 -2.3349
 5317SOL     OW27583   2.254   1.762   7.159  0.1494 -0.3765  0.4747
 5317SOL    HW127584   2.277   1.679   7.202 -1.9354 -1.3427 -0.2628
 5317SOL    HW227585   2.340   1.804   7.163 -0.8004  1.3674  2.7170
 5318SOL     OW27586   2.154   1.123   3.978  0.6924  0.5571 -0.0084
 5318SOL    HW127587   2.185   1.032   3.976 -0.3397  0.2041  0.3121
 5318SOL    HW227588   2.064   1.101   4.000  0.6639 -0.5220 -1.1667
 5319SOL     OW27589   0.705   1.459   6.498  0.5147 -0.0794  0.0969
 5319SOL    HW127590   0.795   1.437   6.520  0.0889 -2.1347 -0.2226
 5319SOL    HW227591   0.648   1.430   6.569  1.2440  1.1163  1.1602
 5320SOL     OW27592   2.455   2.980   5.147 -0.7114 -0.0365  0.0901
 5320SOL    HW127593   2.364   3.010   5.157 -1.7946 -2.2052 -3.2998
 5320SOL    HW227594   2.508   3.059   5.141  0.8318 -1.1752 -1.0964
 5321SOL     OW27595   1.730   4.244  13.772  0.1245  0.7686 -0.0463
 5321SOL    HW127596   1.655   4.202  13.814  0.1987  0.4667 -0.2174
 5321SOL    HW227597   1.727   4.325  13.823  0.9688  0.7044  0.0911
 5322SOL     OW27598   2.642   1.858   6.715 -0.4437  0.1605 -0.4106
 5322SOL    HW127599   2.600   1.935   6.676 -0.3610 -0.3908 -1.5813
 5322SOL    HW227600   2.591   1.854   6.796 -0.2381  0.9756 -0.2396
 5323SOL     OW27601   0.565   4.152   7.877  0.6472  0.2347 -0.4463
 5323SOL    HW127602   0.621   4.135   7.802  2.1122 -1.5253  1.0652
 5323SOL    HW227603   0.499   4.216   7.850  0.8600  0.7400  0.2217
 5324SOL     OW27604   2.893   1.265  17.394 -0.8478  0.8684  0.0416
 5324SOL    HW127605   2.987   1.248  17.394 -0.9945  0.1782  2.5509
 5324SOL    HW227606   2.867   1.299  17.308  1.0797  0.4146 -0.7064
 5325SOL     OW27607   0.144   1.369   5.687 -0.4482 -0.4003  0.3006
 5325SOL    HW127608   0.144   1.446   5.744 -1.1703 -0.9019  0.9574
 5325SOL    HW227609   0.075   1.392   5.625  1.5550 -0.6556 -2.0591
 5326SOL     OW27610   2.062   4.376   2.556  0.2017  0.2823 -0.2008
 5326SOL    HW127611   2.155   4.378   2.533  0.1879  0.5155 -0.2456
 5326SOL    HW227612   2.026   4.295   2.521 -1.0623  0.1646  1.3531
 5327SOL     OW27613   3.715   0.765   2.299  0.1317  0.0431  0.3194
 5327SOL    HW127614   3.693   0.672   2.305  0.8184 -0.2527 -1.7508
 5327SOL    HW227615   3.742   0.784   2.389  0.1135  0.7958  0.1602
 5328SOL     OW27616   3.127   2.985  17.445  0.4046  0.0891  0.6262
 5328SOL    HW127617   3.096   3.030  17.366  1.4690 -0.9146 -0.3695
 5328SOL    HW227618   3.217   3.015  17.455  0.0769  2.5293 -3.3356
 5329SOL     OW27619   1.385   4.515   2.134 -0.2140 -0.2422  0.5804
 5329SOL    HW127620   1.464   4.567   2.124 -0.6705  0.4052  0.3572
 5329SOL    HW227621   1.323   4.577   2.096  0.0254  0.8843  2.0416
 5330SOL     OW27622   3.996   4.060   6.206 -0.0573  0.3743  0.4017
 5330SOL    HW127623   4.011   4.072   6.300  0.3864 -1.9135  0.6382
 5330SOL    HW227624   3.987   3.965   6.194  1.8199  0.4435 -1.4240
 5331SOL     OW27625   0.625   0.329   3.085 -0.3419  0.2782 -0.2804
 5331SOL    HW127626   0.640   0.240   3.118 -0.3717  1.0622  1.8150
 5331SOL    HW227627   0.529   0.324   3.085 -0.2937 -0.6180 -1.1144
 5332SOL     OW27628   2.837   3.936  11.154  0.1045 -0.2552 -0.0214
 5332SOL    HW127629   2.904   4.001  11.176 -1.6549  0.7554  2.3833
 5332SOL    HW227630   2.873   3.867  11.209 -1.1589 -0.0764  1.0361
 5333SOL     OW27631   3.873   3.477  10.429 -0.1210 -0.4584 -0.0736
 5333SOL    HW127632   3.908   3.392  10.455 -1.7506 -1.0668  0.1126
 5333SOL    HW227633   3.948   3.518  10.386 -0.4976 -0.1020 -0.3868
 5334SOL     OW27634   2.951   1.827  14.215  0.4377 -0.3994  0.0042
 5334SOL    HW127635   2.900   1.765  14.164  0.2096  0.3386 -0.6591
 5334SOL    HW227636   2.924   1.805  14.304 -1.0980 -1.6635 -0.7742
 5335SOL     OW27637   2.311   1.476  15.020 -0.5023 -0.0203 -0.3854
 5335SOL    HW127638   2.313   1.571  15.014  2.1343 -0.1587 -1.7206
 5335SOL    HW227639   2.406   1.468  15.027 -0.6376  0.0625  1.3557
 5336SOL     OW27640   2.070   1.856   4.540 -0.2979 -0.0345 -0.2634
 5336SOL    HW127641   2.049   1.949   4.533  1.0739  0.1662 -1.5835
 5336SOL    HW227642   1.994   1.817   4.498  1.1571 -2.3180 -0.7783
 5337SOL     OW27643   3.005   0.573  17.569 -0.6916 -0.2904  0.3247
 5337SOL    HW127644   2.964   0.631  17.505 -0.6700  0.1576  0.7166
 5337SOL    HW227645   3.021   0.503  17.506  1.4577  0.3468  0.1402
 5338SOL     OW27646   1.933   4.168   8.672  0.1674  0.1377  0.5236
 5338SOL    HW127647   1.946   4.222   8.750  1.1600  0.3029  0.2510
 5338SOL    HW227648   1.962   4.228   8.603 -1.5153  0.8060  0.4084
 5339SOL     OW27649   0.743   0.132   1.816 -0.2710 -0.3365 -0.4685
 5339SOL    HW127650   0.661   0.175   1.840 -0.7584 -3.0660  2.9141
 5339SOL    HW227651   0.802   0.206   1.824 -0.6750 -0.1174  0.5640
 5340SOL     OW27652   1.392   2.678   9.513  0.1144  0.0569 -0.3239
 5340SOL    HW127653   1.483   2.651   9.501 -0.7249 -1.8356 -2.3190
 5340SOL    HW227654   1.343   2.615   9.460  0.9860 -1.6707  0.9263
 5341SOL     OW27655   2.314   1.144   0.777  0.0735  0.0242 -0.0496
 5341SOL    HW127656   2.304   1.161   0.871  1.1796  1.3625 -0.1751
 5341SOL    HW227657   2.342   1.228   0.739 -0.4373  0.4224  0.4411
 5342SOL     OW27658   3.913   4.710   3.061 -0.2372 -0.3036  0.4356
 5342SOL    HW127659   3.966   0.033   3.112 -1.2962 -0.3045  1.5302
 5342SOL    HW227660   3.879   4.644   3.123 -0.0400  1.7361  2.7082
 5343SOL     OW27661   4.023   3.068   1.301 -0.3729 -0.2775 -0.5078
 5343SOL    HW127662   4.089   3.132   1.276 -0.8659  1.3532  2.3941
 5343SOL    HW227663   4.013   3.034   1.212  0.7165 -1.4982 -0.1643
 5344SOL     OW27664   0.429   1.752  11.496  0.3498 -0.4693  0.2051
 5344SOL    HW127665   0.416   1.846  11.510 -1.5294 -0.3762 -2.1973
 5344SOL    HW227666   0.362   1.731  11.561 -0.4644  1.5028 -0.0015
 5345SOL     OW27667   2.205   1.864  17.513 -0.0984 -0.4502 -0.2257
 5345SOL    HW127668   2.173   1.830  17.429  1.0984  0.2446 -0.9694
 5345SOL    HW227669   2.291   1.822  17.516 -0.0716 -0.1913  2.2715
 5346SOL     OW27670   2.253   0.800   1.740 -0.4394  0.8056 -0.1683
 5346SOL    HW127671   2.288   0.750   1.666 -1.1973 -0.0645  0.0588
 5346SOL    HW227672   2.259   0.891   1.712  1.3369  1.3157  1.8696
 5347SOL     OW27673   3.972   0.680   9.616  0.8317 -0.3565 -0.0973
 5347SOL    HW127674   4.008   0.766   9.597 -0.6200  0.2874  0.0388
 5347SOL    HW227675   4.012   0.646   9.696  3.0689 -1.1839 -1.5739
 5348SOL     OW27676   4.148   4.019   4.265 -0.1944  0.4125 -0.7071
 5348SOL    HW127677   4.139   3.959   4.191  1.2338 -1.4260  0.6236
 5348SOL    HW227678   4.060   4.023   4.301  0.2502  1.3479  0.2959
 5349SOL     OW27679   1.786   2.974   8.148 -0.2157 -0.5268 -0.1321
 5349SOL    HW127680   1.844   3.050   8.138 -0.6388  0.2728  3.5411
 5349SOL    HW227681   1.705   3.017   8.120  0.8740  1.5513 -0.1403
 5350SOL     OW27682   0.870   1.945   1.815  0.4278  0.0114  0.7729
 5350SOL    HW127683   0.777   1.941   1.838  0.3434 -0.4662  0.3593
 5350SOL    HW227684   0.873   1.868   1.757  2.9575 -0.6099  1.7042
 5351SOL     OW27685   2.201   0.284   0.670  0.2207 -0.0951  0.2427
 5351SOL    HW127686   2.202   0.315   0.580  4.7572  0.6247  0.5324
 5351SOL    HW227687   2.116   0.240   0.668  0.1427 -0.0760  2.2209
 5352SOL     OW27688   1.481   0.516  11.879 -0.5345 -0.1983  0.5697
 5352SOL    HW127689   1.424   0.504  11.956 -2.7839  2.5570 -0.6878
 5352SOL    HW227690   1.549   0.569  11.920  0.3605 -1.2315  0.4336
 5353SOL     OW27691   2.919   2.317   7.294 -0.3877 -0.1431 -0.5706
 5353SOL    HW127692   2.965   2.303   7.377  1.7003 -0.6856 -1.8331
 5353SOL    HW227693   2.924   2.229   7.255  0.5667  0.5745 -2.0536
 5354SOL     OW27694   1.145   2.396   6.361 -0.2599 -0.7340  0.0276
 5354SOL    HW127695   1.203   2.366   6.292 -0.1278  0.5587 -0.4281
 5354SOL    HW227696   1.198   2.453   6.416  1.8036 -2.4061 -0.2455
 5355SOL     OW27697   4.253   2.874  15.296 -1.1356  0.6596 -0.0364
 5355SOL    HW127698   4.339   2.909  15.273 -0.8215 -0.7074 -0.9683
 5355SOL    HW227699   4.276   2.822  15.372  1.7744  1.7410 -0.1632
 5356SOL     OW27700   4.694   0.389   1.574  0.1705  0.4964 -0.0444
 5356SOL    HW127701   4.611   0.414   1.533  0.1379  2.0005  0.9429
 5356SOL    HW227702   4.716   0.469   1.622 -1.7766  0.1561  1.4364
 5357SOL     OW27703   0.099   1.170   2.256 -0.2798  0.2129  0.1217
 5357SOL    HW127704   0.026   1.230   2.248  0.9610  1.5363 -1.2223
 5357SOL    HW227705   0.147   1.203   2.332  0.2790 -0.5816  0.1160
 5358SOL     OW27706   4.523   0.315   5.855  0.2034 -0.1514  0.0438
 5358SOL    HW127707   4.458   0.278   5.795 -0.0298  0.2371  0.0549
 5358SOL    HW227708   4.466   0.350   5.923 -0.8954 -2.8390  0.5064
 5359SOL     OW27709   0.897   2.399   4.421  0.4656  0.2767 -0.0365
 5359SOL    HW127710   0.971   2.357   4.465 -0.0440  1.1793  1.7000
 5359SOL    HW227711   0.947   2.466   4.375  0.8949  1.6480  2.4452
 5360SOL     OW27712   3.628   4.343  10.947  0.4928  0.0492  0.1783
 5360SOL    HW127713   3.648   4.255  10.978 -0.6012 -0.2315  0.0597
 5360SOL    HW227714   3.653   4.336  10.855 -3.8830 -0.7401 -0.9369
 5361SOL     OW27715   0.990   3.715   9.020 -0.3499  0.2201  0.2865
 5361SOL    HW127716   0.898   3.741   9.034 -0.9616 -1.0296 -1.4341
 5361SOL    HW227717   1.047   3.742   9.092  1.2329  0.4437 -1.0552
 5362SOL     OW27718   3.411   4.005  15.851  0.1191  0.6827 -0.8080
 5362SOL    HW127719   3.432   4.070  15.919  0.1511 -3.2170  2.9523
 5362SOL    HW227720   3.487   3.950  15.832  0.9296  1.6524 -0.3543
 5363SOL     OW27721   0.309   2.228   7.677 -0.1849  0.7524 -0.5310
 5363SOL    HW127722   0.265   2.145   7.661  2.9825 -0.7447 -1.5178
 5363SOL    HW227723   0.315   2.257   7.586 -1.6459  2.5824 -0.0502
 5364SOL     OW27724   4.406   0.504   4.366 -0.1219 -0.3644  0.1746
 5364SOL    HW127725   4.489   0.543   4.340 -0.1174 -1.5308 -1.5491
 5364SOL    HW227726   4.401   0.423   4.316 -1.0278 -0.6053  0.6420
 5365SOL     OW27727   4.475   0.908   6.976 -0.6440 -0.1295  0.0276
 5365SOL    HW127728   4.456   0.865   6.892 -2.1361  0.2157  0.1776
 5365SOL    HW227729   4.429   0.842   7.029 -1.3582  0.5075  0.2002
 5366SOL     OW27730   0.347   0.046   3.887  0.4575  0.2592 -0.3500
 5366SOL    HW127731   0.314   4.721   3.822 -0.5185  0.0178  0.3862
 5366SOL    HW227732   0.426   4.735   3.911  1.2287  1.0710 -1.2327
 5367SOL     OW27733   3.339   1.548   5.288  0.0776 -0.0183 -0.5808
 5367SOL    HW127734   3.245   1.559   5.273  0.1007  0.2366 -0.5436
 5367SOL    HW227735   3.365   1.542   5.196 -0.9491  1.9163 -0.9871
 5368SOL     OW27736   0.687   1.855   8.695 -0.1095  0.0109 -0.1887
 5368SOL    HW127737   0.768   1.862   8.745  1.4205  0.0480 -2.6915
 5368SOL    HW227738   0.707   1.902   8.614 -0.3405 -0.6906 -0.6454
 5369SOL     OW27739   3.005   4.238   1.726 -0.9735  0.8058  0.0382
 5369SOL    HW127740   2.951   4.246   1.805  0.1636  0.5438  0.8386
 5369SOL    HW227741   2.938   4.243   1.658 -1.3894  0.8245  0.4538
 5370SOL     OW27742   2.635   3.702   2.818 -0.7342  0.4345  0.7351
 5370SOL    HW127743   2.579   3.634   2.779  0.0030  0.7221 -0.8332
 5370SOL    HW227744   2.564   3.767   2.813  0.4315  1.5015 -1.8697
 5371SOL     OW27745   0.979   2.986  16.534 -0.6048  0.4033 -0.0220
 5371SOL    HW127746   0.891   2.997  16.572 -1.1101 -1.4057 -0.6719
 5371SOL    HW227747   0.944   2.954  16.451 -1.3278  0.9002  0.0856
 5372SOL     OW27748   0.036   4.607   2.686  0.1545  1.0932 -0.3773
 5372SOL    HW127749   4.701   4.585   2.628 -1.5894  0.8115  1.8841
 5372SOL    HW227750   0.075   4.521   2.672  0.8308  1.3838 -0.2821
 5373SOL     OW27751   1.522   1.173   8.015 -0.5416  0.1886 -0.0177
 5373SOL    HW127752   1.580   1.147   7.943 -0.7918 -2.1835  0.6321
 5373SOL    HW227753   1.432   1.145   7.998  0.2444 -3.8373  2.4777
 5374SOL     OW27754   2.597   0.638   9.234 -0.1358  0.3705 -0.0951
 5374SOL    HW127755   2.663   0.707   9.239 -0.6145  0.6839  1.7036
 5374SOL    HW227756   2.566   0.616   9.322 -0.3350 -2.4826 -0.8661
 5375SOL     OW27757   1.040   1.628   9.471 -0.1042  0.0740  0.0595
 5375SOL    HW127758   1.117   1.629   9.413 -0.3133  0.1831 -0.2149
 5375SOL    HW227759   1.000   1.704   9.430  1.9331  1.7528  1.1633
 5376SOL     OW27760   3.587   1.685   1.814 -0.4759 -0.6944  0.3119
 5376SOL    HW127761   3.508   1.711   1.767 -1.3001  0.2857  2.2637
 5376SOL    HW227762   3.546   1.649   1.893 -1.4988 -1.8004 -0.7203
 5377SOL     OW27763   2.779   3.961  12.148  0.7451  0.5783 -0.1704
 5377SOL    HW127764   2.794   3.970  12.242  1.4045  0.6738 -0.2862
 5377SOL    HW227765   2.866   3.940  12.115  1.0504 -0.3812  1.2534
 5378SOL     OW27766   4.110   2.670   8.720  0.1568 -0.0276 -0.2237
 5378SOL    HW127767   4.185   2.698   8.667 -0.3011  0.0406 -0.8425
 5378SOL    HW227768   4.141   2.677   8.810 -1.1790  0.5551  0.2077
 5379SOL     OW27769   4.527   1.769  13.326 -0.2568  0.1772 -0.1006
 5379SOL    HW127770   4.472   1.691  13.327 -0.4805  0.3391  1.0526
 5379SOL    HW227771   4.576   1.760  13.245 -0.8330  5.2342 -1.0546
 5380SOL     OW27772   1.568   0.760   5.728  0.0265 -0.2878 -0.1295
 5380SOL    HW127773   1.493   0.772   5.786 -0.0732 -1.0468 -0.1076
 5380SOL    HW227774   1.592   0.853   5.719  0.6510 -0.3952  0.4190
 5381SOL     OW27775   3.036   0.142   5.646  0.1281  0.4919  0.2558
 5381SOL    HW127776   3.018   0.128   5.553  2.5960  0.9828 -0.2835
 5381SOL    HW227777   3.108   0.204   5.643  1.2357 -0.8883 -1.3485
 5382SOL     OW27778   0.461   4.471   4.346  0.2554  0.0026 -0.6442
 5382SOL    HW127779   0.507   4.465   4.430  1.3790  0.8546 -1.2065
 5382SOL    HW227780   0.475   4.563   4.326 -0.5196 -0.0703 -1.5027
 5383SOL     OW27781   2.707   4.170   9.657 -0.1195 -0.2626 -0.2057
 5383SOL    HW127782   2.763   4.139   9.586  2.3472 -0.4013  1.7787
 5383SOL    HW227783   2.707   4.102   9.724 -0.3323  1.1091  1.1857
 5384SOL     OW27784   0.550   1.411   7.601  0.1725  0.2954 -0.2372
 5384SOL    HW127785   0.570   1.364   7.682 -0.8415  1.9782  0.9699
 5384SOL    HW227786   0.631   1.458   7.580  0.6833  0.2248  1.5426
 5385SOL     OW27787   3.210   3.439   5.706 -0.3019 -0.1660 -0.0525
 5385SOL    HW127788   3.196   3.509   5.643 -1.2723  0.2490  0.6362
 5385SOL    HW227789   3.130   3.389   5.691 -0.4229 -0.4296  1.4095
 5386SOL     OW27790   1.430   4.482   4.305  0.3166  0.4604 -0.0306
 5386SOL    HW127791   1.427   4.420   4.379 -0.1611 -2.1317 -2.2125
 5386SOL    HW227792   1.502   4.440   4.258 -0.8795 -0.4694 -1.0615
 5387SOL     OW27793   2.826   1.076  13.084 -0.6766 -0.1119 -0.0823
 5387SOL    HW127794   2.735   1.060  13.108 -0.6463  0.9511  0.8140
 5387SOL    HW227795   2.820   1.140  13.013  0.1066  0.4678  0.3684
 5388SOL     OW27796   3.605   3.189   8.941 -0.0451 -0.0594  0.1200
 5388SOL    HW127797   3.528   3.149   8.983  1.6428 -1.8999  1.4618
 5388SOL    HW227798   3.568   3.267   8.902 -1.0166 -0.0499  1.0361
 5389SOL     OW27799   4.609   1.254   2.002 -0.2067 -0.0611 -0.1939
 5389SOL    HW127800   4.578   1.167   2.028 -2.0630  0.8210  0.5284
 5389SOL    HW227801   4.703   1.243   1.985  0.2890  2.6961  0.9174
 5390SOL     OW27802   4.319   0.366   8.075 -0.1549  0.1287  0.1576
 5390SOL    HW127803   4.238   0.366   8.025  0.5460 -1.8549 -0.9589
 5390SOL    HW227804   4.348   0.458   8.078  0.9033 -0.2524  1.8486
 5391SOL     OW27805   4.002   0.212   7.021 -0.1790  0.5096 -0.4731
 5391SOL    HW127806   4.095   0.191   7.016 -0.2192  0.0485  0.6335
 5391SOL    HW227807   3.980   0.206   7.114 -1.3366 -2.0271 -0.9129
 5392SOL     OW27808   3.825   3.730   3.922 -0.4485  0.1423 -0.0337
 5392SOL    HW127809   3.757   3.663   3.914  0.5731 -1.0510  1.2375
 5392SOL    HW227810   3.900   3.676   3.947  0.1338  1.2280  0.5505
 5393SOL     OW27811   1.346   2.753   7.986 -0.0518  0.1335 -0.4612
 5393SOL    HW127812   1.277   2.798   8.034 -0.6282  0.7012 -1.8158
 5393SOL    HW227813   1.357   2.669   8.030 -1.4458  0.5918  0.7457
 5394SOL     OW27814   1.147   1.436   6.996  0.4547 -0.2863  0.3146
 5394SOL    HW127815   1.236   1.468   6.986 -0.2882  1.0905 -1.8364
 5394SOL    HW227816   1.168   1.360   7.051  1.7232 -1.2152 -1.4812
 5395SOL     OW27817   0.513   3.181   2.247 -0.3773 -0.0908 -0.1296
 5395SOL    HW127818   0.562   3.246   2.198 -1.1007  1.1110  0.7306
 5395SOL    HW227819   0.423   3.213   2.260  0.0316  0.9087  0.2190
 5396SOL     OW27820   4.322   0.887   7.375 -0.1421  0.8307 -0.6000
 5396SOL    HW127821   4.336   0.970   7.420  1.9677  0.1655 -0.0323
 5396SOL    HW227822   4.351   0.830   7.446 -0.0407  1.3077 -0.2548
 5397SOL     OW27823   2.352   0.020   5.141  0.3782 -0.7596  0.0981
 5397SOL    HW127824   2.391   0.080   5.205  0.5688  0.5460 -1.2244
 5397SOL    HW227825   2.315   0.075   5.071  0.6550 -0.9223 -0.1770
 5398SOL     OW27826   0.136   2.333   7.162  0.1991  0.0518 -0.1953
 5398SOL    HW127827   0.041   2.329   7.169  0.2991 -2.2121  0.0816
 5398SOL    HW227828   0.144   2.310   7.069 -2.6263  0.1770 -0.4669
 5399SOL     OW27829   3.998   1.115   4.597 -0.0533 -0.4139 -0.0318
 5399SOL    HW127830   3.998   1.021   4.576 -0.3129 -0.6555  1.0560
 5399SOL    HW227831   4.086   1.142   4.571  0.2736 -1.0089  0.4490
 5400SOL     OW27832   2.269   3.575   0.999  0.1751  0.4181 -0.0630
 5400SOL    HW127833   2.302   3.614   1.080 -0.4776  2.1780 -0.6417
 5400SOL    HW227834   2.175   3.572   1.018  0.5730 -0.3124  1.7298
 5401SOL     OW27835   3.245   0.927   0.094  0.6268 -0.0366  0.5990
 5401SOL    HW127836   3.241   0.842   0.139  0.2600 -0.1402  0.3727
 5401SOL    HW227837   3.154   0.954   0.082  0.3014 -1.2685  0.2143
 5402SOL     OW27838   2.207   0.106   1.648  0.3529  0.1687 -0.0442
 5402SOL    HW127839   2.236   0.103   1.556  0.2872 -1.1325 -0.0191
 5402SOL    HW227840   2.122   0.063   1.640 -0.4340  1.6811  0.2320
 5403SOL     OW27841   1.729   0.501   8.770  0.0505 -0.8671 -0.3210
 5403SOL    HW127842   1.813   0.538   8.743  0.7561 -0.0845  2.9837
 5403SOL    HW227843   1.666   0.569   8.747  0.7490 -0.4170 -0.8919
 5404SOL     OW27844   3.625   2.593   4.065 -0.4404  0.2450 -0.2027
 5404SOL    HW127845   3.586   2.506   4.071 -0.6378  0.5591  2.7217
 5404SOL    HW227846   3.605   2.626   4.152 -0.4621  0.5730 -0.3319
 5405SOL     OW27847   2.128   1.448   5.366 -0.2291 -1.4096 -0.6623
 5405SOL    HW127848   2.200   1.462   5.305  0.2011 -0.0871  0.1630
 5405SOL    HW227849   2.157   1.387   5.433 -0.1884  1.4222  1.8849
 5406SOL     OW27850   3.869   2.238   9.268 -0.1794 -0.0373  0.0910
 5406SOL    HW127851   3.881   2.210   9.177 -1.7336 -0.6005  0.0580
 5406SOL    HW227852   3.932   2.178   9.307 -0.3300 -0.5223 -0.4113
 5407SOL     OW27853   3.068   4.614  13.727 -0.0067 -0.0046  0.2026
 5407SOL    HW127854   3.078   4.524  13.696  0.6261 -0.8700  2.9393
 5407SOL    HW227855   3.068   4.666  13.646 -1.0369  1.2395  1.0092
 5408SOL     OW27856   4.055   1.851   7.261 -0.1980  0.0328 -0.5102
 5408SOL    HW127857   3.978   1.907   7.245 -0.9553 -0.2905  2.0681
 5408SOL    HW227858   4.108   1.876   7.185  1.8063  1.0533  1.2271
 5409SOL     OW27859   2.100   1.201   0.967  0.0580 -0.0730 -0.4929
 5409SOL    HW127860   2.095   1.206   1.062  0.8364 -0.0093 -0.4585
 5409SOL    HW227861   2.149   1.280   0.948 -1.0632  1.0365  1.2973
 5410SOL     OW27862   3.870   3.045   3.793  1.0496 -0.3681  0.6253
 5410SOL    HW127863   3.912   3.085   3.869  1.4902  0.3189  0.0092
 5410SOL    HW227864   3.905   3.103   3.725 -1.7407  0.1677 -0.3551
 5411SOL     OW27865   0.051   4.631   9.824  0.0110  0.3034  0.1720
 5411SOL    HW127866   0.142   4.660   9.822 -0.0664  0.5886  0.9417
 5411SOL    HW227867   0.018   4.652   9.737 -1.4182 -1.8405  0.1965
 5412SOL     OW27868   3.638   4.439   7.989  0.0648 -0.2640  0.4359
 5412SOL    HW127869   3.678   4.507   7.935  0.0970 -0.0183  0.7693
 5412SOL    HW227870   3.565   4.407   7.936  1.3319 -0.1759 -1.3581
 5413SOL     OW27871   1.211   3.072   3.634  0.4016 -0.4779 -0.1263
 5413SOL    HW127872   1.275   3.131   3.594 -1.6452  0.9776 -1.2863
 5413SOL    HW227873   1.257   2.990   3.652  1.9608  0.3430 -0.3690
 5414SOL     OW27874   0.177   0.547  11.928  0.4359  0.2967 -0.0234
 5414SOL    HW127875   0.227   0.545  12.010  1.2762 -2.3293 -0.6054
 5414SOL    HW227876   0.142   0.458  11.927 -1.9083  1.1913  2.4271
 5415SOL     OW27877   0.968   1.303   5.869 -0.1473  0.4923  0.1509
 5415SOL    HW127878   0.963   1.361   5.793  0.4447  0.7832  0.3298
 5415SOL    HW227879   0.895   1.243   5.853 -1.4973  1.1260  3.9379
 5416SOL     OW27880   0.618   0.362   2.788 -0.5342 -0.2793 -0.3212
 5416SOL    HW127881   0.640   0.385   2.878  1.1396 -0.0029 -0.8064
 5416SOL    HW227882   0.556   0.427   2.755 -0.7930 -0.9636 -1.2012
 5417SOL     OW27883   4.238   1.937  13.449  0.0046 -0.9681  0.2938
 5417SOL    HW127884   4.290   2.008  13.409 -0.2514 -0.6939  0.4456
 5417SOL    HW227885   4.239   1.868  13.383  2.4221  1.8023 -2.6178
 5418SOL     OW27886   4.162   1.291  12.525 -0.0712  0.1800 -0.1315
 5418SOL    HW127887   4.076   1.333  12.531 -0.2514 -0.3444  0.7842
 5418SOL    HW227888   4.181   1.280  12.618  0.1018  1.3546 -0.0287
 5419SOL     OW27889   3.188   0.608   4.957 -0.1579  0.3524 -0.3411
 5419SOL    HW127890   3.235   0.653   4.886 -2.0662 -0.7945 -2.3130
 5419SOL    HW227891   3.212   0.672   5.024 -0.7106  1.8644 -1.5844
 5420SOL     OW27892   2.904   1.603   2.899  0.0795  0.0575 -0.3990
 5420SOL    HW127893   2.824   1.565   2.863  0.3290 -2.0001  1.2752
 5420SOL    HW227894   2.963   1.528   2.890 -1.0440 -0.9347  0.6211
 5421SOL     OW27895   1.427   3.842   7.886 -0.4005 -0.3877  0.0561
 5421SOL    HW127896   1.487   3.910   7.915  1.6927 -1.2901 -2.1609
 5421SOL    HW227897   1.382   3.830   7.970 -0.7561  1.7536  0.1737
 5422SOL     OW27898   2.217   3.488   8.786  0.8299 -0.0505  0.5331
 5422SOL    HW127899   2.302   3.528   8.802  2.2862 -2.2405 -1.9287
 5422SOL    HW227900   2.155   3.561   8.798  0.5297 -0.1409 -0.4941
 5423SOL     OW27901   3.765   2.476   9.343  0.7089  0.6071  0.0942
 5423SOL    HW127902   3.856   2.497   9.362  0.5037  0.8540  0.8047
 5423SOL    HW227903   3.772   2.390   9.301 -0.9091  1.5207 -2.1149
 5424SOL     OW27904   0.034   0.101  12.727 -0.8932 -0.1548 -0.3201
 5424SOL    HW127905   0.066   0.191  12.734 -2.7990  0.7012 -2.3251
 5424SOL    HW227906   4.736   0.095  12.638  1.2429 -0.1218 -1.1740
 5425SOL     OW27907   4.579   1.799   0.132 -0.1808 -0.0069 -0.6955
 5425SOL    HW127908   4.484   1.806   0.119 -0.8319 -0.6819  3.8300
 5425SOL    HW227909   4.589   1.889   0.163  2.3368 -0.5573  0.0337
 5426SOL     OW27910   2.966   4.273   4.902  0.4061  0.0192 -0.4902
 5426SOL    HW127911   2.876   4.280   4.934  0.2724  0.7251 -1.0192
 5426SOL    HW227912   2.963   4.281   4.806 -0.8223 -0.4435 -0.4900
 5427SOL     OW27913   3.695   3.348  13.088  0.0375 -0.0351 -0.0856
 5427SOL    HW127914   3.640   3.416  13.049 -0.3312  1.6649  3.3214
 5427SOL    HW227915   3.639   3.272  13.075  0.4507 -0.3858  0.2214
 5428SOL     OW27916   4.311   4.137  12.196 -0.5978  0.1836 -0.2567
 5428SOL    HW127917   4.230   4.188  12.196  0.1305  1.3454 -0.6906
 5428SOL    HW227918   4.377   4.191  12.153  0.7499 -0.4968  0.9746
 5429SOL     OW27919   1.751   1.005   2.603  0.3079 -0.4617  0.0124
 5429SOL    HW127920   1.846   0.998   2.594  0.3390  1.4047 -1.1972
 5429SOL    HW227921   1.718   0.918   2.625 -2.2748  1.0872  2.1633
 5430SOL     OW27922   0.513   2.253  11.443  0.3650  0.0948  0.1991
 5430SOL    HW127923   0.479   2.249  11.354 -0.0088  1.6801  0.2585
 5430SOL    HW227924   0.465   2.332  11.468 -2.7501 -2.1296  1.2240
 5431SOL     OW27925   3.384   0.913  13.322 -0.2723 -0.2213 -0.0966
 5431SOL    HW127926   3.467   0.881  13.357 -0.9941  0.5420  2.3715
 5431SOL    HW227927   3.402   0.909  13.229 -1.1790 -1.1976 -0.2281
 5432SOL     OW27928   1.814   4.195   9.497  0.1480 -0.1406 -0.1083
 5432SOL    HW127929   1.909   4.201   9.495  0.1751 -0.4028  0.3532
 5432SOL    HW227930   1.800   4.106   9.466  1.7610 -0.3868 -0.1191
 5433SOL     OW27931   4.223   3.882   5.492 -0.1974  0.0362  0.1117
 5433SOL    HW127932   4.186   3.927   5.569  0.9952  0.8696  0.1989
 5433SOL    HW227933   4.147   3.891   5.434 -0.3041 -0.2328  0.2105
 5434SOL     OW27934   3.158   4.518   2.271 -0.2912 -0.1943 -0.5858
 5434SOL    HW127935   3.078   4.566   2.247 -0.3913 -0.7688 -1.3715
 5434SOL    HW227936   3.155   4.504   2.366  0.9102  1.8999 -0.2399
 5435SOL     OW27937   3.132   0.526   0.069 -0.0367  0.0399 -0.0931
 5435SOL    HW127938   3.055   0.492   0.114 -0.7647 -0.5469 -1.7858
 5435SOL    HW227939   3.091   0.570  17.743  0.3569  0.6910  0.0679
 5436SOL     OW27940   0.442   3.760   3.589 -0.1643 -0.4978  0.9911
 5436SOL    HW127941   0.418   3.722   3.504  0.3909 -0.9083  1.0166
 5436SOL    HW227942   0.523   3.715   3.612  0.1981  1.4167  3.3813
 5437SOL     OW27943   3.500   1.009  14.358 -0.4438 -0.4109 -0.0803
 5437SOL    HW127944   3.519   1.103  14.364 -0.1546 -0.5620  1.3091
 5437SOL    HW227945   3.440   1.003  14.432  0.1361  0.1138  0.4278
 5438SOL     OW27946   1.768   0.948   2.906 -0.4165  0.2178  0.5423
 5438SOL    HW127947   1.821   1.026   2.887 -0.4971  0.2464  0.4359
 5438SOL    HW227948   1.833   0.880   2.891 -1.5503 -0.5476 -0.9213
 5439SOL     OW27949   4.099   2.517   6.099 -0.6724  0.5658 -0.0667
 5439SOL    HW127950   4.044   2.544   6.172 -1.4831 -2.4158  0.3957
 5439SOL    HW227951   4.110   2.423   6.110  2.1132  1.0670  1.5760
 5440SOL     OW27952   2.833   1.822   8.247  0.3589  0.4591  0.3182
 5440SOL    HW127953   2.741   1.795   8.250  0.2606  0.4906 -2.3908
 5440SOL    HW227954   2.822   1.906   8.203  2.5758  0.4056 -0.3385
 5441SOL     OW27955   1.541   4.702   8.356 -0.2048  0.7711 -0.0024
 5441SOL    HW127956   1.525   4.608   8.346  1.4187  0.3207  1.6695
 5441SOL    HW227957   1.501   4.719   8.441  3.2945  0.7251  1.6618
 5442SOL     OW27958   3.454   1.440  13.416  0.0375 -0.2818 -0.7427
 5442SOL    HW127959   3.470   1.377  13.345  2.8763  0.3369 -0.6554
 5442SOL    HW227960   3.400   1.506  13.372 -0.3794 -0.2334 -0.1564
 5443SOL     OW27961   3.522   1.543   3.091 -0.5271 -0.6069  0.2650
 5443SOL    HW127962   3.491   1.616   3.146 -1.5069 -1.3672  0.7305
 5443SOL    HW227963   3.455   1.539   3.022 -0.8421 -1.8007  0.6440
 5444SOL     OW27964   0.041   3.393   8.312  0.2118 -0.1762 -0.1853
 5444SOL    HW127965   0.039   3.484   8.284  1.0997  0.3879  1.5704
 5444SOL    HW227966   0.125   3.370   8.272  0.8208  0.2680  0.8446
 5445SOL     OW27967   2.925   3.607   6.044  0.8744  1.1325  0.0464
 5445SOL    HW127968   2.996   3.668   6.062  0.6865  1.6172 -0.8688
 5445SOL    HW227969   2.852   3.659   6.079  0.1180 -1.4995  2.4642
 5446SOL     OW27970   2.554   1.372   3.267  0.0222 -0.1337  0.0703
 5446SOL    HW127971   2.592   1.374   3.179 -1.7076  0.3007 -0.6709
 5446SOL    HW227972   2.592   1.290   3.295  1.2784  0.3999 -0.0733
 5447SOL     OW27973   0.961   2.509   7.602 -0.0947  0.1274 -0.0832
 5447SOL    HW127974   0.955   2.511   7.507  0.0539  2.6145 -0.0558
 5447SOL    HW227975   1.036   2.566   7.617 -0.6282  0.9533 -0.5124
 5448SOL     OW27976   0.079   1.061   7.052  0.0318  0.2241 -0.2030
 5448SOL    HW127977   4.729   1.067   7.090 -0.0689  0.1009 -0.4183
 5448SOL    HW227978   0.065   1.069   6.958 -0.4821  0.8865 -0.0628
 5449SOL     OW27979   1.891   3.467   2.334  0.2195 -0.7024 -0.5799
 5449SOL    HW127980   1.898   3.466   2.429 -1.2999  3.1066 -0.4468
 5449SOL    HW227981   1.809   3.516   2.325 -0.6856 -2.1299 -0.2240
 5450SOL     OW27982   2.544   1.520   1.359  0.4265 -0.1432  0.3709
 5450SOL    HW127983   2.506   1.441   1.398 -0.5830  0.7473  1.1936
 5450SOL    HW227984   2.637   1.497   1.357  0.6834  0.8079  1.2990
 5451SOL     OW27985   3.741   0.276   2.500  0.5343  0.2825 -0.6142
 5451SOL    HW127986   3.808   0.334   2.464  1.0294 -0.1673 -0.4363
 5451SOL    HW227987   3.736   0.306   2.591 -1.5409  0.6825 -0.8797
 5452SOL     OW27988   0.458   2.365  12.281 -0.4998  0.5857 -0.1395
 5452SOL    HW127989   0.376   2.315  12.290  0.0351 -0.5999 -1.7068
 5452SOL    HW227990   0.519   2.294  12.261  1.1178  1.6813  0.9666
 5453SOL     OW27991   1.244   4.324   4.589 -0.0646  0.0136 -0.4667
 5453SOL    HW127992   1.194   4.304   4.510  0.5980  3.1188 -1.6766
 5453SOL    HW227993   1.335   4.329   4.560 -0.3796 -2.2569 -1.8167
 5454SOL     OW27994   0.172   3.198   5.260  0.4845  0.2309 -0.0715
 5454SOL    HW127995   0.246   3.214   5.202  2.4456 -0.2207  2.2674
 5454SOL    HW227996   0.138   3.287   5.269  0.1024 -0.2937  3.8586
 5455SOL     OW27997   3.859   4.717   2.319  0.3755 -0.3128  0.2909
 5455SOL    HW127998   3.795   4.679   2.379  0.1054  1.1770  0.9450
 5455SOL    HW227999   3.821   4.687   2.236 -0.3102  1.8858 -0.1638
 5456SOL     OW28000   0.097   3.019   6.268 -0.3207 -0.4546 -0.2879
 5456SOL    HW128001   0.005   2.998   6.280 -0.6101  3.5311  4.7901
 5456SOL    HW228002   0.091   3.113   6.253  1.5432 -0.2073  0.4500
 5457SOL     OW28003   4.672   0.099   1.039  0.4964  0.0686 -0.3610
 5457SOL    HW128004   4.712   0.186   1.050 -0.2112  0.4819 -1.0461
 5457SOL    HW228005   4.586   0.122   1.005 -0.9333 -1.8669  1.9759
 5458SOL     OW28006   4.394   1.432   6.074  0.0181 -0.1251 -0.4975
 5458SOL    HW128007   4.481   1.440   6.113  0.6737  0.0490 -2.0292
 5458SOL    HW228008   4.399   1.410   5.981  0.2449  0.4442 -0.6158
 5459SOL     OW28009   3.357   3.696   2.006  0.3686  0.8734  0.0759
 5459SOL    HW128010   3.347   3.755   1.931 -1.3922 -0.3538 -0.6426
 5459SOL    HW228011   3.443   3.717   2.043  0.4935  1.3666 -0.4823
 5460SOL     OW28012   1.718   4.463   9.432 -0.3078 -0.1950  0.2687
 5460SOL    HW128013   1.798   4.494   9.390 -0.0183 -1.0529  0.1817
 5460SOL    HW228014   1.742   4.378   9.469  0.3402 -1.3912 -2.9040
 5461SOL     OW28015   3.467   2.998   2.403 -1.4099 -0.4268  0.8326
 5461SOL    HW128016   3.562   3.012   2.396 -1.9650  1.1296 -3.3738
 5461SOL    HW228017   3.464   2.904   2.386  0.9499 -0.3520  0.0415
 5462SOL     OW28018   3.116   0.699   2.409  0.4811  0.5708 -0.3584
 5462SOL    HW128019   3.092   0.697   2.316  0.2247  1.3131 -0.3030
 5462SOL    HW228020   3.130   0.793   2.418 -1.8436  0.8463  0.2667
 5463SOL     OW28021   3.154   1.087  17.275 -0.0654 -0.7348 -0.0325
 5463SOL    HW128022   3.164   1.080  17.370 -1.4646  0.0478  0.1740
 5463SOL    HW228023   3.178   1.177  17.256  1.7720 -0.9362  1.3929
 5464SOL     OW28024   1.255   1.503   6.596  0.5790 -0.3134  0.2750
 5464SOL    HW128025   1.345   1.473   6.595  1.0201  0.9326  2.5570
 5464SOL    HW228026   1.268   1.590   6.557  0.2240  0.6398  2.2655
 5465SOL     OW28027   0.436   0.110   2.783  0.1068 -0.3712 -0.0657
 5465SOL    HW128028   0.446   0.205   2.792 -1.7587 -0.3989  2.2980
 5465SOL    HW228029   0.346   0.096   2.753 -1.1961  1.9064  2.8844
 5466SOL     OW28030   1.036   3.967   5.609  0.2394  0.3192  0.0827
 5466SOL    HW128031   1.123   3.939   5.638 -1.2283 -2.9518  1.3578
 5466SOL    HW228032   1.066   4.017   5.533 -0.4305  1.4542  0.5748
 5467SOL     OW28033   2.013   1.346   7.750 -0.2151  0.1030  0.0998
 5467SOL    HW128034   2.026   1.438   7.727  0.2236  0.3074  1.1572
 5467SOL    HW228035   1.948   1.324   7.683  0.3011  2.0363 -1.0383
 5468SOL     OW28036   1.161   0.702   7.833 -0.0729  0.0639 -0.5254
 5468SOL    HW128037   1.116   0.763   7.890 -1.8149 -0.1799 -1.6328
 5468SOL    HW228038   1.181   0.628   7.890 -0.1156  1.3657  1.1885
 5469SOL     OW28039   3.620   4.695   2.453  0.2954  0.2006 -0.8725
 5469SOL    HW128040   3.661   4.728   2.533  1.4567 -1.3753 -0.8167
 5469SOL    HW228041   3.590   0.035   2.405  0.5122  0.6985 -0.1963
 5470SOL     OW28042   1.094   2.772   8.962 -0.0987  0.1231  0.0748
 5470SOL    HW128043   1.070   2.810   8.876 -0.7047 -2.2158 -0.7895
 5470SOL    HW228044   1.176   2.816   8.982  0.3041 -0.2984 -0.6372
 5471SOL     OW28045   0.632   1.157   7.925  0.1210 -0.1343 -0.0827
 5471SOL    HW128046   0.595   1.125   8.008 -2.2844  0.2860 -0.9895
 5471SOL    HW228047   0.551   1.167   7.875 -0.3722  2.1897  1.1611
 5472SOL     OW28048   2.082   0.398  12.229  0.9042 -0.6011 -0.1762
 5472SOL    HW128049   2.033   0.352  12.298 -0.1775  1.3148  0.3449
 5472SOL    HW228050   2.137   0.328  12.193  2.7350  1.1419 -0.7721
 5473SOL     OW28051   1.358   4.536   5.651 -0.0054  0.0206 -0.2727
 5473SOL    HW128052   1.355   4.595   5.576 -0.4995  0.1185 -0.1767
 5473SOL    HW228053   1.329   4.453   5.613 -0.8461  0.2146 -0.0485
 5474SOL     OW28054   2.582   4.317   7.940  0.0392  0.1677  0.1980
 5474SOL    HW128055   2.521   4.272   7.881  1.2486  0.0562 -0.9776
 5474SOL    HW228056   2.613   4.254   8.005  0.7140  1.2503  0.9267
 5475SOL     OW28057   1.056   3.198   7.941 -0.2350  0.3040  0.0479
 5475SOL    HW128058   1.017   3.281   7.970  0.9913  0.9926 -0.2856
 5475SOL    HW228059   0.987   3.134   7.956  1.7010 -1.4729  1.3459
 5476SOL     OW28060   0.323   2.553   4.314  0.0044  0.6112 -0.4358
 5476SOL    HW128061   0.259   2.584   4.377 -1.0184  0.3801 -1.3520
 5476SOL    HW228062   0.275   2.575   4.234  1.7558  1.8474 -1.1341
 5477SOL     OW28063   4.717   2.692  14.237  0.1383 -0.1913 -0.3262
 5477SOL    HW128064   4.703   2.607  14.194  0.2240 -0.8730  0.9933
 5477SOL    HW228065   0.065   2.678  14.278 -0.0469  0.1063  0.1692
 5478SOL     OW28066   4.725   2.714  11.870 -0.5456  0.1531 -0.1031
 5478SOL    HW128067   4.699   2.783  11.809 -0.7126 -1.2201 -1.5875
 5478SOL    HW228068   0.065   2.752  11.912 -1.9811 -0.7912  3.4230
 5479SOL     OW28069   1.103   1.487   8.079  0.2223 -0.1216  0.6599
 5479SOL    HW128070   1.166   1.545   8.036 -0.2959 -0.0350  0.0061
 5479SOL    HW228071   1.143   1.466   8.163  1.6070  3.4867  0.9095
 5480SOL     OW28072   4.074   2.798   5.502  0.3616 -0.2012  0.1758
 5480SOL    HW128073   4.157   2.810   5.547  0.9756 -0.5446 -0.8752
 5480SOL    HW228074   4.055   2.717   5.548 -1.5153 -0.0191 -0.2756
 5481SOL     OW28075   1.760   4.007   7.578  0.0992 -0.1565 -0.2478
 5481SOL    HW128076   1.798   4.063   7.646  1.4253  0.7655 -1.7437
 5481SOL    HW228077   1.673   4.045   7.567  0.0235 -0.5148 -0.8733
 5482SOL     OW28078   3.085   3.616  13.316  0.0431  0.4543 -0.1241
 5482SOL    HW128079   3.152   3.675  13.282 -0.0144 -1.0838 -2.9150
 5482SOL    HW228080   3.099   3.630  13.410  2.1066  1.2362 -0.5524
 5483SOL     OW28081   1.252   1.887   0.748 -0.1523  0.8561  0.3916
 5483SOL    HW128082   1.247   1.802   0.705  0.5851  0.7619  0.4941
 5483SOL    HW228083   1.234   1.869   0.841  2.7014  1.8545  1.1420
 5484SOL     OW28084   4.398   2.643   6.705  0.1644  0.1411  0.2068
 5484SOL    HW128085   4.369   2.600   6.625  0.0236  3.9341 -1.7718
 5484SOL    HW228086   4.388   2.572   6.768 -0.1236 -0.1961 -0.2248
 5485SOL     OW28087   3.618   0.584  17.247 -0.0925  0.5322 -0.1700
 5485SOL    HW128088   3.667   0.503  17.262 -0.8451  0.0356 -0.3833
 5485SOL    HW228089   3.537   0.573  17.297 -0.5490  0.2195 -0.9828
 5486SOL     OW28090   3.782   2.095   9.658  0.5230  0.4376  0.0085
 5486SOL    HW128091   3.808   2.015   9.611  1.4410  1.0120 -0.4524
 5486SOL    HW228092   3.860   2.147   9.641  1.8924 -1.2031  1.2994
 5487SOL     OW28093   3.954   0.146  10.103 -0.3269  0.5355  0.6256
 5487SOL    HW128094   3.982   0.114  10.189  1.8207 -1.1327 -0.6765
 5487SOL    HW228095   3.862   0.149  10.128 -0.6310 -3.4048 -0.0237
 5488SOL     OW28096   1.900   1.883   4.793  0.5616 -0.4914  0.0079
 5488SOL    HW128097   1.854   1.960   4.761  0.4564 -1.2937 -1.7423
 5488SOL    HW228098   1.839   1.870   4.867  0.9642  1.3844  0.6635
 5489SOL     OW28099   2.779   0.331   1.489  0.2268 -0.5074  0.3098
 5489SOL    HW128100   2.723   0.360   1.418 -1.1856 -2.7618  0.5106
 5489SOL    HW228101   2.749   0.245   1.519  2.8888 -0.9272  1.8048
 5490SOL     OW28102   0.699   1.005   2.873 -0.0439  0.4154  0.7544
 5490SOL    HW128103   0.622   1.003   2.930 -0.6395 -2.2957 -0.1172
 5490SOL    HW228104   0.674   0.932   2.816 -0.2136 -0.0439  1.4154
 5491SOL     OW28105   1.915   1.841   2.421  0.1246 -0.0837  0.5216
 5491SOL    HW128106   1.998   1.793   2.414 -0.3877 -0.8499 -0.2840
 5491SOL    HW228107   1.934   1.891   2.500  0.5464  0.9182 -0.2217
 5492SOL     OW28108   0.955   0.184   5.485  0.3699 -0.2330 -0.0483
 5492SOL    HW128109   1.045   0.213   5.497  0.3274 -1.5892  3.6195
 5492SOL    HW228110   0.952   0.165   5.392 -1.4002 -1.5230  0.2621
 5493SOL     OW28111   1.496   2.668  11.691 -1.1530  0.0232 -0.1560
 5493SOL    HW128112   1.498   2.598  11.626  0.1270  0.9275 -1.0917
 5493SOL    HW228113   1.573   2.645  11.742 -1.0739  1.9556  0.6062
 5494SOL     OW28114   0.234   4.242   3.179 -0.3503  0.1436 -0.0940
 5494SOL    HW128115   0.213   4.324   3.135  1.7924  0.3208 -0.7802
 5494SOL    HW228116   0.204   4.185   3.108 -0.8840  1.0943 -0.6318
 5495SOL     OW28117   1.510   2.977  14.031 -0.0563  0.1981  0.2337
 5495SOL    HW128118   1.540   3.002  14.119  2.1962 -0.9706 -0.1892
 5495SOL    HW228119   1.544   2.888  14.020 -0.5948  0.3018 -2.2890
 5496SOL     OW28120   2.603   1.909   3.656  0.2991 -0.5928  0.0679
 5496SOL    HW128121   2.607   1.966   3.580 -0.0210  1.7084  1.7647
 5496SOL    HW228122   2.509   1.914   3.675  0.5399  1.7633  0.7054
 5497SOL     OW28123   1.502   3.863   9.963  0.2560  0.1642  0.3295
 5497SOL    HW128124   1.453   3.839   9.884  0.0740 -2.2803  1.1934
 5497SOL    HW228125   1.569   3.911   9.914  1.9233 -2.0784  0.4189
 5498SOL     OW28126   1.624   0.236   7.958  0.1439  0.2817  0.0802
 5498SOL    HW128127   1.621   0.325   7.924 -0.0554  0.4977  0.6864
 5498SOL    HW228128   1.530   0.229   7.972  0.3736 -1.6009  0.7480
 5499SOL     OW28129   4.215   2.408   9.280  0.1122 -0.2252 -0.2339
 5499SOL    HW128130   4.250   2.482   9.230 -2.5291  0.9003 -0.4093
 5499SOL    HW228131   4.229   2.340   9.214  0.4323  1.2430 -1.6765
 5500SOL     OW28132   2.496   3.957   5.687  0.7107 -0.0388 -0.0712
 5500SOL    HW128133   2.515   3.944   5.595  1.8331 -1.1318  0.3093
 5500SOL    HW228134   2.562   4.024   5.706 -0.4585  0.9212  0.6568
 5501SOL     OW28135   2.409   0.486   1.587 -0.0368  0.4064 -0.1420
 5501SOL    HW128136   2.383   0.397   1.565  1.7918 -0.0735 -0.3511
 5501SOL    HW228137   2.426   0.523   1.500  0.3392  0.7293  0.0702
 5502SOL     OW28138   1.051   0.585   6.466 -0.1348 -0.1752 -0.0163
 5502SOL    HW128139   0.960   0.608   6.448  0.0197 -0.5514 -1.2393
 5502SOL    HW228140   1.039   0.522   6.537 -0.9278 -0.0956 -0.0812
 5503SOL     OW28141   3.021   2.138   0.927  0.1310  0.1903 -0.0983
 5503SOL    HW128142   3.094   2.156   0.985 -0.7540  1.2712  0.6717
 5503SOL    HW228143   3.072   2.124   0.847  0.5430  1.3860 -0.0377
 5504SOL     OW28144   0.600   3.988   4.259 -0.6206 -0.4512 -0.3250
 5504SOL    HW128145   0.531   3.928   4.286  1.2292 -1.4000  2.3008
 5504SOL    HW228146   0.551   4.065   4.230  0.9881  0.3415 -0.9677
 5505SOL     OW28147   3.291   1.371   8.423 -0.1491  0.2234 -0.0861
 5505SOL    HW128148   3.301   1.301   8.359 -0.9047  0.0435  0.0028
 5505SOL    HW228149   3.340   1.330   8.494 -1.6966 -2.6135 -0.6907
 5506SOL     OW28150   0.574   1.239   2.298 -0.0052  0.1882  0.6073
 5506SOL    HW128151   0.540   1.216   2.384  0.5868 -0.7787  0.5836
 5506SOL    HW228152   0.638   1.300   2.334  0.6194  0.4546 -0.9591
 5507SOL     OW28153   2.059   2.176   1.689  0.3838 -0.0106  0.2399
 5507SOL    HW128154   2.126   2.198   1.624 -0.6197  0.7980 -0.5299
 5507SOL    HW228155   2.115   2.141   1.758 -0.1950 -2.1080 -0.3649
 5508SOL     OW28156   4.109   2.655   7.793 -0.2070 -0.5974  0.4273
 5508SOL    HW128157   4.092   2.564   7.771 -1.2157 -0.5035  0.7981
 5508SOL    HW228158   4.017   2.682   7.801  0.7511  3.0825 -0.8928
 5509SOL     OW28159   2.090   0.577  11.181 -0.1523 -1.1609 -0.3934
 5509SOL    HW128160   2.055   0.556  11.094  0.9448 -0.4568 -1.0090
 5509SOL    HW228161   2.037   0.652  11.205 -0.0977  0.0379 -3.9931
 5510SOL     OW28162   4.725   0.692  11.769 -0.4553 -0.1213 -0.4548
 5510SOL    HW128163   0.043   0.656  11.838 -1.6550  1.2262  1.2295
 5510SOL    HW228164   0.038   0.661  11.694  1.8241  0.9669  0.6653
 5511SOL     OW28165   3.488   0.230  16.651  0.1807  0.6905 -0.0427
 5511SOL    HW128166   3.506   0.140  16.623  0.0264  0.1446  1.6212
 5511SOL    HW228167   3.577   0.265  16.663  0.7418  0.0634 -2.3454
 5512SOL     OW28168   2.885   2.211   2.374 -0.0183 -0.3001 -0.3747
 5512SOL    HW128169   2.847   2.134   2.333  0.2752 -1.4903  1.5987
 5512SOL    HW228170   2.832   2.199   2.453 -0.1320 -2.7152 -0.8270
 5513SOL     OW28171   0.902   3.957  11.384  0.0066  0.6663  0.1697
 5513SOL    HW128172   0.984   4.005  11.380 -0.6294  1.8545  1.3792
 5513SOL    HW228173   0.878   3.986  11.472  2.7675 -0.2626  1.2274
 5514SOL     OW28174   4.668   0.823  14.682  0.0020 -0.2959 -0.5742
 5514SOL    HW128175   4.642   0.776  14.603 -1.7024  0.5317 -0.4988
 5514SOL    HW228176   0.025   0.815  14.695  0.0463 -0.3071 -0.8975
 5515SOL     OW28177   3.766   2.715  10.288  0.1422 -0.7478 -0.1655
 5515SOL    HW128178   3.824   2.642  10.307  0.7122 -0.4749 -0.8866
 5515SOL    HW228179   3.820   2.786  10.253  0.4173 -0.2840  1.2024
 5516SOL     OW28180   2.396   3.579   5.661 -0.1856 -0.1513 -0.0107
 5516SOL    HW128181   2.359   3.574   5.573 -1.8252  0.7243  0.6451
 5516SOL    HW228182   2.334   3.526   5.710 -0.8974  1.2746  0.6085
 5517SOL     OW28183   2.873   0.228   4.986  0.4348 -0.3072 -0.2277
 5517SOL    HW128184   2.818   0.251   4.912 -0.3462  1.2673  0.8591
 5517SOL    HW228185   2.929   0.305   4.983  0.4418 -0.2965  0.1125
 5518SOL     OW28186   0.903   0.766  16.399  0.9413  0.2353  0.0407
 5518SOL    HW128187   0.928   0.780  16.308  0.7234  0.9782  0.0919
 5518SOL    HW228188   0.825   0.715  16.378  2.6879 -1.8086 -1.4214
 5519SOL     OW28189   2.082   4.286   3.417  0.6119 -0.0254  0.1865
 5519SOL    HW128190   2.099   4.202   3.460 -0.8559 -1.2227 -1.5612
 5519SOL    HW228191   2.087   4.355   3.483  1.2578 -1.4705  1.6731
 5520SOL     OW28192   2.091   3.693   0.734  0.2290 -0.1495 -0.1970
 5520SOL    HW128193   2.088   3.617   0.677  1.5137 -0.1721 -0.2488
 5520SOL    HW228194   2.024   3.741   0.685 -0.0959  0.7352  1.1162
 5521SOL     OW28195   0.853   3.289  12.165 -0.0002  0.1343  0.0505
 5521SOL    HW128196   0.909   3.302  12.088 -2.2498  2.0247 -1.2436
 5521SOL    HW228197   0.918   3.254  12.226 -0.8850 -0.8652  0.4218
 5522SOL     OW28198   4.321   3.878   5.172 -0.3817 -0.8412  0.1432
 5522SOL    HW128199   4.281   3.931   5.241 -0.2115  0.9753 -1.1585
 5522SOL    HW228200   4.412   3.909   5.173 -0.4122 -0.7149 -1.1124
 5523SOL     OW28201   0.158   3.497  11.007 -0.4381  0.2066 -0.1355
 5523SOL    HW128202   0.215   3.492  10.931  1.3492 -1.0419  1.2810
 5523SOL    HW228203   0.207   3.437  11.063 -2.1414 -0.1686  0.9677
 5524SOL     OW28204   2.890   0.751  17.406 -0.0900 -0.3231  0.7803
 5524SOL    HW128205   2.932   0.825  17.362 -2.3509  0.0088 -0.8294
 5524SOL    HW228206   2.809   0.788  17.440 -0.8588 -0.8764 -0.4519
 5525SOL     OW28207   0.330   2.578   6.625  0.0419 -0.3578 -0.0322
 5525SOL    HW128208   0.404   2.633   6.650 -0.2569 -0.5014  1.2056
 5525SOL    HW228209   0.354   2.509   6.687 -1.8508 -1.2751 -0.3022
 5526SOL     OW28210   1.111   0.320   8.596  0.1804 -0.0069  0.0871
 5526SOL    HW128211   1.067   0.394   8.555 -2.7251 -1.5264  0.4487
 5526SOL    HW228212   1.171   0.286   8.529  0.2779  1.4321 -0.5377
 5527SOL     OW28213   3.378   3.767   4.042 -0.2168  0.0325  0.1143
 5527SOL    HW128214   3.418   3.731   4.121 -0.1878  0.9194  0.5125
 5527SOL    HW228215   3.458   3.788   3.994 -0.3065  0.0394 -0.0330
 5528SOL     OW28216   2.112   0.656  17.716 -0.5266  0.0268 -0.4936
 5528SOL    HW128217   2.055   0.635  17.642  0.2223 -0.8671 -0.8047
 5528SOL    HW228218   2.064   0.729   0.007 -1.7443 -0.3296 -1.3066
 5529SOL     OW28219   1.564   3.898   2.911 -0.4081  0.6536 -0.1275
 5529SOL    HW128220   1.634   3.838   2.936 -1.0777 -1.1054 -2.5085
 5529SOL    HW228221   1.586   3.918   2.820  0.8923 -0.3821 -0.0429
 5530SOL     OW28222   2.795   2.346  14.162  0.0570 -0.4761  0.0556
 5530SOL    HW128223   2.810   2.436  14.132 -1.5333  0.1729  1.2112
 5530SOL    HW228224   2.699   2.353  14.163  0.0228 -0.9328  0.0399
 5531SOL     OW28225   2.230   2.561  16.691  0.7487  0.5527 -0.3196
 5531SOL    HW128226   2.273   2.505  16.625  1.3573 -0.6112  1.0720
 5531SOL    HW228227   2.176   2.617  16.635  1.2464  0.8858 -0.4637
 5532SOL     OW28228   1.991   4.016   3.278 -0.5783 -0.0618 -0.8948
 5532SOL    HW128229   1.938   4.095   3.288 -0.0469  0.2506 -0.6024
 5532SOL    HW228230   2.069   4.038   3.329 -1.0414 -0.3546 -0.0492
 5533SOL     OW28231   3.921   0.586   6.097 -0.2888 -0.5735  0.3923
 5533SOL    HW128232   3.993   0.585   6.160 -0.5231  1.5273  0.6990
 5533SOL    HW228233   3.875   0.667   6.120 -1.1101 -0.4415 -1.7294
 5534SOL     OW28234   0.858   0.568   8.048 -0.3454 -0.3711 -0.8610
 5534SOL    HW128235   0.841   0.628   8.121  2.3278 -1.5070  0.6744
 5534SOL    HW228236   0.949   0.540   8.049  0.0681  0.9734 -1.3624
 5535SOL     OW28237   1.276   4.317   1.283 -0.2122 -0.5236  0.5252
 5535SOL    HW128238   1.263   4.331   1.377 -0.9464  0.7589  0.2307
 5535SOL    HW228239   1.221   4.389   1.252  0.1680 -0.8993 -0.9777
 5536SOL     OW28240   3.874   2.146   5.283  0.8281  0.1433 -0.4773
 5536SOL    HW128241   3.833   2.061   5.268  1.1857 -0.1160 -0.0008
 5536SOL    HW228242   3.922   2.167   5.203  0.4205  0.5134 -0.6213
 5537SOL     OW28243   3.972   0.104   5.177  0.1671  0.1024  0.1725
 5537SOL    HW128244   3.970   0.110   5.272 -1.1661  1.6526  0.0360
 5537SOL    HW228245   3.969   0.011   5.156  2.8949 -0.4798  2.3732
 5538SOL     OW28246   4.685   4.621   1.822  0.5460  0.8272  0.0709
 5538SOL    HW128247   4.697   4.609   1.728 -0.4784 -0.3720  0.1068
 5538SOL    HW228248   4.728   4.706   1.834 -1.1365  1.5375  0.9628
 5539SOL     OW28249   3.700   3.974   4.643  0.1026  0.7679  0.7240
 5539SOL    HW128250   3.678   4.051   4.592 -0.8955 -0.7152 -1.0714
 5539SOL    HW228251   3.686   3.916   4.569  1.1929  0.2382  0.9268
 5540SOL     OW28252   4.729   1.968   6.610  0.0930  0.4818  0.4071
 5540SOL    HW128253   4.722   1.981   6.705  0.6948 -2.2589  0.8318
 5540SOL    HW228254   4.640   1.970   6.576  0.5281 -1.7275 -0.8291
 5541SOL     OW28255   2.131   4.365   7.251 -0.8998 -0.3242 -0.1281
 5541SOL    HW128256   2.168   4.430   7.190 -0.1130  0.4169  1.1478
 5541SOL    HW228257   2.072   4.415   7.307 -2.6918  0.0458 -2.3626
 5542SOL     OW28258   0.622   2.828   2.472  0.0709  0.2243 -0.1373
 5542SOL    HW128259   0.531   2.858   2.464 -0.0940 -0.4432 -0.7135
 5542SOL    HW228260   0.667   2.913   2.478  1.6819 -0.7212  1.0469
 5543SOL     OW28261   3.696   2.043   6.153 -0.1834 -0.3362  0.5040
 5543SOL    HW128262   3.721   2.120   6.205  2.4109 -1.0038  0.2080
 5543SOL    HW228263   3.612   2.071   6.116 -0.1200  0.8086  1.2252
 5544SOL     OW28264   0.741   3.760   6.271  0.8434 -0.8071 -0.1670
 5544SOL    HW128265   0.826   3.805   6.277  0.8734 -1.0704  1.3251
 5544SOL    HW228266   0.699   3.812   6.202 -0.9610 -0.6773  1.0199
 5545SOL     OW28267   4.177   3.349   1.945 -0.0860  0.0166 -0.7562
 5545SOL    HW128268   4.127   3.298   1.881 -0.9754  2.2618 -1.8624
 5545SOL    HW228269   4.111   3.413   1.973  1.5399  1.9567 -1.3319
 5546SOL     OW28270   3.072   4.015   3.413 -0.6335 -0.2136  0.2140
 5546SOL    HW128271   3.008   3.949   3.439 -1.9307  1.8737  2.2410
 5546SOL    HW228272   3.115   3.966   3.342 -0.9053 -2.1601  1.4059
 5547SOL     OW28273   1.918   2.273  15.561  0.0691 -0.2433 -0.2900
 5547SOL    HW128274   1.886   2.363  15.559 -1.6773 -0.8913 -1.4391
 5547SOL    HW228275   1.964   2.276  15.477 -0.0434 -1.1087 -0.3753
 5548SOL     OW28276   3.908   0.666  10.584 -0.3674 -0.3539 -0.0791
 5548SOL    HW128277   3.825   0.619  10.576 -0.8938  0.4163  0.7992
 5548SOL    HW228278   3.884   0.727  10.654 -0.3313  1.0782 -1.3328
 5549SOL     OW28279   1.565   1.749   4.729 -0.1592 -0.1603 -0.2795
 5549SOL    HW128280   1.558   1.804   4.651  2.2294 -0.5692 -0.7648
 5549SOL    HW228281   1.472   1.738   4.751 -0.4003 -2.3757 -2.4509
 5550SOL     OW28282   3.320   2.828   3.139  0.3290 -0.1302 -0.0560
 5550SOL    HW128283   3.247   2.774   3.107  0.9984 -0.8799 -0.3202
 5550SOL    HW228284   3.326   2.789   3.227 -1.1430 -1.0551 -0.3629
 5551SOL     OW28285   1.795   0.020   8.267  0.3535  0.2505 -0.0199
 5551SOL    HW128286   1.711   0.026   8.313 -0.4286 -1.8299 -1.1474
 5551SOL    HW228287   1.855   0.077   8.314  0.5967 -0.2387  0.2603
 5552SOL     OW28288   2.100   0.615   9.312  0.3366 -0.0291  0.6020
 5552SOL    HW128289   2.172   0.552   9.319  0.7740  0.6665  2.1490
 5552SOL    HW228290   2.074   0.589   9.223  0.2143  0.7843  0.3996
 5553SOL     OW28291   2.290   3.139  14.915  0.0155  0.1207  0.9919
 5553SOL    HW128292   2.335   3.070  14.965 -0.5937  0.0668  1.4589
 5553SOL    HW228293   2.341   3.137  14.833  1.0141  1.4130  1.5827
 5554SOL     OW28294   4.465   1.875  10.152 -0.0439 -0.5008 -0.4684
 5554SOL    HW128295   4.544   1.832  10.185 -0.3748  0.9722  2.2316
 5554SOL    HW228296   4.402   1.802  10.159  2.8666 -2.7251  2.6098
 5555SOL     OW28297   2.530   0.538  15.101 -0.1454  0.3034  0.0739
 5555SOL    HW128298   2.533   0.511  15.193 -1.5222 -0.7795 -0.1978
 5555SOL    HW228299   2.560   0.453  15.067  0.4984  0.5563  0.0068
 5556SOL     OW28300   1.772   1.665   3.031  0.4876  0.2559  0.5530
 5556SOL    HW128301   1.823   1.600   2.982 -0.5626  0.1753 -0.4190
 5556SOL    HW228302   1.750   1.624   3.114 -0.9611  0.3717  0.2292
 5557SOL     OW28303   4.228   2.253   5.777  0.5879  0.5434  0.0822
 5557SOL    HW128304   4.285   2.294   5.712 -2.4724 -0.4514 -3.1907
 5557SOL    HW228305   4.295   2.235   5.843  0.9499  0.8356 -0.2059
 5558SOL     OW28306   0.407   4.290   2.056  0.1841 -0.0456 -0.8491
 5558SOL    HW128307   0.479   4.294   1.993  1.1109 -2.8571  0.0034
 5558SOL    HW228308   0.410   4.197   2.081 -2.5702 -0.0533 -0.6308
 5559SOL     OW28309   4.268   4.731   1.650  0.0653  0.1962  0.1572
 5559SOL    HW128310   4.308   0.079   1.668 -0.4187  0.3094  0.6767
 5559SOL    HW228311   4.209   0.031   1.585  0.0021 -2.4810 -1.3499
 5560SOL     OW28312   3.473   3.043   9.704 -0.3238 -0.0460 -0.2096
 5560SOL    HW128313   3.475   3.057   9.798  0.0226  0.9321 -0.3600
 5560SOL    HW228314   3.541   2.976   9.695  0.3925  0.7439 -0.7329
 5561SOL     OW28315   2.069   0.098   7.597 -0.1002  0.4243  0.3723
 5561SOL    HW128316   2.113   0.028   7.549  2.9274  1.1658  2.0860
 5561SOL    HW228317   2.086   0.061   7.684  1.9496  2.6427  0.9026
 5562SOL     OW28318   1.347   2.453  13.181  0.1379  0.1966 -0.2330
 5562SOL    HW128319   1.439   2.476  13.178  0.4417 -0.9661 -0.0542
 5562SOL    HW228320   1.317   2.472  13.270  1.2287  0.0539  0.1598
 5563SOL     OW28321   4.700   0.999   8.262 -0.0633  0.5972  0.1133
 5563SOL    HW128322   4.658   0.918   8.234  1.2303 -1.0558  2.9114
 5563SOL    HW228323   4.651   1.065   8.214 -1.0063 -0.0775  0.1578
 5564SOL     OW28324   2.086   4.658   1.891 -0.8875 -0.2428  0.3128
 5564SOL    HW128325   2.153   4.713   1.931 -1.2989  0.7867 -0.4328
 5564SOL    HW228326   2.143   4.585   1.867 -0.2676  0.3273  0.0542
 5565SOL     OW28327   3.698   0.548   1.987 -0.0740  0.2614  0.8243
 5565SOL    HW128328   3.612   0.525   1.953 -0.1931  1.4622  0.3028
 5565SOL    HW228329   3.681   0.642   2.000  0.7619  0.6264 -0.7475
 5566SOL     OW28330   2.365   3.707   4.151  0.1645 -0.4437  0.1639
 5566SOL    HW128331   2.419   3.633   4.127  0.6614  0.3184 -1.0322
 5566SOL    HW228332   2.430   3.771   4.180 -0.2467 -0.4481  1.1258
 5567SOL     OW28333   2.561   1.099   3.886  0.8929  0.2998  0.1917
 5567SOL    HW128334   2.525   1.178   3.846  1.0673  0.7718  0.9565
 5567SOL    HW228335   2.610   1.143   3.955  2.1855  0.0782 -0.5787
 5568SOL     OW28336   2.690   2.326   6.116  0.0890 -0.7120  0.0139
 5568SOL    HW128337   2.758   2.355   6.176  0.3052 -1.0756 -0.0557
 5568SOL    HW228338   2.617   2.301   6.173  0.2410 -1.2306 -0.0246
 5569SOL     OW28339   0.268   1.563   4.398  0.3652 -0.2966 -0.0982
 5569SOL    HW128340   0.263   1.655   4.424  0.0102 -0.6618  1.1324
 5569SOL    HW228341   0.288   1.511   4.476  0.2227 -0.9805 -0.5179
 5570SOL     OW28342   2.912   1.859   9.291 -0.0105  0.1000  0.0257
 5570SOL    HW128343   2.914   1.922   9.219  2.3807  1.0974  0.9563
 5570SOL    HW228344   3.000   1.824   9.279  0.0770 -0.1929  1.4595
 5571SOL     OW28345   0.312   1.607   7.718  0.6650 -0.0933 -0.2038
 5571SOL    HW128346   0.263   1.591   7.799  0.5770 -1.1968 -0.4638
 5571SOL    HW228347   0.361   1.525   7.711  0.2108 -0.2814 -1.2560
 5572SOL     OW28348   0.391   4.119   7.508  0.3209 -0.1007 -0.1291
 5572SOL    HW128349   0.343   4.041   7.480 -1.5143  0.5315  1.2378
 5572SOL    HW228350   0.474   4.111   7.462  0.4051  3.4203 -0.5522
 5573SOL     OW28351   1.565   1.979   4.513  0.0781 -0.5422  0.4182
 5573SOL    HW128352   1.535   1.985   4.422  0.0552  0.6002  0.5038
 5573SOL    HW228353   1.515   2.042   4.564  0.1122  0.9309 -1.3529
 5574SOL     OW28354   1.516   1.483   9.037  0.6139 -0.0910  0.2514
 5574SOL    HW128355   1.534   1.437   9.119 -0.0798 -0.0171  0.4443
 5574SOL    HW228356   1.556   1.428   8.970  1.2542  0.6116  0.0550
 5575SOL     OW28357   2.765   1.234   6.713  0.1434  0.1975 -0.3959
 5575SOL    HW128358   2.781   1.146   6.747 -3.7926 -0.6643 -0.7038
 5575SOL    HW228359   2.857   1.260   6.706  0.8571 -1.7719  1.9808
 5576SOL     OW28360   4.091   0.402  10.055 -0.1315 -0.2374  0.1309
 5576SOL    HW128361   4.142   0.427  10.133 -1.0630  1.3944  0.2029
 5576SOL    HW228362   4.074   0.309  10.072  2.8511 -0.6153  1.0602
 5577SOL     OW28363   2.086   1.609   6.991 -0.1677 -0.2566 -0.3114
 5577SOL    HW128364   2.118   1.691   7.029 -2.9148 -0.0804  1.6045
 5577SOL    HW228365   2.039   1.571   7.065 -0.0452 -1.6562 -0.9390
 5578SOL     OW28366   1.302   1.244   1.092  0.4538  0.1073  0.0383
 5578SOL    HW128367   1.266   1.155   1.093  1.1451 -0.1678  0.5335
 5578SOL    HW228368   1.387   1.219   1.127 -0.2428  0.3006  1.8913
 5579SOL     OW28369   0.992   2.828  13.684  0.1861  0.6618 -0.4202
 5579SOL    HW128370   0.903   2.793  13.679  0.1929  0.8296 -1.6909
 5579SOL    HW228371   0.977   2.903  13.627  2.9020  1.6126  0.1176
 5580SOL     OW28372   2.263   1.644   1.297  0.1997 -0.4883  0.2949
 5580SOL    HW128373   2.330   1.578   1.283 -1.1181 -1.4112 -1.5884
 5580SOL    HW228374   2.267   1.686   1.211  0.7274 -0.9020  0.1196
 5581SOL     OW28375   4.464   2.735   5.816 -0.4370 -0.1743 -0.0423
 5581SOL    HW128376   4.517   2.659   5.794 -2.7176 -2.0101  0.7791
 5581SOL    HW228377   4.385   2.696   5.854 -0.4675  1.6432  1.8001
 5582SOL     OW28378   3.627   0.070   5.150 -0.2622  0.2366  0.6272
 5582SOL    HW128379   3.651   0.007   5.218  0.3581  1.3632  1.4489
 5582SOL    HW228380   3.597   0.150   5.194  3.1277  1.6326  0.3659
 5583SOL     OW28381   2.391   1.562  16.764  0.5088  0.3636 -0.9842
 5583SOL    HW128382   2.370   1.648  16.801 -0.1147 -0.3772  0.3517
 5583SOL    HW228383   2.419   1.574  16.673 -0.7731 -1.7420 -1.6461
 5584SOL     OW28384   2.367   1.129   4.221  0.5058 -0.3073  0.0832
 5584SOL    HW128385   2.325   1.206   4.180 -0.1385 -0.6147  0.1730
 5584SOL    HW228386   2.403   1.084   4.144 -0.0419  0.9750 -0.9292
 5585SOL     OW28387   0.053   0.813   4.627 -0.0957 -0.2688  0.1527
 5585SOL    HW128388   0.022   0.857   4.548  0.3028  0.8550  0.6157
 5585SOL    HW228389   0.042   0.880   4.695 -1.6400 -0.6927  0.3211
 5586SOL     OW28390   2.870   0.989   1.351 -0.1731  0.2586 -0.3691
 5586SOL    HW128391   2.877   0.906   1.303  0.0838 -0.6338  1.1891
 5586SOL    HW228392   2.950   1.034   1.327  0.2416 -0.8854 -1.1600
 5587SOL     OW28393   2.533   4.164   7.114 -0.2125  0.2842 -0.2801
 5587SOL    HW128394   2.470   4.143   7.045 -1.0834 -0.4301  0.7316
 5587SOL    HW228395   2.566   4.248   7.081 -1.0789 -0.1775 -2.3238
 5588SOL     OW28396   3.517   4.631   8.143  0.1660 -0.8228  0.7063
 5588SOL    HW128397   3.459   4.568   8.187  0.2660 -0.5825  1.1855
 5588SOL    HW228398   3.561   4.569   8.085  3.7227  0.3580  2.1440
 5589SOL     OW28399   2.338   0.844  13.419 -0.2277  0.0118  0.1931
 5589SOL    HW128400   2.278   0.808  13.485 -1.7793  0.7467 -0.8156
 5589SOL    HW228401   2.281   0.827  13.344  1.1311  1.3727 -1.1480
 5590SOL     OW28402   4.018   3.300   0.194  0.5463 -0.3342  0.1860
 5590SOL    HW128403   3.961   3.338   0.127  0.4540 -2.2887 -0.8613
 5590SOL    HW228404   4.014   3.373   0.256 -2.5366 -1.1846  1.0104
 5591SOL     OW28405   1.529   2.053   6.530 -0.3248  0.4197 -0.4712
 5591SOL    HW128406   1.454   2.055   6.589  1.4017  0.7694  1.7318
 5591SOL    HW228407   1.573   1.973   6.557  0.3056  0.2372 -2.0409
 5592SOL     OW28408   1.287   2.413  12.897 -0.2114 -0.0953 -0.2295
 5592SOL    HW128409   1.306   2.322  12.873 -1.3186 -0.2848 -0.3902
 5592SOL    HW228410   1.277   2.401  12.991  0.8186  0.5196 -0.0473
 5593SOL     OW28411   4.083   4.170  11.953 -0.7705 -0.6491 -0.0420
 5593SOL    HW128412   4.149   4.237  11.936 -0.6498 -0.6469  0.4492
 5593SOL    HW228413   4.014   4.208  11.899  1.3694  0.5538 -1.9562
 5594SOL     OW28414   4.329   1.218   5.168  0.0294 -0.0644 -0.1147
 5594SOL    HW128415   4.355   1.176   5.086 -1.3435  2.2639 -1.7257
 5594SOL    HW228416   4.331   1.139   5.223 -1.8248  0.3691  0.5603
 5595SOL     OW28417   1.203   3.449   6.114 -0.3433  0.4158 -0.2253
 5595SOL    HW128418   1.270   3.391   6.077 -0.6431 -0.1197  0.0680
 5595SOL    HW228419   1.127   3.407   6.074  0.3410 -0.7836 -0.2694
 5596SOL     OW28420   3.861   1.853   6.730  0.5570 -0.3974 -0.0874
 5596SOL    HW128421   3.885   1.881   6.819  0.0858 -0.0223 -0.0797
 5596SOL    HW228422   3.854   1.938   6.688 -0.7022 -0.3362  0.2566
 5597SOL     OW28423   2.075   2.986   3.300  0.4120 -0.3532 -0.2897
 5597SOL    HW128424   2.075   2.890   3.303 -0.2584 -0.3592 -0.4463
 5597SOL    HW228425   2.098   3.013   3.389  1.4736  0.5245 -0.8219
 5598SOL     OW28426   3.874   3.207   3.313  0.4910  0.0473 -0.3093
 5598SOL    HW128427   3.913   3.258   3.383 -0.2420  0.3676 -0.1390
 5598SOL    HW228428   3.783   3.223   3.337  0.1187  0.9400 -2.2944
 5599SOL     OW28429   1.066   1.122  12.249 -0.4606 -0.5107  0.7540
 5599SOL    HW128430   1.072   1.180  12.325  0.8665 -0.1125  0.3481
 5599SOL    HW228431   1.069   1.189  12.181 -0.7636 -2.4798 -1.1740
 5600SOL     OW28432   2.578   2.099   3.467 -0.3717 -0.1513  0.3236
 5600SOL    HW128433   2.502   2.115   3.411 -0.5135 -2.1828 -0.0597
 5600SOL    HW228434   2.586   2.174   3.526 -0.7467 -1.0049  1.4646
 5601SOL     OW28435   4.567   1.919  14.829 -0.1995 -0.3818  0.2360
 5601SOL    HW128436   4.555   1.958  14.916  0.5273  1.8390 -0.6426
 5601SOL    HW228437   4.591   1.829  14.852  0.0945  0.0651  1.7121
 5602SOL     OW28438   4.679   1.378   2.287 -0.0854  0.1971 -0.4657
 5602SOL    HW128439   4.689   1.386   2.382 -0.8092  0.8081 -0.4429
 5602SOL    HW228440   4.726   1.452   2.249  0.5866  1.0006  1.8890
 5603SOL     OW28441   1.280   0.220   4.965  0.2742  0.2470 -0.0520
 5603SOL    HW128442   1.193   0.245   4.933 -0.2531 -1.0900  0.3458
 5603SOL    HW228443   1.311   0.182   4.883  2.8089  1.4720  0.3219
 5604SOL     OW28444   2.131   2.707  15.314 -0.2046 -0.2943  0.3235
 5604SOL    HW128445   2.164   2.778  15.369  0.6717  0.0652 -0.6751
 5604SOL    HW228446   2.070   2.754  15.257 -0.2966 -0.8369 -0.0245
 5605SOL     OW28447   2.860   2.344   9.169  0.4538 -0.4512  0.0032
 5605SOL    HW128448   2.910   2.425   9.171 -1.7631  0.8792  1.6771
 5605SOL    HW228449   2.918   2.282   9.213  1.7667 -0.2096 -1.4253
 5606SOL     OW28450   2.680   3.870   6.645 -0.2891  0.3308  0.1148
 5606SOL    HW128451   2.654   3.953   6.606 -1.2627 -0.2445 -0.4844
 5606SOL    HW228452   2.622   3.858   6.720 -0.1869 -1.6708 -0.1269
 5607SOL     OW28453   4.189   2.893  10.051 -0.1850 -0.0613  0.2236
 5607SOL    HW128454   4.233   2.809  10.063 -2.4840 -1.5873 -2.2377
 5607SOL    HW228455   4.155   2.910  10.140  0.1777  1.1478  0.1378
 5608SOL     OW28456   1.195   1.808  11.294 -0.7501  0.0001 -0.1975
 5608SOL    HW128457   1.279   1.777  11.328 -0.8153  0.3178  0.2497
 5608SOL    HW228458   1.137   1.814  11.370 -1.0743 -0.7244 -0.3839
 5609SOL     OW28459   4.174   0.755   1.338  0.2047  0.5946  0.0985
 5609SOL    HW128460   4.141   0.841   1.360 -1.9941 -0.3356  0.4207
 5609SOL    HW228461   4.223   0.724   1.414  2.1882 -0.6340 -1.6601
 5610SOL     OW28462   2.460   3.043  10.665 -0.3029 -0.5093  0.3880
 5610SOL    HW128463   2.380   2.998  10.695  1.4400 -4.4976 -0.8960
 5610SOL    HW228464   2.495   2.969  10.615  1.0904  0.2728  0.2173
 5611SOL     OW28465   1.046   4.095   4.726  0.1024 -0.3035  0.3352
 5611SOL    HW128466   0.987   4.168   4.748 -1.0343 -0.8334 -0.9476
 5611SOL    HW228467   1.131   4.134   4.708  0.4501 -0.1662  2.2102
 5612SOL     OW28468   2.966   0.038   6.008 -0.0119 -0.5288 -0.5248
 5612SOL    HW128469   2.883   0.049   5.962  0.3809  1.8473 -0.6774
 5612SOL    HW228470   2.924   4.713   6.067  1.5473 -0.9776  0.0899
 5613SOL     OW28471   3.841   1.400   4.054 -0.2383 -0.2271  0.3348
 5613SOL    HW128472   3.920   1.453   4.057 -0.7370  0.5670 -0.4720
 5613SOL    HW228473   3.777   1.442   3.996  1.7511  0.2075 -1.5694
 5614SOL     OW28474   0.080   2.351   4.128  0.0253  0.1397 -0.6237
 5614SOL    HW128475   0.078   2.282   4.062 -1.3842 -1.1282  0.7328
 5614SOL    HW228476   0.128   2.304   4.196  1.5162 -0.4508 -2.1041
 5615SOL     OW28477   3.519   3.747   5.868  0.0816  0.4540 -0.1933
 5615SOL    HW128478   3.548   3.755   5.777 -2.8957 -0.3543 -1.1900
 5615SOL    HW228479   3.553   3.820   5.918 -1.1372  1.3363 -0.6556
 5616SOL     OW28480   1.839   1.389  14.391 -0.9212  0.1770  0.1848
 5616SOL    HW128481   1.929   1.424  14.388 -0.9106  0.1552  0.2654
 5616SOL    HW228482   1.776   1.451  14.354 -1.1288 -0.9826 -1.4041
 5617SOL     OW28483   3.591   2.838   6.593 -0.0062  0.7040  0.3778
 5617SOL    HW128484   3.514   2.850   6.649  0.7295  0.0352  1.5245
 5617SOL    HW228485   3.578   2.919   6.544 -1.1600 -0.0025 -0.4846
 5618SOL     OW28486   0.456   2.790   0.153  0.2702  0.4520  0.0324
 5618SOL    HW128487   0.481   2.820   0.066  0.7591  1.7146  0.6199
 5618SOL    HW228488   0.462   2.877   0.192  1.8356 -0.1118  1.0649
 5619SOL     OW28489   3.619   1.060  17.340  0.3786 -0.6582 -0.1120
 5619SOL    HW128490   3.543   1.110  17.310  0.1202 -0.5150  0.7831
 5619SOL    HW228491   3.604   0.993  17.274  1.5894  0.5270 -1.5884
 5620SOL     OW28492   1.321   2.563   9.949 -0.3405 -0.0998  0.3657
 5620SOL    HW128493   1.360   2.481   9.979  0.2122  0.3198  0.7937
 5620SOL    HW228494   1.227   2.545   9.958 -0.0159 -2.7177 -1.6377
 5621SOL     OW28495   0.829   4.029   1.790  0.4823 -0.1822 -0.1786
 5621SOL    HW128496   0.744   4.002   1.825  0.7806 -1.1270 -0.1761
 5621SOL    HW228497   0.825   4.002   1.698  0.5998  1.7436 -0.7458
 5622SOL     OW28498   2.786   4.525   4.417 -0.0179  0.3409 -0.5199
 5622SOL    HW128499   2.754   4.590   4.479  2.6817 -0.2700  1.4913
 5622SOL    HW228500   2.714   4.462   4.419  1.0493 -0.8114  1.2244
 5623SOL     OW28501   3.979   2.283   2.174  0.5660 -0.2730 -0.4761
 5623SOL    HW128502   4.019   2.199   2.153 -0.6188 -0.6859 -1.0890
 5623SOL    HW228503   3.886   2.263   2.183  0.6399 -0.9855 -1.3439
 5624SOL     OW28504   2.410   1.005   2.751  0.0620  0.1754 -0.2722
 5624SOL    HW128505   2.411   0.916   2.716  0.3936 -0.0246  0.2542
 5624SOL    HW228506   2.398   1.055   2.670 -2.3578  0.7302  0.4375
 5625SOL     OW28507   0.831   0.694  15.238  0.2433  0.3213 -0.4156
 5625SOL    HW128508   0.908   0.645  15.209  0.6476 -0.3858  1.8260
 5625SOL    HW228509   0.883   0.768  15.269 -0.8820  1.0159 -0.1865
 5626SOL     OW28510   2.251   1.010  17.583  0.5106  0.2347  0.0007
 5626SOL    HW128511   2.194   1.005  17.661 -1.3358  2.4398 -1.2055
 5626SOL    HW228512   2.324   1.043  17.635  0.9604  0.9379 -1.0753
 5627SOL     OW28513   4.194   3.655   6.748  0.0993  0.3442 -0.2883
 5627SOL    HW128514   4.120   3.609   6.789 -1.1329  2.4172 -0.1473
 5627SOL    HW228515   4.188   3.736   6.799  1.1007  0.8276 -0.9516
 5628SOL     OW28516   2.977   0.028   7.951 -0.3670  0.1154 -0.2238
 5628SOL    HW128517   2.956   4.673   7.937 -0.6853  0.2732 -0.8095
 5628SOL    HW228518   2.902   0.060   7.901 -1.2654 -0.6342  0.6458
 5629SOL     OW28519   0.753   2.505   6.697 -0.0348  0.2629  0.1576
 5629SOL    HW128520   0.846   2.484   6.702  0.4583  2.0266 -1.6412
 5629SOL    HW228521   0.757   2.548   6.612 -0.1093 -0.2474 -0.0988
 5630SOL     OW28522   2.568   1.548  17.598  0.2278 -0.1980  1.0983
 5630SOL    HW128523   2.568   1.453  17.595  0.9278 -0.1988  1.1468
 5630SOL    HW228524   2.508   1.575  17.528  0.0726 -0.4821  1.1227
 5631SOL     OW28525   3.732   3.046   8.740  0.1511  0.3637  0.0618
 5631SOL    HW128526   3.693   3.079   8.821  1.5491  0.3395  0.7437
 5631SOL    HW228527   3.744   3.127   8.689 -0.7809  1.1162  1.0592
 5632SOL     OW28528   1.628   0.780  12.210  0.0778 -1.1323  0.0937
 5632SOL    HW128529   1.635   0.778  12.115 -0.6750  1.6299 -0.0288
 5632SOL    HW228530   1.543   0.736  12.215  0.2601 -1.4260  0.7088
 5633SOL     OW28531   1.723   1.692   6.799  0.5955  0.1026 -0.2826
 5633SOL    HW128532   1.708   1.611   6.849  1.3670  0.9159  1.2598
 5633SOL    HW228533   1.818   1.692   6.808  0.5677  0.9633 -0.0494
 5634SOL     OW28534   4.137   0.078   8.617 -0.6271 -0.3945 -0.0803
 5634SOL    HW128535   4.172   0.162   8.586 -1.9664 -0.1208 -0.8253
 5634SOL    HW228536   4.104   0.104   8.703  0.8950  0.0870  0.3690
 5635SOL     OW28537   1.517   1.664   7.504  0.2663 -0.0174  0.1262
 5635SOL    HW128538   1.571   1.652   7.582 -1.4644 -0.1700  1.3129
 5635SOL    HW228539   1.429   1.654   7.541  0.6361  0.7448  1.2285
 5636SOL     OW28540   2.200   0.873  17.346 -0.0392  0.1693 -0.0887
 5636SOL    HW128541   2.220   0.786  17.379 -0.2770 -0.5030 -1.7454
 5636SOL    HW228542   2.245   0.916  17.419  1.0869 -0.8429 -0.1845
 5637SOL     OW28543   3.982   1.159   6.887  0.0547 -0.2039  0.1853
 5637SOL    HW128544   3.890   1.166   6.914  0.7493  1.8163  2.0512
 5637SOL    HW228545   4.024   1.152   6.973  0.3203 -1.2315 -0.0197
 5638SOL     OW28546   3.203   2.071   0.739  0.4001 -0.1642 -0.0345
 5638SOL    HW128547   3.239   1.992   0.779  1.1780  0.1397 -0.1211
 5638SOL    HW228548   3.278   2.131   0.735  0.2859  0.0894  1.6301
 5639SOL     OW28549   3.916   3.197  12.732  0.2530 -0.0448  0.2204
 5639SOL    HW128550   3.862   3.119  12.742 -1.0358  0.6966 -0.9481
 5639SOL    HW228551   3.974   3.176  12.658 -0.0243  0.9681 -0.2937
 5640SOL     OW28552   2.564   3.633  16.790  0.5226  0.8163 -0.1618
 5640SOL    HW128553   2.624   3.657  16.860  0.4498  1.9232 -0.4811
 5640SOL    HW228554   2.484   3.623  16.841 -1.1039  0.8508 -2.7159
 5641SOL     OW28555   2.917   0.189   1.167  0.3535  0.1107  0.0704
 5641SOL    HW128556   2.830   0.226   1.148 -0.5477 -0.5654  2.8254
 5641SOL    HW228557   2.896   0.144   1.248 -2.8120  1.6192  0.0980
 5642SOL     OW28558   4.259   0.003   5.941 -0.3770 -0.0676  0.0083
 5642SOL    HW128559   4.305   4.674   5.889 -1.9719  0.4935 -2.1158
 5642SOL    HW228560   4.178   0.005   5.890 -0.9957  1.4545  1.0874
 5643SOL     OW28561   3.293   2.379   3.782 -0.3538 -0.0645  0.0333
 5643SOL    HW128562   3.238   2.301   3.776  1.1973 -1.1604  0.1781
 5643SOL    HW228563   3.355   2.370   3.710  2.9251  0.2191  2.8442
 5644SOL     OW28564   2.669   3.019   7.441  0.2321  0.1137  0.1434
 5644SOL    HW128565   2.713   2.999   7.524 -0.0436  0.7746  0.4548
 5644SOL    HW228566   2.597   3.071   7.476 -0.5664 -2.4091  2.2301
 5645SOL     OW28567   2.456   2.933   4.513 -0.0148 -0.0547  0.8116
 5645SOL    HW128568   2.535   2.888   4.481 -0.8121 -0.5089 -0.5116
 5645SOL    HW228569   2.397   2.923   4.439 -0.7412 -3.4225  1.8462
 5646SOL     OW28570   2.381   1.172  14.707  0.1654  0.3213 -0.3158
 5646SOL    HW128571   2.444   1.238  14.737  0.3637 -0.0605  0.1080
 5646SOL    HW228572   2.313   1.181  14.773 -0.0294 -2.3586 -0.1753
 5647SOL     OW28573   3.774   0.763   7.625  0.3480 -0.6022 -0.2700
 5647SOL    HW128574   3.786   0.675   7.661 -0.8693 -0.1801  1.1710
 5647SOL    HW228575   3.800   0.755   7.533 -1.2946 -1.7280 -0.6367
 5648SOL     OW28576   2.274   0.126  10.906  0.3404  1.0872  0.1959
 5648SOL    HW128577   2.342   0.194  10.913 -0.0273  1.2428  2.0942
 5648SOL    HW228578   2.207   0.192  10.889 -0.7648  0.1745  1.0099
 5649SOL     OW28579   4.568   1.214   8.719  0.0859 -0.6736  0.0070
 5649SOL    HW128580   4.564   1.267   8.640 -0.3473 -1.1503 -0.2993
 5649SOL    HW228581   4.620   1.272   8.773 -0.4514  0.7262 -0.9947
 5650SOL     OW28582   4.465   3.357   3.861 -0.0430  0.1572  0.2649
 5650SOL    HW128583   4.507   3.300   3.796  1.7139 -0.5951  2.0703
 5650SOL    HW228584   4.528   3.429   3.859  0.3922 -0.1832  1.3413
 5651SOL     OW28585   0.288   2.061  12.518  0.1572  0.3947 -0.6814
 5651SOL    HW128586   0.254   2.048  12.606 -0.0200  0.1423 -0.7882
 5651SOL    HW228587   0.286   1.976  12.474  0.7134  0.3970 -0.7170
 5652SOL     OW28588   1.777   2.361   8.971 -0.3117  0.6500 -0.5765
 5652SOL    HW128589   1.806   2.376   9.061 -0.3492 -2.2394 -0.0800
 5652SOL    HW228590   1.752   2.449   8.940 -0.0802  1.3682  1.2853
 5653SOL     OW28591   0.861   4.599   8.283 -0.2727 -0.6888 -0.2316
 5653SOL    HW128592   0.799   4.587   8.211  1.3430 -1.0363 -1.5747
 5653SOL    HW228593   0.847   4.691   8.304 -0.8920 -0.7539 -0.3760
 5654SOL     OW28594   0.287   3.630   6.393  0.2276 -0.0611 -0.1702
 5654SOL    HW128595   0.317   3.666   6.309  1.1249 -2.3691 -0.8152
 5654SOL    HW228596   0.193   3.638   6.379  0.3655  1.0742 -0.5094
 5655SOL     OW28597   1.024   3.278   5.949 -0.3221 -0.0343 -0.4944
 5655SOL    HW128598   1.089   3.236   5.893 -0.0687 -0.0018 -0.2249
 5655SOL    HW228599   0.949   3.232   5.911  0.6455 -1.6798 -0.4154
 5656SOL     OW28600   0.041   1.262  11.785  0.4697 -0.0410  0.0682
 5656SOL    HW128601   0.134   1.242  11.793  0.4490  0.2430  1.0731
 5656SOL    HW228602   0.012   1.222  11.867 -1.3228  0.3504 -0.3810
 5657SOL     OW28603   3.968   1.417   4.373 -0.4483 -0.9299  0.1984
 5657SOL    HW128604   3.877   1.391   4.359 -0.1242 -0.9646 -1.8418
 5657SOL    HW228605   3.991   1.326   4.393  1.1305 -0.1372  2.0143
 5658SOL     OW28606   4.126   4.187   4.545  0.1299  0.1834  0.7308
 5658SOL    HW128607   4.098   4.100   4.575  0.5345 -0.0003  0.5709
 5658SOL    HW228608   4.051   4.239   4.516 -1.0042 -1.7807  0.1714
 5659SOL     OW28609   1.073   0.765   6.915 -0.1646  0.1259 -0.2757
 5659SOL    HW128610   0.995   0.819   6.897 -1.4166 -1.7686 -0.5017
 5659SOL    HW228611   1.144   0.827   6.927 -0.5526  0.0997  2.1806
 5660SOL     OW28612   1.179   1.991   2.216 -0.2619 -0.1392 -0.3661
 5660SOL    HW128613   1.135   1.944   2.145 -1.8567 -1.7478  1.6984
 5660SOL    HW228614   1.268   1.955   2.219  0.0706  0.5907 -1.4949
 5661SOL     OW28615   0.604   2.937   4.788 -0.6442  0.3964  0.0896
 5661SOL    HW128616   0.599   2.924   4.693 -0.4574 -1.7034  0.3633
 5661SOL    HW228617   0.694   2.966   4.803 -1.0906  1.3866  0.7801
 5662SOL     OW28618   1.794   0.893   8.125  0.0404 -0.1592  0.0556
 5662SOL    HW128619   1.769   0.833   8.195  1.0435  0.4126  0.9024
 5662SOL    HW228620   1.834   0.968   8.170  0.3136 -0.3883  0.1938
 5663SOL     OW28621   0.537   4.534   6.239  0.6142 -0.6202  0.7873
 5663SOL    HW128622   0.502   4.546   6.151  1.2724  1.1580  0.7652
 5663SOL    HW228623   0.590   4.610   6.264 -1.6860  1.2743 -0.1693
 5664SOL     OW28624   4.379   1.780   4.106  0.6203 -0.2621 -0.3807
 5664SOL    HW128625   4.409   1.869   4.089  2.5397 -0.6622  0.8923
 5664SOL    HW228626   4.445   1.744   4.165  1.3670  2.2446  0.3175
 5665SOL     OW28627   0.141   3.581   8.935  0.5413  0.1765  0.1708
 5665SOL    HW128628   0.235   3.591   8.923  0.9722 -2.1046  1.6169
 5665SOL    HW228629   0.115   3.673   8.930 -1.6006 -0.3534  1.7425
 5666SOL     OW28630   4.319   0.927   8.632  0.3690 -0.1723 -0.0925
 5666SOL    HW128631   4.303   1.016   8.663 -0.7941 -0.6920  0.7988
 5666SOL    HW228632   4.407   0.933   8.594  0.7377 -0.6522  0.6984
 5667SOL     OW28633   2.923   1.771   3.104  0.0664 -0.3615  0.4739
 5667SOL    HW128634   2.900   1.723   3.024 -2.2471  1.0067  0.3471
 5667SOL    HW228635   2.985   1.715   3.152 -0.7855 -0.2774  1.6470
 5668SOL     OW28636   1.547   4.438  16.374 -0.2026  0.4061 -0.5985
 5668SOL    HW128637   1.536   4.446  16.279 -0.1277  1.1719 -0.5421
 5668SOL    HW228638   1.528   4.346  16.392 -3.0815  1.0121 -0.4069
 5669SOL     OW28639   3.627   2.606   7.180 -0.1932 -0.6429 -0.1849
 5669SOL    HW128640   3.709   2.655   7.182 -0.9500  0.5236  3.7221
 5669SOL    HW228641   3.570   2.651   7.243  0.5663 -1.9484  1.4236
 5670SOL     OW28642   1.718   0.664  11.974 -0.2919  0.0965 -0.3614
 5670SOL    HW128643   1.769   0.589  12.004 -0.4689 -0.2697 -0.9663
 5670SOL    HW228644   1.769   0.699  11.901  0.7672 -1.6937 -0.4760
 5671SOL     OW28645   2.167   1.190   2.448 -0.3296  0.1068  0.1570
 5671SOL    HW128646   2.083   1.210   2.489 -0.6777 -2.9759  0.8930
 5671SOL    HW228647   2.148   1.228   2.362  1.7808 -0.0800 -0.3902
 5672SOL     OW28648   1.933   1.161   5.584  0.2860 -0.1069  0.1570
 5672SOL    HW128649   1.858   1.117   5.544  0.6491  2.4486 -3.4170
 5672SOL    HW228650   1.959   1.082   5.631  2.3417  1.0582  0.9752
 5673SOL     OW28651   2.736   2.999   2.669 -0.3521  0.0082 -0.7586
 5673SOL    HW128652   2.805   3.061   2.644 -1.4409 -0.0085 -3.8155
 5673SOL    HW228653   2.749   2.920   2.617  0.5025 -1.1897  1.3014
 5674SOL     OW28654   1.972   2.577   6.910 -0.0945  0.1048 -0.3155
 5674SOL    HW128655   1.930   2.494   6.932  2.7491 -1.4985 -0.9061
 5674SOL    HW228656   1.926   2.594   6.828 -1.4589 -1.5939  0.0879
 5675SOL     OW28657   4.495   2.765   2.048  0.5716 -0.2095 -0.2717
 5675SOL    HW128658   4.565   2.700   2.047  1.2120  0.4716  0.1467
 5675SOL    HW228659   4.542   2.843   2.078 -2.8947  0.4460  3.4590
 5676SOL     OW28660   3.903   4.321   8.637  0.6369 -0.1655 -0.0902
 5676SOL    HW128661   3.929   4.410   8.613 -0.0532 -0.2562 -1.1553
 5676SOL    HW228662   3.886   4.326   8.731  0.6943 -2.5848  0.0460
 5677SOL     OW28663   2.979   1.675   7.611  0.2179  0.1392  0.5399
 5677SOL    HW128664   2.933   1.739   7.666 -0.8881  0.2273 -0.5000
 5677SOL    HW228665   2.932   1.681   7.528 -0.9538 -1.4506  1.1011
 5678SOL     OW28666   3.943   2.149   7.109  0.0058  0.6658 -0.2527
 5678SOL    HW128667   3.973   2.176   7.022  3.6213 -1.5128  0.3209
 5678SOL    HW228668   3.944   2.234   7.153 -1.0611  0.7387 -0.3838
 5679SOL     OW28669   0.520   1.668   2.147  0.0174 -0.7099  0.0674
 5679SOL    HW128670   0.615   1.678   2.158 -0.1648 -1.5166  2.3597
 5679SOL    HW228671   0.515   1.594   2.086 -0.0620 -0.9251  0.3384
 5680SOL     OW28672   1.703   0.475   6.363  0.3674 -0.7065  0.4039
 5680SOL    HW128673   1.688   0.557   6.409 -0.3145 -0.2850 -0.5720
 5680SOL    HW228674   1.728   0.425   6.441 -1.9244  0.4390  1.8648
 5681SOL     OW28675   2.356   3.139   5.438  0.1495 -0.1437 -0.4133
 5681SOL    HW128676   2.346   3.233   5.456 -0.8479 -0.2080 -0.6193
 5681SOL    HW228677   2.296   3.122   5.366  1.0465  0.8367 -1.3820
 5682SOL     OW28678   2.218   1.119   8.284  0.4210  0.3287  0.4034
 5682SOL    HW128679   2.180   1.204   8.304 -0.3073  0.2917 -0.7892
 5682SOL    HW228680   2.285   1.121   8.352  2.8995 -0.6112 -1.9919
 5683SOL     OW28681   1.699   2.563   4.906 -0.7635  0.0598 -0.1845
 5683SOL    HW128682   1.638   2.534   4.974 -1.0353  0.8117 -0.1050
 5683SOL    HW228683   1.634   2.592   4.843 -1.1489  0.9419  0.6135
 5684SOL     OW28684   4.525   3.059   4.060  0.5411  0.4211 -0.1667
 5684SOL    HW128685   4.614   3.081   4.033  1.0444 -0.8828  0.4187
 5684SOL    HW228686   4.486   3.145   4.075 -2.7806 -0.7631 -1.8885
 5685SOL     OW28687   1.363   3.532   2.106 -0.7710 -0.2729 -0.2713
 5685SOL    HW128688   1.385   3.558   2.017  1.6831  0.0553  0.4266
 5685SOL    HW228689   1.337   3.617   2.141  0.5393  0.3369 -0.8021
 5686SOL     OW28690   2.981   2.064   9.093  0.3779  0.5426 -0.6524
 5686SOL    HW128691   3.042   2.104   9.031  1.7065  1.1946  1.0966
 5686SOL    HW228692   3.010   2.104   9.175  0.3340 -0.5318 -0.1100
 5687SOL     OW28693   3.636   1.921   0.074  0.0924  0.3414  0.2104
 5687SOL    HW128694   3.652   1.846   0.016 -0.5274 -1.3171  2.2085
 5687SOL    HW228695   3.727   1.923   0.106  0.8693 -0.0697 -1.9349
 5688SOL     OW28696   2.223   1.801  13.415 -0.9327  0.8473  0.1116
 5688SOL    HW128697   2.179   1.863  13.474  1.4205  1.3550  1.3462
 5688SOL    HW228698   2.215   1.719  13.463 -1.4623  1.0476  0.3691
 5689SOL     OW28699   2.142   0.320   4.110  0.1686  0.6201 -0.1516
 5689SOL    HW128700   2.187   0.280   4.036  0.6055 -1.2037  1.0922
 5689SOL    HW228701   2.187   0.404   4.105  1.0942  0.1265 -0.0194
 5690SOL     OW28702   1.275   3.755   1.915  0.4375 -0.2046 -0.2624
 5690SOL    HW128703   1.295   3.814   1.843 -0.8250  1.7236  0.9536
 5690SOL    HW228704   1.290   3.813   1.990 -1.9690 -1.4427  1.1827
 5691SOL     OW28705   4.018   2.662   8.381 -0.1263 -0.1114  0.3922
 5691SOL    HW128706   4.100   2.710   8.392  0.6329 -1.1276 -0.8127
 5691SOL    HW228707   3.968   2.712   8.317  0.4336 -0.3681 -0.2507
 5692SOL     OW28708   3.228   3.699  15.341 -0.0026 -0.0351  0.0519
 5692SOL    HW128709   3.276   3.781  15.347  0.0145 -0.1119  0.9717
 5692SOL    HW228710   3.164   3.710  15.411 -1.0859  0.4283 -1.0155
 5693SOL     OW28711   0.929   1.462   3.317 -0.1674 -0.3985  0.1608
 5693SOL    HW128712   0.965   1.524   3.253  1.3254 -1.5681 -0.1059
 5693SOL    HW228713   0.963   1.376   3.293  0.2422 -1.0157  3.0397
 5694SOL     OW28714   3.069   0.886   1.825  0.0305 -0.2949  0.1623
 5694SOL    HW128715   3.144   0.871   1.768  0.3692  0.9214  0.2731
 5694SOL    HW228716   2.998   0.840   1.780  2.1626 -1.3527 -2.0937
 5695SOL     OW28717   0.296   4.004  13.982  0.0068 -0.0512  0.1231
 5695SOL    HW128718   0.215   3.980  14.028 -0.8177  1.7376 -0.3520
 5695SOL    HW228719   0.360   3.983  14.050 -0.2189  0.2909  0.4448
 5696SOL     OW28720   2.362   3.033  13.901 -0.1908 -0.0722  0.6239
 5696SOL    HW128721   2.450   3.006  13.927 -0.4845  0.6644  2.4172
 5696SOL    HW228722   2.386   3.093  13.830 -2.2662  0.7611  0.6067
 5697SOL     OW28723   3.354   2.118   2.664  0.1180 -0.3052  0.1694
 5697SOL    HW128724   3.391   2.033   2.686 -0.8749 -1.4814 -2.8805
 5697SOL    HW228725   3.279   2.128   2.722  0.2539  2.1357 -0.0398
 5698SOL     OW28726   3.088   2.017   6.345  0.4855 -0.2770 -0.1274
 5698SOL    HW128727   3.001   1.978   6.343  0.4832 -0.3552  1.2887
 5698SOL    HW228728   3.113   2.024   6.437  3.8489  0.1406 -1.0673
 5699SOL     OW28729   3.538   1.575   4.593  0.4645  0.1791 -0.2191
 5699SOL    HW128730   3.475   1.541   4.529 -0.0126  1.4708 -0.4191
 5699SOL    HW228731   3.500   1.556   4.679  0.1458  0.5654 -0.2762
 5700SOL     OW28732   0.257   4.524  16.514 -0.6326  0.3016  0.4646
 5700SOL    HW128733   0.230   4.528  16.423  0.5087  1.9604  0.2142
 5700SOL    HW228734   0.306   4.606  16.514 -0.8438  0.4084 -2.2678
 5701SOL     OW28735   3.869   3.844   7.599  0.0857 -0.1028  0.9618
 5701SOL    HW128736   3.855   3.784   7.672 -0.7335  0.2312  1.0801
 5701SOL    HW228737   3.784   3.887   7.600  0.5126  0.7544  0.3443
 5702SOL     OW28738   4.286   4.260   1.299 -0.3621  0.3378  0.1554
 5702SOL    HW128739   4.203   4.249   1.346 -0.7587  0.0611 -0.6153
 5702SOL    HW228740   4.250   4.308   1.225  1.9785  0.4672 -0.8995
 5703SOL     OW28741   3.322   2.122   4.942  0.1320  0.1881 -0.0869
 5703SOL    HW128742   3.407   2.162   4.958  0.4230 -1.9085  3.6956
 5703SOL    HW228743   3.287   2.109   5.030 -0.4217  0.4860 -0.2672
 5704SOL     OW28744   2.738   1.786  14.421  0.1065 -0.1411 -0.8980
 5704SOL    HW128745   2.652   1.802  14.382 -0.6290  0.2700  0.8378
 5704SOL    HW228746   2.775   1.875  14.419  2.8480 -1.2915 -0.5589
 5705SOL     OW28747   4.702   3.469   5.567 -0.0555 -0.1959  0.2038
 5705SOL    HW128748   0.032   3.427   5.620  1.3065  0.5531 -0.9378
 5705SOL    HW228749   4.634   3.402   5.574  0.1172 -0.2485  1.2821
 5706SOL     OW28750   3.466   0.179   7.117 -0.2062 -0.1919 -0.5533
 5706SOL    HW128751   3.505   0.179   7.029 -0.2245  1.1828 -0.5642
 5706SOL    HW228752   3.530   0.118   7.153  0.0350 -0.0833 -0.7996
 5707SOL     OW28753   1.850   0.429   6.823  0.2780  0.0516 -0.3773
 5707SOL    HW128754   1.776   0.489   6.822  1.9921  2.1658 -0.2211
 5707SOL    HW228755   1.912   0.495   6.853 -0.4784  0.1443  0.9910
 5708SOL     OW28756   4.308   0.671   1.570  0.4342 -0.0573  0.3254
 5708SOL    HW128757   4.319   0.737   1.638  1.5550  2.1016 -1.9501
 5708SOL    HW228758   4.397   0.635   1.571  0.3011 -0.4196 -1.2820
 5709SOL     OW28759   2.556   3.518  14.558 -0.3833 -0.2133  0.0881
 5709SOL    HW128760   2.651   3.531  14.554 -0.2008 -1.7806 -0.7993
 5709SOL    HW228761   2.522   3.602  14.529 -3.0395 -1.3045  0.0149
 5710SOL     OW28762   3.915   2.541   6.982 -0.2155  0.0064  0.4468
 5710SOL    HW128763   3.900   2.617   7.038 -0.7634  1.0258 -1.0851
 5710SOL    HW228764   4.007   2.556   6.959 -0.4291  2.4939  1.2274
 5711SOL     OW28765   4.080   1.974   2.963 -0.4082 -0.4805  0.7253
 5711SOL    HW128766   4.035   2.057   2.979 -0.4371 -0.3733  0.0868
 5711SOL    HW228767   4.066   1.966   2.869 -0.1562 -0.9113  0.7238
 5712SOL     OW28768   1.388   1.630   2.086  0.0667  0.2267  0.1116
 5712SOL    HW128769   1.297   1.604   2.069 -0.4503  1.6439  0.7172
 5712SOL    HW228770   1.420   1.649   1.997 -0.8556  0.6613 -0.1246
 5713SOL     OW28771   2.792   0.279   5.706  0.4507 -0.0983 -0.3736
 5713SOL    HW128772   2.842   0.312   5.781 -2.4255 -1.5105  2.1926
 5713SOL    HW228773   2.857   0.219   5.668  1.0875  0.3947 -0.0541
 5714SOL     OW28774   2.484   0.197   5.328  0.2659  0.0722  0.4225
 5714SOL    HW128775   2.423   0.266   5.353  1.5055  0.7725  1.4934
 5714SOL    HW228776   2.569   0.238   5.317  0.1384 -0.3302 -2.1497
 5715SOL     OW28777   4.130   1.622   7.942 -0.2361  0.0980 -0.3476
 5715SOL    HW128778   4.129   1.705   7.894  0.4064 -0.1459 -0.7843
 5715SOL    HW228779   4.096   1.648   8.027  0.3392 -1.5825  0.3855
 5716SOL     OW28780   2.913   2.746   5.049  0.2763  0.0301 -0.1725
 5716SOL    HW128781   2.892   2.765   5.141 -0.0768  0.3667 -0.3213
 5716SOL    HW228782   2.987   2.803   5.028 -1.2785  1.4540 -1.8777
 5717SOL     OW28783   1.037   3.489   9.594  0.0391 -0.5371 -0.4978
 5717SOL    HW128784   0.998   3.484   9.681 -0.9946 -1.0760 -0.9929
 5717SOL    HW228785   0.964   3.469   9.535 -0.5673 -0.2504  0.1680
 5718SOL     OW28786   1.197   1.233  11.821 -0.5230 -0.2502  0.4815
 5718SOL    HW128787   1.192   1.288  11.743 -0.3663 -3.8954 -2.0981
 5718SOL    HW228788   1.233   1.158  11.774  1.2106  1.5952 -1.1185
 5719SOL     OW28789   3.761   0.025   4.303  0.3003  0.3160 -0.1981
 5719SOL    HW128790   3.771   0.118   4.325 -2.3922  0.1484  1.6982
 5719SOL    HW228791   3.667   0.018   4.315  0.3175  0.5191  0.0496
 5720SOL     OW28792   0.943   0.210   5.220 -0.2608  0.0567 -0.4819
 5720SOL    HW128793   0.848   0.198   5.213 -0.4796  1.7409 -0.2594
 5720SOL    HW228794   0.956   0.283   5.161  0.4745  1.0013  0.8464
 5721SOL     OW28795   2.393   0.834   8.211 -0.3851  0.1631 -0.6103
 5721SOL    HW128796   2.379   0.894   8.284 -2.7745 -0.2826 -0.6812
 5721SOL    HW228797   2.451   0.765   8.244  0.5806  2.3216  2.2466
 5722SOL     OW28798   2.983   3.455   7.776 -0.0068  0.2442 -0.4338
 5722SOL    HW128799   2.970   3.538   7.730 -0.7896  0.1133 -0.4456
 5722SOL    HW228800   3.043   3.474   7.848  2.0132  0.2757 -2.1029
 5723SOL     OW28801   3.030   1.467  12.477  0.1302 -0.3558  0.0192
 5723SOL    HW128802   2.990   1.554  12.480  1.0427  0.1358 -2.6250
 5723SOL    HW228803   2.964   1.413  12.521 -1.3533  1.0094 -0.5206
 5724SOL     OW28804   2.459   2.949  15.023  0.4536 -0.4041  0.1654
 5724SOL    HW128805   2.541   2.992  15.046 -0.5689  1.8281 -0.3304
 5724SOL    HW228806   2.482   2.870  14.974  0.7373 -1.3404  1.8305
 5725SOL     OW28807   4.314   1.066   9.594 -0.2086  0.2088  0.0214
 5725SOL    HW128808   4.324   1.157   9.619  0.7333 -0.1048  0.7876
 5725SOL    HW228809   4.402   1.035   9.572 -0.2638 -0.3132  0.5333
 5726SOL     OW28810   4.378   3.982   8.111  0.1410 -0.0044 -0.6105
 5726SOL    HW128811   4.345   4.061   8.154  0.5321 -0.1741  0.0012
 5726SOL    HW228812   4.465   4.008   8.081  0.5481 -0.7139 -0.0538
 5727SOL     OW28813   4.562   1.884   3.736 -0.7455 -0.2585 -0.1710
 5727SOL    HW128814   4.494   1.934   3.691 -0.7421 -1.3448 -1.3828
 5727SOL    HW228815   4.636   1.935   3.703 -0.5586 -1.2176 -1.2370
 5728SOL     OW28816   2.228   1.437   4.565  0.2195  0.2567  0.0981
 5728SOL    HW128817   2.142   1.471   4.539  1.4091  2.4671 -0.9668
 5728SOL    HW228818   2.267   1.523   4.583 -1.1040  0.7431  0.6110
 5729SOL     OW28819   0.242   2.587   7.188 -0.4426  0.0994  0.3955
 5729SOL    HW128820   0.219   2.494   7.197 -0.4819 -0.0831 -1.5756
 5729SOL    HW228821   0.163   2.623   7.229 -0.4335  0.3212  0.2209
 5730SOL     OW28822   1.949   1.068   4.685  0.3732 -0.1946 -0.4887
 5730SOL    HW128823   1.914   1.157   4.691 -3.1128 -1.6155  0.1147
 5730SOL    HW228824   1.908   1.024   4.760 -1.0008 -0.4278 -1.3687
 5731SOL     OW28825   0.896   2.526   6.269 -0.4569  0.0929  0.4593
 5731SOL    HW128826   0.866   2.439   6.295 -2.6119  0.9495  0.8550
 5731SOL    HW228827   0.991   2.516   6.264 -0.6757 -2.1873  0.7458
 5732SOL     OW28828   2.005   4.423   5.846 -0.0938  0.3188  0.6918
 5732SOL    HW128829   2.016   4.455   5.936  3.1894 -0.9601  0.7353
 5732SOL    HW228830   2.092   4.430   5.805 -0.4671 -1.8232 -0.4284
 5733SOL     OW28831   1.634   0.789  11.265  0.0405  0.8548 -0.3657
 5733SOL    HW128832   1.596   0.874  11.244 -0.3268  0.4701 -1.2936
 5733SOL    HW228833   1.556   0.752  11.306  1.4712  0.9688  2.4756
 5734SOL     OW28834   2.087   3.213   3.756  0.2337 -0.3588 -0.1185
 5734SOL    HW128835   2.121   3.185   3.841 -0.3488 -0.6524  0.0244
 5734SOL    HW228836   2.158   3.212   3.693  0.8386  0.2658  0.5536
 5735SOL     OW28837   1.018   4.560   4.503  0.4134 -0.5552  0.0210
 5735SOL    HW128838   1.088   4.608   4.547  0.8387  0.4002 -1.7377
 5735SOL    HW228839   0.949   4.627   4.503  1.7137  0.7772  0.6136
 5736SOL     OW28840   2.030   2.298   2.830  0.3602  0.0604 -0.0779
 5736SOL    HW128841   2.030   2.383   2.873  0.4090  1.4534 -2.8535
 5736SOL    HW228842   1.942   2.296   2.794 -0.1191 -1.0333  1.1331
 5737SOL     OW28843   1.310   0.465   3.209 -0.9954  0.8292  0.0960
 5737SOL    HW128844   1.358   0.543   3.183 -2.4121  2.1592  1.4478
 5737SOL    HW228845   1.272   0.491   3.293 -0.6276  2.0247 -0.1052
 5738SOL     OW28846   2.815   2.786   9.082 -0.5967 -0.1819  0.1642
 5738SOL    HW128847   2.890   2.817   9.031 -1.0873 -1.6321 -1.4425
 5738SOL    HW228848   2.743   2.840   9.051 -0.7384  0.6126  1.8874
 5739SOL     OW28849   2.130   1.494   0.901 -0.7015 -0.3821  0.1157
 5739SOL    HW128850   2.074   1.555   0.854  0.5460 -0.0226 -0.9033
 5739SOL    HW228851   2.066   1.476   0.971  1.4265 -0.3398  2.0862
 5740SOL     OW28852   2.198   4.196   7.439 -0.2023 -0.4922 -0.0634
 5740SOL    HW128853   2.184   4.261   7.370 -0.0475  1.5523  1.8543
 5740SOL    HW228854   2.120   4.140   7.427 -1.5716  1.4506 -0.1295
 5741SOL     OW28855   3.498   4.692   1.551  0.5832 -0.0145 -0.3902
 5741SOL    HW128856   3.406   4.704   1.574  0.3300 -0.8210 -0.9791
 5741SOL    HW228857   3.494   4.596   1.558 -1.6601  0.2373  1.8544
 5742SOL     OW28858   4.056   1.297   9.913 -0.4316  0.4076  0.5096
 5742SOL    HW128859   4.134   1.247   9.891 -1.0863  0.3120 -1.5777
 5742SOL    HW228860   4.109   1.360   9.962 -1.0248 -0.5312  2.3479
 5743SOL     OW28861   2.220   4.437   2.797  0.2415 -0.7065  0.3977
 5743SOL    HW128862   2.139   4.411   2.753  0.6607 -0.4370 -0.5327
 5743SOL    HW228863   2.204   4.408   2.887 -0.7522  0.4308  0.5781
 5744SOL     OW28864   2.396   3.148  15.221 -0.1149 -0.0919 -0.1014
 5744SOL    HW128865   2.303   3.127  15.226 -0.2679  0.9880  1.4647
 5744SOL    HW228866   2.418   3.107  15.137 -2.9730 -0.9460 -0.4303
 5745SOL     OW28867   0.590   2.374   2.209 -0.2497 -0.2486  0.1629
 5745SOL    HW128868   0.642   2.440   2.163  1.1022 -1.5028 -0.1125
 5745SOL    HW228869   0.503   2.413   2.215  0.3224  0.7936  1.7651
 5746SOL     OW28870   4.300   2.909   4.803 -0.3072 -0.0593  0.5992
 5746SOL    HW128871   4.219   2.880   4.844 -0.3773 -0.7327 -0.0098
 5746SOL    HW228872   4.312   2.833   4.746 -1.9414  0.2760 -0.1678
 5747SOL     OW28873   3.185   1.314   2.183 -0.1451 -0.0481  0.3221
 5747SOL    HW128874   3.200   1.238   2.126  0.2862  0.3663 -0.1115
 5747SOL    HW228875   3.266   1.325   2.232  0.1395 -0.8942  0.0409
 5748SOL     OW28876   0.749   0.578   1.984 -0.2553  0.1928 -0.0083
 5748SOL    HW128877   0.766   0.655   1.930  0.4101 -0.4846 -0.7660
 5748SOL    HW228878   0.798   0.605   2.062  2.4353  0.5608 -1.8341
 5749SOL     OW28879   2.260   1.866   4.179 -0.5586 -0.2232 -0.0231
 5749SOL    HW128880   2.232   1.850   4.269 -0.7068  0.5906  0.0784
 5749SOL    HW228881   2.296   1.782   4.153  0.6509  0.2530  0.1368
 5750SOL     OW28882   0.325   4.014   6.815 -0.0930  0.3070 -0.0363
 5750SOL    HW128883   0.356   4.030   6.726 -0.9459 -1.3480 -0.6316
 5750SOL    HW228884   0.358   3.929   6.846 -1.0155 -0.5013 -1.3035
 5751SOL     OW28885   3.472   2.528   7.659 -0.5084 -0.0094 -0.5765
 5751SOL    HW128886   3.404   2.540   7.725  0.2562  0.4258  0.1403
 5751SOL    HW228887   3.433   2.453   7.613  0.4857 -0.8647 -0.0321
 5752SOL     OW28888   0.167   1.763  12.694 -0.5127  0.0690 -0.5028
 5752SOL    HW128889   0.073   1.750  12.681 -0.2527 -1.2459 -1.0133
 5752SOL    HW228890   0.195   1.778  12.604 -0.9657 -0.5088 -0.7417
 5753SOL     OW28891   0.296   1.928  14.119 -0.1935 -0.0692  0.0238
 5753SOL    HW128892   0.331   1.981  14.190 -2.0308  0.1412  0.7957
 5753SOL    HW228893   0.317   1.842  14.155  1.0373 -0.3808 -1.4693
 5754SOL     OW28894   2.534   3.641   2.170  0.0970  0.7761  0.5284
 5754SOL    HW128895   2.604   3.592   2.127  1.7830  1.4832  2.4876
 5754SOL    HW228896   2.586   3.712   2.207 -0.2771  1.5766 -0.4861
 5755SOL     OW28897   0.956   1.218   6.375 -0.6148 -0.5186  0.2123
 5755SOL    HW128898   0.905   1.291   6.410 -0.2321 -0.8867  1.5714
 5755SOL    HW228899   1.041   1.257   6.355 -0.6806 -1.0956 -1.1860
 5756SOL     OW28900   0.459   0.222   7.684  0.0725 -0.2570  0.8042
 5756SOL    HW128901   0.496   0.273   7.756  1.6752  1.7566 -1.4371
 5756SOL    HW228902   0.469   0.283   7.611 -4.5326  2.4129  2.4460
 5757SOL     OW28903   2.102   0.726   1.940 -0.6346 -0.1118  0.5043
 5757SOL    HW128904   2.167   0.740   1.872 -1.2086 -2.7964 -0.5965
 5757SOL    HW228905   2.125   0.796   2.001  1.2883  0.5623 -1.0112
 5758SOL     OW28906   4.212   0.617   5.114  0.1201  0.0489  0.3765
 5758SOL    HW128907   4.161   0.697   5.123 -1.4733 -0.9635  0.3610
 5758SOL    HW228908   4.225   0.584   5.203  0.5852  0.7780  0.5758
 5759SOL     OW28909   0.176   2.611   4.087 -0.4160  0.6279 -0.4107
 5759SOL    HW128910   0.233   2.612   4.010 -1.1787 -0.0397 -0.9683
 5759SOL    HW228911   0.129   2.537   4.050  1.0664 -0.1078 -0.8541
 5760SOL     OW28912   2.788   1.084   2.265 -0.4465  0.4216 -0.4531
 5760SOL    HW128913   2.829   1.159   2.307  1.2545 -0.4640 -0.5382
 5760SOL    HW228914   2.856   1.034   2.220 -0.6022  1.5999 -2.0034
 5761SOL     OW28915   4.056   3.454   5.943  0.0830  0.0654 -0.1545
 5761SOL    HW128916   4.040   3.527   5.884  1.7387  0.2677 -0.3601
 5761SOL    HW228917   4.128   3.408   5.900 -0.0303 -1.2534  1.0716
 5762SOL     OW28918   4.351   3.042   6.525  0.0180 -0.5815  0.4316
 5762SOL    HW128919   4.326   3.033   6.433  1.0979  0.1771  0.0597
 5762SOL    HW228920   4.292   3.111   6.554 -0.7465 -0.3211 -1.7257
 5763SOL     OW28921   0.548   4.702   1.627  0.2794 -0.3738 -0.1358
 5763SOL    HW128922   0.608   0.037   1.648 -0.4441  0.7162 -1.8574
 5763SOL    HW228923   0.546   4.655   1.711  1.1016 -3.0182 -1.6216
 5764SOL     OW28924   3.570   4.273   3.239  0.2952  0.0458  0.0106
 5764SOL    HW128925   3.524   4.218   3.174  0.1472  1.2792 -0.9384
 5764SOL    HW228926   3.502   4.274   3.306 -1.5592 -1.4746 -1.8210
 5765SOL     OW28927   2.669   3.466   3.769  0.4183 -0.0380  0.5569
 5765SOL    HW128928   2.688   3.375   3.747 -0.1147  0.5006 -2.1758
 5765SOL    HW228929   2.580   3.462   3.734  0.5210  3.8559 -0.0965
 5766SOL     OW28930   3.293   2.319   4.587 -0.2919 -0.0682  0.3204
 5766SOL    HW128931   3.366   2.332   4.648 -0.2464 -0.6239  0.3929
 5766SOL    HW228932   3.224   2.295   4.649 -0.4342 -0.1838  0.1152
 5767SOL     OW28933   4.625   3.967   2.813 -0.0189  0.2757  0.1108
 5767SOL    HW128934   4.593   3.896   2.758 -0.0739 -0.0107  0.5148
 5767SOL    HW228935   4.604   4.048   2.766  0.1643  0.4134  0.2675
 5768SOL     OW28936   2.663   1.173   1.187  0.0499 -0.0831 -0.2077
 5768SOL    HW128937   2.744   1.224   1.185 -0.7558  1.1597 -0.8402
 5768SOL    HW228938   2.685   1.113   1.259  2.3192 -1.0340 -1.7063
 5769SOL     OW28939   1.827   2.698   6.195  0.4053  0.5711  0.2765
 5769SOL    HW128940   1.814   2.681   6.102  2.5661 -0.4608  0.1510
 5769SOL    HW228941   1.831   2.793   6.203 -3.5788  0.7101  0.3472
 5770SOL     OW28942   3.914   2.045   1.869  0.5530  0.4330 -0.5011
 5770SOL    HW128943   3.848   2.099   1.828  0.9480  2.9793  2.1985
 5770SOL    HW228944   3.885   1.957   1.843  0.5093  1.4733 -3.8841
 5771SOL     OW28945   1.259   3.595   8.463  0.4145  0.7114 -0.0837
 5771SOL    HW128946   1.303   3.555   8.387  1.5651  2.3627 -0.3116
 5771SOL    HW228947   1.326   3.661   8.484 -1.3129  2.3681  0.2313
 5772SOL     OW28948   1.605   1.536   5.581 -0.4629  0.0400 -0.0719
 5772SOL    HW128949   1.580   1.580   5.500  1.9775  0.4520 -0.5904
 5772SOL    HW228950   1.692   1.499   5.564 -1.1862 -1.5365 -0.4008
 5773SOL     OW28951   3.116   2.273   8.933 -0.5453 -0.1637 -0.2855
 5773SOL    HW128952   3.170   2.252   9.009 -1.6369 -1.4560  0.1412
 5773SOL    HW228953   3.147   2.359   8.908 -0.1423  0.2582  1.7038
 5774SOL     OW28954   0.054   4.170   7.707  0.9195 -0.5295 -0.4602
 5774SOL    HW128955   0.096   4.092   7.743  1.0909  0.0649  0.6117
 5774SOL    HW228956   0.085   4.183   7.617  1.6623 -0.9384 -0.2635
 5775SOL     OW28957   2.546   3.542   7.541  0.1746  0.3023  0.1931
 5775SOL    HW128958   2.619   3.483   7.557 -0.2557  0.0070  1.0319
 5775SOL    HW228959   2.534   3.534   7.446  0.3875 -0.9647  0.2761
 5776SOL     OW28960   3.916   3.771   2.454  0.3859  0.0388  0.2421
 5776SOL    HW128961   3.840   3.759   2.510 -1.1319 -0.6155 -1.9569
 5776SOL    HW228962   3.873   3.806   2.376  0.8008 -1.8219 -0.8178
 5777SOL     OW28963   0.128   1.227   8.740  0.1576 -0.0970 -0.2937
 5777SOL    HW128964   0.116   1.133   8.755  1.7850 -0.4506 -1.1614
 5777SOL    HW228965   0.118   1.237   8.645  2.3155 -1.1711 -0.6346
 5778SOL     OW28966   2.878   4.416   8.254 -0.0970 -0.2813  0.4114
 5778SOL    HW128967   2.962   4.391   8.293 -0.0139 -1.4066 -0.5068
 5778SOL    HW228968   2.830   4.471   8.316 -0.8407  0.4183 -0.7917
 5779SOL     OW28969   1.692   2.391   2.918 -0.0408  0.2823  0.5219
 5779SOL    HW128970   1.715   2.438   2.838 -1.1719  0.4268  0.2690
 5779SOL    HW228971   1.676   2.305   2.881  0.1573  0.1080  0.8433
 5780SOL     OW28972   4.467   2.707   7.781 -0.3211 -0.2332  0.3620
 5780SOL    HW128973   4.519   2.759   7.720  0.6210 -1.9938 -0.3479
 5780SOL    HW228974   4.524   2.631   7.766  0.6628  0.1826  2.0125
 5781SOL     OW28975   2.617   1.797   1.889  0.6117 -0.0498 -0.1263
 5781SOL    HW128976   2.587   1.810   1.979 -0.8686  0.9302 -0.7484
 5781SOL    HW228977   2.687   1.734   1.903 -0.9472 -1.4447  1.3476
 5782SOL     OW28978   3.348   0.576   4.413 -0.7308 -0.4218 -0.0109
 5782SOL    HW128979   3.280   0.636   4.383 -0.5595 -0.1099  0.2222
 5782SOL    HW228980   3.331   0.584   4.507 -0.3006 -0.0781  0.0394
 5783SOL     OW28981   0.612   1.579   7.997 -0.5855 -0.5182 -0.0671
 5783SOL    HW128982   0.699   1.608   8.024 -0.8845 -0.2795  0.6419
 5783SOL    HW228983   0.627   1.531   7.916 -1.6965  0.0948 -0.6442
 5784SOL     OW28984   1.145   0.528   9.208  0.3751  0.1621 -0.5113
 5784SOL    HW128985   1.233   0.491   9.215  0.2975  0.0800 -0.0061
 5784SOL    HW228986   1.132   0.589   9.280  1.4281 -0.0107 -0.1928
 5785SOL     OW28987   0.126   4.480   3.112 -0.2166  0.4207  0.0583
 5785SOL    HW128988   0.086   4.540   3.175  1.2830 -0.4273  1.8265
 5785SOL    HW228989   0.101   4.526   3.032 -0.8143  0.2942  0.1794
 5786SOL     OW28990   1.741   0.540   1.344 -0.1377 -0.6917 -0.3328
 5786SOL    HW128991   1.721   0.632   1.327 -3.3607 -1.2639  0.3951
 5786SOL    HW228992   1.835   0.554   1.353 -0.3466  1.0119 -1.0080
 5787SOL     OW28993   3.036   1.394   0.363 -0.1580  0.2121 -0.4430
 5787SOL    HW128994   3.113   1.434   0.404 -1.8137  1.9114  0.9558
 5787SOL    HW228995   2.981   1.467   0.337 -1.0336  0.1095  1.1175
 5788SOL     OW28996   1.760   0.270   8.609  0.1755 -0.2464  0.0509
 5788SOL    HW128997   1.736   0.337   8.673  0.8312 -0.8750  0.9624
 5788SOL    HW228998   1.709   0.303   8.535  0.0494  1.9632  1.1133
 5789SOL     OW28999   1.951   1.456   3.178  0.6970  0.2678  0.1825
 5789SOL    HW129000   1.890   1.428   3.246 -0.5383 -0.8932 -1.3960
 5789SOL    HW229001   2.025   1.418   3.225  1.6643  1.0193 -0.7538
 5790SOL     OW29002   0.822   2.716  12.588 -0.4051 -0.5801 -0.0619
 5790SOL    HW129003   0.783   2.794  12.626 -1.5499 -0.0430 -2.3090
 5790SOL    HW229004   0.743   2.679  12.549 -0.4261  0.7731 -1.3198
 5791SOL     OW29005   0.572   1.411  10.424  0.3806  0.0186 -0.2652
 5791SOL    HW129006   0.651   1.379  10.468  0.7584 -0.1674 -1.0890
 5791SOL    HW229007   0.605   1.407  10.334 -0.2450 -1.4226 -0.4326
 5792SOL     OW29008   2.273   0.435   7.687  0.5403 -0.8458  0.2594
 5792SOL    HW129009   2.333   0.440   7.762  1.4118 -3.9939 -0.2337
 5792SOL    HW229010   2.195   0.411   7.738 -0.3910  1.1765 -0.2089
 5793SOL     OW29011   2.103   0.031  15.598 -0.0274 -0.3040 -0.2694
 5793SOL    HW129012   2.015   0.068  15.594 -0.2890 -0.9040 -0.0638
 5793SOL    HW229013   2.087   4.682  15.562  0.7078 -0.8070  0.6211
 5794SOL     OW29014   0.897   4.186   5.982  0.4347  0.4517 -0.2310
 5794SOL    HW129015   0.813   4.214   6.017  1.4341 -0.7150  3.1387
 5794SOL    HW229016   0.933   4.249   5.919  0.0680  0.7769 -0.1094
 5795SOL     OW29017   0.693   3.464  15.129  0.3698 -0.2781  0.4039
 5795SOL    HW129018   0.659   3.502  15.048 -0.8810  1.0589  1.5467
 5795SOL    HW229019   0.609   3.455  15.173  1.4073  0.2958  2.5346
 5796SOL     OW29020   0.998   2.673   5.578  0.1494 -0.2280  0.5582
 5796SOL    HW129021   1.088   2.703   5.580  0.2531 -0.4992 -0.1447
 5796SOL    HW229022   0.958   2.731   5.643 -3.6349 -2.6565  0.4483
 5797SOL     OW29023   1.888   0.546   9.040  0.4045  0.1628  0.4840
 5797SOL    HW129024   1.801   0.513   9.019  0.5323 -0.2975  0.6703
 5797SOL    HW229025   1.877   0.637   9.015  2.1947  0.2572  0.0341
 5798SOL     OW29026   1.542   2.706  14.003 -0.2034  0.6396  0.4276
 5798SOL    HW129027   1.512   2.673  14.087  0.6979  1.6889  1.1581
 5798SOL    HW229028   1.596   2.636  13.967 -1.0743 -0.9103  2.1233
 5799SOL     OW29029   1.500   2.255   0.333 -0.3861 -0.2245  0.3890
 5799SOL    HW129030   1.431   2.257   0.400  0.8674  0.3591  1.6683
 5799SOL    HW229031   1.564   2.304   0.386  2.3277  0.2731 -3.3990
 5800SOL     OW29032   1.300   1.893  17.736 -0.7272 -0.1170  0.6273
 5800SOL    HW129033   1.304   1.797  17.740 -1.2724 -0.1733 -0.1362
 5800SOL    HW229034   1.343   1.905  17.651 -1.3928 -1.3275  0.1184
 5801SOL     OW29035   1.342   1.604   1.727  0.6142 -0.2101  0.5552
 5801SOL    HW129036   1.393   1.623   1.648  1.2432  0.4194  1.1218
 5801SOL    HW229037   1.335   1.509   1.723  1.9327 -0.2202 -1.3841
 5802SOL     OW29038   1.045   3.103  14.727 -0.3816  0.5645 -0.5815
 5802SOL    HW129039   1.044   3.123  14.634 -1.7470 -0.9098 -0.8697
 5802SOL    HW229040   0.975   3.159  14.760 -0.8773 -0.0519 -0.6051
 5803SOL     OW29041   0.571   0.096   8.104  0.6559  0.3492 -0.0102
 5803SOL    HW129042   0.499   0.118   8.163  0.5148  2.6381 -1.0664
 5803SOL    HW229043   0.536   0.016   8.065  1.3086  1.7561 -3.4564
 5804SOL     OW29044   4.225   3.168  12.214 -0.3245  0.0242 -0.8785
 5804SOL    HW129045   4.207   3.155  12.308 -1.2919 -0.0967 -1.0809
 5804SOL    HW229046   4.203   3.260  12.206  2.5312  0.6591 -1.4426
 5805SOL     OW29047   3.016   0.438  15.501 -0.2174 -0.0943 -0.5071
 5805SOL    HW129048   3.000   0.459  15.409 -2.0466 -2.9381 -0.8318
 5805SOL    HW229049   2.981   0.517  15.542 -1.0412 -0.2957 -0.8254
 5806SOL     OW29050   4.197   3.835   9.996  0.2777 -0.2538 -0.6537
 5806SOL    HW129051   4.204   3.892   9.919 -0.3727 -0.1292 -0.6226
 5806SOL    HW229052   4.224   3.890  10.070 -0.3665  1.6782 -1.8327
 5807SOL     OW29053   2.313   3.880   6.949  0.3978  0.8047 -0.1896
 5807SOL    HW129054   2.366   3.808   6.915  1.0344  1.7063 -1.1209
 5807SOL    HW229055   2.348   3.960   6.908  1.9841  1.4648  2.4337
 5808SOL     OW29056   2.966   2.364   6.901 -0.2007 -0.7143  0.2476
 5808SOL    HW129057   2.973   2.451   6.863 -0.4202 -0.7370  0.1597
 5808SOL    HW229058   3.036   2.373   6.967  1.1045  1.7337 -1.4832
 5809SOL     OW29059   1.203   1.295   2.925 -0.0939 -0.0720  0.2897
 5809SOL    HW129060   1.242   1.221   2.878  0.8463 -0.3308  1.4865
 5809SOL    HW229061   1.130   1.309   2.865 -0.1396  1.6268  0.7481
 5810SOL     OW29062   0.761   3.307  15.711  0.1998  0.9046  0.2057
 5810SOL    HW129063   0.838   3.318  15.766  1.5395  2.0910 -1.9245
 5810SOL    HW229064   0.709   3.379  15.747  1.7324  1.4049  1.3853
 5811SOL     OW29065   1.227   3.679   8.085  1.1976 -0.0404  0.1557
 5811SOL    HW129066   1.281   3.610   8.047  0.1531 -0.3995 -0.6803
 5811SOL    HW229067   1.148   3.636   8.118  1.3885 -1.0259 -0.6753
 5812SOL     OW29068   3.027   3.733   8.502 -0.1652 -0.0782  0.9976
 5812SOL    HW129069   3.076   3.658   8.467  1.0366  1.0451  0.2726
 5812SOL    HW229070   2.954   3.690   8.548 -1.4236 -0.4561 -1.3357
 5813SOL     OW29071   0.990   1.307   3.968 -0.1968  0.0745  0.5673
 5813SOL    HW129072   1.068   1.274   4.012 -0.0887  0.9106  1.0072
 5813SOL    HW229073   0.928   1.237   3.987 -2.1680  1.6046 -0.2666
 5814SOL     OW29074   1.544   0.918   6.753 -0.2837  0.6909 -0.8447
 5814SOL    HW129075   1.461   0.919   6.801 -0.9925  2.2167 -2.1082
 5814SOL    HW229076   1.531   0.987   6.689 -0.6819 -0.5097 -2.0524
 5815SOL     OW29077   2.849   4.555  10.438 -0.2917  0.3011 -0.6232
 5815SOL    HW129078   2.754   4.555  10.431 -0.5526 -0.2565  2.8779
 5815SOL    HW229079   2.868   4.640  10.397  2.7034 -0.4616 -0.7892
 5816SOL     OW29080   1.781   1.286   7.602 -0.2610  0.6726 -0.9315
 5816SOL    HW129081   1.705   1.227   7.600  0.7818 -0.7075  0.0359
 5816SOL    HW229082   1.844   1.234   7.553  0.9693 -0.8609  2.2547
 5817SOL     OW29083   3.768   3.615   3.229 -0.1295 -0.1012  0.0514
 5817SOL    HW129084   3.707   3.618   3.303  0.0572  0.9799  0.1678
 5817SOL    HW229085   3.828   3.680   3.265  1.0888 -1.7425  0.9683
 5818SOL     OW29086   2.053   3.862   2.402 -0.3781 -0.7378 -0.3985
 5818SOL    HW129087   2.054   3.957   2.403  1.8583 -0.7605  0.5184
 5818SOL    HW229088   2.021   3.849   2.313  2.2416  1.6040 -1.6623
 5819SOL     OW29089   1.997   3.066  14.523  0.5023  0.0983  0.4638
 5819SOL    HW129090   2.043   3.125  14.581 -1.5602  0.0577  2.1371
 5819SOL    HW229091   2.074   3.029  14.481  0.2423  1.3362 -1.1351
 5820SOL     OW29092   2.648   3.730   4.959  0.3894 -0.0993  0.4650
 5820SOL    HW129093   2.722   3.692   5.008  0.9077  0.3653  0.0371
 5820SOL    HW229094   2.594   3.655   4.932 -3.1478  2.8740 -0.6488
 5821SOL     OW29095   0.282   0.770   5.510  0.5172  0.2223 -0.1442
 5821SOL    HW129096   0.211   0.827   5.481  0.4413 -0.1840 -0.7806
 5821SOL    HW229097   0.229   0.709   5.562 -0.6255  0.4987 -0.9704
 5822SOL     OW29098   1.636   3.103   7.469 -0.5826 -0.2857  0.2727
 5822SOL    HW129099   1.611   3.012   7.458 -0.2393 -0.3623  0.1355
 5822SOL    HW229100   1.556   3.140   7.431 -1.7381 -1.4546  1.5716
 5823SOL     OW29101   0.836   3.977   7.890 -0.0151 -0.1017 -0.6752
 5823SOL    HW129102   0.779   4.000   7.817 -0.4568 -1.6911 -0.8393
 5823SOL    HW229103   0.788   3.908   7.936  1.0301 -0.2819  0.1400
 5824SOL     OW29104   0.244   1.977  11.874  0.2601  0.0805 -0.3348
 5824SOL    HW129105   0.173   1.984  11.937  0.0854  0.9643 -0.6246
 5824SOL    HW229106   0.324   1.979  11.927  0.0669 -0.3176 -0.0315
 5825SOL     OW29107   0.372   0.395   9.935  0.5240  0.4667  0.0882
 5825SOL    HW129108   0.425   0.405   9.856  2.4544 -1.6165  1.1421
 5825SOL    HW229109   0.432   0.340   9.986 -0.6781  0.2291  1.2445
 5826SOL     OW29110   0.402   2.211   7.232 -0.3381 -0.0910 -0.6630
 5826SOL    HW129111   0.381   2.125   7.269 -0.0191 -0.3072 -0.9869
 5826SOL    HW229112   0.333   2.216   7.166  0.2739  2.0420 -1.1305
 5827SOL     OW29113   0.862   2.182   4.241  0.0725  0.1497  0.5829
 5827SOL    HW129114   0.932   2.210   4.182  1.8916 -0.1059  2.6435
 5827SOL    HW229115   0.866   2.240   4.317 -1.5911  1.7321 -0.5259
 5828SOL     OW29116   2.326   3.771  15.572  0.6626 -0.1379  0.1153
 5828SOL    HW129117   2.341   3.801  15.482  0.5078 -1.7293 -0.4488
 5828SOL    HW229118   2.297   3.855  15.608  3.0546  1.9013 -2.7861
 5829SOL     OW29119   1.504   0.429   3.723  0.5221 -0.0348  0.0525
 5829SOL    HW129120   1.594   0.408   3.747  0.5268  1.2146  1.1027
 5829SOL    HW229121   1.479   0.354   3.669  1.0395  0.3062 -0.6523
 5830SOL     OW29122   2.116   3.611  11.706  0.6543  0.1434  0.3509
 5830SOL    HW129123   2.091   3.545  11.770  0.5109  0.4237  0.5880
 5830SOL    HW229124   2.177   3.673  11.748 -0.3849  1.0422  0.5501
 5831SOL     OW29125   1.301   4.346  11.240 -0.3215 -0.5913 -0.0033
 5831SOL    HW129126   1.306   4.440  11.258 -2.0575 -0.3625 -0.7415
 5831SOL    HW229127   1.209   4.358  11.219 -0.1403  0.5006 -0.2060
 5832SOL     OW29128   2.810   1.525   3.294 -0.2301 -0.1022 -0.0414
 5832SOL    HW129129   2.752   1.511   3.369  1.0584  0.2114  1.0085
 5832SOL    HW229130   2.773   1.456   3.238 -1.1053  2.8962 -3.1282
 5833SOL     OW29131   2.957   3.026   6.958  0.0549  0.2678 -0.3383
 5833SOL    HW129132   2.971   2.932   6.948  0.0155 -0.0203  2.2265
 5833SOL    HW229133   2.864   3.025   6.980 -0.3341 -2.8603 -2.2561
 5834SOL     OW29134   3.021   0.528  16.888  0.0507 -0.4821  0.0301
 5834SOL    HW129135   2.941   0.581  16.897  0.5958  0.6246 -1.6005
 5834SOL    HW229136   3.086   0.579  16.937  0.7353 -0.6863 -0.6702
 5835SOL     OW29137   0.200   0.490   6.270  0.1641  0.1022 -0.0484
 5835SOL    HW129138   0.273   0.479   6.330  0.7448 -0.8196 -0.9204
 5835SOL    HW229139   0.227   0.575   6.235 -1.0313  0.3164 -0.4500
 5836SOL     OW29140   2.149   1.007   2.180  0.1049 -0.2752 -0.5959
 5836SOL    HW129141   2.111   0.961   2.255 -0.0161  1.6847  0.5453
 5836SOL    HW229142   2.242   0.985   2.190  0.1473  0.1021 -0.1802
 5837SOL     OW29143   0.320   2.545   3.001 -0.1999 -0.0702  0.2405
 5837SOL    HW129144   0.291   2.454   3.010 -1.6794 -0.0512 -4.0260
 5837SOL    HW229145   0.392   2.536   2.939  0.5046  1.3359  0.8716
 5838SOL     OW29146   2.285   0.681   9.075 -0.2599  0.4533  0.6721
 5838SOL    HW129147   2.305   0.594   9.109  0.3932  0.8365  1.2765
 5838SOL    HW229148   2.369   0.707   9.038 -1.0356 -0.2843 -1.6039
 5839SOL     OW29149   0.125   4.015   8.145  0.0027  0.1154 -0.3374
 5839SOL    HW129150   0.147   3.959   8.070 -2.1421  2.6399 -2.8515
 5839SOL    HW229151   0.074   3.951   8.193  1.2976 -0.5097  0.2156
 5840SOL     OW29152   0.249   0.464   9.335 -0.1166 -0.1856  0.3170
 5840SOL    HW129153   0.217   0.401   9.400  0.5400 -0.6999  0.1459
 5840SOL    HW229154   0.173   0.517   9.314 -0.4149 -1.2107 -1.1844
 5841SOL     OW29155   2.520   3.335   3.242  0.2348 -0.7104 -0.5947
 5841SOL    HW129156   2.511   3.418   3.196  3.6105  0.7776  1.4389
 5841SOL    HW229157   2.467   3.350   3.320  1.2121  2.0879 -0.4729
 5842SOL     OW29158   1.107   3.602  12.409 -0.1439 -0.4349 -0.4318
 5842SOL    HW129159   1.150   3.688  12.412  1.1236 -1.0288 -1.4811
 5842SOL    HW229160   1.050   3.597  12.485  0.5610  0.8221  0.1798
 5843SOL     OW29161   2.806   1.927  15.078  0.3171  0.1490  0.6811
 5843SOL    HW129162   2.824   1.978  14.999 -0.2555 -1.5849 -0.5612
 5843SOL    HW229163   2.846   1.844  15.054 -1.4016  0.2451 -2.4835
 5844SOL     OW29164   1.852   3.134   2.729  0.1932 -0.0334 -0.0592
 5844SOL    HW129165   1.884   3.118   2.640 -1.2115  2.1693 -0.9635
 5844SOL    HW229166   1.916   3.193   2.768  1.5167 -0.3359 -1.7402
 5845SOL     OW29167   3.080   3.979   6.966 -0.4804  0.4439  0.1310
 5845SOL    HW129168   3.018   4.002   6.897  2.0475  2.1307 -1.5914
 5845SOL    HW229169   3.123   4.063   6.978  0.1249  0.2422 -0.6102
 5846SOL     OW29170   2.186   1.235   7.386 -0.2179 -1.2857 -0.2483
 5846SOL    HW129171   2.237   1.190   7.319  2.0922  1.2848 -0.1975
 5846SOL    HW229172   2.252   1.272   7.446  1.2499 -3.1237 -0.7142
 5847SOL     OW29173   2.987   3.901   3.000  0.1694  0.2525 -0.3029
 5847SOL    HW129174   2.938   3.983   2.995 -0.2022  0.0210 -0.3809
 5847SOL    HW229175   2.916   3.843   3.024 -0.2212  1.0154  0.3796
 5848SOL     OW29176   1.305   0.662   2.454 -0.2439  0.2158 -0.2196
 5848SOL    HW129177   1.339   0.605   2.523  1.1883  0.3893 -0.7721
 5848SOL    HW229178   1.219   0.621   2.450 -0.4301  0.6675 -0.9670
 5849SOL     OW29179   4.119   1.889   5.564 -0.6735  0.3499 -0.1639
 5849SOL    HW129180   4.128   1.799   5.595  1.4378  0.4772 -0.3824
 5849SOL    HW229181   4.050   1.925   5.619  0.7652  2.6136  0.1832
 5850SOL     OW29182   0.476   3.103   9.371  0.3788 -0.3074 -0.3259
 5850SOL    HW129183   0.386   3.094   9.402  0.3555  0.3313 -0.2046
 5850SOL    HW229184   0.477   3.016   9.331 -0.1130 -0.4285 -0.0706
 5851SOL     OW29185   2.312   4.615   7.712  0.1097  0.1052 -0.4155
 5851SOL    HW129186   2.389   4.557   7.716 -0.1225 -0.0807  1.5126
 5851SOL    HW229187   2.274   4.611   7.800  0.9958  0.6392 -0.0090
 5852SOL     OW29188   1.587   0.019   5.407  0.0322 -0.3279  0.1481
 5852SOL    HW129189   1.639   0.012   5.487  0.6888 -2.0198 -0.4402
 5852SOL    HW229190   1.583   0.115   5.409  2.2232 -0.2580  1.8798
 5853SOL     OW29191   1.872   3.869  11.169 -0.4879 -0.0210  0.1153
 5853SOL    HW129192   1.877   3.781  11.131  1.7068 -0.0856  0.5281
 5853SOL    HW229193   1.939   3.850  11.235  0.2918  0.7705 -0.4420
 5854SOL     OW29194   4.508   2.432  10.849 -0.3027  0.5607 -0.1423
 5854SOL    HW129195   4.475   2.362  10.792 -1.7877 -0.1725  1.6229
 5854SOL    HW229196   4.598   2.402  10.860 -0.5220 -0.6814 -1.6964
 5855SOL     OW29197   3.408   1.035   2.966 -0.6873 -0.0081  0.5681
 5855SOL    HW129198   3.336   0.977   2.941  0.1280 -0.5576 -0.4878
 5855SOL    HW229199   3.465   0.972   3.010 -0.4099 -0.1351  0.0290
 5856SOL     OW29200   3.667   2.254   4.207 -0.4194 -0.5657  0.1278
 5856SOL    HW129201   3.683   2.284   4.297  0.1013 -0.1976 -0.0880
 5856SOL    HW229202   3.759   2.254   4.179 -0.5736 -1.2948 -0.3971
 5857SOL     OW29203   3.843   0.926   3.688  0.9180  0.7362 -0.9238
 5857SOL    HW129204   3.812   0.879   3.765  0.9212  0.0459 -1.3500
 5857SOL    HW229205   3.887   0.998   3.733 -0.4076  1.6710 -1.1257
 5858SOL     OW29206   3.830   3.450  12.800  0.1436  0.8013  0.4554
 5858SOL    HW129207   3.825   3.457  12.895 -0.3073  1.4389  0.3808
 5858SOL    HW229208   3.844   3.355  12.791 -4.5731  0.0054  1.7737
 5859SOL     OW29209   2.048   4.161   7.027 -0.0822  0.3117  0.1753
 5859SOL    HW129210   2.072   4.201   7.110  0.5042  1.3562 -0.4973
 5859SOL    HW229211   2.049   4.068   7.050 -2.2282  0.0914 -0.6356
 5860SOL     OW29212   0.208   0.863   7.567 -0.2162 -0.3356 -0.1831
 5860SOL    HW129213   0.239   0.954   7.570 -0.2239 -0.4121  1.9193
 5860SOL    HW229214   0.168   0.869   7.480  0.9604  0.0420 -0.7143
 5861SOL     OW29215   2.715   4.698   9.643 -1.8322  0.1886  0.4629
 5861SOL    HW129216   2.716   4.603   9.658  0.8134  0.0139 -0.8442
 5861SOL    HW229217   2.787   4.721   9.701 -1.0881  0.4740 -0.5602
 5862SOL     OW29218   1.640   3.764  17.624  0.0703  0.0719  0.4875
 5862SOL    HW129219   1.619   3.700  17.692 -0.6849 -0.6415 -0.4201
 5862SOL    HW229220   1.728   3.730  17.605 -0.7066 -0.4641 -2.1895
 5863SOL     OW29221   1.413   4.637   3.772 -0.2565  0.8240  0.3640
 5863SOL    HW129222   1.479   4.578   3.736 -1.5805  0.5705 -1.6438
 5863SOL    HW229223   1.364   4.650   3.690  0.2649 -3.3783 -0.5982
 5864SOL     OW29224   3.077   2.164  14.106  0.1586  0.7003  0.5978
 5864SOL    HW129225   3.064   2.193  14.196  0.5152  1.2490  0.4731
 5864SOL    HW229226   2.988   2.154  14.072  0.3910 -1.5065  0.6361
 5865SOL     OW29227   0.137   1.847   7.834  0.0266  0.0425  0.9772
 5865SOL    HW129228   0.187   1.805   7.764 -1.4083  0.4570 -0.2938
 5865SOL    HW229229   0.056   1.797   7.827 -0.8140  1.6419 -0.4092
 5866SOL     OW29230   0.866   0.649   4.837 -0.2987  0.9389  0.3247
 5866SOL    HW129231   0.875   0.570   4.783  1.4210  1.4069 -0.0805
 5866SOL    HW229232   0.857   0.717   4.770  0.1104  0.3353 -0.3521
 5867SOL     OW29233   4.029   2.409  17.566  0.5808 -0.5622 -0.2689
 5867SOL    HW129234   4.087   2.462  17.621 -0.5423  0.7590 -0.3657
 5867SOL    HW229235   3.989   2.481  17.517  1.7512  0.8271  0.8229
 5868SOL     OW29236   3.826   0.876   6.171 -0.4672 -0.0526 -0.3047
 5868SOL    HW129237   3.840   0.957   6.122 -1.5251  0.2721 -0.0699
 5868SOL    HW229238   3.829   0.896   6.264  2.9172 -0.2802 -0.3806
 5869SOL     OW29239   0.970   2.026   1.231  0.2229  0.0268 -0.0888
 5869SOL    HW129240   1.044   1.995   1.283  0.7823  3.2234  0.9847
 5869SOL    HW229241   0.904   2.059   1.292  0.7450  0.6141  0.1582
 5870SOL     OW29242   2.704   0.730   4.207 -0.3077 -0.3148 -0.3859
 5870SOL    HW129243   2.730   0.686   4.126 -0.9509 -1.7180  0.1671
 5870SOL    HW229244   2.730   0.820   4.185 -2.1739  0.0136 -1.2422
 5871SOL     OW29245   0.661   3.954  13.793 -0.2708  0.0396  0.2971
 5871SOL    HW129246   0.668   3.951  13.697  1.1794  0.5902  0.3975
 5871SOL    HW229247   0.603   3.882  13.816 -0.6244 -0.1222 -1.1085
 5872SOL     OW29248   1.205   0.550   3.474  0.0488  0.1218  0.4341
 5872SOL    HW129249   1.112   0.552   3.455  0.1537  1.5932  0.0897
 5872SOL    HW229250   1.207   0.494   3.552 -2.2309 -3.3985 -2.0583
 5873SOL     OW29251   1.265   2.453   3.082 -0.2347 -0.3024 -0.0279
 5873SOL    HW129252   1.270   2.416   2.994 -1.3074  2.7306 -1.3787
 5873SOL    HW229253   1.170   2.447   3.091 -0.4637  1.1601 -1.4199
 5874SOL     OW29254   0.890   0.985   3.649 -0.1589 -0.3755  0.5075
 5874SOL    HW129255   0.979   1.017   3.666  0.1542 -1.0258  0.0597
 5874SOL    HW229256   0.892   0.903   3.697  0.1719 -0.5931  0.1204
 5875SOL     OW29257   3.800   3.015   8.019  0.2007  0.5233 -0.0556
 5875SOL    HW129258   3.747   3.007   8.098  0.6535 -0.6859  0.1116
 5875SOL    HW229259   3.819   3.109   8.023  2.0780  0.3172 -3.8248
 5876SOL     OW29260   1.448   3.010   5.914 -0.0307  0.0937 -0.1190
 5876SOL    HW129261   1.538   3.022   5.883  0.5740 -2.0378  0.8037
 5876SOL    HW229262   1.457   2.922   5.951 -1.7857 -0.4623 -1.0278
 5877SOL     OW29263   1.364   2.839   8.975 -0.7059 -0.4000 -0.1674
 5877SOL    HW129264   1.435   2.902   8.989 -1.7072  0.5616  0.4994
 5877SOL    HW229265   1.360   2.790   9.057  0.6442 -0.4142 -0.0976
 5878SOL     OW29266   4.033   1.749  11.906 -0.0393  0.3175 -0.1633
 5878SOL    HW129267   3.988   1.695  11.841  0.8025  0.3456 -0.7666
 5878SOL    HW229268   4.021   1.697  11.986 -0.6454 -3.2983 -2.5745
 5879SOL     OW29269   3.549   3.421   4.471 -0.5760  0.2185 -0.1958
 5879SOL    HW129270   3.454   3.407   4.479 -0.4213 -0.1226  1.1488
 5879SOL    HW229271   3.562   3.431   4.566 -1.9812 -0.8914  0.1236
 5880SOL     OW29272   1.642   4.128   6.984 -0.4416  0.0770 -0.3116
 5880SOL    HW129273   1.547   4.135   6.978 -0.5470  0.4662  1.9236
 5880SOL    HW229274   1.670   4.206   7.033  0.5598  0.0974 -0.9076
 5881SOL     OW29275   4.532   1.615   0.786  0.2681 -0.9143  0.6584
 5881SOL    HW129276   4.494   1.542   0.834 -1.5312  0.7443  1.7626
 5881SOL    HW229277   4.477   1.623   0.708  2.1335  1.4230 -0.4092
 5882SOL     OW29278   1.309   1.621   0.067  0.0722 -0.6847  0.2929
 5882SOL    HW129279   1.389   1.661   0.100  1.6967 -3.2282 -0.5784
 5882SOL    HW229280   1.348   1.586  17.736  0.1218  0.6787 -0.2885
 5883SOL     OW29281   0.723   1.425   6.035 -0.4408 -0.2584 -0.2240
 5883SOL    HW129282   0.815   1.451   6.045 -0.6776 -0.1561  1.6879
 5883SOL    HW229283   0.711   1.440   5.941 -5.5453 -0.8994  0.3514
 5884SOL     OW29284   0.489   2.976  17.692 -0.5737 -0.0716 -0.0753
 5884SOL    HW129285   0.571   3.018  17.665 -0.6320  0.2252  0.2272
 5884SOL    HW229286   0.462   2.938  17.608  3.0870  0.5776 -1.5523
 5885SOL     OW29287   3.657   0.877  14.557 -0.1972  0.3010  0.7303
 5885SOL    HW129288   3.596   0.926  14.501  0.2299 -1.8568 -1.6566
 5885SOL    HW229289   3.682   0.947  14.616  0.4269  1.0022 -0.3584
 5886SOL     OW29290   3.763   4.699   9.451 -0.4527 -0.1571 -0.1811
 5886SOL    HW129291   3.833   4.722   9.390 -2.7517  0.8921 -2.4541
 5886SOL    HW229292   3.800   4.636   9.512  0.6511  1.4895  0.8370
 5887SOL     OW29293   3.298   3.784   4.732 -0.3198  0.2563  0.2103
 5887SOL    HW129294   3.227   3.736   4.775  0.6277 -0.1666  1.3133
 5887SOL    HW229295   3.307   3.858   4.793 -2.2344 -1.0889  2.1472
 5888SOL     OW29296   0.453   0.010   6.481  0.2692  0.0939  0.7485
 5888SOL    HW129297   0.547   4.730   6.479  0.3423  0.6214 -0.0118
 5888SOL    HW229298   0.431   4.713   6.568 -1.3279 -1.7354 -0.3624
 5889SOL     OW29299   0.449   1.288  10.833  0.3064 -0.3514 -0.0321
 5889SOL    HW129300   0.520   1.318  10.777 -1.5228  2.8062 -0.6772
 5889SOL    HW229301   0.371   1.294  10.778  0.5920 -0.5339 -0.4499
 5890SOL     OW29302   3.767   3.459  14.938 -0.2213 -0.7564 -0.1380
 5890SOL    HW129303   3.769   3.449  15.033 -1.0554 -1.0217 -0.1521
 5890SOL    HW229304   3.709   3.386  14.914 -0.3672 -0.5770 -0.3247
 5891SOL     OW29305   3.675   3.485   2.640  0.0743  0.1582 -0.1559
 5891SOL    HW129306   3.677   3.438   2.557 -0.5257  0.4319 -0.3270
 5891SOL    HW229307   3.769   3.471   2.648 -0.0147 -0.0662  0.5511
 5892SOL     OW29308   2.312   3.918  10.525 -0.8635  0.2101  0.1139
 5892SOL    HW129309   2.270   3.902  10.609 -0.0935 -0.9997  0.2617
 5892SOL    HW229310   2.390   3.864  10.538 -1.5570 -0.3342  2.0423
 5893SOL     OW29311   0.492   3.208   6.271 -0.3140 -0.1116  0.0479
 5893SOL    HW129312   0.474   3.150   6.344  0.0525 -0.2218  0.0471
 5893SOL    HW229313   0.414   3.264   6.268 -2.0115 -2.4084  1.2482
 5894SOL     OW29314   0.828   0.772   8.257 -0.7499 -0.3981  0.0403
 5894SOL    HW129315   0.858   0.789   8.347  0.9904 -0.7839 -0.4794
 5894SOL    HW229316   0.823   0.863   8.227  0.2020 -0.1804  0.5210
 5895SOL     OW29317   1.800   4.562  17.061  0.5061 -0.0906  0.0375
 5895SOL    HW129318   1.751   4.497  17.110 -1.4533  1.2199 -0.1956
 5895SOL    HW229319   1.757   4.643  17.088 -0.6964 -1.2367  1.5630
 5896SOL     OW29320   3.314   4.136   9.908  0.6062  0.2762 -0.7950
 5896SOL    HW129321   3.239   4.188   9.879 -0.9621 -0.9964  1.0254
 5896SOL    HW229322   3.290   4.043   9.898  0.6424 -0.0290  1.9805
 5897SOL     OW29323   4.430   3.522   9.110  0.2930 -0.0999 -0.6753
 5897SOL    HW129324   4.393   3.467   9.179  0.1831 -0.4092 -0.9772
 5897SOL    HW229325   4.425   3.612   9.141  1.4389 -1.0605  2.2194
 5898SOL     OW29326   2.746   1.911  17.011 -0.1072  0.2528 -0.2889
 5898SOL    HW129327   2.761   1.864  17.093 -1.5385 -1.4414 -0.9933
 5898SOL    HW229328   2.764   1.841  16.949 -4.0116  1.7582 -3.0882
 5899SOL     OW29329   3.570   1.413   6.212 -0.1307  0.4563 -0.1908
 5899SOL    HW129330   3.654   1.450   6.238 -0.5459 -0.1559  2.0332
 5899SOL    HW229331   3.585   1.342   6.149  1.3479 -1.5074  2.3470
 5900SOL     OW29332   3.199   3.035   2.076 -0.3314  0.2720  0.5934
 5900SOL    HW129333   3.201   3.027   2.172 -0.0542  3.4327  0.8612
 5900SOL    HW229334   3.276   2.982   2.055 -0.5976 -0.5667  1.7205
 5901SOL     OW29335   4.307   4.729   5.184  0.5299 -0.4120  0.0685
 5901SOL    HW129336   4.214   4.708   5.175  0.7365 -0.3276 -2.1247
 5901SOL    HW229337   4.311   0.084   5.161 -2.1364 -0.4854 -0.6530
 5902SOL     OW29338   0.317   3.849   7.978  0.3803 -0.2664 -0.0142
 5902SOL    HW129339   0.355   3.832   7.892  2.0206  0.2153  0.5984
 5902SOL    HW229340   0.383   3.910   8.013 -0.9077  0.0409  1.8781
 5903SOL     OW29341   0.509   0.462   4.279  0.2435  0.3265 -0.0271
 5903SOL    HW129342   0.504   0.479   4.185  0.4878  0.4223 -0.0229
 5903SOL    HW229343   0.493   0.369   4.290 -0.2963  0.1992 -1.8161
 5904SOL     OW29344   0.919   4.193   7.594  0.4368 -0.1183 -0.0847
 5904SOL    HW129345   0.877   4.256   7.536 -0.4895  0.5873  1.3619
 5904SOL    HW229346   0.970   4.251   7.650  0.8596 -1.0328  0.4825
 5905SOL     OW29347   1.740   0.950   5.593  0.3670 -0.4592 -0.0266
 5905SOL    HW129348   1.794   0.965   5.670  0.9978 -2.9431 -0.0021
 5905SOL    HW229349   1.744   0.857   5.571  3.4768 -0.9055  2.5714
 5906SOL     OW29350   3.306   2.046   7.748 -0.5530  0.2778 -0.1460
 5906SOL    HW129351   3.246   2.077   7.817 -1.5009 -2.4200  0.2605
 5906SOL    HW229352   3.268   1.962   7.722 -1.7332  1.2723 -1.6503
 5907SOL     OW29353   4.388   4.230   4.473 -0.9917 -0.7341 -0.7006
 5907SOL    HW129354   4.294   4.215   4.485 -1.1614 -0.0515 -1.1615
 5907SOL    HW229355   4.398   4.298   4.540  2.8396 -0.3227 -1.6765
 5908SOL     OW29356   1.829   3.925   9.332  0.3957  0.1027  0.0643
 5908SOL    HW129357   1.773   3.919   9.255  0.3877  1.1331 -0.0126
 5908SOL    HW229358   1.803   3.844   9.376 -0.1658  0.1623 -0.1584
 5909SOL     OW29359   4.477   2.737   7.300  0.4191  0.2450 -0.0954
 5909SOL    HW129360   4.464   2.670   7.234 -0.4626  0.2408  0.0868
 5909SOL    HW229361   4.517   2.687   7.371  0.5757 -1.0318 -1.0941
 5910SOL     OW29362   4.629   3.578   6.350  0.2115  0.1890  0.2070
 5910SOL    HW129363   4.665   3.648   6.296  0.3932  0.1754  0.3081
 5910SOL    HW229364   4.706   3.531   6.383 -0.3072 -1.7890 -1.3594
 5911SOL     OW29365   1.475   2.221   1.848 -0.4351 -0.1549 -0.0377
 5911SOL    HW129366   1.492   2.127   1.847  0.0844 -0.0456 -1.1584
 5911SOL    HW229367   1.495   2.241   1.939  1.0670  0.0499 -0.4223
 5912SOL     OW29368   0.071   0.305  11.964  0.0942  0.5870 -0.5429
 5912SOL    HW129369   4.714   0.290  11.972  0.4621 -2.3343 -1.5598
 5912SOL    HW229370   0.100   0.221  11.999 -1.4278 -0.6934 -2.3370
 5913SOL     OW29371   0.572   1.486   6.281 -0.6201  0.1187 -0.6323
 5913SOL    HW129372   0.632   1.497   6.354 -1.3653  1.7230 -0.2451
 5913SOL    HW229373   0.625   1.482   6.202 -0.9498 -0.5680 -0.8179
 5914SOL     OW29374   0.722   3.368   8.770 -0.2483  0.1661  0.3184
 5914SOL    HW129375   0.677   3.305   8.826 -1.5399  0.7367 -0.0715
 5914SOL    HW229376   0.692   3.340   8.683  1.0194  1.0077 -0.3781
 5915SOL     OW29377   4.243   0.030   6.461  0.5978  0.0953  0.4005
 5915SOL    HW129378   4.259   0.079   6.381 -0.3374 -0.1716  0.0506
 5915SOL    HW229379   4.149   0.018   6.475  0.1774 -1.0187 -3.3508
 5916SOL     OW29380   0.259   4.545  16.250 -0.3375  0.3467  0.3480
 5916SOL    HW129381   0.183   4.524  16.196  1.8746 -2.9220 -1.4830
 5916SOL    HW229382   0.313   4.468  16.232  0.7565  0.8675  1.3862
 5917SOL     OW29383   1.630   2.187   6.818  0.4464  0.8946  0.2603
 5917SOL    HW129384   1.633   2.237   6.736 -0.8710  0.6300  0.0525
 5917SOL    HW229385   1.538   2.201   6.841 -0.1323  0.1421 -1.6053
 5918SOL     OW29386   3.535   0.714   6.638 -0.2634  0.1521  0.0264
 5918SOL    HW129387   3.557   0.640   6.696 -0.1940  0.4610  0.3896
 5918SOL    HW229388   3.573   0.671   6.562 -0.5677  1.3546 -0.7939
 5919SOL     OW29389   2.968   3.824   7.159 -0.0683 -0.0114  0.0420
 5919SOL    HW129390   2.909   3.766   7.112 -2.3378  0.1077  2.7815
 5919SOL    HW229391   2.994   3.882   7.086 -0.9741 -0.7922 -0.8953
 5920SOL     OW29392   0.908   3.486  16.715  0.3630  0.5351  0.4879
 5920SOL    HW129393   0.846   3.420  16.744 -1.0352  0.2649 -3.1927
 5920SOL    HW229394   0.846   3.556  16.697  0.4348  1.1735  2.7520
 5921SOL     OW29395   3.425   1.809   9.768  0.8032 -0.0132  0.8050
 5921SOL    HW129396   3.461   1.754   9.699 -0.0638  1.0779 -0.5228
 5921SOL    HW229397   3.421   1.893   9.722 -0.5087 -1.3650 -1.5561
 5922SOL     OW29398   1.939   2.143   8.904  0.0374 -0.0114 -0.1087
 5922SOL    HW129399   1.855   2.189   8.896  0.9685  1.1449 -3.2354
 5922SOL    HW229400   1.915   2.061   8.947  1.2085 -1.6101 -2.4867
 5923SOL     OW29401   3.925   4.652   4.507  0.0039 -0.7434  0.2789
 5923SOL    HW129402   3.882   4.666   4.422  1.5170 -2.7395 -0.8015
 5923SOL    HW229403   3.944   4.559   4.511  0.5739 -0.6294  0.2766
 5924SOL     OW29404   2.092   3.870   5.453  0.3394 -0.4571  0.2676
 5924SOL    HW129405   2.022   3.935   5.462 -1.5220 -2.4880  0.4285
 5924SOL    HW229406   2.147   3.886   5.529  0.5853 -0.8295  0.1684
 5925SOL     OW29407   0.420   0.721   3.295  0.3670  0.1785  0.1174
 5925SOL    HW129408   0.500   0.679   3.264  1.6790 -0.2009  3.9087
 5925SOL    HW229409   0.348   0.671   3.257  3.7259 -3.8112 -0.9740
 5926SOL     OW29410   4.540   4.327  10.026  0.2435 -0.2226  0.7014
 5926SOL    HW129411   4.612   4.380  10.059  1.1616 -0.4460 -0.9659
 5926SOL    HW229412   4.506   4.300  10.111  1.4251  0.9849  1.5617
 5927SOL     OW29413   3.077   0.966   5.237 -0.0045  0.2759  0.1297
 5927SOL    HW129414   3.008   0.962   5.304  1.6038 -0.7820  1.7274
 5927SOL    HW229415   3.108   1.056   5.248  0.2411  0.1227  0.6930
 5928SOL     OW29416   2.794   2.591   2.267 -0.7149 -0.1488  0.1432
 5928SOL    HW129417   2.744   2.624   2.193  1.5797  0.7767 -0.9988
 5928SOL    HW229418   2.734   2.533   2.315 -0.3835 -1.0518 -0.5379
 5929SOL     OW29419   3.635   3.022   4.853  0.5030 -0.3686 -0.1618
 5929SOL    HW129420   3.683   3.032   4.936  0.8127  1.2804 -0.5427
 5929SOL    HW229421   3.563   2.968   4.886 -1.6635  1.9169 -1.1951
 5930SOL     OW29422   4.183   0.344   5.595  0.0806 -0.0866 -0.3169
 5930SOL    HW129423   4.089   0.329   5.587  0.6177 -3.4243 -0.3843
 5930SOL    HW229424   4.184   0.439   5.608  1.2216 -0.3637  1.6880
 5931SOL     OW29425   1.530   2.801   6.034 -0.2513 -0.8006 -0.3149
 5931SOL    HW129426   1.623   2.781   6.023 -0.2019  0.8920 -2.8811
 5931SOL    HW229427   1.501   2.712   6.055 -1.9241 -0.6090 -1.8338
 5932SOL     OW29428   0.337   0.917   7.937  0.2439  0.3532  0.0987
 5932SOL    HW129429   0.350   0.980   8.008 -1.0612  0.1318  0.5452
 5932SOL    HW229430   0.321   0.972   7.860 -0.5309  0.5063  0.3728
 5933SOL     OW29431   0.813   4.133   4.131  0.5707 -0.0830  0.2212
 5933SOL    HW129432   0.783   4.216   4.093  0.5687  0.5767  1.6628
 5933SOL    HW229433   0.732   4.094   4.162 -0.2418  3.1848  2.2382
 5934SOL     OW29434   3.459   2.505   8.255 -0.3635 -0.3281  1.0524
 5934SOL    HW129435   3.546   2.481   8.224 -1.0469 -1.6240  0.1473
 5934SOL    HW229436   3.410   2.425   8.233  1.6318 -1.0563 -0.7216
 5935SOL     OW29437   0.944   0.933  10.288  0.1449 -0.4800  0.0681
 5935SOL    HW129438   0.992   0.951  10.369 -0.4862 -1.4391  0.6510
 5935SOL    HW229439   1.016   0.932  10.224 -0.8377  1.0299 -1.0499
 5936SOL     OW29440   1.249   0.700   5.656 -0.5285  0.0216  0.3793
 5936SOL    HW129441   1.277   0.786   5.688  1.4878 -0.2770 -0.5861
 5936SOL    HW229442   1.183   0.726   5.593  0.4820 -0.3686 -0.8368
 5937SOL     OW29443   4.121   0.583   9.027  0.0334 -0.5077 -0.2430
 5937SOL    HW129444   4.135   0.677   9.037 -0.2108 -0.3980 -0.9069
 5937SOL    HW229445   4.141   0.550   9.115  0.9018  1.0527  0.1374
 5938SOL     OW29446   4.706   0.199  12.395 -0.3409 -0.0369 -0.6912
 5938SOL    HW129447   0.053   0.174  12.355 -0.8672  0.5702 -2.1841
 5938SOL    HW229448   0.004   0.261  12.458 -0.0735  0.0700 -0.9455
 5939SOL     OW29449   0.058   3.027   3.330  0.0466  0.1924 -0.5860
 5939SOL    HW129450   0.146   3.005   3.298  1.3087  1.0392  2.2555
 5939SOL    HW229451   0.038   2.955   3.390 -1.2915  1.2884  0.2883
 5940SOL     OW29452   3.637   3.618   5.158  0.3523  0.8353  0.0087
 5940SOL    HW129453   3.682   3.534   5.152 -0.4041  0.5809 -2.2948
 5940SOL    HW229454   3.708   3.674   5.127  0.4300  0.2270 -0.9178
 5941SOL     OW29455   3.594   0.162   6.891  0.1804 -0.0524 -0.6395
 5941SOL    HW129456   3.552   0.179   6.807 -1.8103 -2.3053 -0.0976
 5941SOL    HW229457   3.616   0.071   6.872  1.0788 -0.4698  2.3595
 5942SOL     OW29458   3.152   0.325   5.218 -0.2691 -0.4963  0.3787
 5942SOL    HW129459   3.089   0.359   5.154  1.0060 -1.2983 -1.2884
 5942SOL    HW229460   3.206   0.400   5.239  0.2504 -1.5771  2.8718
 5943SOL     OW29461   4.105   0.909  16.656  0.6591  0.2746  0.4206
 5943SOL    HW129462   4.076   0.997  16.678 -0.5248 -0.4722  1.8440
 5943SOL    HW229463   4.111   0.905  16.561  0.3249  0.9724  0.3724
 5944SOL     OW29464   4.097   0.457   8.472  0.0494 -0.0336  0.0022
 5944SOL    HW129465   4.104   0.545   8.508  1.0786 -1.4263  3.2309
 5944SOL    HW229466   4.005   0.433   8.488  0.8171 -1.6323  1.9684
 5945SOL     OW29467   3.887   1.904   7.015 -0.5215 -0.0753 -0.0365
 5945SOL    HW129468   3.793   1.899   7.027 -0.0504  0.3770  3.9421
 5945SOL    HW229469   3.903   1.994   7.043  0.2066 -0.0464 -0.5353
 5946SOL     OW29470   3.382   2.126   6.968  0.2724  0.1138 -0.4837
 5946SOL    HW129471   3.329   2.202   6.993 -1.0185 -0.7994 -0.4369
 5946SOL    HW229472   3.416   2.161   6.885  2.8708  0.0198  0.5500
 5947SOL     OW29473   3.949   0.341   1.994 -0.2911 -0.2440  0.3718
 5947SOL    HW129474   4.031   0.341   2.043 -1.2859 -0.9262  2.0566
 5947SOL    HW229475   3.971   0.291   1.915 -0.6170 -0.1268  0.2065
 5948SOL     OW29476   0.459   2.189   7.966 -0.9029 -0.1251  0.2382
 5948SOL    HW129477   0.402   2.220   7.895 -2.3114 -2.6124  0.2862
 5948SOL    HW229478   0.504   2.272   7.980  0.9822 -0.6451 -2.7032
 5949SOL     OW29479   4.206   2.311   4.868  0.0372 -0.0431  0.6812
 5949SOL    HW129480   4.291   2.355   4.864  1.4842 -2.7684  0.8218
 5949SOL    HW229481   4.153   2.358   4.932 -2.1661 -0.5942 -0.7506
 5950SOL     OW29482   4.275   2.597   9.808 -0.3202  0.3760  0.2526
 5950SOL    HW129483   4.305   2.583   9.898 -1.5001 -0.2267  0.5502
 5950SOL    HW229484   4.271   2.503   9.790  0.7600  0.3988 -0.1199
 5951SOL     OW29485   2.382   4.247   9.310  0.5692  0.3622  0.1434
 5951SOL    HW129486   2.412   4.333   9.280 -0.6566  0.2420 -1.4342
 5951SOL    HW229487   2.445   4.191   9.265 -0.5267  0.1395 -1.1088
 5952SOL     OW29488   2.350   1.733   8.548  0.2947 -0.0932  0.0668
 5952SOL    HW129489   2.295   1.654   8.549 -0.1953  0.2330 -1.7499
 5952SOL    HW229490   2.431   1.701   8.589 -0.2449  0.0380  1.2443
 5953SOL     OW29491   3.201   1.235   1.882  0.1951  0.4088  0.1746
 5953SOL    HW129492   3.177   1.220   1.791 -0.1833  0.1656  0.3182
 5953SOL    HW229493   3.283   1.188   1.896 -0.6865 -1.1659 -0.0012
 5954SOL     OW29494   3.205   1.518   2.423  0.9743 -0.2578  0.3404
 5954SOL    HW129495   3.159   1.480   2.498  0.1873  0.3616  0.1646
 5954SOL    HW229496   3.256   1.442   2.396 -1.7250 -1.5168 -1.1878
 5955SOL     OW29497   4.401   2.364   6.858  0.0981 -0.6079 -0.0922
 5955SOL    HW129498   4.401   2.292   6.795  0.5839 -0.7757  0.0939
 5955SOL    HW229499   4.460   2.329   6.925  0.7077  1.3166  0.3637
 5956SOL     OW29500   1.708   1.372  14.665 -0.5106 -0.4099 -0.4112
 5956SOL    HW129501   1.784   1.348  14.718 -0.0742 -0.3932 -1.0196
 5956SOL    HW229502   1.749   1.366  14.578 -0.3604  1.7723 -0.4977
 5957SOL     OW29503   0.791   4.163   4.441  0.2647  0.2637 -0.1055
 5957SOL    HW129504   0.884   4.174   4.421  0.6417  0.7262  1.8706
 5957SOL    HW229505   0.760   4.110   4.368 -1.5778 -0.5506  1.2619
 5958SOL     OW29506   0.449   2.318  13.945  0.8278 -0.3877  0.4214
 5958SOL    HW129507   0.398   2.350  13.871 -2.2045 -0.8561  2.3064
 5958SOL    HW229508   0.420   2.391  14.000  0.2348 -2.7161  3.2150
 5959SOL     OW29509   2.870   0.446   8.004 -0.6005  0.3529 -0.1019
 5959SOL    HW129510   2.910   0.408   7.926  1.6127 -1.9337  2.1422
 5959SOL    HW229511   2.947   0.477   8.052 -1.6454  1.9799  0.5022
 5960SOL     OW29512   4.731   1.899  10.282 -0.0779  0.3284 -0.1234
 5960SOL    HW129513   4.715   1.990  10.305  1.0592  1.2244 -2.9060
 5960SOL    HW229514   0.057   1.909  10.212 -0.4991  0.7476 -0.4488
 5961SOL     OW29515   2.318   1.674   7.549 -0.2132  0.1887  0.3220
 5961SOL    HW129516   2.392   1.721   7.588 -0.1657  0.1082  0.3288
 5961SOL    HW229517   2.253   1.685   7.619  0.3727 -2.8474  1.3508
 5962SOL     OW29518   3.910   1.925   4.462 -0.5420 -0.3025  0.2641
 5962SOL    HW129519   3.973   1.854   4.451  1.6296  1.6527  0.1521
 5962SOL    HW229520   3.906   1.946   4.369  4.4479 -0.5448 -0.0065
 5963SOL     OW29521   4.451   1.814   5.889  1.1195  0.3346 -0.0756
 5963SOL    HW129522   4.432   1.724   5.863  0.6440 -0.0324  1.4995
 5963SOL    HW229523   4.443   1.854   5.802 -1.7348 -1.3236 -0.5790
 5964SOL     OW29524   1.971   2.879   1.424 -0.0300 -0.2650  0.7666
 5964SOL    HW129525   1.982   2.971   1.446 -0.4089 -0.0737  0.1680
 5964SOL    HW229526   1.879   2.856   1.435  0.1348 -1.8321 -1.0139
 5965SOL     OW29527   0.675   1.365   4.124 -0.0445 -0.1450 -0.0724
 5965SOL    HW129528   0.757   1.413   4.120  0.8036 -1.5104  0.8244
 5965SOL    HW229529   0.617   1.438   4.146 -1.0095 -0.6162 -1.0755
 5966SOL     OW29530   3.222   2.694   5.185  0.5921 -0.2899 -0.1846
 5966SOL    HW129531   3.206   2.735   5.100 -1.1188  0.1535  0.3387
 5966SOL    HW229532   3.306   2.650   5.175  0.8278 -0.3381  2.1049
 5967SOL     OW29533   2.583   0.359   8.016  0.1426 -0.8488  0.1837
 5967SOL    HW129534   2.545   0.280   8.053 -0.1610 -0.6327  0.3320
 5967SOL    HW229535   2.672   0.325   8.010 -0.0926 -0.9828 -2.5652
 5968SOL     OW29536   2.171   2.071   3.955  0.6591 -0.3911 -0.3394
 5968SOL    HW129537   2.078   2.064   3.977  0.8500 -1.6997  0.0706
 5968SOL    HW229538   2.202   1.989   3.993  0.8772  0.0668  0.4526
 5969SOL     OW29539   2.319   0.174  15.490 -0.0691 -0.0020  0.1916
 5969SOL    HW129540   2.280   0.203  15.408  1.3304 -0.8225 -0.7717
 5969SOL    HW229541   2.255   0.107  15.514 -0.1824 -0.7612 -2.2716
 5970SOL     OW29542   1.264   4.438   7.124 -0.0976  0.2239 -0.2075
 5970SOL    HW129543   1.310   4.442   7.040 -3.0334  1.9168 -1.7256
 5970SOL    HW229544   1.176   4.424   7.090 -0.1087  1.8976 -0.8364
 5971SOL     OW29545   4.672   3.418   8.622  0.1438 -0.2093 -0.2641
 5971SOL    HW129546   0.026   3.395   8.609  0.4490  0.7919  0.0668
 5971SOL    HW229547   4.674   3.514   8.624 -1.0559 -0.2332  1.8314
 5972SOL     OW29548   4.718   1.809   8.714 -0.2404  0.0250  0.7523
 5972SOL    HW129549   4.719   1.895   8.757  0.5963  0.4967 -0.1863
 5972SOL    HW229550   0.024   1.826   8.631 -1.3382 -2.0381 -0.2237
 5973SOL     OW29551   3.572   1.107   7.586  0.6042  0.0895 -0.3219
 5973SOL    HW129552   3.657   1.120   7.544 -0.3111 -0.3775 -2.3135
 5973SOL    HW229553   3.541   1.195   7.606  1.0624 -0.4442  2.8723
 5974SOL     OW29554   1.952   0.020   8.814  0.6990 -0.1692  0.6804
 5974SOL    HW129555   1.990   4.673   8.790  1.2762  0.3302 -0.1517
 5974SOL    HW229556   1.868   0.000   8.772  1.2854 -2.2474  0.4743
 5975SOL     OW29557   3.208   3.947   4.117  0.4205 -0.0478  0.9587
 5975SOL    HW129558   3.262   3.874   4.088  1.1098  1.2671 -1.0427
 5975SOL    HW229559   3.253   4.018   4.071 -3.7237  1.7634 -0.2913
 5976SOL     OW29560   1.580   0.225   7.134  0.1966 -0.0641 -0.1550
 5976SOL    HW129561   1.567   0.158   7.201  1.7220  1.0361  1.2432
 5976SOL    HW229562   1.674   0.215   7.119  0.2002  1.1095 -0.9418
 5977SOL     OW29563   2.307   2.185  13.379  0.0827  0.3251  0.6817
 5977SOL    HW129564   2.363   2.142  13.315  0.2730  0.2401  0.9062
 5977SOL    HW229565   2.354   2.265  13.404  1.7131  0.1759 -1.9590
 5978SOL     OW29566   0.670   4.038  10.104  0.4182 -0.4734 -0.4519
 5978SOL    HW129567   0.646   3.949  10.081 -1.0509 -0.5493  1.3999
 5978SOL    HW229568   0.657   4.046  10.198  0.8654 -2.0116 -0.2733
 5979SOL     OW29569   1.468   0.268   8.704  0.6408  0.5130 -0.2676
 5979SOL    HW129570   1.494   0.290   8.794  0.7999  0.8894 -0.4075
 5979SOL    HW229571   1.415   0.344   8.682 -1.0331  0.0906  2.2860
 5980SOL     OW29572   3.511   2.723   7.419  0.2159  0.3812  0.1251
 5980SOL    HW129573   3.430   2.742   7.372  1.0771 -3.0471 -2.7730
 5980SOL    HW229574   3.493   2.640   7.463 -1.3086  0.8779  0.4651
 5981SOL     OW29575   0.978   0.927   4.417  0.6626 -0.4114  0.2507
 5981SOL    HW129576   0.922   0.954   4.344 -0.3407 -1.4828  0.6092
 5981SOL    HW229577   1.046   0.882   4.368 -0.3891  0.9017 -2.3818
 5982SOL     OW29578   2.897   2.808   5.321  0.4169 -0.1025 -0.3372
 5982SOL    HW129579   2.871   2.716   5.319  0.1152 -0.0174 -0.2697
 5982SOL    HW229580   2.950   2.810   5.401  0.8220  0.7570 -0.6263
 5983SOL     OW29581   4.571   3.038  14.813  0.1302  0.3193 -0.3482
 5983SOL    HW129582   4.477   3.053  14.826 -0.0219  0.1192 -1.2378
 5983SOL    HW229583   4.578   3.063  14.720  1.7194  0.3360 -0.2153
 5984SOL     OW29584   1.262   2.516   9.692  0.4666 -0.1617 -0.8503
 5984SOL    HW129585   1.286   2.570   9.767  1.2729 -2.8490  0.8238
 5984SOL    HW229586   1.300   2.569   9.622  2.9396  1.9932  2.1332
 5985SOL     OW29587   2.733   3.194   0.984  0.3317  0.7366 -0.2396
 5985SOL    HW129588   2.789   3.128   1.024 -1.3379 -1.2757 -1.2823
 5985SOL    HW229589   2.648   3.170   1.021  0.9012 -2.8603 -1.3071
 5986SOL     OW29590   0.249   0.193   7.854  0.1682 -0.2991  0.0315
 5986SOL    HW129591   0.319   0.184   7.789 -0.3821 -4.5716  0.0352
 5986SOL    HW229592   0.185   0.242   7.802  2.1745  2.1995 -0.0951
 5987SOL     OW29593   4.030   2.829   9.549  0.3409 -0.0005  0.2659
 5987SOL    HW129594   4.007   2.799   9.461  0.2486  0.2998  0.1873
 5987SOL    HW229595   4.076   2.912   9.537 -2.2028  1.4655  0.6712
 5988SOL     OW29596   0.723   1.174  11.438  0.4386 -0.2893 -0.6381
 5988SOL    HW129597   0.743   1.101  11.497 -0.9385  0.5570  0.8855
 5988SOL    HW229598   0.648   1.133  11.396 -0.0526  0.9945 -1.0068
 5989SOL     OW29599   3.204   1.062  10.483  0.0784 -0.3228  0.5034
 5989SOL    HW129600   3.149   1.138  10.464  0.0849 -0.6044 -0.6329
 5989SOL    HW229601   3.126   1.007  10.485  0.0843 -0.3207  0.7446
 5990SOL     OW29602   1.095   1.519  13.950 -0.1400 -0.2468  0.2696
 5990SOL    HW129603   1.117   1.478  14.034  1.3422  0.2423  0.1079
 5990SOL    HW229604   1.185   1.548  13.938 -0.5016 -0.2022 -2.1444
 5991SOL     OW29605   2.446   2.663  12.988  0.1177 -0.3809  0.8416
 5991SOL    HW129606   2.391   2.603  13.039  3.0030 -1.8394  2.2255
 5991SOL    HW229607   2.449   2.742  13.041  0.4076 -0.3098  0.7145
 5992SOL     OW29608   4.490   2.589   0.057  0.5850 -0.2425 -0.3256
 5992SOL    HW129609   4.575   2.605   0.099  0.1292  0.0308  0.4876
 5992SOL    HW229610   4.455   2.675   0.032 -1.3236 -0.9658 -0.1308
 5993SOL     OW29611   2.937   2.501  11.588  0.5868  0.3975  0.3458
 5993SOL    HW129612   3.020   2.540  11.614 -0.8939  2.9502  1.2895
 5993SOL    HW229613   2.942   2.413  11.625 -1.6927  0.2936  0.4152
 5994SOL     OW29614   2.909   1.296   1.192  0.3479 -0.2842  0.0300
 5994SOL    HW129615   2.882   1.388   1.199 -0.8190 -0.5215 -1.4016
 5994SOL    HW229616   3.000   1.319   1.172  0.3447 -1.8578 -1.7561
 5995SOL     OW29617   2.847   0.730   0.064 -0.1704  0.4720 -0.5725
 5995SOL    HW129618   2.900   0.662   0.024 -0.2089  1.8551 -2.9615
 5995SOL    HW229619   2.891   0.811   0.037 -1.1562  0.9923 -0.6051
 5996SOL     OW29620   3.466   0.241  12.396  0.0818  0.1640 -0.2722
 5996SOL    HW129621   3.514   0.173  12.443  1.1241 -0.4409 -2.2204
 5996SOL    HW229622   3.381   0.198  12.385 -0.6678  1.9623 -1.5023
 5997SOL     OW29623   0.498   3.526   2.258  0.0788  0.2656 -0.0707
 5997SOL    HW129624   0.575   3.489   2.216 -1.3166 -1.2271 -1.2961
 5997SOL    HW229625   0.546   3.586   2.316 -0.0521  0.2198  0.0860
 5998SOL     OW29626   0.416   1.691   8.669  0.2638 -0.0450 -0.1968
 5998SOL    HW129627   0.403   1.700   8.575  0.1272  2.0914  0.0145
 5998SOL    HW229628   0.471   1.614   8.679 -1.2889 -1.0915  0.3312
 5999SOL     OW29629   4.096   3.678   6.503  0.0439 -0.2760  0.4393
 5999SOL    HW129630   4.170   3.639   6.457  0.3817  1.0975 -0.1851
 5999SOL    HW229631   4.123   3.676   6.594  0.6138 -0.1944  0.2727
 6000SOL     OW29632   0.861   0.042   2.907  0.4805 -0.5446  0.2007
 6000SOL    HW129633   0.922   0.019   2.837  3.2976  1.1584  2.1028
 6000SOL    HW229634   0.897   0.125   2.940 -0.1323 -0.2828  0.2086
 6001SOL     OW29635   3.640   1.521   8.454  0.5016 -0.3137 -0.0440
 6001SOL    HW129636   3.630   1.448   8.515 -1.3762  0.4969  0.6350
 6001SOL    HW229637   3.731   1.543   8.472 -0.0372  0.9706  1.2137
 6002SOL     OW29638   3.862   3.245   6.049  0.1084 -0.6554  0.2267
 6002SOL    HW129639   3.887   3.308   5.981  2.9444 -1.1158  0.8432
 6002SOL    HW229640   3.933   3.182   6.041  0.8762  0.3569 -0.9898
 6003SOL     OW29641   1.660   1.492   3.706 -0.0440 -0.2443  0.6104
 6003SOL    HW129642   1.661   1.586   3.686 -1.9332 -0.1124  1.1421
 6003SOL    HW229643   1.620   1.502   3.793 -0.2719  2.7686  0.1594
 6004SOL     OW29644   2.618   3.794   8.641  0.1367 -0.3992  0.5720
 6004SOL    HW129645   2.598   3.773   8.549  1.4801 -0.5240  0.3081
 6004SOL    HW229646   2.661   3.710   8.660 -1.3224 -1.3029 -0.1652
 6005SOL     OW29647   4.708   4.452   5.686  0.3697  0.2193  0.5700
 6005SOL    HW129648   4.618   4.456   5.653 -0.1299 -0.5506  1.8559
 6005SOL    HW229649   4.728   4.359   5.673 -1.0068 -0.0397  0.2106
 6006SOL     OW29650   2.312   3.260   0.648  0.2249  0.1638 -0.2002
 6006SOL    HW129651   2.351   3.271   0.735  2.0824 -0.2790 -0.9981
 6006SOL    HW229652   2.299   3.352   0.625 -1.4710  0.2806  1.1658
 6007SOL     OW29653   0.300   2.443   5.544  0.4115 -0.3203  0.0907
 6007SOL    HW129654   0.381   2.489   5.563  1.1647 -2.1276  1.2206
 6007SOL    HW229655   0.304   2.445   5.448  2.3604  0.4533  0.1914
 6008SOL     OW29656   1.500   1.235   8.445  0.3297  0.7559 -0.1417
 6008SOL    HW129657   1.407   1.217   8.457  0.0232  1.4692 -1.4388
 6008SOL    HW229658   1.534   1.159   8.399  0.4630 -0.1278  1.4332
 6009SOL     OW29659   0.506   1.317   0.356 -0.0388  0.4675  0.2288
 6009SOL    HW129660   0.602   1.319   0.363  0.1130 -0.3086 -1.6189
 6009SOL    HW229661   0.486   1.315   0.449  2.1290  2.2199  0.7252
 6010SOL     OW29662   0.058   4.006   6.359 -0.2039 -0.0999  0.2958
 6010SOL    HW129663   0.107   4.048   6.288  0.9846 -2.2343 -0.1625
 6010SOL    HW229664   0.121   4.015   6.431 -0.0857  1.2104  0.0302
 6011SOL     OW29665   2.549   1.640   0.963  0.9953 -0.4101  0.5167
 6011SOL    HW129666   2.614   1.707   0.988  0.5019  1.2219 -2.5819
 6011SOL    HW229667   2.472   1.670   1.012  1.5288  0.8140  0.6180
 6012SOL     OW29668   2.120   0.894   0.730 -0.2012 -0.3658 -0.2742
 6012SOL    HW129669   2.067   0.835   0.784 -0.9545  1.1926  0.7041
 6012SOL    HW229670   2.112   0.973   0.783  4.1325  0.0874 -0.2586
 6013SOL     OW29671   1.208   1.792   0.998  0.2419 -0.4479  0.0910
 6013SOL    HW129672   1.122   1.757   1.022 -0.2538  0.6018 -0.1573
 6013SOL    HW229673   1.262   1.781   1.077 -1.1565 -0.8021  0.9960
 6014SOL     OW29674   0.087   2.343  15.081  0.5742 -0.0907  0.1863
 6014SOL    HW129675   0.054   2.424  15.042  1.4705 -0.3873 -1.2029
 6014SOL    HW229676   0.074   2.275  15.015  1.3055  1.1691 -1.2572
 6015SOL     OW29677   3.763   2.220   7.372  0.0173 -0.4322  0.8399
 6015SOL    HW129678   3.746   2.290   7.437 -0.2332  0.0530  0.2526
 6015SOL    HW229679   3.673   2.210   7.340 -0.0416  0.1596  0.8183
 6016SOL     OW29680   4.578   2.988   0.429 -0.5152  0.4283 -0.6494
 6016SOL    HW129681   4.650   2.947   0.380 -0.7238 -0.5468 -0.1417
 6016SOL    HW229682   4.604   2.968   0.519  0.1468  1.4529 -0.6237
 6017SOL     OW29683   0.656   2.303   3.223  0.0360  0.4043 -0.1173
 6017SOL    HW129684   0.724   2.238   3.209 -0.6677 -0.2406 -0.5656
 6017SOL    HW229685   0.680   2.345   3.306 -2.5655 -0.1363  0.9293
 6018SOL     OW29686   4.640   2.847  14.459  0.8397 -0.0815  0.5406
 6018SOL    HW129687   4.666   2.800  14.380  0.6171 -1.7156  1.4546
 6018SOL    HW229688   4.607   2.774  14.511  0.3095 -0.8028 -0.7976
 6019SOL     OW29689   3.324   1.259   0.302 -0.0309  0.3508  0.1311
 6019SOL    HW129690   3.240   1.215   0.299 -0.1278  0.6071 -1.0378
 6019SOL    HW229691   3.314   1.330   0.366 -0.1687 -0.7049  1.2885
 6020SOL     OW29692   0.247   1.893   3.407 -0.1861  0.2462  0.2300
 6020SOL    HW129693   0.222   1.806   3.438  1.2948 -0.2067  0.1311
 6020SOL    HW229694   0.159   1.931   3.406 -0.7762 -1.2177 -1.3910
 6021SOL     OW29695   3.615   4.117   7.387  0.1981  0.4100  0.4242
 6021SOL    HW129696   3.541   4.125   7.327  0.1547  0.3587  0.4706
 6021SOL    HW229697   3.682   4.160   7.333 -0.1132  0.4756  0.0914
 6022SOL     OW29698   3.777   0.880   9.548 -0.2492  0.3041 -0.0401
 6022SOL    HW129699   3.717   0.933   9.600 -0.9465  0.6755 -1.2162
 6022SOL    HW229700   3.787   0.804   9.606  0.5712  0.3855 -0.0809
 6023SOL     OW29701   0.892   3.690   5.527  0.1066 -0.3384  0.5202
 6023SOL    HW129702   0.863   3.603   5.498  1.5120 -0.4892 -0.4184
 6023SOL    HW229703   0.823   3.718   5.587  0.0880 -0.0212  0.3469
 6024SOL     OW29704   3.244   3.007   4.012 -0.2939  0.1477 -0.1264
 6024SOL    HW129705   3.248   3.100   3.990  1.1441  0.1477  0.1334
 6024SOL    HW229706   3.165   2.984   3.963  0.3832 -0.2263 -1.0400
 6025SOL     OW29707   3.056   2.633   7.495 -0.4072 -0.2631 -0.1711
 6025SOL    HW129708   3.087   2.550   7.530  1.5685 -0.0715 -1.4855
 6025SOL    HW229709   3.059   2.690   7.573 -1.0390  0.1094 -0.4193
 6026SOL     OW29710   2.226   4.457   1.504  0.4810 -0.4998  0.4454
 6026SOL    HW129711   2.258   4.506   1.428 -0.4852  1.3434  1.2343
 6026SOL    HW229712   2.312   4.427   1.536  0.0732 -0.8336  1.2467
 6027SOL     OW29713   0.636   0.806   2.691 -0.5021 -0.1534 -0.5644
 6027SOL    HW129714   0.541   0.813   2.677 -0.3563  1.2537 -0.9242
 6027SOL    HW229715   0.663   0.845   2.608  0.0416  0.4220 -0.1156
 6028SOL     OW29716   1.964   0.173   6.789 -0.0935  0.0238 -0.2675
 6028SOL    HW129717   2.059   0.185   6.795 -0.0926 -0.4230  0.5606
 6028SOL    HW229718   1.940   0.258   6.826 -1.8593 -0.7532  0.3515
 6029SOL     OW29719   2.946   1.653   6.245 -0.3846 -0.3948 -0.2019
 6029SOL    HW129720   2.914   1.610   6.324  1.3433  0.0081  0.7349
 6029SOL    HW229721   2.871   1.643   6.188 -1.2337  0.7436  0.7268
 6030SOL     OW29722   4.099   2.463  15.326  0.3909 -0.5831  0.1878
 6030SOL    HW129723   4.138   2.401  15.387  0.8260 -0.7982 -0.3034
 6030SOL    HW229724   4.026   2.408  15.298  2.5513 -2.5152 -1.6483
 6031SOL     OW29725   0.518   4.022   6.245  0.0741 -0.4950 -0.1266
 6031SOL    HW129726   0.547   3.970   6.169  1.4385 -0.8411  0.6346
 6031SOL    HW229727   0.486   4.106   6.213  1.2487  0.7137  1.9535
 6032SOL     OW29728   2.597   4.576   8.936 -0.0897 -0.1652  0.1582
 6032SOL    HW129729   2.610   4.485   8.907 -2.2466 -0.9336  1.6010
 6032SOL    HW229730   2.615   4.627   8.857  1.9956  2.0841  2.1244
 6033SOL     OW29731   2.955   1.482  16.504  0.1163 -0.2507  0.7677
 6033SOL    HW129732   3.012   1.429  16.560 -0.1203  0.0081  1.2538
 6033SOL    HW229733   2.874   1.490  16.554  1.1752 -0.9182  2.6120
 6034SOL     OW29734   2.174   2.617   7.399 -0.2371  0.1845 -0.0339
 6034SOL    HW129735   2.179   2.570   7.482 -2.5256  0.5081  0.2874
 6034SOL    HW229736   2.085   2.598   7.370  0.0071 -0.1429 -0.5706
 6035SOL     OW29737   3.342   4.478   9.786 -0.2020  0.2446 -0.1302
 6035SOL    HW129738   3.394   4.401   9.761 -0.3398  1.1363 -3.2214
 6035SOL    HW229739   3.261   4.428   9.793  0.5997 -1.0544 -0.0822
 6036SOL     OW29740   1.387   3.960  16.121 -0.6706  0.6457  0.1060
 6036SOL    HW129741   1.366   3.988  16.032 -2.3515 -0.7585  0.0652
 6036SOL    HW229742   1.448   4.031  16.141 -1.2968  1.0683  0.4864
 6037SOL     OW29743   3.689   3.724   6.237  0.3051 -0.2504  0.0594
 6037SOL    HW129744   3.624   3.719   6.307 -1.7001  2.5520 -1.5515
 6037SOL    HW229745   3.692   3.631   6.214  1.1069 -0.7157  2.0862
 6038SOL     OW29746   0.021   2.357  10.783 -0.1621  0.4061 -0.0230
 6038SOL    HW129747   0.109   2.342  10.815 -0.9426 -0.8746  1.5069
 6038SOL    HW229748   4.721   2.270  10.797 -3.4741  2.1521  2.1462
 6039SOL     OW29749   1.972   3.438   6.701  0.2506  0.0114  1.0052
 6039SOL    HW129750   1.953   3.456   6.609  2.1299  1.7607  0.9647
 6039SOL    HW229751   2.002   3.527   6.721 -1.6827  1.5547 -2.9478
 6040SOL     OW29752   1.624   1.697   1.092  0.1723  0.4557  0.3656
 6040SOL    HW129753   1.708   1.738   1.073  1.3430 -2.5322 -0.9145
 6040SOL    HW229754   1.587   1.692   1.004  0.8736  3.2833 -0.0752
 6041SOL     OW29755   4.356   0.572   6.332  0.3114  0.2987  0.0844
 6041SOL    HW129756   4.383   0.641   6.271  0.1591  0.1909 -0.1028
 6041SOL    HW229757   4.264   0.589   6.352  0.2976  0.3616 -0.0329
 6042SOL     OW29758   4.443   3.871  15.070 -0.2668  0.3513 -0.4063
 6042SOL    HW129759   4.392   3.905  14.996 -0.4540  0.2162 -0.3394
 6042SOL    HW229760   4.465   3.953  15.114  0.3259 -0.0749  0.0925
 6043SOL     OW29761   1.169   2.026   0.217 -0.3110  0.2547  0.1548
 6043SOL    HW129762   1.201   2.108   0.179 -0.4408  0.4959  0.5727
 6043SOL    HW229763   1.184   1.971   0.140 -0.7172 -0.0448  0.2927
 6044SOL     OW29764   3.786   2.503  11.762  0.1685  0.1031  0.0267
 6044SOL    HW129765   3.870   2.511  11.806  0.0510  0.3407  0.2056
 6044SOL    HW229766   3.718   2.487  11.828 -0.7716  0.0463 -0.9497
 6045SOL     OW29767   0.584   3.278   6.004 -0.9854 -0.2402 -0.1747
 6045SOL    HW129768   0.583   3.284   6.099  1.6044 -3.6550  0.0740
 6045SOL    HW229769   0.537   3.196   5.987  1.3684 -1.5423 -0.3187
 6046SOL     OW29770   0.272   3.917   8.653 -0.4960  0.0842  0.2267
 6046SOL    HW129771   0.296   3.934   8.562  0.5716 -0.6506  0.3759
 6046SOL    HW229772   0.178   3.904   8.642 -0.1557  0.0302 -2.5057
 6047SOL     OW29773   4.350   1.308   9.716 -0.4056  0.8202 -0.0100
 6047SOL    HW129774   4.446   1.310   9.720 -0.3394  0.4634 -1.4450
 6047SOL    HW229775   4.325   1.321   9.807  0.6023  0.2439  0.3498
 6048SOL     OW29776   1.690   0.954   6.114  0.0379 -0.5729  0.6588
 6048SOL    HW129777   1.740   1.015   6.058  2.6956 -1.7942  1.6769
 6048SOL    HW229778   1.746   0.935   6.190  0.8204 -0.0454  0.2211
 6049SOL     OW29779   2.406   0.039  13.992  0.2831 -0.1250  0.5748
 6049SOL    HW129780   2.368   0.082  13.915 -1.7316 -0.4635  1.3600
 6049SOL    HW229781   2.337   4.711  14.001 -0.1264 -0.1059 -2.3150
 6050SOL     OW29782   2.908   1.175  13.961 -0.0347  0.1475 -0.4126
 6050SOL    HW129783   2.952   1.173  13.876 -2.2210  2.8660 -1.6080
 6050SOL    HW229784   2.967   1.114  14.005  0.9037  0.7761 -0.8014
 6051SOL     OW29785   4.145   0.579   7.815 -0.0190 -1.2936 -0.4007
 6051SOL    HW129786   4.096   0.612   7.740  0.6598  2.6832  0.8997
 6051SOL    HW229787   4.079   0.598   7.882 -0.0045  0.1579 -0.8089
 6052SOL     OW29788   1.802   2.689   5.225 -0.3112 -0.0291  0.0508
 6052SOL    HW129789   1.776   2.759   5.165 -2.5304 -1.2464 -0.3713
 6052SOL    HW229790   1.719   2.673   5.269  0.1826 -0.1955  0.9390
 6053SOL     OW29791   2.058   1.160   0.628  0.5669  0.8288 -0.3935
 6053SOL    HW129792   2.058   1.065   0.626 -0.6252  0.7994  0.9827
 6053SOL    HW229793   2.144   1.182   0.662  0.4677 -0.8061  0.9110
 6054SOL     OW29794   0.448   3.876   0.768 -0.5254 -0.1519 -0.3224
 6054SOL    HW129795   0.499   3.842   0.694 -1.5275 -1.5094 -0.3733
 6054SOL    HW229796   0.417   3.962   0.738  2.7403  1.1710 -0.0254
 6055SOL     OW29797   0.243   1.565   9.427  0.0928  0.5850  0.5359
 6055SOL    HW129798   0.157   1.586   9.464 -0.1806  0.7107 -0.1684
 6055SOL    HW229799   0.250   1.477   9.464  1.0438 -0.1580 -1.3790
 6056SOL     OW29800   1.882   1.417   9.068  0.2637  0.3619 -0.0981
 6056SOL    HW129801   1.943   1.353   9.031  1.6930  0.9955  1.1648
 6056SOL    HW229802   1.797   1.373   9.064  0.2887  0.6034 -3.4599
 6057SOL     OW29803   2.073   3.465   6.318  0.0183  0.3591  0.0889
 6057SOL    HW129804   2.121   3.383   6.323 -0.2198  0.2070 -0.1394
 6057SOL    HW229805   2.005   3.463   6.384  0.8216 -0.1506  0.9016
 6058SOL     OW29806   3.212   2.433   7.041 -0.6319  0.4800 -0.2922
 6058SOL    HW129807   3.208   2.492   7.117 -2.2087  1.2721 -0.9971
 6058SOL    HW229808   3.298   2.437   7.001  0.3222 -0.3847  1.6794
 6059SOL     OW29809   0.173   2.329   3.181  0.0754 -0.5836 -0.2620
 6059SOL    HW129810   0.200   2.328   3.089 -2.3218  0.4870 -0.9687
 6059SOL    HW229811   0.255   2.306   3.225  0.2372 -0.5416 -0.5481
 6060SOL     OW29812   2.946   0.181  15.468  0.1065  0.1357  0.0266
 6060SOL    HW129813   2.995   0.261  15.484  0.6951 -0.3598  0.7325
 6060SOL    HW229814   2.877   0.195  15.533  0.5573  0.3205  0.4633
 6061SOL     OW29815   1.366   2.495  14.102  0.1445  0.3088  0.1851
 6061SOL    HW129816   1.424   2.534  14.167  1.8990 -0.6816 -0.7916
 6061SOL    HW229817   1.303   2.454  14.161 -2.3353  0.2646 -2.4842
 6062SOL     OW29818   2.650   0.927   9.144 -0.3274  0.5239 -0.6552
 6062SOL    HW129819   2.733   0.950   9.184 -1.6468  0.7634  1.9362
 6062SOL    HW229820   2.587   0.948   9.213 -1.1552  1.3595 -1.6476
 6063SOL     OW29821   2.735   1.492  10.975 -0.1414  0.0581 -0.0784
 6063SOL    HW129822   2.830   1.499  10.990 -0.2172  0.5995  0.1410
 6063SOL    HW229823   2.730   1.547  10.897  2.8244  1.2699  0.5871
 6064SOL     OW29824   0.192   2.701   5.527 -0.4120 -0.1646 -0.7661
 6064SOL    HW129825   0.193   2.606   5.539  1.8200  0.0099  0.3384
 6064SOL    HW229826   0.134   2.721   5.600  0.4274  1.3896 -0.5315
 6065SOL     OW29827   2.619   0.626  16.779  0.0457 -0.1644  0.0316
 6065SOL    HW129828   2.608   0.546  16.831  0.2230 -0.9198 -1.0932
 6065SOL    HW229829   2.536   0.635  16.731  1.3944  2.5773 -1.7645
 6066SOL     OW29830   3.975   3.230  10.383  0.2726 -0.2957 -0.0496
 6066SOL    HW129831   3.951   3.268  10.299  2.2716 -0.1823 -0.5763
 6066SOL    HW229832   4.067   3.206  10.372  0.1241 -1.0414  0.3288
 6067SOL     OW29833   0.211   0.797   9.558  0.3021 -0.4897 -0.0262
 6067SOL    HW129834   0.256   0.829   9.636  1.0513 -2.4780  0.3563
 6067SOL    HW229835   0.233   0.709   9.589 -1.4525 -0.9042  0.0768
 6068SOL     OW29836   1.368   2.283   2.418  0.6604 -0.5968 -0.0270
 6068SOL    HW129837   1.372   2.312   2.509  1.5712 -0.0066 -0.2580
 6068SOL    HW229838   1.314   2.355   2.384  2.0279  0.0055 -0.9011
 6069SOL     OW29839   4.195   2.551  12.561  0.2941 -0.1841 -0.2730
 6069SOL    HW129840   4.153   2.546  12.646 -0.5671 -1.3004 -0.7514
 6069SOL    HW229841   4.162   2.636  12.530 -0.9377 -2.2002 -4.6393
 6070SOL     OW29842   1.256   3.120  13.603 -0.4073 -0.4237  0.1132
 6070SOL    HW129843   1.246   3.034  13.644 -0.0781 -0.3650  0.3135
 6070SOL    HW229844   1.205   3.182  13.656  0.1995  1.0485 -1.0393
 6071SOL     OW29845   3.924   3.437   9.466 -0.5259  0.7003 -0.3430
 6071SOL    HW129846   3.957   3.436   9.376  2.0845 -0.3333  0.6192
 6071SOL    HW229847   3.967   3.356   9.495  1.7203  2.8469  2.3389
 6072SOL     OW29848   0.428   3.175   4.787  0.6015  0.2780  0.0085
 6072SOL    HW129849   0.508   3.135   4.821  2.0638  1.3584 -2.1441
 6072SOL    HW229850   0.397   3.232   4.858 -0.3119 -3.4019  2.5479
 6073SOL     OW29851   1.692   2.047   6.278  0.2760 -0.9420 -0.3539
 6073SOL    HW129852   1.691   1.980   6.346 -0.5961 -1.5127 -0.9225
 6073SOL    HW229853   1.604   2.083   6.282  0.8817  0.5705 -0.7725
 6074SOL     OW29854   1.717   0.146   0.310  0.0164  0.3353 -0.2865
 6074SOL    HW129855   1.798   0.171   0.266  0.7679 -1.1201  0.2724
 6074SOL    HW229856   1.719   0.216   0.376 -2.5285 -0.4281  0.5950
 6075SOL     OW29857   2.392   1.264   7.616  0.2361 -1.0410 -0.3549
 6075SOL    HW129858   2.426   1.314   7.690 -0.6526  1.6218 -1.7317
 6075SOL    HW229859   2.375   1.180   7.659 -0.4709 -0.2730  0.8544
 6076SOL     OW29860   2.890   3.607   3.690 -0.5775  0.3242  0.1624
 6076SOL    HW129861   2.816   3.552   3.716 -1.4959  2.1712  1.4423
 6076SOL    HW229862   2.882   3.687   3.742  1.1521 -0.8728  2.2992
 6077SOL     OW29863   3.625   4.123   0.425  0.3787  0.4742 -0.3906
 6077SOL    HW129864   3.714   4.153   0.407 -0.0052  0.8110 -1.6707
 6077SOL    HW229865   3.630   4.049   0.365 -0.1943 -1.5471  2.0296
 6078SOL     OW29866   4.401   0.628   7.845  0.0009 -0.1232  1.1027
 6078SOL    HW129867   4.310   0.604   7.826  1.1167 -1.8844 -2.1972
 6078SOL    HW229868   4.381   0.721   7.839 -0.3423 -0.2625 -0.0754
 6079SOL     OW29869   0.627   2.165   8.913 -0.2059  0.3540 -0.4072
 6079SOL    HW129870   0.625   2.230   8.982  1.4982  0.5128 -0.5097
 6079SOL    HW229871   0.560   2.102   8.940 -1.6959  1.2250 -2.0816
 6080SOL     OW29872   1.865   2.805   4.022 -0.4369  0.2015 -0.5331
 6080SOL    HW129873   1.956   2.779   4.033  0.2641  1.7244 -2.7250
 6080SOL    HW229874   1.853   2.852   4.105 -2.6556  0.4716 -0.9849
 6081SOL     OW29875   0.521   1.576   2.771  0.4599 -1.1704 -0.5997
 6081SOL    HW129876   0.519   1.669   2.795 -0.4854 -1.4709  0.4811
 6081SOL    HW229877   0.553   1.534   2.850 -2.2688 -1.3564  0.4140
 6082SOL     OW29878   1.082   1.749  17.182 -0.1056 -0.5001  0.3596
 6082SOL    HW129879   0.994   1.722  17.209  0.0099 -0.9072  0.3254
 6082SOL    HW229880   1.099   1.825  17.239 -1.4914 -1.1399  1.6250
 6083SOL     OW29881   0.732   1.593  10.037  0.3258  0.0666 -0.5952
 6083SOL    HW129882   0.809   1.566   9.986  0.9924  0.5993  0.1202
 6083SOL    HW229883   0.705   1.520  10.092 -0.3075  2.0406  1.7322
 6084SOL     OW29884   0.920   2.248   9.378 -0.4261 -0.0552  0.0216
 6084SOL    HW129885   0.957   2.314   9.438  1.9402 -1.4721  0.1220
 6084SOL    HW229886   0.955   2.272   9.293 -1.3577 -1.2241 -0.6789
 6085SOL     OW29887   1.928   2.165   8.612  0.1670  0.2442  0.0771
 6085SOL    HW129888   1.976   2.175   8.694 -1.2531  1.6626  0.7524
 6085SOL    HW229889   1.894   2.078   8.630  1.9045 -0.3318  0.5562
 6086SOL     OW29890   0.756   3.331   2.494 -0.4743  0.0525  0.0869
 6086SOL    HW129891   0.781   3.245   2.528  1.6616  1.2059  1.4910
 6086SOL    HW229892   0.789   3.316   2.406  0.7942  1.4747  0.3097
 6087SOL     OW29893   0.504   3.354   4.215  0.7077  0.0178  0.1103
 6087SOL    HW129894   0.554   3.430   4.185 -1.6003  1.6605  0.4851
 6087SOL    HW229895   0.511   3.364   4.310  0.2500 -2.6713  0.4229
 6088SOL     OW29896   0.546   4.672  17.115  0.3531 -0.1024 -1.1060
 6088SOL    HW129897   0.523   4.682  17.207 -2.0328  2.6102 -1.9769
 6088SOL    HW229898   0.499   4.590  17.099  1.2152 -0.4359 -1.9306
 6089SOL     OW29899   3.069   4.591   1.885 -0.2136  0.8139  0.1389
 6089SOL    HW129900   3.139   4.526   1.889 -0.6953  0.1058 -2.3628
 6089SOL    HW229901   3.085   4.628   1.798 -0.0270 -1.7853 -0.9609
 6090SOL     OW29902   3.461   0.179  12.087  0.2897 -0.4049 -0.1913
 6090SOL    HW129903   3.476   0.090  12.118 -0.0669 -0.4962 -0.2835
 6090SOL    HW229904   3.458   0.221  12.173  1.9186  0.2397 -0.4327
 6091SOL     OW29905   3.937   4.432   9.415  0.1897 -0.1080  0.1442
 6091SOL    HW129906   3.945   4.450   9.321  3.2621  0.8102  0.5565
 6091SOL    HW229907   4.015   4.377   9.417  0.2982  0.0787  1.1260
 6092SOL     OW29908   4.068   2.233   6.123 -0.0459  0.0631 -0.1271
 6092SOL    HW129909   4.142   2.178   6.097 -1.0040 -1.0987 -0.4466
 6092SOL    HW229910   4.019   2.182   6.187  0.1228  0.5182  0.3538
 6093SOL     OW29911   3.572   0.085  16.880 -0.5217 -0.5946 -0.3901
 6093SOL    HW129912   3.636   0.144  16.921  1.6291 -2.6031 -0.8594
 6093SOL    HW229913   3.534   0.156  16.828  1.1545  1.1530  0.7642
 6094SOL     OW29914   2.467   1.091  16.497  0.4457 -0.4893  0.1315
 6094SOL    HW129915   2.525   1.167  16.501 -1.0271  0.6268  0.3200
 6094SOL    HW229916   2.465   1.084  16.401 -1.6250 -1.0081  0.2170
 6095SOL     OW29917   2.536   3.206   2.289 -0.3616  0.1659  0.2362
 6095SOL    HW129918   2.604   3.253   2.337 -1.0316  0.1786  1.1722
 6095SOL    HW229919   2.512   3.271   2.222  0.3530 -0.6140 -0.7722
 6096SOL     OW29920   1.518   4.048   1.625  0.2694  0.2145 -0.0642
 6096SOL    HW129921   1.508   4.130   1.575 -1.5631  0.8183  1.2942
 6096SOL    HW229922   1.437   4.061   1.676 -0.1321 -0.5473 -0.5117
 6097SOL     OW29923   0.921   1.732   6.209  0.4595  0.4624  0.4570
 6097SOL    HW129924   0.963   1.751   6.125  1.0879 -0.5260  0.5365
 6097SOL    HW229925   0.949   1.640   6.217  0.7949  0.4726 -0.5979
 6098SOL     OW29926   0.853   2.886  16.330 -0.0172  0.4874  0.2572
 6098SOL    HW129927   0.876   2.821  16.264 -2.8992  0.4267 -0.6561
 6098SOL    HW229928   0.818   2.949  16.268  0.7444 -1.2035 -1.8597
 6099SOL     OW29929   1.195   1.280   6.273  0.1141 -0.0212  0.1884
 6099SOL    HW129930   1.271   1.309   6.324  1.2761  0.4610 -1.8615
 6099SOL    HW229931   1.212   1.323   6.190  1.0996  0.4659  0.6392
 6100SOL     OW29932   0.045   0.912   3.521  0.5245 -0.0158  0.5826
 6100SOL    HW129933   0.091   0.996   3.528  0.2553  0.1943 -0.1633
 6100SOL    HW229934   0.009   0.911   3.610  0.2007 -0.7764  0.4368
 6101SOL     OW29935   0.506   1.112   5.914  0.1792  0.5690 -0.6997
 6101SOL    HW129936   0.433   1.061   5.950 -0.1138  0.7790 -1.0005
 6101SOL    HW229937   0.474   1.162   5.840 -0.6989 -1.8870 -1.9807
 6102SOL     OW29938   3.445   4.395   1.907 -0.6992  0.1261  0.0855
 6102SOL    HW129939   3.388   4.450   1.853  0.3307 -0.1107 -1.2550
 6102SOL    HW229940   3.427   4.426   1.995  3.5984  3.2800 -0.1385
 6103SOL     OW29941   3.528   1.812   4.727  0.2663  0.0898 -0.5818
 6103SOL    HW129942   3.534   1.732   4.675 -0.3518 -0.5325  0.3079
 6103SOL    HW229943   3.545   1.878   4.660  1.8531 -1.8086 -2.0460
 6104SOL     OW29944   0.677   1.543   8.646  0.0203 -0.3113  0.4570
 6104SOL    HW129945   0.770   1.523   8.654  0.3016  1.5941  2.0133
 6104SOL    HW229946   0.675   1.638   8.652 -0.3124 -0.3610  1.2642
 6105SOL     OW29947   0.931   4.310  12.678  0.2770  0.5095 -0.3584
 6105SOL    HW129948   0.989   4.257  12.734  2.4535  2.2093 -1.0056
 6105SOL    HW229949   0.870   4.331  12.747  2.2590  0.3980  1.4319
 6106SOL     OW29950   1.778   0.050   5.606 -0.6512  0.3998  0.4484
 6106SOL    HW129951   1.859   0.095   5.581  0.0012  0.1720  2.1994
 6106SOL    HW229952   1.738   0.108   5.670 -3.4948 -0.0390 -0.9252
 6107SOL     OW29953   3.768   1.805   5.220 -0.0361 -0.1817  0.2190
 6107SOL    HW129954   3.718   1.755   5.284 -0.8799  1.6095  0.9437
 6107SOL    HW229955   3.718   1.886   5.214  2.0808  1.1381  0.4971
 6108SOL     OW29956   3.935   2.340   4.162  0.0005 -0.8246 -0.3341
 6108SOL    HW129957   3.908   2.431   4.174 -0.7565 -1.1924  0.6676
 6108SOL    HW229958   4.005   2.353   4.097  0.5667  3.1683  1.0702
 6109SOL     OW29959   3.722   4.640   1.736 -0.7098  0.1184  0.5551
 6109SOL    HW129960   3.645   4.677   1.694 -0.7129 -1.5635 -0.9197
 6109SOL    HW229961   3.740   4.704   1.804  2.6372  1.5640 -1.6979
 6110SOL     OW29962   0.276   1.253   2.427 -0.0515  0.2760 -0.0282
 6110SOL    HW129963   0.299   1.269   2.519  0.7580  0.2403 -0.2251
 6110SOL    HW229964   0.295   1.340   2.393  0.4565  0.0969 -0.2075
 6111SOL     OW29965   1.010   1.813   5.940  0.0385  0.0782 -0.0126
 6111SOL    HW129966   0.954   1.881   5.902 -0.9764 -1.1495 -0.7155
 6111SOL    HW229967   0.976   1.732   5.904 -0.8857  0.2395  0.4999
 6112SOL     OW29968   3.575   0.829   6.979  0.6688  0.0269 -0.2775
 6112SOL    HW129969   3.510   0.782   7.032  0.6992  0.3732  0.0672
 6112SOL    HW229970   3.606   0.758   6.922  1.7437  1.1964 -1.1541
 6113SOL     OW29971   4.327   0.968   1.164 -0.2300 -0.4296  0.5552
 6113SOL    HW129972   4.254   0.969   1.225  1.3706  0.2184  2.4793
 6113SOL    HW229973   4.325   0.875   1.142 -1.9926 -0.2479 -0.0389
 6114SOL     OW29974   2.146   1.392   6.489 -0.0743  1.4493 -0.0342
 6114SOL    HW129975   2.106   1.479   6.499  1.2474  2.0166  0.4576
 6114SOL    HW229976   2.238   1.413   6.469 -0.3713  1.4749 -1.3953
 6115SOL     OW29977   4.725   2.834   5.367 -0.1658  0.2287  0.0217
 6115SOL    HW129978   0.062   2.793   5.410 -0.7559  0.0219  0.8572
 6115SOL    HW229979   4.679   2.872   5.442  2.1690  0.4218  1.3423
 6116SOL     OW29980   1.850   2.811   2.508  0.0062 -0.3946  0.9620
 6116SOL    HW129981   1.804   2.732   2.480  0.1966  1.3564 -4.2762
 6116SOL    HW229982   1.857   2.788   2.600 -2.4636 -0.2538  1.2092
 6117SOL     OW29983   1.011   0.203   3.702 -0.1474  0.2213  0.0790
 6117SOL    HW129984   0.990   0.126   3.755 -0.0089 -1.1751 -1.8895
 6117SOL    HW229985   0.919   0.229   3.692 -0.0548 -0.3350 -2.1010
 6118SOL     OW29986   3.282   4.254   8.189  0.1055  0.0457 -0.6303
 6118SOL    HW129987   3.257   4.198   8.115 -0.9282 -3.4085  2.3397
 6118SOL    HW229988   3.376   4.240   8.181 -0.3535 -3.1310 -0.4462
 6119SOL     OW29989   3.030   2.386   6.563 -0.2603  0.0267  0.4307
 6119SOL    HW129990   3.055   2.461   6.618 -1.1989  0.3435  0.4281
 6119SOL    HW229991   3.085   2.314   6.594  1.6918  1.0309 -0.7078
 6120SOL     OW29992   2.280   1.340   5.800  0.2008  0.5290  0.0434
 6120SOL    HW129993   2.272   1.378   5.887  1.9025 -1.9407  1.3085
 6120SOL    HW229994   2.330   1.404   5.750  3.3938  0.3735  3.0279
 6121SOL     OW29995   3.985   3.919   9.612 -0.0729  0.8742 -0.4350
 6121SOL    HW129996   4.061   3.929   9.670  0.4269 -1.9441 -0.6161
 6121SOL    HW229997   3.992   3.825   9.595  2.0950  0.7581  1.1277
 6122SOL     OW29998   0.677   0.089   6.835 -0.0096  1.3492 -0.3356
 6122SOL    HW129999   0.639   0.010   6.875  2.2458  0.3254 -0.2091
 6122SOL    HW230000   0.764   0.095   6.876  0.9009 -0.8961 -1.9075
 6123SOL     OW30001   3.974   3.211   4.023 -0.6343 -0.1976  0.1339
 6123SOL    HW130002   3.979   3.236   4.115 -0.3427 -0.2597  0.1329
 6123SOL    HW230003   4.065   3.219   3.996 -1.0521  1.1561 -0.8881
 6124SOL     OW30004   2.827   1.267  15.779 -0.6410 -0.2568 -0.5945
 6124SOL    HW130005   2.863   1.354  15.759  1.5470 -1.6219 -2.6184
 6124SOL    HW230006   2.750   1.263  15.722  0.6555 -2.9250 -2.1701
 6125SOL     OW30007   2.185   0.363   0.410  0.4232 -0.2138 -0.6672
 6125SOL    HW130008   2.090   0.354   0.404  0.2749  0.2151  1.0126
 6125SOL    HW230009   2.207   0.307   0.336  2.3202 -0.1962 -0.0978
 6126SOL     OW30010   1.769   1.625   4.296 -0.2485  0.5712  0.0698
 6126SOL    HW130011   1.787   1.654   4.206 -3.1320  0.9039 -0.4024
 6126SOL    HW230012   1.678   1.595   4.289  1.3807 -4.3798  0.4938
 6127SOL     OW30013   1.206   4.088   8.749 -0.3145  0.3870  0.2858
 6127SOL    HW130014   1.128   4.032   8.752  0.9556 -1.3737  0.4842
 6127SOL    HW230015   1.182   4.139   8.672  0.6301 -0.8220 -0.8142
 6128SOL     OW30016   0.124   2.804   8.724  0.4078 -0.9927 -0.3812
 6128SOL    HW130017   0.037   2.798   8.686 -0.1609  0.4676  0.6770
 6128SOL    HW230018   0.189   2.788   8.656  1.5229  0.6593  0.2927
 6129SOL     OW30019   4.611   4.055  17.473  0.0293 -0.3383  0.0514
 6129SOL    HW130020   4.537   4.000  17.447  0.3850 -2.1035  2.7416
 6129SOL    HW230021   4.688   4.004  17.451  0.1400  0.5245 -1.5486
 6130SOL     OW30022   0.515   1.917   5.531  0.1290 -0.1159 -0.9723
 6130SOL    HW130023   0.542   1.896   5.621  1.6438  0.1888 -1.3601
 6130SOL    HW230024   0.428   1.878   5.542 -0.7347  1.8867 -0.7114
 6131SOL     OW30025   1.929   3.611   4.609  0.4753  0.2533  0.9204
 6131SOL    HW130026   1.924   3.600   4.704 -0.4712 -0.9894  0.7418
 6131SOL    HW230027   1.935   3.519   4.583 -1.1562  1.0807 -2.3502
 6132SOL     OW30028   3.474   3.670   5.398 -0.2330 -0.4543 -0.7470
 6132SOL    HW130029   3.415   3.601   5.366 -0.0309 -0.7704 -0.4411
 6132SOL    HW230030   3.542   3.653   5.332 -0.6831  1.2019 -1.6385
 6133SOL     OW30031   2.570   1.391   7.446 -0.1605  0.0565  0.3244
 6133SOL    HW130032   2.586   1.304   7.409  1.2811  0.6386 -0.3788
 6133SOL    HW230033   2.533   1.367   7.531 -0.7569 -2.9309 -0.7742
 6134SOL     OW30034   0.606   4.071   4.661 -0.3906  0.7489  0.4510
 6134SOL    HW130035   0.613   3.987   4.616  2.6412  1.5597 -0.5594
 6134SOL    HW230036   0.612   4.132   4.588 -1.1692 -0.4838 -0.6451
 6135SOL     OW30037   0.376   2.491  14.132 -0.3514 -0.2903  0.7764
 6135SOL    HW130038   0.285   2.460  14.122 -1.1212  1.6285  1.8651
 6135SOL    HW230039   0.366   2.586  14.141  0.2483 -0.0470 -1.2708
 6136SOL     OW30040   1.622   4.653   6.061 -0.2808 -0.1489 -0.2732
 6136SOL    HW130041   1.599   4.682   6.149  0.0425  0.2970 -0.3329
 6136SOL    HW230042   1.681   4.579   6.075 -0.5355 -0.1982  0.5041
 6137SOL     OW30043   3.079   1.578   3.257 -0.7917 -0.1529  0.2591
 6137SOL    HW130044   3.125   1.495   3.242 -2.1615 -0.7613 -0.5386
 6137SOL    HW230045   2.993   1.551   3.290 -0.2905 -3.4958 -1.1374
 6138SOL     OW30046   2.846   2.199   0.044 -0.1347 -0.1454 -0.4571
 6138SOL    HW130047   2.801   2.118   0.019 -0.6416  0.2982 -0.9773
 6138SOL    HW230048   2.779   2.244   0.095  0.5308 -0.9874  1.1740
 6139SOL     OW30049   0.062   1.093  14.919  0.3211 -0.5829 -0.3381
 6139SOL    HW130050   0.141   1.048  14.889  1.0794  0.7357 -0.3287
 6139SOL    HW230051   0.024   1.117  14.834  0.4472  0.9090  0.0235
 6140SOL     OW30052   0.995   2.011   7.648  0.3391  0.4855 -0.4901
 6140SOL    HW130053   0.984   2.103   7.670  1.5623  0.4954  0.0792
 6140SOL    HW230054   1.091   2.003   7.654  0.4317  0.6552 -1.7915
 6141SOL     OW30055   0.316   1.146   2.819  0.3958  0.3846  0.2388
 6141SOL    HW130056   0.349   1.202   2.750  0.1522  0.7317  0.4044
 6141SOL    HW230057   0.375   1.178   2.887 -0.6958  1.7131  0.5498
 6142SOL     OW30058   1.177   3.001   9.241 -0.3781  0.4635 -0.1951
 6142SOL    HW130059   1.127   3.036   9.167 -0.7113 -0.6344 -0.5014
 6142SOL    HW230060   1.112   3.005   9.311  0.4287 -0.1543  0.5890
 6143SOL     OW30061   1.422   3.261   9.065  0.3674 -0.1559  0.2667
 6143SOL    HW130062   1.465   3.342   9.095  1.4293 -0.1601 -1.1933
 6143SOL    HW230063   1.331   3.283   9.082  0.5507  0.7024  0.1543
 6144SOL     OW30064   3.122   2.766   5.750 -0.1335  0.7981 -0.6905
 6144SOL    HW130065   3.060   2.692   5.755  0.4689  0.2145 -1.9241
 6144SOL    HW230066   3.144   2.761   5.657  0.0366  1.5172 -0.6823
 6145SOL     OW30067   0.093   0.144   8.386  0.2961 -0.2191  0.1985
 6145SOL    HW130068   0.123   0.136   8.296  0.5250 -1.2387  0.3695
 6145SOL    HW230069   0.001   0.166   8.374  0.8824  1.5498 -1.1305
 6146SOL     OW30070   3.887   3.610   9.783 -1.0563 -0.2974  0.3129
 6146SOL    HW130071   3.836   3.532   9.806 -0.4878 -0.9077 -0.5038
 6146SOL    HW230072   3.931   3.616   9.867  0.1670  0.0007 -0.3572
 6147SOL     OW30073   1.964   3.947   2.991  0.3470  0.2185  0.2122
 6147SOL    HW130074   1.908   3.873   2.973  2.2676 -0.7708 -1.6701
 6147SOL    HW230075   1.940   3.969   3.081 -0.0306 -2.2114  0.6954
 6148SOL     OW30076   2.706   0.640   6.543 -0.3785  0.1531 -0.6875
 6148SOL    HW130077   2.774   0.626   6.609  1.8883  0.1668 -2.9801
 6148SOL    HW230078   2.691   0.735   6.537  0.4166  0.5148  3.0666
 6149SOL     OW30079   1.798   4.358   6.248  0.6505 -0.4261 -0.3232
 6149SOL    HW130080   1.821   4.265   6.239  0.7332 -0.5730  1.4520
 6149SOL    HW230081   1.706   4.353   6.274  0.8863 -1.9260  0.2440
 6150SOL     OW30082   1.847   4.050   4.708 -0.0477 -0.0038  0.2627
 6150SOL    HW130083   1.851   3.964   4.665  4.0397  1.5851 -2.4885
 6150SOL    HW230084   1.769   4.094   4.673 -0.3541 -0.5388  0.2714
 6151SOL     OW30085   0.113   4.348  12.722 -0.3602 -0.5555 -0.1991
 6151SOL    HW130086   0.036   4.381  12.769 -0.3928  1.1772 -1.4370
 6151SOL    HW230087   0.114   4.255  12.744  1.6433 -0.4837 -0.0169
 6152SOL     OW30088   1.198   3.437  16.101 -0.1519 -0.1687  0.0549
 6152SOL    HW130089   1.214   3.422  16.194 -1.5142 -2.8259 -0.1483
 6152SOL    HW230090   1.246   3.520  16.092  0.4927 -0.6981 -1.4285
 6153SOL     OW30091   1.375   3.891   7.584  0.3127  0.3168 -0.1046
 6153SOL    HW130092   1.374   3.850   7.671  0.5974  2.1358  0.7689
 6153SOL    HW230093   1.291   3.937   7.579  1.0052  1.4499 -1.3545
 6154SOL     OW30094   3.349   4.389   9.235 -0.0132 -0.4834  0.3099
 6154SOL    HW130095   3.444   4.377   9.242 -0.2475 -2.5065  0.0096
 6154SOL    HW230096   3.333   4.304   9.194 -0.4404 -1.5154  2.5806
 6155SOL     OW30097   2.709   2.691   6.755  0.1800 -0.2942 -0.3888
 6155SOL    HW130098   2.624   2.674   6.794  1.1369 -2.5638  0.7496
 6155SOL    HW230099   2.746   2.605   6.734  2.0782  0.0864  1.3480
 6156SOL     OW30100   0.755   0.902   1.185  0.2436  0.4274  0.0127
 6156SOL    HW130101   0.747   0.919   1.091 -0.5623  1.2910  0.2517
 6156SOL    HW230102   0.663   0.910   1.209 -0.1003 -0.3018 -1.0462
 6157SOL     OW30103   2.391   1.428   3.466 -0.1194  0.3761 -0.1126
 6157SOL    HW130104   2.445   1.507   3.463 -2.4600  1.9185 -1.9522
 6157SOL    HW230105   2.452   1.383   3.409 -2.3816 -0.2966 -2.0136
 6158SOL     OW30106   1.017   2.454   6.649  0.5882  0.5577  0.0166
 6158SOL    HW130107   1.098   2.409   6.625 -0.5617 -0.8487 -1.2250
 6158SOL    HW230108   1.021   2.518   6.577  1.9817 -0.0967 -0.4950
 6159SOL     OW30109   0.881   3.014   7.740 -0.1436  0.7493 -0.0629
 6159SOL    HW130110   0.821   2.952   7.782  0.4119  0.2974  0.0658
 6159SOL    HW230111   0.828   3.093   7.739  1.2702  1.6805 -1.9879
 6160SOL     OW30112   3.510   1.830   7.890  0.1810 -0.0367 -0.2074
 6160SOL    HW130113   3.448   1.804   7.958 -0.6642 -2.4872 -1.8949
 6160SOL    HW230114   3.521   1.924   7.902  0.5181 -0.3727  2.2111
 6161SOL     OW30115   1.672   2.149   2.296  0.6139  0.2167  0.0432
 6161SOL    HW130116   1.604   2.172   2.233  2.5561 -0.7396 -2.3777
 6161SOL    HW230117   1.715   2.087   2.238  1.1506 -0.1421  0.8216
 6162SOL     OW30118   1.267   2.330   4.750  0.0512 -0.2617 -0.1530
 6162SOL    HW130119   1.270   2.246   4.796  1.6191  0.1957  0.5727
 6162SOL    HW230120   1.219   2.389   4.809  1.5138 -0.3634  1.1433
 6163SOL     OW30121   0.928   1.758   5.252  0.1871  0.2553 -0.8267
 6163SOL    HW130122   0.886   1.715   5.178  1.0214  0.0672 -1.1875
 6163SOL    HW230123   1.023   1.749   5.238  0.0408 -2.1405 -0.3052
 6164SOL     OW30124   1.965   3.195   8.148  0.1951 -0.2761  0.7207
 6164SOL    HW130125   1.957   3.224   8.238 -3.1438  1.7382 -0.2166
 6164SOL    HW230126   2.046   3.245   8.137  0.0554 -0.1554  0.2386
 6165SOL     OW30127   3.464   1.346   6.462 -0.0205 -0.2665 -0.2039
 6165SOL    HW130128   3.497   1.344   6.372  2.2448  0.9028  0.5987
 6165SOL    HW230129   3.416   1.264   6.460 -1.5654  0.6032  0.8903
 6166SOL     OW30130   2.051   4.202   4.590  0.0730  0.1943  0.1071
 6166SOL    HW130131   2.120   4.240   4.644 -0.2057  1.0607 -0.1556
 6166SOL    HW230132   1.992   4.165   4.656 -1.1220 -0.7960 -1.5100
 6167SOL     OW30133   4.325   2.644   5.260  0.0063 -0.0831  0.2058
 6167SOL    HW130134   4.316   2.731   5.219  0.7865 -1.4870 -2.9783
 6167SOL    HW230135   4.330   2.677   5.349  1.0228 -3.2299  1.2937
 6168SOL     OW30136   3.275   0.062   5.204  0.5380  0.3526  0.2177
 6168SOL    HW130137   3.298   0.052   5.297  2.4463 -1.4285 -0.4402
 6168SOL    HW230138   3.234   0.148   5.205 -0.6800 -0.2094 -3.0829
 6169SOL     OW30139   0.641   0.245   6.563  0.3870  0.3554  0.4146
 6169SOL    HW130140   0.606   0.189   6.494  2.1443 -2.1105  1.5480
 6169SOL    HW230141   0.630   0.191   6.641 -1.1463  2.2593  1.5407
 6170SOL     OW30142   3.468   4.190   2.355  0.4214 -0.2954 -0.3090
 6170SOL    HW130143   3.399   4.181   2.290  0.0877  1.2151 -0.1618
 6170SOL    HW230144   3.508   4.274   2.333 -0.5623  0.4706  0.7756
 6171SOL     OW30145   2.954   2.925   2.891 -0.0667 -0.0112  0.3140
 6171SOL    HW130146   3.004   2.979   2.830 -1.2924 -1.8538 -2.3361
 6171SOL    HW230147   2.866   2.954   2.868  0.5545  1.0800 -0.6879
 6172SOL     OW30148   2.327   3.370   3.444 -0.7507  0.7017 -0.6806
 6172SOL    HW130149   2.259   3.305   3.426 -0.1904 -0.2065  0.5199
 6172SOL    HW230150   2.269   3.445   3.460 -3.4440 -1.4958 -0.2497
 6173SOL     OW30151   2.895   4.682  13.249  0.4223 -0.0464 -0.4945
 6173SOL    HW130152   2.854   4.643  13.327  1.9652  2.1394  1.4050
 6173SOL    HW230153   2.833   0.016  13.235 -0.4403 -0.8745 -0.9312
 6174SOL     OW30154   1.011   0.358   5.799  0.2520  0.4309 -0.3557
 6174SOL    HW130155   1.071   0.352   5.873 -1.1234  1.1851  0.8115
 6174SOL    HW230156   1.079   0.346   5.733  0.4301 -0.5471  0.0063
 6175SOL     OW30157   3.637   0.315   7.383 -0.4036 -0.6852 -0.6929
 6175SOL    HW130158   3.689   0.256   7.438  2.3036  0.8034 -1.6490
 6175SOL    HW230159   3.700   0.309   7.311 -2.1279 -2.3367 -2.0848
 6176SOL     OW30160   1.714   1.563   7.680  0.2085  0.3943  0.5538
 6176SOL    HW130161   1.807   1.542   7.680  0.0259 -0.4290  2.3141
 6176SOL    HW230162   1.673   1.488   7.636  0.6689  0.2818  0.3173
 6177SOL     OW30163   2.629   3.544   0.822  0.3982 -0.2612 -0.9730
 6177SOL    HW130164   2.647   3.457   0.786  2.2384 -0.7271  1.0998
 6177SOL    HW230165   2.690   3.550   0.895  0.7155  0.7001 -1.3280
 6178SOL     OW30166   1.425   2.869   9.272 -0.5171 -0.3907 -0.1084
 6178SOL    HW130167   1.462   2.834   9.353  1.4071  3.1164  0.5297
 6178SOL    HW230168   1.362   2.940   9.289 -1.8522 -1.5978 -0.0513
 6179SOL     OW30169   0.709   3.803   8.049  0.6734 -0.2305 -0.4343
 6179SOL    HW130170   0.643   3.872   8.061  0.9712 -0.2009  1.0986
 6179SOL    HW230171   0.678   3.735   8.109 -0.6264  0.2686 -0.5435
 6180SOL     OW30172   3.064   2.757   3.657 -0.3836  0.0041  0.2409
 6180SOL    HW130173   3.081   2.706   3.578 -0.9964 -0.4548  0.4068
 6180SOL    HW230174   2.976   2.722   3.664 -0.6810  0.2782 -2.0604
 6181SOL     OW30175   2.292   0.733   4.797 -0.1510  0.2516 -0.0936
 6181SOL    HW130176   2.329   0.687   4.721 -0.0007 -1.7495  1.1781
 6181SOL    HW230177   2.276   0.817   4.755 -0.5917 -0.0694 -0.5749
 6182SOL     OW30178   2.204   3.590   3.561 -0.4505  1.0036  0.2838
 6182SOL    HW130179   2.225   3.567   3.651  1.0709 -1.9668 -0.8394
 6182SOL    HW230180   2.173   3.678   3.584  1.7088  2.0807 -0.9499
 6183SOL     OW30181   2.079   1.473   7.314  0.1324 -0.7642  0.2250
 6183SOL    HW130182   2.089   1.378   7.310 -0.5038 -0.7409 -1.7302
 6183SOL    HW230183   2.172   1.494   7.303 -0.0737  0.7188  1.3680
 6184SOL     OW30184   3.246   0.672   9.631 -0.7500 -0.5958  0.1687
 6184SOL    HW130185   3.204   0.666   9.545  1.9072  0.4327 -1.1930
 6184SOL    HW230186   3.170   0.670   9.688 -0.0533  0.0707  1.1174
 6185SOL     OW30187   1.088   4.489   8.418 -0.0883 -0.2664  0.2729
 6185SOL    HW130188   1.014   4.508   8.361  0.5535  0.9592 -0.1388
 6185SOL    HW230189   1.048   4.475   8.504 -2.4340  3.6350 -0.1967
 6186SOL     OW30190   2.927   3.783   3.472 -0.4622 -0.0619  0.2163
 6186SOL    HW130191   2.922   3.724   3.548  0.1333 -1.8090 -1.1169
 6186SOL    HW230192   2.947   3.726   3.398 -1.7142  0.5177 -0.5536
 6187SOL     OW30193   4.172   2.295   5.299 -0.1710 -0.2063 -0.4079
 6187SOL    HW130194   4.153   2.388   5.285 -0.5274 -0.2642 -0.3085
 6187SOL    HW230195   4.116   2.264   5.229  1.0490  0.7733 -1.8102
 6188SOL     OW30196   2.632   4.593   6.158 -0.1918  0.0886 -0.5567
 6188SOL    HW130197   2.557   4.647   6.181  1.3396  1.3155  1.5746
 6188SOL    HW230198   2.588   4.509   6.169 -0.5734  0.1083 -1.9387
 6189SOL     OW30199   3.690   3.800   9.739 -0.1069 -0.2252 -0.3297
 6189SOL    HW130200   3.723   3.884   9.772 -1.4000  0.2786 -0.3536
 6189SOL    HW230201   3.769   3.753   9.710 -0.3740 -0.5823 -0.4795
 6190SOL     OW30202   1.477   4.573   8.895 -0.2258  0.0887 -0.2318
 6190SOL    HW130203   1.406   4.606   8.839 -1.7784  1.2552  2.4046
 6190SOL    HW230204   1.555   4.618   8.862  0.7719 -2.0928 -0.7975
 6191SOL     OW30205   1.552   3.339   8.487 -0.3442  0.3490 -0.6568
 6191SOL    HW130206   1.605   3.315   8.411  0.1100  0.2939 -0.3195
 6191SOL    HW230207   1.502   3.260   8.507  2.4056 -0.8043  1.6348
 6192SOL     OW30208   1.071   3.959  11.634  0.4397 -0.3214  0.8741
 6192SOL    HW130209   0.986   4.003  11.637  1.5294  1.7943  0.8022
 6192SOL    HW230210   1.116   4.033  11.592 -0.2055  0.0699  0.8788
 6193SOL     OW30211   3.492   1.957   2.314  1.1337 -0.2151  0.3312
 6193SOL    HW130212   3.472   2.024   2.249 -0.0961 -0.4264  0.5009
 6193SOL    HW230213   3.520   2.008   2.390  1.1420 -0.3169  0.3965
 6194SOL     OW30214   0.207   3.406  10.590  0.5812  0.1410  0.1517
 6194SOL    HW130215   0.127   3.355  10.599  0.7145 -0.1072 -0.0654
 6194SOL    HW230216   0.261   3.376  10.662  0.0465  2.2759  1.4539
 6195SOL     OW30217   1.373   1.030   6.954  0.3950  0.4516 -0.3841
 6195SOL    HW130218   1.452   1.030   7.009  0.2612  1.6609 -0.1825
 6195SOL    HW230219   1.326   1.098   7.002 -0.0093 -0.7571  0.9205
 6196SOL     OW30220   0.652   2.210  14.098  0.4341 -0.2548  0.3683
 6196SOL    HW130221   0.714   2.198  14.026  1.5173 -0.5124  1.3548
 6196SOL    HW230222   0.566   2.238  14.064 -0.2226 -2.5825  0.1275
 6197SOL     OW30223   0.751   1.536   7.272 -0.0681  0.1587  0.5355
 6197SOL    HW130224   0.762   1.624   7.236  2.3517  0.3287  1.6632
 6197SOL    HW230225   0.824   1.498   7.224 -0.1472  0.2400  0.3504
 6198SOL     OW30226   4.317   0.143  10.030 -0.6762  0.3374 -0.2182
 6198SOL    HW130227   4.344   0.149  10.122  0.9328  1.4441 -0.7513
 6198SOL    HW230228   4.384   0.085   9.994 -2.6733 -0.8526 -1.9563
 6199SOL     OW30229   4.228   0.237   5.127 -0.4513  0.0381 -0.1884
 6199SOL    HW130230   4.183   0.278   5.054 -0.2148  1.9574  0.7458
 6199SOL    HW230231   4.151   0.197   5.168 -0.5380 -0.0370 -0.4225
 6200SOL     OW30232   2.709   4.718  16.729 -0.6029 -0.0760  0.7871
 6200SOL    HW130233   2.767   4.642  16.736 -0.2344 -0.0055 -1.3616
 6200SOL    HW230234   2.682   4.707  16.638  1.8157  0.6086 -0.0144
 6201SOL     OW30235   2.794   4.245   6.300  0.3456  0.0899 -0.0711
 6201SOL    HW130236   2.750   4.227   6.383 -1.0347 -1.2962 -1.1006
 6201SOL    HW230237   2.724   4.298   6.264 -0.9328 -1.6280 -0.1246
 6202SOL     OW30238   1.482   3.929   2.319 -0.0267 -0.0133  0.1735
 6202SOL    HW130239   1.568   3.924   2.361 -0.0163 -1.1390  0.0079
 6202SOL    HW230240   1.440   4.010   2.348 -1.8542 -0.9058  0.0408
 6203SOL     OW30241   3.568   1.303   9.146  0.2353  0.2799  0.1298
 6203SOL    HW130242   3.514   1.333   9.073 -1.6249  0.1439  1.4495
 6203SOL    HW230243   3.614   1.229   9.108  1.9462  1.9605 -1.0298
 6204SOL     OW30244   1.555   0.892   5.261 -0.0702  0.7863 -0.0213
 6204SOL    HW130245   1.509   0.905   5.179 -0.7704 -0.4935  0.1678
 6204SOL    HW230246   1.493   0.840   5.313 -0.5750  1.3441 -0.0690
 6205SOL     OW30247   3.770   3.120   6.527 -0.2689 -0.0315  0.1784
 6205SOL    HW130248   3.692   3.175   6.525  2.5708  4.0983  2.0781
 6205SOL    HW230249   3.836   3.183   6.495 -1.2273  1.2753  0.7580
 6206SOL     OW30250   2.737   4.681   3.775 -0.2558  0.1557  0.0905
 6206SOL    HW130251   2.794   4.605   3.777  1.2133  1.2619  0.0680
 6206SOL    HW230252   2.775   4.721   3.697 -2.5889  0.7075 -0.7582
 6207SOL     OW30253   1.716   2.081   0.333 -0.3539 -0.0513 -0.7871
 6207SOL    HW130254   1.637   2.133   0.316  0.8026  2.1305  0.4304
 6207SOL    HW230255   1.722   2.038   0.248 -0.9231 -0.1190 -0.7958
 6208SOL     OW30256   2.151   2.926  16.821 -0.2942 -0.3360  0.2741
 6208SOL    HW130257   2.135   2.974  16.740  2.1592  1.0648  0.6158
 6208SOL    HW230258   2.075   2.956  16.870 -2.6901 -3.5689 -1.4653
 6209SOL     OW30259   1.277   2.573  15.610 -0.2234  0.0893 -0.1903
 6209SOL    HW130260   1.371   2.589  15.596 -0.8220  2.1769 -1.8310
 6209SOL    HW230261   1.268   2.478  15.611  2.1640 -0.1516 -0.4793
 6210SOL     OW30262   3.399   0.343   7.527 -0.0274 -0.0134 -0.7053
 6210SOL    HW130263   3.426   0.417   7.581  2.7177 -0.2621 -1.6797
 6210SOL    HW230264   3.482   0.330   7.480  0.3271  3.5298 -1.0744
 6211SOL     OW30265   0.115   3.157   8.115  0.3780 -0.7988  0.2678
 6211SOL    HW130266   0.145   3.075   8.155  0.1208 -0.9110  0.2287
 6211SOL    HW230267   0.170   3.223   8.156 -1.0832  1.1527 -0.9076
 6212SOL     OW30268   1.218   1.687   8.725 -0.1920 -0.4213  0.0576
 6212SOL    HW130269   1.211   1.773   8.684  1.3740 -0.9080 -1.2329
 6212SOL    HW230270   1.241   1.714   8.813  2.7740  1.7742 -1.4181
 6213SOL     OW30271   2.234   0.963   4.651 -0.9268 -0.1058  0.1773
 6213SOL    HW130272   2.144   0.995   4.646 -1.0250 -0.2336  1.1854
 6213SOL    HW230273   2.259   0.967   4.559 -2.7530 -0.9245 -0.3607
 6214SOL     OW30274   3.624   0.019  12.465 -0.0241  0.0595  0.4026
 6214SOL    HW130275   3.695   4.735  12.524  0.2519  1.1444  0.4680
 6214SOL    HW230276   3.678   0.035  12.387 -0.4399 -1.1286 -0.1253
 6215SOL     OW30277   2.566   1.378  17.070  1.1780 -0.5578 -0.5943
 6215SOL    HW130278   2.649   1.372  17.117  1.5909  0.0890 -1.2535
 6215SOL    HW230279   2.528   1.296  17.104  0.2301 -0.6249 -1.8084
 6216SOL     OW30280   3.668   0.010   7.184 -0.1404  0.1672  0.1008
 6216SOL    HW130281   3.742   0.016   7.245 -0.8730 -0.7569  1.0814
 6216SOL    HW230282   3.705   4.711   7.104  0.1951 -0.1590  0.4046
 6217SOL     OW30283   0.022   3.136   4.972 -0.7751  0.3731  0.2813
 6217SOL    HW130284   4.706   3.061   4.944 -0.8648  0.7285 -0.5074
 6217SOL    HW230285   0.015   3.142   5.067  0.2322  1.3722  0.2853
 6218SOL     OW30286   3.476   2.741   2.902 -0.1810 -0.2684 -0.2762
 6218SOL    HW130287   3.407   2.734   2.836 -1.1522 -0.8020  0.7888
 6218SOL    HW230288   3.449   2.777   2.986 -0.3940 -2.4466  0.6008
 6219SOL     OW30289   2.979   0.481   2.597 -0.4087  0.3866 -0.1752
 6219SOL    HW130290   2.900   0.428   2.611 -0.9733  0.8765 -1.4832
 6219SOL    HW230291   3.049   0.416   2.607 -0.7638 -0.2605 -1.9296
 6220SOL     OW30292   2.492   1.673   4.054 -0.7166  0.6118  0.1872
 6220SOL    HW130293   2.561   1.726   4.013  2.6681 -3.0410  1.1037
 6220SOL    HW230294   2.419   1.685   3.994 -1.8506 -0.4450  1.3542
 6221SOL     OW30295   0.689   2.788   5.270 -0.0611 -0.0690  0.1176
 6221SOL    HW130296   0.613   2.805   5.215 -0.8806 -2.0074  0.6459
 6221SOL    HW230297   0.728   2.716   5.221  1.3482  1.2628 -0.7315
 6222SOL     OW30298   3.696   1.383   5.282 -0.9750 -0.2234 -0.1436
 6222SOL    HW130299   3.634   1.442   5.326  0.2702  2.0954 -1.5068
 6222SOL    HW230300   3.729   1.433   5.208  1.7381 -3.7209 -1.2654
 6223SOL     OW30301   4.211   0.413   7.632 -0.2589 -0.3926  0.0705
 6223SOL    HW130302   4.282   0.451   7.580 -0.6375 -0.2758 -0.3647
 6223SOL    HW230303   4.221   0.440   7.723 -1.2498  1.4030 -0.3314
 6224SOL     OW30304   1.089   3.197  13.863  0.5706  0.0296 -0.4476
 6224SOL    HW130305   1.135   3.120  13.899 -0.5067 -0.4293 -0.0434
 6224SOL    HW230306   1.143   3.263  13.905  0.8616  0.2048 -1.1015
 6225SOL     OW30307   2.404   3.405   0.843  0.0074  0.1452  0.6029
 6225SOL    HW130308   2.483   3.459   0.840 -0.0864  0.3028  1.0369
 6225SOL    HW230309   2.354   3.480   0.877  0.6365  0.9345 -0.1879
 6226SOL     OW30310   4.150   0.129  17.301  0.0326  0.0934 -0.3309
 6226SOL    HW130311   4.123   0.146  17.210 -1.3051 -0.0740  0.0223
 6226SOL    HW230312   4.068   0.134  17.350 -0.1222 -3.0682 -0.2713
 6227SOL     OW30313   0.429   3.563   4.906  0.2504  0.1261  0.4298
 6227SOL    HW130314   0.446   3.527   4.993  1.6205 -1.0784 -0.3382
 6227SOL    HW230315   0.383   3.644   4.927  0.1170 -0.1100  1.0550
 6228SOL     OW30316   2.528   3.335   4.716  0.2560 -0.0455  0.3969
 6228SOL    HW130317   2.479   3.351   4.635 -1.2684 -1.5316  1.0158
 6228SOL    HW230318   2.599   3.286   4.675 -0.7847  1.0869 -2.7476
 6229SOL     OW30319   2.039   1.905   6.225  0.0314  0.5577  0.3657
 6229SOL    HW130320   2.115   1.963   6.228 -1.2063  2.2279 -0.9901
 6229SOL    HW230321   2.041   1.867   6.137  2.5858 -0.3784  0.8164
 6230SOL     OW30322   3.757   4.472   5.072  0.4419  0.7511 -0.2562
 6230SOL    HW130323   3.717   4.557   5.054  2.2719  1.2086 -2.1321
 6230SOL    HW230324   3.842   4.503   5.104 -0.0972  1.9239  0.0679
 6231SOL     OW30325   2.108   2.591   8.776 -0.1176  0.6061 -0.6703
 6231SOL    HW130326   2.094   2.679   8.812 -2.8837 -0.8522  1.8359
 6231SOL    HW230327   2.093   2.539   8.855  1.3159  1.5997  0.2704
 6232SOL     OW30328   1.280   0.641   1.640 -0.2554 -0.0443 -0.5841
 6232SOL    HW130329   1.188   0.630   1.661 -0.5680 -1.5828 -2.7978
 6232SOL    HW230330   1.301   0.688   1.721  2.3614  0.5666 -1.6221
 6233SOL     OW30331   0.487   1.260   1.715 -0.5546 -0.4215 -0.6361
 6233SOL    HW130332   0.397   1.247   1.683 -1.1935  0.1724  0.9269
 6233SOL    HW230333   0.492   1.193   1.783  0.3377  1.2494  0.9403
 6234SOL     OW30334   1.094   0.908   4.852 -0.0440 -0.1434  0.0367
 6234SOL    HW130335   1.132   0.980   4.902  2.8309  1.5821 -4.6349
 6234SOL    HW230336   1.003   0.937   4.859  0.9995  2.9573  0.8770
 6235SOL     OW30337   0.854   1.440   8.380  0.1630 -0.1024  0.0353
 6235SOL    HW130338   0.764   1.417   8.355 -0.7268  1.1452  2.1246
 6235SOL    HW230339   0.887   1.351   8.390 -0.3765 -0.4930 -1.6004
 6236SOL     OW30340   2.550   2.543   4.342 -0.0585  0.3509 -0.0665
 6236SOL    HW130341   2.644   2.528   4.327 -0.4045 -0.7251 -1.1579
 6236SOL    HW230342   2.535   2.456   4.378  0.5712  0.7302  1.1108
 6237SOL     OW30343   4.521   1.343   7.649  0.3057  0.4614 -0.1730
 6237SOL    HW130344   4.431   1.310   7.654  0.2622  0.8328  1.3032
 6237SOL    HW230345   4.512   1.435   7.674  1.1608  0.4387  0.2338
 6238SOL     OW30346   3.849   1.672  11.725  0.1292 -0.3000 -0.8432
 6238SOL    HW130347   3.758   1.681  11.696 -0.3025  1.5029  1.1039
 6238SOL    HW230348   3.893   1.705  11.646 -0.4672  0.2191 -0.9572
 6239SOL     OW30349   0.906   3.260   1.800 -0.1938  0.0582  0.8937
 6239SOL    HW130350   0.868   3.306   1.725 -0.0218 -0.8894  0.2193
 6239SOL    HW230351   0.983   3.219   1.760 -0.6573  0.2722 -0.2104
 6240SOL     OW30352   3.728   1.434   6.940 -0.1670  0.1664 -0.0603
 6240SOL    HW130353   3.677   1.353   6.934  1.5426 -0.8386 -1.1477
 6240SOL    HW230354   3.668   1.496   6.980 -0.1729 -0.5755  1.0849
 6241SOL     OW30355   2.787   4.052   3.932  0.4445  0.9608  0.1813
 6241SOL    HW130356   2.821   4.091   4.013  0.7512 -0.9320  0.9916
 6241SOL    HW230357   2.724   4.119   3.908 -1.3766 -0.0712  2.0063
 6242SOL     OW30358   3.318   0.942  14.885  0.3222 -0.0952 -0.6294
 6242SOL    HW130359   3.372   0.991  14.823  2.5731 -0.5558  0.9303
 6242SOL    HW230360   3.253   1.008  14.908  2.3687  1.6806  0.0633
 6243SOL     OW30361   3.101   4.155   7.339  0.1061  0.3349  0.3378
 6243SOL    HW130362   3.069   4.171   7.250  1.4530 -0.2037 -0.2395
 6243SOL    HW230363   3.135   4.239   7.371 -1.9060  0.7253  1.4062
 6244SOL     OW30364   4.592   1.514   9.958  0.2110  0.1468 -0.4641
 6244SOL    HW130365   4.569   1.603   9.930  2.1375  0.9951  0.6362
 6244SOL    HW230366   4.677   1.502   9.915  0.0367 -1.2358 -0.4152
 6245SOL     OW30367   2.931   1.256   4.669  0.0054 -0.2863 -0.1621
 6245SOL    HW130368   3.010   1.302   4.698  0.6918 -0.0392 -2.3504
 6245SOL    HW230369   2.921   1.300   4.584 -0.8364  0.2224  0.2109
 6246SOL     OW30370   2.304   3.405   5.446  0.0575  0.0980 -0.1593
 6246SOL    HW130371   2.228   3.457   5.471 -1.5845 -3.2226  1.7043
 6246SOL    HW230372   2.336   3.467   5.381  1.0704  0.8950  1.1242
 6247SOL     OW30373   3.569   4.058   6.693 -0.1364 -0.2360  0.1796
 6247SOL    HW130374   3.498   4.000   6.722 -0.0385  0.1208  1.1261
 6247SOL    HW230375   3.536   4.071   6.604  0.2287 -0.3213  0.0314
 6248SOL     OW30376   2.794   4.420   2.699 -0.5960  0.1627  0.5260
 6248SOL    HW130377   2.876   4.468   2.703 -0.4212  0.0208 -1.4712
 6248SOL    HW230378   2.761   4.429   2.788 -0.1578  1.5033  0.5427
 6249SOL     OW30379   3.565   3.518   8.417  0.3273 -0.5061 -0.3978
 6249SOL    HW130380   3.621   3.482   8.348  1.3448  1.4079 -0.5681
 6249SOL    HW230381   3.633   3.549   8.477 -2.2397 -0.2598  2.3451
 6250SOL     OW30382   2.902   3.186   8.608 -1.0774 -0.0949 -0.9534
 6250SOL    HW130383   2.855   3.231   8.679  1.2258 -1.1010  1.2194
 6250SOL    HW230384   2.830   3.147   8.558  1.1388 -1.0142 -3.4057
 6251SOL     OW30385   1.045   2.460   9.999  0.1927 -0.0678 -0.1018
 6251SOL    HW130386   1.014   2.446   9.909 -0.7733 -1.8047  0.4928
 6251SOL    HW230387   0.966   2.478  10.050  1.1321  0.0993  1.2867
 6252SOL     OW30388   3.145   4.024  11.843 -0.1263  0.8020 -0.0684
 6252SOL    HW130389   3.109   4.093  11.899 -2.3810 -0.2312 -0.2645
 6252SOL    HW230390   3.203   3.969  11.896  1.8263 -0.3104 -3.3311
 6253SOL     OW30391   4.455   0.960  14.077 -0.8727 -0.0420  0.0386
 6253SOL    HW130392   4.445   0.992  13.987 -1.9917  0.4182  0.3321
 6253SOL    HW230393   4.386   1.012  14.119 -0.7686  0.5216 -0.4861
 6254SOL     OW30394   4.254   1.531   4.331 -0.8713  0.0607  0.6471
 6254SOL    HW130395   4.214   1.464   4.276  1.8267  0.5617 -1.9206
 6254SOL    HW230396   4.349   1.526   4.317 -1.0704 -1.7913  0.0077
 6255SOL     OW30397   3.820   2.069   7.953 -0.1419  0.4362  0.0643
 6255SOL    HW130398   3.817   1.973   7.948 -1.8535  0.4914  0.2714
 6255SOL    HW230399   3.873   2.076   8.033  0.2715  1.2898 -0.2922
 6256SOL     OW30400   1.746   1.004   0.755  0.4203 -0.7037 -0.0692
 6256SOL    HW130401   1.739   0.925   0.702  0.3198 -1.9565  1.8098
 6256SOL    HW230402   1.660   1.040   0.734 -0.1727 -0.3756  2.9196
 6257SOL     OW30403   3.994   3.468   9.219  0.1564  0.0073  0.1770
 6257SOL    HW130404   3.939   3.416   9.160 -1.8610  0.3933  1.7314
 6257SOL    HW230405   4.063   3.493   9.157  0.3403  3.0801  1.6402
 6258SOL     OW30406   1.381   3.135   2.280  0.1941  0.1510 -0.1765
 6258SOL    HW130407   1.445   3.103   2.344  0.8568 -1.6147 -1.7162
 6258SOL    HW230408   1.328   3.063   2.245 -0.7056  0.0801  1.3879
 6259SOL     OW30409   2.459   3.751   3.765  0.0043  0.3025 -0.5775
 6259SOL    HW130410   2.491   3.767   3.676 -0.0843  1.9211 -0.3151
 6259SOL    HW230411   2.544   3.745   3.809  0.7577  0.4813 -2.0274
 6260SOL     OW30412   1.759   0.000   7.997  0.3050  0.6479  0.7882
 6260SOL    HW130413   1.713   0.084   8.001  0.7424  0.9391 -0.2622
 6260SOL    HW230414   1.770   4.725   8.091  0.8346 -2.2154  0.3459
 6261SOL     OW30415   2.551   2.592   2.062  0.5044  0.0002  0.4496
 6261SOL    HW130416   2.533   2.605   2.155 -1.9874  0.1870 -0.0472
 6261SOL    HW230417   2.499   2.662   2.023 -1.4267 -1.8881 -0.3081
 6262SOL     OW30418   0.098   0.032  11.701  0.3862 -0.3228  0.2159
 6262SOL    HW130419   0.136   4.726  11.778  2.3621  1.4948  0.2586
 6262SOL    HW230420   0.148   4.724  11.634 -2.6706 -2.4429 -0.6679
 6263SOL     OW30421   1.423   0.978  11.510 -0.0095 -0.1922  0.6478
 6263SOL    HW130422   1.337   1.011  11.533  0.5487  2.1472 -0.6421
 6263SOL    HW230423   1.423   0.885  11.532 -2.6402 -0.3262  0.0086
 6264SOL     OW30424   0.129   0.062   7.231  0.3777  0.1907 -0.3265
 6264SOL    HW130425   0.215   0.032   7.202  1.3638  1.7154  1.0587
 6264SOL    HW230426   0.109   0.129   7.165 -0.6716  2.4222  2.2820
 6265SOL     OW30427   2.590   2.976   3.546  1.0487 -0.2379 -0.1069
 6265SOL    HW130428   2.577   2.888   3.581  0.2414  0.7843  2.1704
 6265SOL    HW230429   2.627   2.949   3.462 -0.5899 -0.8121 -0.6542
 6266SOL     OW30430   4.252   2.951   0.044 -0.2944 -0.1756 -0.2300
 6266SOL    HW130431   4.342   2.932   0.020 -0.6380  0.5531 -2.0722
 6266SOL    HW230432   4.211   2.868   0.020 -1.8832  0.2363  0.9984
 6267SOL     OW30433   2.548   3.728   6.952  0.2968  0.0997 -0.1252
 6267SOL    HW130434   2.579   3.638   6.950 -0.0655 -0.0532  0.9336
 6267SOL    HW230435   2.513   3.717   7.041 -1.5487  0.2807 -0.8245
 6268SOL     OW30436   3.653   2.978  16.018  0.4148 -0.2913 -0.2705
 6268SOL    HW130437   3.646   2.914  15.947 -0.1205  1.2791 -1.6171
 6268SOL    HW230438   3.705   3.047  15.978 -0.1046  0.1930 -0.1032
 6269SOL     OW30439   2.630   0.084   1.590  0.1701  0.0391  0.4039
 6269SOL    HW130440   2.705   0.087   1.649 -0.0358 -0.5245  0.6848
 6269SOL    HW230441   2.567   0.049   1.652  0.3911 -1.7040 -0.3575
 6270SOL     OW30442   1.215   0.898   1.507 -0.6267  0.1591  0.0192
 6270SOL    HW130443   1.252   0.810   1.499  0.1947  0.6181 -1.1926
 6270SOL    HW230444   1.129   0.884   1.469 -0.2046  1.3225 -1.3605
 6271SOL     OW30445   1.531   1.995  12.638  0.0731 -0.4861 -0.1632
 6271SOL    HW130446   1.578   2.028  12.715  0.5972 -2.9062  0.5491
 6271SOL    HW230447   1.503   2.078  12.598 -1.0890 -0.4104  0.8196
 6272SOL     OW30448   4.220   4.343  17.361  0.4080  0.2667 -0.4737
 6272SOL    HW130449   4.247   4.419  17.309 -2.6177  0.1308 -2.2365
 6272SOL    HW230450   4.303   4.298  17.377  0.3689  0.0521 -0.8735
 6273SOL     OW30451   4.475   1.831   6.807 -0.1942  0.3012  0.7038
 6273SOL    HW130452   4.416   1.759   6.785  0.8092 -0.9708  2.1932
 6273SOL    HW230453   4.544   1.781   6.850 -0.2062 -0.9156 -0.7122
 6274SOL     OW30454   4.026   1.164   5.198 -0.3771  0.2904 -0.0789
 6274SOL    HW130455   4.028   1.156   5.103  0.0647  0.0892 -0.0551
 6274SOL    HW230456   4.119   1.185   5.205 -0.7404  1.7459  0.3142
 6275SOL     OW30457   3.201   0.847   2.918  0.1432 -0.1671  0.1706
 6275SOL    HW130458   3.230   0.762   2.951  3.5280  0.3580 -1.5249
 6275SOL    HW230459   3.188   0.816   2.828 -0.2827 -0.9778  0.5057
 6276SOL     OW30460   1.942   3.182   4.993 -0.0628 -0.3852  0.4546
 6276SOL    HW130461   1.872   3.247   4.995  0.1486 -0.1566  0.3743
 6276SOL    HW230462   1.899   3.112   4.942  0.6531  0.9822 -2.0430
 6277SOL     OW30463   0.824   3.428   3.854 -0.1730  0.4927  0.0516
 6277SOL    HW130464   0.858   3.360   3.796  0.6484  1.8276 -1.0383
 6277SOL    HW230465   0.888   3.492   3.821 -2.5796  1.9698 -1.7967
 6278SOL     OW30466   0.453   2.135   4.320 -0.3315  0.2549 -0.2840
 6278SOL    HW130467   0.474   2.059   4.375  0.2833  1.3063  0.9255
 6278SOL    HW230468   0.363   2.120   4.291  0.5044 -2.4443 -1.4357
 6279SOL     OW30469   3.313   1.256   7.885 -0.1137 -0.2719 -0.6735
 6279SOL    HW130470   3.260   1.249   7.805 -1.4095 -2.6674  0.4051
 6279SOL    HW230471   3.393   1.203   7.878 -0.5850 -1.0748  0.0534
 6280SOL     OW30472   4.627   3.119   7.483  0.3216 -0.7215  0.1216
 6280SOL    HW130473   4.624   3.119   7.387 -0.5337  2.4724  0.1505
 6280SOL    HW230474   4.696   3.185   7.492 -2.1519  1.9382 -0.3740
 6281SOL     OW30475   4.311   0.963  12.055  0.5071 -0.4882 -0.2251
 6281SOL    HW130476   4.254   1.015  11.999 -0.7521 -0.7532  0.8047
 6281SOL    HW230477   4.392   1.013  12.047  0.1818  0.0358 -0.2206
 6282SOL     OW30478   1.107   3.157   9.837 -0.0966  0.0728  0.2813
 6282SOL    HW130479   1.121   3.249   9.862  1.5144  0.5585 -2.4805
 6282SOL    HW230480   1.186   3.137   9.787 -1.4305  0.1623 -1.8399
 6283SOL     OW30481   2.897   3.645  11.566 -0.2572  0.2859  0.2281
 6283SOL    HW130482   2.970   3.705  11.582  0.2162 -0.2413  0.0588
 6283SOL    HW230483   2.832   3.709  11.594  1.9353  2.3453  0.6177
 6284SOL     OW30484   1.023   1.925   5.608 -0.4333 -0.6723  0.2832
 6284SOL    HW130485   0.930   1.915   5.588 -0.4254 -0.2376  0.0140
 6284SOL    HW230486   1.034   1.988   5.679  1.6561 -0.5576 -0.1564
 6285SOL     OW30487   2.764   2.043   8.944  0.2077  0.1569  0.0619
 6285SOL    HW130488   2.752   2.138   8.952 -0.9142  0.2317 -2.6650
 6285SOL    HW230489   2.842   2.038   9.000  0.7681 -2.1874 -0.9442
 6286SOL     OW30490   3.197   0.843   6.836  0.0947 -0.3757  0.1091
 6286SOL    HW130491   3.290   0.865   6.843 -0.2773  1.0895  0.6817
 6286SOL    HW230492   3.173   0.816   6.925  0.3330 -2.4657 -0.4722
 6287SOL     OW30493   3.380   0.854   6.323 -0.0944 -1.0462  0.2835
 6287SOL    HW130494   3.292   0.835   6.289 -0.4033 -1.1710  1.1681
 6287SOL    HW230495   3.433   0.782   6.289 -1.8046 -0.7704 -3.0478
 6288SOL     OW30496   3.547   1.737   5.624 -0.7432 -0.1509  0.6438
 6288SOL    HW130497   3.620   1.792   5.654 -1.5055  0.0944  2.0135
 6288SOL    HW230498   3.475   1.800   5.623  0.0228  0.6651 -2.9207
 6289SOL     OW30499   2.686   2.929   7.010 -1.0160 -0.6364 -0.3495
 6289SOL    HW130500   2.649   2.875   6.940 -1.9659 -2.0399  1.2440
 6289SOL    HW230501   2.607   2.968   7.046 -0.2388  0.8081 -0.2284
 6290SOL     OW30502   4.579   3.864   6.244 -0.6121 -0.2494 -0.0308
 6290SOL    HW130503   4.658   3.907   6.276 -1.2098  3.0174 -2.9252
 6290SOL    HW230504   4.527   3.857   6.324  1.2099  1.9236  1.3324
 6291SOL     OW30505   3.555   3.922  16.428  0.0444  0.0556 -0.0652
 6291SOL    HW130506   3.620   3.926  16.498  1.0359  1.0899 -1.0601
 6291SOL    HW230507   3.482   3.970  16.466 -0.8629 -1.2726 -0.1125
 6292SOL     OW30508   0.549   4.505   7.647 -1.0740  0.0142 -0.2900
 6292SOL    HW130509   0.470   4.477   7.692 -0.7270  0.0069  0.3140
 6292SOL    HW230510   0.520   4.546   7.565  1.2094  1.9489 -0.1420
 6293SOL     OW30511   1.231   3.767   4.340 -0.2284 -0.1689 -0.4028
 6293SOL    HW130512   1.185   3.750   4.257 -0.3233 -0.1837 -0.3470
 6293SOL    HW230513   1.194   3.845   4.381 -1.2146 -0.7719 -0.1501
 6294SOL     OW30514   2.813   3.961  16.705 -0.6048 -0.0743 -0.4039
 6294SOL    HW130515   2.753   3.918  16.644 -0.2151 -0.2840 -0.6403
 6294SOL    HW230516   2.877   3.891  16.721 -0.9267 -0.3119 -0.1523
 6295SOL     OW30517   1.219   1.928   8.560  0.1805 -0.4881 -0.5368
 6295SOL    HW130518   1.178   1.930   8.474  0.8466 -1.7612 -0.8857
 6295SOL    HW230519   1.314   1.915   8.549  0.1033 -1.2300 -0.3418
 6296SOL     OW30520   3.508   0.116   8.384 -0.3840  0.4312 -0.1483
 6296SOL    HW130521   3.416   0.143   8.378 -0.4630 -0.0459 -1.0953
 6296SOL    HW230522   3.551   0.201   8.396  0.2873  0.4110 -2.4288
 6297SOL     OW30523   2.385   3.534   4.993  0.0966  0.4948  0.4403
 6297SOL    HW130524   2.379   3.438   4.989  1.1793  0.3931  1.4436
 6297SOL    HW230525   2.337   3.563   4.915  0.9081  0.7561  0.0430
 6298SOL     OW30526   0.137   1.578   6.822 -0.0598  0.3367 -0.0904
 6298SOL    HW130527   0.230   1.586   6.798  0.3872 -2.1344  0.7665
 6298SOL    HW230528   0.146   1.483   6.811  0.3042  0.4721 -1.0007
 6299SOL     OW30529   2.842   0.100   2.363 -0.1310  0.3111  1.0440
 6299SOL    HW130530   2.881   0.141   2.441  2.3517 -0.5774  0.2653
 6299SOL    HW230531   2.748   0.117   2.375  0.0375  0.3493  2.3309
 6300SOL     OW30532   1.835   4.603   5.008 -0.0972 -0.1443 -0.2320
 6300SOL    HW130533   1.850   4.538   5.077  3.6324  2.7698  1.6592
 6300SOL    HW230534   1.749   4.637   5.032  0.2817  1.0077 -0.5228
 6301SOL     OW30535   0.165   0.523   3.558  0.4951 -0.1839  0.9542
 6301SOL    HW130536   0.151   0.430   3.537 -0.6386  0.0169  0.8587
 6301SOL    HW230537   0.116   0.561   3.486  0.4198 -2.5185 -0.2324
 6302SOL     OW30538   2.803   1.834  17.263  0.1205  0.0243  0.1561
 6302SOL    HW130539   2.835   1.897  17.327  1.5971 -0.7566  0.2113
 6302SOL    HW230540   2.812   1.752  17.312  3.1677  1.4078  1.9258
 6303SOL     OW30541   0.026   1.473   2.714 -0.5042 -0.0655 -0.0308
 6303SOL    HW130542   0.109   1.489   2.759 -1.7005  0.2203  2.0399
 6303SOL    HW230543   4.699   1.514   2.770  0.0179  0.2494  0.3462
 6304SOL     OW30544   0.413   1.493   2.351 -0.1488  0.0604  1.1097
 6304SOL    HW130545   0.453   1.564   2.401 -1.6820 -0.1162  2.5969
 6304SOL    HW230546   0.483   1.453   2.299  0.0821  0.0204  1.4540
 6305SOL     OW30547   3.496   0.467   7.932  0.5418  0.5730  0.8388
 6305SOL    HW130548   3.404   0.439   7.936 -0.0871  2.3204 -2.0112
 6305SOL    HW230549   3.502   0.476   8.028  1.6995  1.6227  0.6568
 6306SOL     OW30550   1.209   0.327   7.433  0.6633  0.0507  0.3101
 6306SOL    HW130551   1.196   0.234   7.454  0.8525  0.2519  1.3121
 6306SOL    HW230552   1.120   0.359   7.419  1.2427  2.2830  1.7859
 6307SOL     OW30553   1.396   2.933  14.939  0.0414  0.4864  0.7584
 6307SOL    HW130554   1.349   2.871  14.995  0.7758  1.1200  2.0908
 6307SOL    HW230555   1.474   2.882  14.917 -0.9131 -0.1707 -1.1111
 6308SOL     OW30556   3.656   0.103   3.759  0.1466 -0.3380 -0.2235
 6308SOL    HW130557   3.564   0.078   3.772 -0.0870  1.2648  1.1258
 6308SOL    HW230558   3.668   0.037   3.690  0.0347 -0.7511  0.1507
 6309SOL     OW30559   3.838   3.300   9.075 -0.4057  0.4481 -0.0336
 6309SOL    HW130560   3.905   3.292   9.007 -1.1335  0.6916 -0.7724
 6309SOL    HW230561   3.761   3.261   9.035 -0.8423 -1.0731  2.2603
 6310SOL     OW30562   3.104   4.061  16.623 -0.8219 -0.1931 -0.4605
 6310SOL    HW130563   3.074   4.078  16.534  0.5616  0.8106 -0.7160
 6310SOL    HW230564   3.055   3.978  16.627 -0.2510 -0.6040 -2.0336
 6311SOL     OW30565   0.491   3.304   3.647 -0.4562 -0.1841  0.5087
 6311SOL    HW130566   0.512   3.268   3.561 -0.2280  1.7151 -0.2166
 6311SOL    HW230567   0.423   3.366   3.621  1.4169  1.1587 -1.1385
 6312SOL     OW30568   2.888   1.340   6.318 -1.0370  0.2910 -0.5852
 6312SOL    HW130569   2.882   1.256   6.271 -2.6112 -1.2092  2.3224
 6312SOL    HW230570   2.984   1.344   6.320 -1.1345  1.8636  0.4963
 6313SOL     OW30571   4.613   0.677   5.578 -0.1764 -0.6147  0.5121
 6313SOL    HW130572   4.567   0.637   5.504 -1.4882  1.5388  0.1938
 6313SOL    HW230573   4.551   0.704   5.645 -0.2845  0.3553  0.0170
 6314SOL     OW30574   3.094   0.152   7.164  0.3492  0.0657  0.1129
 6314SOL    HW130575   3.126   0.241   7.182  1.9736 -0.4051 -0.4168
 6314SOL    HW230576   3.167   0.105   7.206  1.2483  1.4744  0.1423
 6315SOL     OW30577   4.558   1.956   5.264  0.3676  0.5595  0.3359
 6315SOL    HW130578   4.522   1.938   5.351  3.3923 -1.1804  1.2549
 6315SOL    HW230579   4.576   1.865   5.237  0.3180  0.6028  0.1542
 6316SOL     OW30580   4.637   1.109   2.754 -0.2448  0.0606  0.0849
 6316SOL    HW130581   4.648   1.014   2.763 -0.6273  0.1492  1.4675
 6316SOL    HW230582   4.647   1.135   2.846 -3.4971 -1.8882  0.9512
 6317SOL     OW30583   0.785   4.523   2.663 -0.8458 -0.7416  0.1210
 6317SOL    HW130584   0.753   4.598   2.712 -0.5613 -1.6261  1.6541
 6317SOL    HW230585   0.757   4.452   2.720 -2.0332  0.6439  1.2448
 6318SOL     OW30586   1.082   3.781   6.699 -0.1143 -0.2906 -0.5118
 6318SOL    HW130587   1.058   3.688   6.697  1.2882 -0.6395 -1.1470
 6318SOL    HW230588   1.169   3.795   6.736 -0.1511 -0.4894 -0.3472
 6319SOL     OW30589   4.559   4.409   6.918 -0.0616  0.1014 -0.0881
 6319SOL    HW130590   4.647   4.407   6.881  0.1322 -1.8145  0.4980
 6319SOL    HW230591   4.503   4.434   6.845 -1.2627 -2.3503  0.0126
 6320SOL     OW30592   0.710   4.004  13.508 -0.7062  0.0395 -0.6532
 6320SOL    HW130593   0.663   3.982  13.428 -0.7843  0.2865 -0.6725
 6320SOL    HW230594   0.776   3.934  13.516 -1.7201 -1.1977 -3.1074
 6321SOL     OW30595   3.363   3.630   9.141  0.4021  0.0648 -0.0843
 6321SOL    HW130596   3.429   3.561   9.144  0.1046 -0.1089  2.3342
 6321SOL    HW230597   3.382   3.667   9.055  1.1385 -0.2162 -0.0387
 6322SOL     OW30598   4.355   3.551   6.409  0.0975 -0.0746  0.2295
 6322SOL    HW130599   4.378   3.540   6.501  1.2633  1.7441  0.1527
 6322SOL    HW230600   4.437   3.544   6.361 -0.5133 -3.1749 -0.3549
 6323SOL     OW30601   1.459   2.682   2.944 -0.6376  0.1999  0.2270
 6323SOL    HW130602   1.424   2.671   2.855 -0.0650  0.6155 -0.0524
 6323SOL    HW230603   1.462   2.588   2.962  2.0763  0.2938  0.3272
 6324SOL     OW30604   1.544   4.452   6.317 -0.5216  0.0053  0.2407
 6324SOL    HW130605   1.523   4.546   6.314 -0.1665  0.1027  0.8415
 6324SOL    HW230606   1.470   4.409   6.275  0.8120 -0.5009 -1.6135
 6325SOL     OW30607   3.063   2.286  17.636 -0.4621 -0.1033  0.1178
 6325SOL    HW130608   3.105   2.201  17.620 -1.1279 -0.2401 -0.9419
 6325SOL    HW230609   2.979   2.254  17.668  0.4634 -0.6736  1.9619
 6326SOL     OW30610   2.170   1.866   4.883  0.3224  0.1971 -0.7278
 6326SOL    HW130611   2.105   1.889   4.817 -3.0552 -0.1853  2.4594
 6326SOL    HW230612   2.170   1.945   4.937  1.2530 -0.2525 -0.0620
 6327SOL     OW30613   1.680   1.616  10.596 -0.0134  0.9950  0.0892
 6327SOL    HW130614   1.769   1.647  10.575  0.3220  0.6920  1.0556
 6327SOL    HW230615   1.695   1.530  10.636  2.1136  1.7516  0.9178
 6328SOL     OW30616   1.693   1.976   3.982  0.2631 -0.4490  0.7176
 6328SOL    HW130617   1.624   1.951   3.920 -0.3372 -1.1328  1.6582
 6328SOL    HW230618   1.650   2.055   4.013 -0.4437 -0.6714  0.3217
 6329SOL     OW30619   1.712   0.926   8.473  0.4215  0.1077  0.2037
 6329SOL    HW130620   1.638   0.953   8.417  0.7407  0.6562  0.0488
 6329SOL    HW230621   1.771   0.876   8.417  0.1361  1.3389 -1.2063
 6330SOL     OW30622   0.914   0.196  13.082  0.6876  0.9161 -0.3370
 6330SOL    HW130623   0.849   0.177  13.014  1.0858 -1.2444 -0.1012
 6330SOL    HW230624   0.985   0.236  13.032  1.2624 -1.5103 -1.4656
 6331SOL     OW30625   1.978   0.939   5.757 -0.5057 -0.3271  0.1971
 6331SOL    HW130626   2.034   0.983   5.821 -1.8218  2.9372 -0.8755
 6331SOL    HW230627   2.014   0.850   5.764  1.9565  0.5462 -1.2876
 6332SOL     OW30628   3.790   3.519   7.522 -0.6535  0.0329  0.4135
 6332SOL    HW130629   3.827   3.431   7.517  0.0919  0.3240  0.7948
 6332SOL    HW230630   3.847   3.571   7.465  0.1930 -0.6318  0.6676
 6333SOL     OW30631   0.555   0.134  12.476 -0.3599 -0.2138  0.0136
 6333SOL    HW130632   0.588   0.086  12.552 -0.5005 -0.3889 -0.0370
 6333SOL    HW230633   0.600   0.080  12.410  0.8464 -0.9384  1.4373
 6334SOL     OW30634   1.068   4.133   7.087 -0.4124  0.1492  0.5393
 6334SOL    HW130635   1.130   4.148   7.159  1.1071 -0.0656 -0.7072
 6334SOL    HW230636   1.006   4.068   7.119 -0.2646  0.0694  0.6660
 6335SOL     OW30637   0.264   0.773   4.065 -0.1872  0.0418  0.1691
 6335SOL    HW130638   0.176   0.763   4.028  0.5967 -2.8225 -0.8996
 6335SOL    HW230639   0.305   0.688   4.050  2.2493  1.3353 -0.4274
 6336SOL     OW30640   4.351   2.184   4.368  0.0214  0.0581  0.2412
 6336SOL    HW130641   4.288   2.129   4.322 -0.1305 -0.2086  0.7616
 6336SOL    HW230642   4.359   2.253   4.303 -2.7249  0.9263  0.8269
 6337SOL     OW30643   3.456   0.677  16.007 -0.2563 -0.6997 -0.2408
 6337SOL    HW130644   3.452   0.639  16.095  0.3601 -0.8560 -0.2799
 6337SOL    HW230645   3.524   0.744  16.008 -1.6361  0.6991 -2.4433
 6338SOL     OW30646   1.979   2.597   1.456 -0.0045 -0.2355 -0.5809
 6338SOL    HW130647   2.011   2.686   1.475  0.7072 -0.5844 -0.1330
 6338SOL    HW230648   2.059   2.545   1.453 -0.8077 -1.3306 -2.9906
 6339SOL     OW30649   3.050   2.580   7.216  0.1052  0.0611  0.1443
 6339SOL    HW130650   3.027   2.489   7.235  1.9809 -0.2268  1.0214
 6339SOL    HW230651   3.048   2.611   7.307  1.5618  2.1806 -0.5301
 6340SOL     OW30652   3.801   3.394   8.320  0.2980  0.1307  0.4180
 6340SOL    HW130653   3.864   3.331   8.286  0.1019  0.0618  0.1761
 6340SOL    HW230654   3.867   3.462   8.332  1.4110 -1.0061  0.7044
 6341SOL     OW30655   4.721   2.818   3.521  0.1784 -0.5055 -0.6185
 6341SOL    HW130656   0.060   2.775   3.559 -0.9290 -1.8021  0.0993
 6341SOL    HW230657   4.690   2.748   3.464 -1.1336 -0.2381 -0.2208
 6342SOL     OW30658   1.615   2.078  12.905 -0.2974 -0.1765  0.1578
 6342SOL    HW130659   1.588   1.990  12.931 -1.3006  0.6376  1.8900
 6342SOL    HW230660   1.654   2.107  12.988  0.6355 -1.4514  0.1592
 6343SOL     OW30661   1.696   3.208   4.743 -0.7248  0.1596  0.0689
 6343SOL    HW130662   1.663   3.264   4.814  4.4098  0.4480  2.3103
 6343SOL    HW230663   1.622   3.177   4.691  1.3946 -1.3180 -2.0631
 6344SOL     OW30664   3.805   0.878   9.044 -0.5851 -0.0914 -0.3894
 6344SOL    HW130665   3.767   0.964   9.027 -2.8639 -0.8452  0.9035
 6344SOL    HW230666   3.788   0.872   9.138  1.1986 -1.1183 -0.1467
 6345SOL     OW30667   2.114   4.385  15.737 -0.5938 -0.6164 -0.2173
 6345SOL    HW130668   2.192   4.441  15.737 -0.5794 -0.6323 -0.7582
 6345SOL    HW230669   2.151   4.309  15.692  0.6218 -0.2020  0.0843
 6346SOL     OW30670   2.256   2.750   8.129 -0.3488  0.2153  0.2732
 6346SOL    HW130671   2.216   2.724   8.212  3.8816  0.8646  2.5017
 6346SOL    HW230672   2.342   2.781   8.158 -1.0548  2.9245 -0.5036
 6347SOL     OW30673   0.722   4.468   5.872  0.3323  0.5125 -0.1420
 6347SOL    HW130674   0.801   4.450   5.922 -1.9542 -2.2128  2.5140
 6347SOL    HW230675   0.768   4.510   5.800 -1.6579 -1.5729 -2.5942
 6348SOL     OW30676   2.764   2.306  12.240 -0.6991  0.2174  0.0437
 6348SOL    HW130677   2.776   2.390  12.196 -0.2494 -0.3816 -0.9850
 6348SOL    HW230678   2.716   2.247  12.181  0.2621  0.6487 -1.1771
 6349SOL     OW30679   3.953   2.559   5.260  0.0492  0.6845 -0.3933
 6349SOL    HW130680   3.916   2.494   5.319  1.7008  2.0119  2.0697
 6349SOL    HW230681   3.933   2.637   5.311  1.0721  0.1357  0.8399
 6350SOL     OW30682   0.922   0.190   4.564  0.1700 -0.5025  0.3476
 6350SOL    HW130683   0.846   0.132   4.571 -0.2369  0.0854  0.8062
 6350SOL    HW230684   0.954   0.161   4.479 -0.5752 -0.4663  0.0487
 6351SOL     OW30685   1.906   3.465   8.935 -0.3944 -0.4532 -0.0959
 6351SOL    HW130686   1.870   3.527   8.999 -2.3740 -1.0342 -0.6518
 6351SOL    HW230687   1.896   3.525   8.860 -2.5651  0.2453  0.7279
 6352SOL     OW30688   0.023   1.917  11.455  0.1487  0.2740 -0.1620
 6352SOL    HW130689   0.036   1.823  11.447  3.1737  0.7360 -0.6611
 6352SOL    HW230690   4.668   1.940  11.459 -0.0809 -0.6785 -0.2251
 6353SOL     OW30691   1.670   0.551   5.454 -0.7434 -0.1548  0.1386
 6353SOL    HW130692   1.756   0.594   5.447  0.0544 -2.0855 -1.7565
 6353SOL    HW230693   1.615   0.605   5.398  1.2203 -2.1656 -3.7219
 6354SOL     OW30694   0.929   3.222   2.072 -0.4178  0.4013  0.0462
 6354SOL    HW130695   1.024   3.236   2.073 -0.0598 -1.8532 -1.2939
 6354SOL    HW230696   0.911   3.195   1.982 -0.6789  0.7103  0.0075
 6355SOL     OW30697   1.210   2.920   4.776 -0.3255  0.3282 -0.0021
 6355SOL    HW130698   1.119   2.941   4.759 -0.4251  0.5278  0.7810
 6355SOL    HW230699   1.262   2.975   4.717  0.3402 -0.5079 -0.1951
 6356SOL     OW30700   1.742   1.925   3.489 -0.0434  0.1545 -0.1997
 6356SOL    HW130701   1.782   1.952   3.572 -0.5329  0.7900 -0.1704
 6356SOL    HW230702   1.668   1.984   3.473  0.3672  0.9383  0.7951
 6357SOL     OW30703   2.117   1.941  16.000  0.1607 -0.4595  0.2371
 6357SOL    HW130704   2.121   2.034  16.019  5.0218 -0.6635 -0.0234
 6357SOL    HW230705   2.110   1.904  16.089 -1.9276 -1.3599 -0.2949
 6358SOL     OW30706   2.564   0.327   0.744 -0.4327  0.0233 -0.6521
 6358SOL    HW130707   2.612   0.314   0.662 -2.3361 -0.4148 -1.7000
 6358SOL    HW230708   2.508   0.400   0.721 -0.3528  0.7190  1.3470
 6359SOL     OW30709   0.781   3.881  14.182  0.0515  0.2645 -0.0274
 6359SOL    HW130710   0.693   3.868  14.146 -0.4543  0.5304  1.1079
 6359SOL    HW230711   0.765   3.890  14.276 -0.6593  1.2291 -0.2356
 6360SOL     OW30712   4.207   3.565   4.251 -0.0152 -0.7357  0.7553
 6360SOL    HW130713   4.299   3.562   4.225  0.0715 -1.7434  1.1602
 6360SOL    HW230714   4.221   3.560   4.345  0.3306 -1.1597  0.6803
 6361SOL     OW30715   4.338   2.079   2.003  0.1948 -0.0668  0.3405
 6361SOL    HW130716   4.359   2.084   2.096  0.1495  0.9064  0.3022
 6361SOL    HW230717   4.365   2.168   1.978  2.8058 -1.6878 -2.5859
 6362SOL     OW30718   0.453   1.565  16.761  0.0788 -0.2624 -0.2378
 6362SOL    HW130719   0.414   1.649  16.786  0.9410 -0.5577  2.1759
 6362SOL    HW230720   0.422   1.537  16.675  0.2421 -0.4083 -0.2477
 6363SOL     OW30721   2.465   4.345   5.829 -0.6574  0.0584  0.0074
 6363SOL    HW130722   2.540   4.363   5.886 -1.2486  1.9988  0.1669
 6363SOL    HW230723   2.486   4.263   5.785 -2.5089 -1.1433  1.3320
 6364SOL     OW30724   1.571   2.171   8.632  0.0037  0.4606  0.4008
 6364SOL    HW130725   1.582   2.261   8.662  0.0188  0.6889 -0.2955
 6364SOL    HW230726   1.622   2.113   8.689 -1.8655  0.7762  2.4323
 6365SOL     OW30727   4.322   0.189  11.593 -0.2425 -0.2544  0.0659
 6365SOL    HW130728   4.331   0.265  11.650  0.2668  0.9951 -1.6659
 6365SOL    HW230729   4.398   0.136  11.616  0.2522  0.5608  0.3080
 6366SOL     OW30730   1.561   4.236   8.072 -0.3559  0.0252  0.2132
 6366SOL    HW130731   1.591   4.327   8.076  1.5595 -0.7172  2.7596
 6366SOL    HW230732   1.567   4.217   8.166 -1.3711 -1.1726  0.0380
 6367SOL     OW30733   3.547   3.605  16.815  0.2327 -0.3493  0.0377
 6367SOL    HW130734   3.632   3.635  16.847  0.5172 -0.1489 -0.9092
 6367SOL    HW230735   3.494   3.608  16.895  0.0435 -2.1028 -0.0235
 6368SOL     OW30736   3.449   1.018   3.977  0.2409  0.1043  0.3125
 6368SOL    HW130737   3.375   0.989   4.030 -0.5143  5.4052  2.1626
 6368SOL    HW230738   3.496   0.935   3.972  2.6205  1.4229  0.9455
 6369SOL     OW30739   3.993   2.549   1.272 -0.0864 -0.0864  0.8158
 6369SOL    HW130740   3.992   2.595   1.188 -0.5329 -0.5904  0.5438
 6369SOL    HW230741   4.018   2.629   1.318  0.5031 -0.1068  0.5323
 6370SOL     OW30742   1.275   1.692   7.963 -0.3480 -0.1878 -0.4924
 6370SOL    HW130743   1.369   1.682   7.949 -0.2686 -1.6203  1.1941
 6370SOL    HW230744   1.283   1.783   7.991  0.9340 -0.2879 -0.5270
 6371SOL     OW30745   4.322   0.293   3.368 -0.2490  0.4159  0.1335
 6371SOL    HW130746   4.227   0.298   3.378 -0.1411  0.1657  1.3167
 6371SOL    HW230747   4.348   0.218   3.422 -0.2544  0.1219 -0.2673
 6372SOL     OW30748   2.751   0.667   7.536  0.1029  0.8845  0.2537
 6372SOL    HW130749   2.656   0.667   7.549  0.2094  0.5571  1.0360
 6372SOL    HW230750   2.773   0.698   7.624  0.3020  1.6756 -0.0749
 6373SOL     OW30751   3.058   2.076   5.607  0.0075 -0.3358 -0.9503
 6373SOL    HW130752   3.056   2.036   5.694 -1.4921  1.8796  0.0401
 6373SOL    HW230753   3.101   2.003   5.563 -2.0671 -1.6661 -0.7445
 6374SOL     OW30754   0.074   2.714   3.026 -0.1599 -0.4085  0.2220
 6374SOL    HW130755   0.155   2.668   3.047  1.8674  2.7133 -0.8941
 6374SOL    HW230756   0.104   2.774   2.958 -1.2186  1.4447  1.3986
 6375SOL     OW30757   3.760   2.084   4.932  0.2163  0.3606  0.1108
 6375SOL    HW130758   3.723   2.117   4.850 -0.2441 -2.1515 -0.6879
 6375SOL    HW230759   3.791   1.997   4.908  0.6445  1.2998 -2.6404
 6376SOL     OW30760   1.658   3.471   2.681 -0.2835  0.0056 -0.6519
 6376SOL    HW130761   1.712   3.421   2.743 -2.8285 -0.0928  1.4520
 6376SOL    HW230762   1.648   3.412   2.605  1.8798 -0.4763 -0.5664
 6377SOL     OW30763   0.956   1.418   1.943  0.0401  0.2457 -0.7048
 6377SOL    HW130764   0.949   1.333   1.899  0.2266  0.7547 -1.7305
 6377SOL    HW230765   0.932   1.466   1.863 -0.9408 -0.8111 -1.0411
 6378SOL     OW30766   1.756   1.039  17.293 -0.0915  0.5983  0.4094
 6378SOL    HW130767   1.710   1.121  17.277 -2.0117 -0.1882  1.9247
 6378SOL    HW230768   1.737   0.996  17.210  0.8350 -1.5663  1.3182
 6379SOL     OW30769   0.215   2.301   8.404 -0.1901  0.1426  0.4616
 6379SOL    HW130770   0.284   2.235   8.414 -0.1975 -0.3274 -2.5281
 6379SOL    HW230771   0.167   2.289   8.486 -0.0862 -1.0524  0.3458
 6380SOL     OW30772   3.901   1.832   0.042  0.6317  0.1061  0.3452
 6380SOL    HW130773   3.980   1.778   0.043  1.3470  1.1771  1.5234
 6380SOL    HW230774   3.848   1.788  17.725 -2.2136  0.4761  2.4292
 6381SOL     OW30775   4.485   2.726  13.873 -0.3174  1.0627 -0.7297
 6381SOL    HW130776   4.390   2.727  13.885 -0.1920 -0.8442  0.5887
 6381SOL    HW230777   4.503   2.635  13.849  0.6021  1.1846 -0.5348
 6382SOL     OW30778   1.241   4.697   4.278  0.3540  0.1994 -0.7867
 6382SOL    HW130779   1.212   4.652   4.357  0.4484  0.2980 -0.6956
 6382SOL    HW230780   1.328   4.658   4.271  1.0164  1.4593  0.2643
 6383SOL     OW30781   2.025   1.760   5.698 -0.5912 -0.0394 -0.0188
 6383SOL    HW130782   1.930   1.751   5.704 -0.5382 -1.0750 -0.7051
 6383SOL    HW230783   2.044   1.799   5.613 -0.9034 -1.4928 -0.7580
 6384SOL     OW30784   3.453   2.557   5.163  0.7642 -0.2028  0.1868
 6384SOL    HW130785   3.542   2.591   5.177  0.4723  0.7035 -0.1343
 6384SOL    HW230786   3.464   2.479   5.217 -0.9758 -1.8291 -1.8635
 6385SOL     OW30787   2.672   1.250  10.849  0.6012  0.2279 -0.2942
 6385SOL    HW130788   2.687   1.326  10.792  0.5045 -0.0672 -0.7081
 6385SOL    HW230789   2.664   1.284  10.938  0.1623 -0.3347 -0.1182
 6386SOL     OW30790   3.169   2.041  17.602  0.5381  0.3349 -0.3472
 6386SOL    HW130791   3.263   2.026  17.614  0.9395  1.9547 -1.5382
 6386SOL    HW230792   3.171   2.011  17.511  1.1225  1.8772 -0.8390
 6387SOL     OW30793   0.486   3.568   8.880 -0.4266  0.0924  0.1409
 6387SOL    HW130794   0.553   3.525   8.827  0.0833 -1.2129  1.8394
 6387SOL    HW230795   0.471   3.653   8.840 -0.3418  0.1629  0.2603
 6388SOL     OW30796   0.057   4.143   5.674 -0.2664 -0.0382 -0.1441
 6388SOL    HW130797   4.702   4.124   5.689 -0.7122  1.8614 -0.5064
 6388SOL    HW230798   0.084   4.079   5.609 -0.6070  1.5555 -1.8599
 6389SOL     OW30799   3.573   1.871   6.728  0.5249  0.1771 -0.3527
 6389SOL    HW130800   3.660   1.833   6.743  0.3517  0.2160  0.7878
 6389SOL    HW230801   3.596   1.961   6.755 -0.5428  0.4908 -0.4987
 6390SOL     OW30802   3.981   2.032   6.305  0.0793  0.1344  0.5736
 6390SOL    HW130803   3.946   2.029   6.394 -0.7173  1.8661  0.3194
 6390SOL    HW230804   3.980   1.939   6.283 -0.6021  0.0694  0.8751
 6391SOL     OW30805   1.558   4.479   3.615  0.0708 -0.1906 -0.1457
 6391SOL    HW130806   1.612   4.402   3.631  3.5132  1.6032 -3.0243
 6391SOL    HW230807   1.621   4.533   3.567  0.3903 -1.1465 -0.8184
 6392SOL     OW30808   4.296   2.944   1.228 -0.2804 -0.2515 -0.1607
 6392SOL    HW130809   4.302   3.038   1.212 -1.9307 -0.4645 -1.9846
 6392SOL    HW230810   4.294   2.911   1.138  1.4958  0.4342 -0.4407
 6393SOL     OW30811   4.441   4.390   8.120  0.1585 -0.2701  0.6774
 6393SOL    HW130812   4.396   4.406   8.037  1.5049 -0.0659 -0.0076
 6393SOL    HW230813   4.364   4.359   8.169 -0.5397  0.8603  0.2951
 6394SOL     OW30814   0.656   1.352   8.963  0.1752  0.6479 -0.2846
 6394SOL    HW130815   0.672   1.367   9.057 -0.2129  0.2745 -0.1609
 6394SOL    HW230816   0.601   1.427   8.942 -0.4277  0.0424 -0.8876
 6395SOL     OW30817   2.308   0.278   8.130  0.1912 -0.2989 -0.0368
 6395SOL    HW130818   2.230   0.224   8.140  1.3099 -2.1790 -1.4093
 6395SOL    HW230819   2.374   0.208   8.123 -0.1858 -0.7605  1.0349
 6396SOL     OW30820   1.539   3.173   5.380  0.3825  0.3118  0.1720
 6396SOL    HW130821   1.475   3.243   5.393  0.5108  0.5463 -0.4617
 6396SOL    HW230822   1.529   3.142   5.290  0.8161  2.8998 -0.7550
 6397SOL     OW30823   2.666   3.413   6.989 -0.1740  0.4076 -0.0966
 6397SOL    HW130824   2.640   3.383   6.901  1.0392 -1.4194  0.1786
 6397SOL    HW230825   2.725   3.343   7.017 -1.4120 -1.6595 -2.5812
 6398SOL     OW30826   1.168   1.854   3.051  0.6698 -0.3480  0.0766
 6398SOL    HW130827   1.200   1.779   3.101  0.9745 -0.8774 -0.9064
 6398SOL    HW230828   1.153   1.922   3.116 -0.3930 -1.2952  0.8080
 6399SOL     OW30829   3.809   4.577  16.775  0.1831 -0.6225 -0.0879
 6399SOL    HW130830   3.805   4.553  16.868  0.6673 -0.4689 -0.0290
 6399SOL    HW230831   3.778   4.496  16.735 -1.3761 -0.2282  0.2944
 6400SOL     OW30832   2.248   2.409   5.690 -0.2762 -0.6199 -0.0939
 6400SOL    HW130833   2.279   2.496   5.667 -1.3780  0.3780  2.1784
 6400SOL    HW230834   2.155   2.417   5.669 -0.3163 -1.7996 -0.3669
 6401SOL     OW30835   3.709   3.727   8.202  0.2999 -0.4970  0.1649
 6401SOL    HW130836   3.749   3.776   8.274 -1.1285 -0.9244  1.2525
 6401SOL    HW230837   3.627   3.775   8.192  1.5197  1.5575  0.1591
 6402SOL     OW30838   0.865   1.088   8.944  0.2084  0.0692  0.5783
 6402SOL    HW130839   0.838   1.140   9.020  0.3526  0.6029  0.2629
 6402SOL    HW230840   0.819   1.136   8.875 -1.4004 -0.8952  0.9908
 6403SOL     OW30841   0.235   2.743   2.666  0.1299 -0.3008 -0.6224
 6403SOL    HW130842   0.174   2.682   2.707 -0.4978  1.0249  0.4171
 6403SOL    HW230843   0.214   2.821   2.718 -2.2325 -0.8777 -0.7124
 6404SOL     OW30844   1.092   3.815   4.958 -0.0286 -0.3293  0.8265
 6404SOL    HW130845   1.082   3.721   4.940 -2.9845  0.2525 -0.6100
 6404SOL    HW230846   1.004   3.851   4.945  0.6647  1.7023  1.7917
 6405SOL     OW30847   2.205   0.912  11.465  0.2378  0.7246 -0.3770
 6405SOL    HW130848   2.246   0.867  11.539 -0.4590 -0.9923 -1.0170
 6405SOL    HW230849   2.113   0.887  11.465  0.7964 -1.4154 -0.1810
 6406SOL     OW30850   0.167   1.587   4.143 -0.3555 -0.1511 -0.2961
 6406SOL    HW130851   0.217   1.563   4.221 -0.0261  1.5299  0.0153
 6406SOL    HW230852   0.175   1.682   4.157 -1.3449  0.0379 -0.9930
 6407SOL     OW30853   4.495   2.597   3.385 -0.1460 -0.5508 -0.2856
 6407SOL    HW130854   4.444   2.678   3.389 -1.2001 -1.1129 -2.2332
 6407SOL    HW230855   4.468   2.545   3.309 -2.2766  0.5122 -0.2553
 6408SOL     OW30856   2.792   0.849   7.029 -0.5970  0.4304  0.0386
 6408SOL    HW130857   2.825   0.763   7.053 -0.1427  0.1527 -1.5747
 6408SOL    HW230858   2.766   0.878   7.117 -0.4323  0.8724 -0.0555
 6409SOL     OW30859   0.540   3.447   3.919 -0.2461  0.4325 -0.0507
 6409SOL    HW130860   0.629   3.482   3.920  1.6897 -4.5715  1.0058
 6409SOL    HW230861   0.542   3.352   3.917  0.8275  0.4608 -0.3036
 6410SOL     OW30862   3.918   2.223  13.314  0.3303  0.4755  0.1630
 6410SOL    HW130863   3.849   2.238  13.379  0.9919 -1.4395  1.3127
 6410SOL    HW230864   3.967   2.303  13.331 -2.4339  2.2578 -0.1284
 6411SOL     OW30865   0.122   2.073  17.612  0.2735 -0.2674  0.0554
 6411SOL    HW130866   0.157   2.028  17.689  0.7946 -2.7566 -1.6407
 6411SOL    HW230867   0.189   2.053  17.547 -1.0429 -0.8024 -1.1600
 6412SOL     OW30868   2.006   2.057   5.852 -0.1050 -0.0883 -0.1203
 6412SOL    HW130869   2.087   2.007   5.844 -0.0966 -0.2460  0.9538
 6412SOL    HW230870   1.998   2.099   5.767 -1.1792 -0.4719 -0.2185
 6413SOL     OW30871   2.186   4.015   3.484  0.1477  0.4429 -0.3733
 6413SOL    HW130872   2.272   4.036   3.521  0.6129 -0.4086 -0.9684
 6413SOL    HW230873   2.173   3.939   3.540 -2.2190  1.2187  0.0957
 6414SOL     OW30874   4.684   0.265   5.505 -0.4033 -0.3806 -0.4186
 6414SOL    HW130875   4.627   0.230   5.573  0.3753 -0.9462 -0.0510
 6414SOL    HW230876   0.021   0.298   5.557  0.3762  2.2161 -3.1830
 6415SOL     OW30877   0.386   4.037  10.076 -0.3820  0.1904  0.3195
 6415SOL    HW130878   0.451   3.969  10.063 -0.3506  0.2231  0.3072
 6415SOL    HW230879   0.306   3.983  10.080  0.2444 -0.6493  1.7337
 6416SOL     OW30880   1.952   4.465   1.619 -0.7035  0.4578  0.4222
 6416SOL    HW130881   1.916   4.544   1.578  0.7519  0.6001 -0.5785
 6416SOL    HW230882   2.041   4.488   1.595 -1.9505  0.7101 -3.8914
 6417SOL     OW30883   0.209   4.564   3.725 -0.6936 -0.0136 -0.5954
 6417SOL    HW130884   0.293   4.563   3.679  0.4044 -2.6427  1.4919
 6417SOL    HW230885   0.193   4.470   3.733 -1.5622  0.1560 -0.3197
 6418SOL     OW30886   1.621   2.647   1.912  0.3249  0.4790 -0.8705
 6418SOL    HW130887   1.577   2.724   1.877 -2.1760 -0.8258 -0.5480
 6418SOL    HW230888   1.599   2.663   2.003  2.6959  1.4072 -0.4577
 6419SOL     OW30889   1.751   3.045   3.309  0.0682 -0.1432  0.2507
 6419SOL    HW130890   1.710   3.126   3.339 -0.9371  0.0023 -1.5195
 6419SOL    HW230891   1.751   2.997   3.392  3.7907 -0.7899 -0.1298
 6420SOL     OW30892   0.301   0.347  14.462  0.3628 -0.0629  0.3503
 6420SOL    HW130893   0.258   0.312  14.383 -2.1483  0.9809  1.2453
 6420SOL    HW230894   0.375   0.393  14.421  1.1234 -0.6020  1.1280
 6421SOL     OW30895   1.082   4.407   7.515  0.1316 -0.1737  0.2310
 6421SOL    HW130896   1.034   4.479   7.555 -0.1180  0.7455 -1.7103
 6421SOL    HW230897   1.027   4.381   7.441 -0.8130  2.2582  0.1021
 6422SOL     OW30898   0.219   1.474   5.390  0.0886 -0.4134  0.6397
 6422SOL    HW130899   0.136   1.433   5.417 -0.3468  0.1147  0.1207
 6422SOL    HW230900   0.186   1.558   5.357 -0.2082 -1.2546 -1.1947
 6423SOL     OW30901   0.517   0.723   6.716  0.5322  0.2821 -0.3254
 6423SOL    HW130902   0.479   0.669   6.785 -0.4359  3.2483  1.4808
 6423SOL    HW230903   0.519   0.806   6.765 -1.7991  0.1851 -0.0910
 6424SOL     OW30904   1.050   2.740   8.283 -0.2834 -0.0625 -0.0998
 6424SOL    HW130905   1.132   2.714   8.325  1.3522  1.6306 -2.1924
 6424SOL    HW230906   1.084   2.811   8.228  0.6318 -0.4197  0.0093
 6425SOL     OW30907   0.211   4.662   6.105  0.4982 -0.0519 -0.1971
 6425SOL    HW130908   0.173   4.726   6.045  0.0082 -0.0319  0.1314
 6425SOL    HW230909   0.292   4.643   6.060  0.7566  0.4546  0.0498
 6426SOL     OW30910   2.598   4.569   7.988 -0.1366 -0.1418  0.1320
 6426SOL    HW130911   2.600   4.477   7.962  1.7314  0.0316 -0.2863
 6426SOL    HW230912   2.505   4.577   8.011 -0.0662  0.8397  0.0777
 6427SOL     OW30913   3.362   4.595   6.152 -0.2236 -0.0599 -0.2164
 6427SOL    HW130914   3.352   4.577   6.058 -0.4839 -0.5789 -0.0821
 6427SOL    HW230915   3.406   4.512   6.171 -0.7255  0.3832  2.7515
 6428SOL     OW30916   0.042   3.403   2.735 -0.2177  0.1962  0.0122
 6428SOL    HW130917   0.001   3.430   2.653 -1.4143  0.1462  0.6012
 6428SOL    HW230918   0.034   3.311   2.712  0.5031  0.2981 -0.6803
 6429SOL     OW30919   0.825   2.099   0.800 -0.7420  0.1270 -0.2403
 6429SOL    HW130920   0.772   2.046   0.860  1.3039 -1.3150  0.3051
 6429SOL    HW230921   0.877   2.146   0.866 -2.0242 -0.7348  1.4030
 6430SOL     OW30922   2.409   1.694   1.537 -0.1779 -0.1821  0.0326
 6430SOL    HW130923   2.490   1.659   1.498 -0.4281  0.1576 -0.8002
 6430SOL    HW230924   2.342   1.703   1.469 -1.9046  0.6301  1.8626
 6431SOL     OW30925   1.851   2.427   5.805  0.8211  0.1985 -0.3659
 6431SOL    HW130926   1.903   2.410   5.884 -0.9937  0.3859  0.8646
 6431SOL    HW230927   1.894   2.505   5.770  0.9368 -0.3562 -1.4796
 6432SOL     OW30928   0.546   4.456  16.280  0.2000  0.1970  0.7506
 6432SOL    HW130929   0.522   4.399  16.207 -1.0596  1.4010  0.2454
 6432SOL    HW230930   0.587   4.532  16.239 -0.6356 -0.6282 -1.5590
 6433SOL     OW30931   3.771   1.032   4.319 -0.3356 -0.6607  0.0994
 6433SOL    HW130932   3.698   0.984   4.359 -0.0808  0.5071  1.9694
 6433SOL    HW230933   3.849   1.006   4.369 -0.8197  0.1916  1.3115
 6434SOL     OW30934   1.128   1.422   7.493 -0.2449 -0.0229  0.4589
 6434SOL    HW130935   1.096   1.510   7.513 -0.2227  1.0098 -3.9712
 6434SOL    HW230936   1.221   1.443   7.493 -0.6448  1.7590  1.7973
 6435SOL     OW30937   3.500   1.140   5.263 -0.0400 -0.7380 -0.0792
 6435SOL    HW130938   3.485   1.151   5.357  1.3251  1.3597 -0.1018
 6435SOL    HW230939   3.569   1.201   5.238  0.3330 -1.2115 -0.2121
 6436SOL     OW30940   2.995   3.299   4.006  0.0799 -0.0192 -0.7159
 6436SOL    HW130941   3.059   3.319   4.074  0.1144 -0.8480 -0.5046
 6436SOL    HW230942   3.016   3.353   3.930  0.8545 -0.0140 -0.4956
 6437SOL     OW30943   4.292   4.272   6.998  0.1929 -0.0068  0.0500
 6437SOL    HW130944   4.363   4.334   7.013  0.1675  0.0773 -0.1727
 6437SOL    HW230945   4.252   4.309   6.919 -1.6026  0.2440  1.0799
 6438SOL     OW30946   1.024   1.189   3.369  0.0173  0.5085 -0.1113
 6438SOL    HW130947   0.938   1.214   3.405  0.5859  1.9128  0.2554
 6438SOL    HW230948   1.072   1.149   3.442  0.6884  3.2144  0.9127
 6439SOL     OW30949   1.622   1.075   7.047  0.3898  0.3109  0.3542
 6439SOL    HW130950   1.698   1.087   6.990 -0.0992  0.9555 -0.1588
 6439SOL    HW230951   1.599   1.168   7.045  1.1693  0.4919 -0.4465
 6440SOL     OW30952   3.848   0.416   4.103 -0.0894 -0.4891 -0.3698
 6440SOL    HW130953   3.832   0.342   4.044 -0.4409  0.8764 -1.9756
 6440SOL    HW230954   3.767   0.411   4.155  1.0727  0.2062  1.5128
 6441SOL     OW30955   4.080   0.066   6.738  0.5314 -0.4608  0.2816
 6441SOL    HW130956   4.152   0.124   6.714 -0.6097  0.8329 -0.0171
 6441SOL    HW230957   4.128   4.721   6.741  2.5589  0.7148 -0.4914
 6442SOL     OW30958   2.355   4.588  15.480  0.0356  0.1743  0.0918
 6442SOL    HW130959   2.410   4.589  15.401  1.0812 -1.1589  0.8066
 6442SOL    HW230960   2.273   4.594  15.431  0.9470 -0.1269 -1.4799
 6443SOL     OW30961   1.173   4.737  16.209  0.4641 -0.4239 -0.1091
 6443SOL    HW130962   1.235   4.702  16.145 -0.1203 -0.6111 -0.5750
 6443SOL    HW230963   1.134   4.665  16.258 -0.1156  0.3083  0.5149
 6444SOL     OW30964   2.648   3.966  14.349 -0.2969  0.2023 -0.4042
 6444SOL    HW130965   2.734   3.974  14.310  1.7990 -0.8882  3.9912
 6444SOL    HW230966   2.608   3.914  14.279 -0.4159 -1.2607  0.7379
 6445SOL     OW30967   4.368   2.110  10.124  0.1631  0.5318  0.0566
 6445SOL    HW130968   4.404   2.025  10.153 -0.3219  1.0164  2.0681
 6445SOL    HW230969   4.361   2.086  10.032  3.4675  1.2913 -0.4203
 6446SOL     OW30970   0.096   3.495   4.262  0.3531 -0.0247  0.1744
 6446SOL    HW130971   0.086   3.587   4.237 -0.3498 -0.5617 -1.5317
 6446SOL    HW230972   0.145   3.506   4.344  0.8652  1.4131 -0.3182
 6447SOL     OW30973   0.037   2.718   7.298 -0.6632 -0.0579  0.5182
 6447SOL    HW130974   0.116   2.769   7.318 -0.5584  1.0019 -2.7292
 6447SOL    HW230975   4.711   2.788   7.282  1.0193  1.3364 -0.0297
 6448SOL     OW30976   0.356   1.356   4.085  0.4088 -0.6523  0.2845
 6448SOL    HW130977   0.333   1.379   3.995 -0.4847  0.6286  0.8478
 6448SOL    HW230978   0.409   1.433   4.103  0.5604 -0.4663 -0.9488
 6449SOL     OW30979   0.565   3.480   6.757 -0.1959  0.0559 -0.0100
 6449SOL    HW130980   0.528   3.490   6.670  1.3224  3.4545 -0.2668
 6449SOL    HW230981   0.502   3.417   6.791  1.5754 -2.3262 -1.1412
 6450SOL     OW30982   3.057   3.462   2.305 -0.0754  0.0801  0.3724
 6450SOL    HW130983   3.092   3.383   2.346 -2.4027 -0.6478  0.9448
 6450SOL    HW230984   3.137   3.511   2.288  0.2316  0.1821  2.0482
 6451SOL     OW30985   2.567   2.143   6.372  0.0721  0.4178  0.0133
 6451SOL    HW130986   2.635   2.083   6.342  2.1520  2.0870  1.2905
 6451SOL    HW230987   2.550   2.108   6.460 -1.9312 -1.3527 -1.0799
 6452SOL     OW30988   0.854   1.902  16.742 -0.4459 -0.0970 -0.2651
 6452SOL    HW130989   0.826   1.810  16.741 -1.1690  0.1255 -0.3381
 6452SOL    HW230990   0.836   1.931  16.832  0.5952  0.3105 -0.1860
 6453SOL     OW30991   4.082   4.026   3.619  0.0499 -0.4158 -0.1428
 6453SOL    HW130992   4.059   4.088   3.550 -0.7404  0.0420  0.5432
 6453SOL    HW230993   4.178   4.027   3.615  0.0307 -1.6526 -0.8128
 6454SOL     OW30994   2.986   1.222   8.026 -0.5128 -0.0886  0.5832
 6454SOL    HW130995   2.916   1.181   8.077 -0.1202 -0.9242  0.4458
 6454SOL    HW230996   2.941   1.254   7.947  1.4432  0.2176 -0.4048
 6455SOL     OW30997   1.913   3.619   8.277 -0.0344  0.4549  0.5583
 6455SOL    HW130998   1.864   3.559   8.333 -0.0855  1.0416  1.1427
 6455SOL    HW230999   1.845   3.678   8.243  0.5911  1.0847  0.3903
 6456SOL     OW31000   0.266   3.886   3.328  0.3168  0.1704  0.1009
 6456SOL    HW131001   0.361   3.894   3.318  0.2449  0.5017 -0.3414
 6456SOL    HW231002   0.253   3.814   3.267 -0.0792 -1.5241  2.1990
 6457SOL     OW31003   2.438   3.952  17.200 -0.1200 -0.2963 -0.2993
 6457SOL    HW131004   2.447   3.954  17.105  2.1896  0.0008 -0.0728
 6457SOL    HW231005   2.361   3.898  17.215 -0.4208  0.5734  1.2898
 6458SOL     OW31006   1.056   2.844  15.826  0.2340  0.1238 -0.6721
 6458SOL    HW131007   1.112   2.835  15.750 -1.1388  1.7255 -1.8539
 6458SOL    HW231008   1.065   2.756  15.865 -0.9530 -0.0906 -0.8803
 6459SOL     OW31009   4.692   1.371   8.294  0.9859 -0.1006  0.2022
 6459SOL    HW131010   4.690   1.458   8.255  1.0035 -0.3300 -0.3073
 6459SOL    HW231011   4.641   1.317   8.234  2.3444  2.4938 -3.3420
 6460SOL     OW31012   3.886   4.478  13.066 -0.7869  0.4423 -0.0259
 6460SOL    HW131013   3.825   4.505  13.136 -0.5647  0.2288  0.2517
 6460SOL    HW231014   3.929   4.561  13.049  2.4625 -0.5107  3.4384
 6461SOL     OW31015   3.559   0.040   9.128 -0.0115 -0.0253 -0.3148
 6461SOL    HW131016   3.585   0.003   9.044  1.5053 -1.2605  0.6788
 6461SOL    HW231017   3.470   0.009   9.143 -0.9181  2.7784  0.1855
 6462SOL     OW31018   2.216   0.719   1.203  0.7984  0.4893  0.0674
 6462SOL    HW131019   2.169   0.803   1.203 -0.7475 -0.3951  1.6480
 6462SOL    HW231020   2.224   0.705   1.108 -1.9551 -0.6330  0.0220
 6463SOL     OW31021   3.911   1.737   8.586  0.0336  0.3043  0.0635
 6463SOL    HW131022   3.838   1.788   8.622  1.7265  2.9075 -0.2524
 6463SOL    HW231023   3.986   1.791   8.610  0.4112 -0.3599  0.3787
 6464SOL     OW31024   4.514   0.087   3.473  0.0435 -0.7571 -0.4184
 6464SOL    HW131025   4.550   0.170   3.443  0.5457 -0.6185  0.5799
 6464SOL    HW231026   4.589   0.056   3.524  0.5024  0.0575 -0.5995
 6465SOL     OW31027   4.085   2.837   2.329 -0.1153  0.2467  0.1676
 6465SOL    HW131028   4.116   2.912   2.381 -2.0311  1.3225 -0.2795
 6465SOL    HW231029   4.168   2.792   2.312 -0.7344 -0.9308  0.2277
 6466SOL     OW31030   2.833   2.599   1.147  0.6840 -0.4616 -0.4343
 6466SOL    HW131031   2.752   2.555   1.123  0.5885 -0.4118 -0.2062
 6466SOL    HW231032   2.886   2.523   1.173 -0.4224 -0.9765  0.2898
 6467SOL     OW31033   3.543   2.953  16.252  0.3104 -0.0408  0.0766
 6467SOL    HW131034   3.575   2.888  16.315  1.3587 -0.3403 -0.7669
 6467SOL    HW231035   3.597   2.941  16.174 -0.9240 -2.2929 -0.4357
 6468SOL     OW31036   4.551   1.983   1.596  0.2598 -0.0894 -0.0515
 6468SOL    HW131037   4.513   2.047   1.656  0.8340  0.0899  0.1139
 6468SOL    HW231038   4.479   1.969   1.534 -0.6672  0.0942  0.9951
 6469SOL     OW31039   2.035   3.855   8.457  0.2951 -0.2108  0.2498
 6469SOL    HW131040   2.038   3.783   8.395 -1.2458  0.1620 -0.2441
 6469SOL    HW231041   1.980   3.927   8.427 -1.2139 -1.2394  0.5722
 6470SOL     OW31042   2.274   1.420  16.439 -0.1942  0.4181  0.4918
 6470SOL    HW131043   2.194   1.469  16.458 -0.9762 -0.7544  0.2058
 6470SOL    HW231044   2.260   1.377  16.354 -0.9140  1.3255  0.1586
 6471SOL     OW31045   4.149   1.113   8.404  0.3726 -0.1511 -0.1418
 6471SOL    HW131046   4.193   1.061   8.471  1.0431  0.4042 -0.1458
 6471SOL    HW231047   4.069   1.148   8.441  0.3550 -0.0087 -0.3159
 6472SOL     OW31048   4.520   3.542   8.195 -0.0046  0.0698  0.4353
 6472SOL    HW131049   4.546   3.456   8.160 -0.8850 -0.2216  0.4998
 6472SOL    HW231050   4.502   3.581   8.109  0.0416  0.1246  0.4503
 6473SOL     OW31051   2.860   0.259   2.152 -0.2232  0.3358 -0.2277
 6473SOL    HW131052   2.849   0.183   2.209 -3.6698  1.7686  0.9429
 6473SOL    HW231053   2.870   0.327   2.218 -2.1466 -0.3994  0.8049
 6474SOL     OW31054   4.148   2.378   3.989  0.5166 -0.0145 -0.1036
 6474SOL    HW131055   4.101   2.430   3.924 -0.0790  0.2874  0.5650
 6474SOL    HW231056   4.171   2.311   3.925  1.7403  0.3332 -0.0117
 6475SOL     OW31057   4.676   4.706   2.194 -0.3942  0.0846 -0.1217
 6475SOL    HW131058   4.656   4.621   2.154  2.5116 -1.4257  1.6272
 6475SOL    HW231059   4.722   4.675   2.272 -0.8901 -0.2787  0.0256
 6476SOL     OW31060   1.487   1.807   3.141  0.2034  0.1445  0.5061
 6476SOL    HW131061   1.484   1.738   3.075  1.5398  1.1388 -0.5787
 6476SOL    HW231062   1.502   1.890   3.097 -1.2330  0.1585  0.0332
 6477SOL     OW31063   4.186   4.035   9.782 -0.2697 -0.1727  0.4956
 6477SOL    HW131064   4.104   4.067   9.819  1.5285  2.6592  2.0394
 6477SOL    HW231065   4.249   4.106   9.797  1.2995 -1.2879 -0.7895
 6478SOL     OW31066   1.060   4.336  13.138  0.0592 -0.5320  0.2046
 6478SOL    HW131067   1.065   4.278  13.061  0.0981 -0.4683  0.1588
 6478SOL    HW231068   1.140   4.386  13.123  1.2878 -2.0256  1.7912
 6479SOL     OW31069   1.592   3.017   2.717  0.3085 -0.0573 -0.5486
 6479SOL    HW131070   1.679   3.038   2.750  0.0920 -0.1690  0.1060
 6479SOL    HW231071   1.600   3.023   2.622  0.0594  0.2101 -0.5545
 6480SOL     OW31072   1.710   1.264   4.826  0.3197 -0.1235 -0.2229
 6480SOL    HW131073   1.654   1.251   4.903 -0.1671 -3.1170 -1.0768
 6480SOL    HW231074   1.689   1.357   4.819  0.0351 -0.0817  1.1440
 6481SOL     OW31075   0.820   4.071   5.733 -0.1590 -0.2909 -0.4794
 6481SOL    HW131076   0.899   4.038   5.689  0.7623 -0.6645  1.4662
 6481SOL    HW231077   0.876   4.113   5.798 -2.0221  1.1113  0.2255
 6482SOL     OW31078   3.451   1.220   3.207 -0.8225  0.1212 -0.3655
 6482SOL    HW131079   3.491   1.264   3.131 -1.1638 -0.4143 -0.8574
 6482SOL    HW231080   3.387   1.172   3.154  0.3496 -0.0561 -1.6149
 6483SOL     OW31081   0.231   2.737   8.479  0.3231 -0.7168  0.3940
 6483SOL    HW131082   0.273   2.677   8.541 -0.4978  0.5438  2.1859
 6483SOL    HW231083   0.254   2.688   8.400 -0.3039 -1.2163  0.5244
 6484SOL     OW31084   2.098   1.210   5.015  0.1761 -0.2170  0.3814
 6484SOL    HW131085   2.094   1.247   4.927 -0.3388  0.5749  0.7346
 6484SOL    HW231086   2.025   1.259   5.054  0.5400  0.0927  0.6658
 6485SOL     OW31087   3.538   0.524   2.288 -0.6247 -0.3962 -0.0016
 6485SOL    HW131088   3.478   0.451   2.301 -2.3221  1.1921  1.1309
 6485SOL    HW231089   3.620   0.476   2.279 -1.0661 -1.5492  2.1141
 6486SOL     OW31090   4.075   3.264   8.937 -0.6497 -0.0447 -0.0626
 6486SOL    HW131091   4.171   3.262   8.938 -0.6467 -0.2762 -1.1067
 6486SOL    HW231092   4.054   3.180   8.897 -0.9837 -0.1493  0.3302
 6487SOL     OW31093   2.235   2.268   4.330  0.3822 -0.3839  0.4276
 6487SOL    HW131094   2.184   2.348   4.317  0.1693 -0.4256  1.0460
 6487SOL    HW231095   2.188   2.245   4.409 -2.0632  1.8198 -0.3853
 6488SOL     OW31096   1.451   4.308   5.846 -0.2751 -0.2713 -0.4455
 6488SOL    HW131097   1.465   4.377   5.781 -0.2826 -1.6103 -1.8475
 6488SOL    HW231098   1.541   4.276   5.860  0.5691  1.5573 -1.6214
 6489SOL     OW31099   1.234   4.032   3.785 -0.2661  0.0267  0.7467
 6489SOL    HW131100   1.187   3.994   3.710  1.3711 -1.7737  0.6197
 6489SOL    HW231101   1.232   3.957   3.845 -0.5034 -1.3365 -0.9625
 6490SOL     OW31102   0.402   2.849   5.413  0.4275 -0.3763  0.3125
 6490SOL    HW131103   0.403   2.820   5.321  1.4306 -1.6900  0.7310
 6490SOL    HW231104   0.341   2.793   5.460 -0.3273  0.5035  0.3645
 6491SOL     OW31105   4.463   3.099   3.359  0.1169  0.3797 -0.6628
 6491SOL    HW131106   4.546   3.145   3.371 -0.4420  1.5887 -1.4824
 6491SOL    HW231107   4.429   3.147   3.284 -2.0724 -1.2407 -0.7276
 6492SOL     OW31108   3.465   3.459  16.076 -0.6966 -0.1000  0.1608
 6492SOL    HW131109   3.511   3.523  16.131 -1.6491 -0.5353  1.4826
 6492SOL    HW231110   3.503   3.474  15.989 -2.4746 -0.4787 -0.6664
 6493SOL     OW31111   2.362   0.623   5.067 -0.1743  0.1535  0.3057
 6493SOL    HW131112   2.361   0.719   5.071  1.3118  0.0382  4.3345
 6493SOL    HW231113   2.354   0.609   4.973  2.9593 -2.3715  0.4024
 6494SOL     OW31114   3.259   1.403   3.588  0.3533 -0.1834 -0.3474
 6494SOL    HW131115   3.307   1.322   3.603 -1.1560 -1.0198 -0.0474
 6494SOL    HW231116   3.286   1.473   3.648 -1.1203 -0.2245  0.3612
 6495SOL     OW31117   3.898   3.236   4.514  0.1986  0.4196 -0.3482
 6495SOL    HW131118   3.820   3.249   4.568 -0.3751  0.6891 -1.2288
 6495SOL    HW231119   3.875   3.153   4.472  0.3436  0.7795 -1.1401
 6496SOL     OW31120   0.032   2.180   5.440  0.4677  0.4296  0.0520
 6496SOL    HW131121   0.044   2.144   5.528 -0.9953  0.6928  0.3536
 6496SOL    HW231122   4.696   2.127   5.411  0.3545 -1.7402  4.3555
 6497SOL     OW31123   4.206   4.482   4.384  0.1279  1.0893  0.0595
 6497SOL    HW131124   4.142   4.452   4.449 -0.7827 -1.6038 -2.0812
 6497SOL    HW231125   4.180   4.428   4.310  1.2512  1.4186 -0.5728
 6498SOL     OW31126   2.945   0.483   7.399 -0.4375 -0.0584 -0.1267
 6498SOL    HW131127   2.986   0.519   7.320 -0.6573  1.1229  0.2947
 6498SOL    HW231128   2.897   0.559   7.433 -2.2028 -0.5358 -1.5828
 6499SOL     OW31129   2.290   4.736   6.089 -0.0141  0.4236  0.1134
 6499SOL    HW131130   2.229   0.060   6.129 -0.0276  0.5452 -0.0954
 6499SOL    HW231131   2.369   0.027   6.136 -0.4406 -1.7314  2.1633
 6500SOL     OW31132   3.425   3.090  13.790  0.2221 -0.1589  0.4301
 6500SOL    HW131133   3.425   2.994  13.789 -0.7008 -0.1491  0.1781
 6500SOL    HW231134   3.402   3.111  13.700  1.5465 -3.9450 -0.8247
 6501SOL     OW31135   0.716   3.470   2.731  0.3639  0.1556  0.1489
 6501SOL    HW131136   0.730   3.399   2.794 -0.9061  0.3600  0.6548
 6501SOL    HW231137   0.727   3.423   2.649  0.0385  0.4150 -0.0423
 6502SOL     OW31138   0.850   1.079   4.002  0.9275 -0.6287  0.3330
 6502SOL    HW131139   0.894   1.008   3.956  1.9545 -0.4739  1.0650
 6502SOL    HW231140   0.815   1.032   4.078  0.2178 -1.5653 -0.5718
 6503SOL     OW31141   4.653   2.138   3.594 -0.5337 -0.3190  0.1024
 6503SOL    HW131142   4.624   2.221   3.556  0.7596 -0.8228 -1.9447
 6503SOL    HW231143   4.671   2.077   3.523 -0.2038  0.3938 -0.4316
 6504SOL     OW31144   0.286   1.033   9.947 -0.1963  0.1876 -0.1330
 6504SOL    HW131145   0.254   1.062  10.032 -1.4013  1.6906 -1.0927
 6504SOL    HW231146   0.378   1.017   9.968 -1.7688 -3.2982  4.0514
 6505SOL     OW31147   1.002   3.012   9.471  0.4542 -0.0646 -0.4459
 6505SOL    HW131148   1.039   2.963   9.545  0.4999 -0.2513 -0.5915
 6505SOL    HW231149   0.908   3.001   9.488  0.3154 -0.4060 -1.3948
 6506SOL     OW31150   2.343   2.131   5.998  0.6144  0.3122  0.5641
 6506SOL    HW131151   2.366   2.224   5.997  0.7521  0.2840  1.6527
 6506SOL    HW231152   2.368   2.087   5.916 -0.8840  0.3675  0.0867
 6507SOL     OW31153   1.799   1.808   8.323  0.7336  0.1773  0.1188
 6507SOL    HW131154   1.759   1.742   8.267 -0.1369  1.0226 -0.2590
 6507SOL    HW231155   1.809   1.883   8.264 -2.1436  1.7502  1.6396
 6508SOL     OW31156   3.981   1.047   6.337 -0.1225 -0.3068  0.2044
 6508SOL    HW131157   3.949   1.126   6.294 -1.6787  0.2099  2.3256
 6508SOL    HW231158   4.072   1.075   6.351 -0.6471  0.8918  1.2106
 6509SOL     OW31159   1.206   0.161   3.501  0.4188 -0.3318 -0.1490
 6509SOL    HW131160   1.126   0.158   3.553  0.4439 -1.4140 -0.1911
 6509SOL    HW231161   1.168   0.191   3.418 -1.3010  0.2275  0.8421
 6510SOL     OW31162   1.617   2.495   1.052 -0.0574  0.1493  0.0759
 6510SOL    HW131163   1.691   2.435   1.060 -1.0993 -0.7938  2.7147
 6510SOL    HW231164   1.629   2.534   1.139 -1.8939 -0.0172  0.3944
 6511SOL     OW31165   1.044   3.417   5.696 -0.3936 -0.1030  0.1593
 6511SOL    HW131166   0.956   3.390   5.722 -0.6193 -0.4375 -0.9634
 6511SOL    HW231167   1.055   3.377   5.610 -1.7193 -0.9365  0.3682
 6512SOL     OW31168   1.062   2.177   1.912 -0.2338  0.0247  0.0163
 6512SOL    HW131169   0.977   2.138   1.895  0.6741 -1.1668 -1.8199
 6512SOL    HW231170   1.106   2.186   1.827  1.6260 -1.9076  0.7710
 6513SOL     OW31171   0.421   1.526   3.465  0.3834 -0.2911  0.2068
 6513SOL    HW131172   0.423   1.572   3.549  1.1317 -2.9339  1.6382
 6513SOL    HW231173   0.507   1.537   3.423  0.0914 -1.8804 -0.8049
 6514SOL     OW31174   0.483   2.291  11.125 -0.3353  0.2611 -0.5230
 6514SOL    HW131175   0.399   2.331  11.104  0.7905  1.3123 -3.0519
 6514SOL    HW231176   0.488   2.228  11.053 -0.0257  0.0217 -0.2945
 6515SOL     OW31177   2.095   0.429  13.430  0.4913  0.1053 -0.4240
 6515SOL    HW131178   2.118   0.390  13.345 -1.2179  1.0922 -1.3434
 6515SOL    HW231179   2.143   0.377  13.494 -0.5247  1.2213  1.2477
 6516SOL     OW31180   1.970   1.531   4.455  0.3891 -0.1169 -0.3219
 6516SOL    HW131181   1.950   1.553   4.546 -0.1697 -0.1692 -0.4363
 6516SOL    HW231182   1.903   1.568   4.398 -0.2036 -0.9892 -0.1956
 6517SOL     OW31183   2.547   4.369   4.402 -0.4806 -0.3960 -0.1682
 6517SOL    HW131184   2.459   4.397   4.427 -0.0078  1.8037 -0.9676
 6517SOL    HW231185   2.524   4.277   4.386  1.9606 -1.1795  0.7520
 6518SOL     OW31186   1.356   4.729   0.856  0.4783 -0.0311 -0.1170
 6518SOL    HW131187   1.406   4.649   0.842 -0.5541 -0.3997 -1.7549
 6518SOL    HW231188   1.301   4.737   0.778 -0.1341 -0.4468  0.2787
 6519SOL     OW31189   4.414   0.168   2.060  0.1639  0.1557  0.1370
 6519SOL    HW131190   4.493   0.201   2.018  0.5231 -1.6216 -0.5733
 6519SOL    HW231191   4.399   0.078   2.030 -0.9524 -0.0779  1.3928
 6520SOL     OW31192   4.723   2.063   8.816  0.1592  0.0231 -0.3066
 6520SOL    HW131193   4.702   2.127   8.884 -0.2060 -0.1698 -0.2397
 6520SOL    HW231194   0.017   2.116   8.743 -0.3370 -0.1501 -0.6397
 6521SOL     OW31195   2.417   1.303   1.470  0.1202 -0.2170 -0.5492
 6521SOL    HW131196   2.381   1.307   1.559  1.8798  0.6752  0.1302
 6521SOL    HW231197   2.505   1.264   1.476  0.3981  0.4661 -0.1937
 6522SOL     OW31198   3.382   2.280  10.185 -0.9123  0.0881  0.1613
 6522SOL    HW131199   3.304   2.226  10.173 -0.2387 -0.7792 -0.3586
 6522SOL    HW231200   3.399   2.260  10.277 -0.0052  0.0411 -0.0121
 6523SOL     OW31201   4.285   1.015   2.521 -0.0235  0.1981  0.0651
 6523SOL    HW131202   4.300   0.939   2.578  0.8630  0.9787  0.8686
 6523SOL    HW231203   4.248   0.981   2.439  0.1199 -2.4434  1.1121
 6524SOL     OW31204   2.897   3.507   0.350 -0.2674 -0.9521  0.6046
 6524SOL    HW131205   2.929   3.416   0.344  0.6441 -0.6743  1.3849
 6524SOL    HW231206   2.908   3.525   0.443  1.0065 -1.9410  0.6439
 6525SOL     OW31207   2.822   3.532   5.453 -0.0644  1.1315 -0.1922
 6525SOL    HW131208   2.768   3.485   5.390  1.4800  2.2145 -2.3160
 6525SOL    HW231209   2.756   3.595   5.483  0.8456  1.1835  1.7520
 6526SOL     OW31210   0.222   4.619  12.881 -0.0935 -1.2104 -0.1254
 6526SOL    HW131211   0.151   4.593  12.940  0.3540 -0.1295  0.8689
 6526SOL    HW231212   0.160   4.636  12.810 -1.8133  1.5040  2.0345
 6527SOL     OW31213   3.671   4.380  13.202 -0.1846 -0.6630 -0.8174
 6527SOL    HW131214   3.621   4.352  13.279  0.4247 -1.3326 -0.6582
 6527SOL    HW231215   3.738   4.311  13.202  0.3216 -0.1738  0.7870
 6528SOL     OW31216   3.852   2.764   3.715  0.7391 -0.5526  0.3971
 6528SOL    HW131217   3.933   2.789   3.671  0.0134  0.9636 -0.0713
 6528SOL    HW231218   3.823   2.846   3.754 -1.4456 -1.1782  0.0802
 6529SOL     OW31219   4.097   2.036   2.709 -0.1753 -0.4081  0.1066
 6529SOL    HW131220   4.138   2.042   2.623  1.1273  1.3060  0.8465
 6529SOL    HW231221   4.053   2.121   2.709  0.5664 -0.0448  2.1327
 6530SOL     OW31222   1.543   1.463   5.920 -0.2270 -0.0028 -0.8154
 6530SOL    HW131223   1.570   1.546   5.959  2.7776 -1.4601  0.2104
 6530SOL    HW231224   1.449   1.476   5.923  0.1059  2.2693 -0.4142
 6531SOL     OW31225   1.135   0.675   5.331 -0.2708  0.3960  0.0371
 6531SOL    HW131226   1.155   0.582   5.323 -1.2486  0.2266 -0.4170
 6531SOL    HW231227   1.097   0.693   5.245 -2.1244 -2.4544  0.2684
 6532SOL     OW31228   3.311   0.633   3.323  0.2051  0.4194  0.1772
 6532SOL    HW131229   3.374   0.657   3.392  1.9288  0.7840 -1.5102
 6532SOL    HW231230   3.306   0.720   3.282  1.3063  0.0207 -0.8134
 6533SOL     OW31231   3.295   0.409   3.177 -0.2258  0.1079  0.1502
 6533SOL    HW131232   3.286   0.495   3.220 -1.3529 -0.1556  0.4547
 6533SOL    HW231233   3.334   0.366   3.253 -0.1741  1.3903  0.8680
 6534SOL     OW31234   2.319   2.480   6.520  0.1346  0.3114 -0.3715
 6534SOL    HW131235   2.292   2.497   6.610 -0.5606 -2.5074 -0.0447
 6534SOL    HW231236   2.232   2.469   6.482 -0.2950  1.2529  0.3421
 6535SOL     OW31237   1.359   1.348  17.305 -0.0020  0.2087 -0.0171
 6535SOL    HW131238   1.266   1.335  17.289 -0.4695  1.9906  1.2380
 6535SOL    HW231239   1.362   1.444  17.307  1.4480  0.1262  1.3339
 6536SOL     OW31240   2.723   0.282   5.202  0.4929  0.3962 -0.1148
 6536SOL    HW131241   2.676   0.363   5.183  1.2266  1.4244  2.3732
 6536SOL    HW231242   2.739   0.250   5.114 -1.0497 -0.3057 -0.1357
 6537SOL     OW31243   0.948   1.207   1.773  0.7091 -0.2324 -0.2077
 6537SOL    HW131244   1.035   1.182   1.741  1.0075  0.2771  0.1844
 6537SOL    HW231245   0.897   1.140   1.728 -0.2784  0.7821 -0.5868
 6538SOL     OW31246   1.756   3.651  11.845 -0.4847 -0.4694  0.2061
 6538SOL    HW131247   1.776   3.675  11.754  0.4964  1.3597  0.8936
 6538SOL    HW231248   1.704   3.571  11.841 -0.1391 -0.5842 -1.8303
 6539SOL     OW31249   1.312   3.820  16.346 -0.0118 -0.8830 -0.1313
 6539SOL    HW131250   1.320   3.887  16.278  1.0157  1.0231  1.8936
 6539SOL    HW231251   1.300   3.749  16.282 -1.8334 -0.4166 -0.3053
 6540SOL     OW31252   0.675   1.166  11.020 -0.0592 -0.9597 -0.1920
 6540SOL    HW131253   0.616   1.198  11.089  1.0976 -0.0068  0.3599
 6540SOL    HW231254   0.629   1.192  10.941 -1.1134  0.5163  0.8925
 6541SOL     OW31255   2.435   0.085  14.492 -0.4902 -0.5091 -0.1209
 6541SOL    HW131256   2.501   0.102  14.425 -0.2261  1.4190  0.6236
 6541SOL    HW231257   2.467   0.002  14.525 -1.0251 -0.9818 -0.7861
 6542SOL     OW31258   4.586   4.164   2.164 -0.1969  0.0585  0.1461
 6542SOL    HW131259   4.505   4.166   2.113 -0.9627  0.4648  1.3789
 6542SOL    HW231260   4.657   4.140   2.104 -0.5487 -0.2817 -0.1342
 6543SOL     OW31261   3.219   3.573   7.881  0.0550  0.4050 -0.0973
 6543SOL    HW131262   3.244   3.647   7.826  3.1710 -1.1089 -0.6780
 6543SOL    HW231263   3.247   3.611   7.964 -0.1885 -0.2603  0.2920
 6544SOL     OW31264   1.954   0.990   4.433 -0.3508  0.0033  0.3519
 6544SOL    HW131265   1.940   1.082   4.411 -2.8720 -0.5415 -0.2675
 6544SOL    HW231266   1.964   0.995   4.528 -0.6326  0.8270  0.3390
 6545SOL     OW31267   2.223   4.673   7.448  0.0321 -0.2533 -0.6044
 6545SOL    HW131268   2.158   4.609   7.421 -0.0512 -0.8393  1.0107
 6545SOL    HW231269   2.287   4.614   7.487  0.3232 -0.2757 -1.1164
 6546SOL     OW31270   0.137   1.757   4.716 -0.1648 -0.2301 -0.5745
 6546SOL    HW131271   0.047   1.758   4.749 -0.8950 -0.7273 -2.5570
 6546SOL    HW231272   0.178   1.777   4.800  0.0296  0.7335 -0.8968
 6547SOL     OW31273   1.865   2.545   1.738 -0.1210  0.1504  0.3347
 6547SOL    HW131274   1.770   2.543   1.731 -0.0571 -0.9398 -0.2613
 6547SOL    HW231275   1.884   2.601   1.663 -1.4975 -0.2376 -0.3024
 6548SOL     OW31276   2.203   3.833   3.681  0.4460 -0.0518  0.1895
 6548SOL    HW131277   2.276   3.822   3.742  0.9534  1.8604 -0.0717
 6548SOL    HW231278   2.130   3.856   3.738 -1.0549 -0.0810 -1.7369
 6549SOL     OW31279   3.929   1.504   9.229  0.1956  0.2422  0.5828
 6549SOL    HW131280   3.854   1.542   9.274 -1.1763  0.1502 -1.6005
 6549SOL    HW231281   3.953   1.436   9.292  0.1833 -0.9769 -0.7040
 6550SOL     OW31282   3.184   2.529   4.892  0.1952  0.1402  0.1103
 6550SOL    HW131283   3.127   2.454   4.876 -0.0635  0.6380 -1.2759
 6550SOL    HW231284   3.269   2.493   4.919 -0.5566  0.0461  2.3787
 6551SOL     OW31285   0.791   4.450   6.983  0.0774  0.8853  0.0080
 6551SOL    HW131286   0.871   4.473   6.936  0.2375 -1.2421 -0.7293
 6551SOL    HW231287   0.779   4.358   6.958  0.5147  0.1788  2.4279
 6552SOL     OW31288   4.124   1.828   3.429  0.3118 -0.1966 -0.2328
 6552SOL    HW131289   4.174   1.876   3.363  0.5188  0.4917  0.4177
 6552SOL    HW231290   4.103   1.750   3.379 -0.8506  0.9582 -1.5234
 6553SOL     OW31291   2.773   3.353   7.916  0.4799 -0.5497 -0.4508
 6553SOL    HW131292   2.697   3.366   7.860  0.0988 -1.8899 -0.2356
 6553SOL    HW231293   2.844   3.393   7.865 -0.0530  1.5825  0.4966
 6554SOL     OW31294   2.240   0.255  14.464 -0.0373  0.7264 -0.4785
 6554SOL    HW131295   2.200   0.242  14.378 -0.1490 -0.6785 -0.2081
 6554SOL    HW231296   2.309   0.189  14.460 -1.1158 -0.8004  5.4859
 6555SOL     OW31297   3.237   2.159   4.368  0.0249 -0.1582 -0.3291
 6555SOL    HW131298   3.180   2.229   4.336 -1.1896 -1.2101 -0.4243
 6555SOL    HW231299   3.285   2.221   4.423  1.6824  0.4118 -2.3711
 6556SOL     OW31300   2.444   4.576   2.900 -0.4173  0.0155  0.1530
 6556SOL    HW131301   2.512   4.579   2.834 -0.5330 -1.4401 -0.0284
 6556SOL    HW231302   2.382   4.521   2.852 -1.5750  1.4265  0.0054
 6557SOL     OW31303   3.639   2.654   3.462 -0.2284  0.1358  0.0980
 6557SOL    HW131304   3.702   2.725   3.448  0.5158 -0.4161  0.6448
 6557SOL    HW231305   3.677   2.600   3.531 -0.5418 -0.0788  0.0999
 6558SOL     OW31306   0.947   0.424   7.487 -0.4419  0.3478 -0.4987
 6558SOL    HW131307   0.989   0.501   7.526 -0.7928  0.3336 -0.0881
 6558SOL    HW231308   0.896   0.386   7.559  0.6890 -2.0053 -0.9445
 6559SOL     OW31309   2.537   2.020  13.376  0.5829 -0.6977 -0.2075
 6559SOL    HW131310   2.584   2.101  13.397 -0.4659 -0.1553  0.0394
 6559SOL    HW231311   2.511   1.987  13.462 -2.1445 -3.1536 -1.9973
 6560SOL     OW31312   2.041   1.226   7.978 -0.3118  0.2564  0.0626
 6560SOL    HW131313   2.037   1.305   8.032  0.3777 -0.5911  1.3355
 6560SOL    HW231314   2.034   1.254   7.887  0.4268 -1.1591 -0.4292
 6561SOL     OW31315   2.684   0.676   2.072 -0.1974  0.3976 -0.7023
 6561SOL    HW131316   2.621   0.608   2.048 -0.0109 -0.6083  1.6510
 6561SOL    HW231317   2.671   0.685   2.167  1.2518  0.7790 -0.5391
 6562SOL     OW31318   0.413   4.505   1.510 -0.4579 -0.2942 -0.3853
 6562SOL    HW131319   0.449   4.582   1.554  2.4242 -1.2516 -1.0325
 6562SOL    HW231320   0.466   4.505   1.430 -0.6528 -1.0393 -0.5116
 6563SOL     OW31321   0.634   4.206   6.917  0.4223 -0.4074 -0.0531
 6563SOL    HW131322   0.666   4.219   6.828  0.4870 -2.5294 -0.3325
 6563SOL    HW231323   0.541   4.231   6.911  0.7653  0.5145 -1.5532
 6564SOL     OW31324   1.618   3.953   4.045 -0.4356  0.3294 -0.1505
 6564SOL    HW131325   1.583   3.881   3.992 -2.0514  0.4387  0.7541
 6564SOL    HW231326   1.608   3.921   4.135  2.3159 -0.4387 -0.1300
 6565SOL     OW31327   4.049   1.699   5.997 -0.3709 -0.0403  0.0140
 6565SOL    HW131328   3.992   1.631   5.961  0.1265 -0.6314  0.3355
 6565SOL    HW231329   3.997   1.778   5.983 -0.8810 -0.3715  0.0417
 6566SOL     OW31330   0.007   0.301  16.962  0.0309 -0.1425  0.1947
 6566SOL    HW131331   4.710   0.262  16.882  1.1867  0.0737 -0.3997
 6566SOL    HW231332   0.049   0.380  16.927 -1.5588 -0.3292 -2.1075
 6567SOL     OW31333   3.912   0.832   6.485 -0.0630  0.1580  0.5482
 6567SOL    HW131334   3.949   0.897   6.424  0.7143  0.7102  1.5990
 6567SOL    HW231335   3.929   0.873   6.570 -2.7564  1.3183  0.5434
 6568SOL     OW31336   4.175   2.650  10.412 -0.1662  0.3273  0.5042
 6568SOL    HW131337   4.126   2.700  10.477  0.6178  2.3626 -0.4738
 6568SOL    HW231338   4.107   2.586  10.390 -0.4332  0.4594  0.9493
 6569SOL     OW31339   3.856   1.430   7.360  0.1977 -0.6196  0.7141
 6569SOL    HW131340   3.782   1.490   7.371  0.7969  0.8918 -3.1874
 6569SOL    HW231341   3.922   1.486   7.402  0.7486 -0.8578  0.1643
 6570SOL     OW31342   1.385   1.922   3.393  0.1169 -0.5075 -0.1331
 6570SOL    HW131343   1.438   2.000   3.411  0.5877 -0.5208 -1.4578
 6570SOL    HW231344   1.401   1.901   3.302  1.4507  1.8380 -0.4479
 6571SOL     OW31345   4.265   4.448   9.525  0.2184  0.2078 -0.6278
 6571SOL    HW131346   4.310   4.376   9.483  0.5870 -0.1663  0.4167
 6571SOL    HW231347   4.292   4.524   9.473  1.9363 -0.9239 -1.3825
 6572SOL     OW31348   0.075   4.265   4.916  0.5361  0.0743 -0.0162
 6572SOL    HW131349   0.161   4.225   4.925  0.4013  0.2278  1.9627
 6572SOL    HW231350   0.080   4.332   4.984  1.1761 -0.4808  0.4866
 6573SOL     OW31351   3.201   1.868   8.793  0.2228 -0.3041  0.2545
 6573SOL    HW131352   3.124   1.815   8.815  0.7366 -1.0642  0.1850
 6573SOL    HW231353   3.221   1.839   8.704 -1.1073 -1.4731  0.3393
 6574SOL     OW31354   3.836   4.379   1.774 -0.0994  0.3361 -0.3014
 6574SOL    HW131355   3.822   4.469   1.802 -0.9658  0.0405  0.2149
 6574SOL    HW231356   3.791   4.333   1.845 -0.5823  0.1105 -0.7551
 6575SOL     OW31357   3.929   4.666   7.321 -0.1391 -0.5905 -0.1296
 6575SOL    HW131358   3.944   4.579   7.282 -1.8519 -0.4198 -1.1408
 6575SOL    HW231359   4.021   4.678   7.346 -0.1920 -0.3000 -0.0835
 6576SOL     OW31360   3.450   3.236   1.717  0.0377  0.0433 -0.3033
 6576SOL    HW131361   3.432   3.156   1.669  0.8526  1.6837 -3.3347
 6576SOL    HW231362   3.527   3.196   1.757 -0.2629  0.0790  0.3128
 6577SOL     OW31363   2.513   0.371   6.033 -0.0960  0.0227  0.2972
 6577SOL    HW131364   2.489   0.285   5.999  1.5715 -0.2279 -0.2138
 6577SOL    HW231365   2.518   0.423   5.953 -1.3756 -0.0607  0.1633
 6578SOL     OW31366   4.206   1.413   4.632 -0.0500  0.3835 -0.1924
 6578SOL    HW131367   4.282   1.431   4.577  0.2469 -1.7911 -0.4872
 6578SOL    HW231368   4.251   1.342   4.679  0.6506  1.1835  0.3562
 6579SOL     OW31369   0.324   2.756   2.404 -0.0298 -0.3582  0.0889
 6579SOL    HW131370   0.300   2.741   2.496 -1.0888  0.4607 -0.0604
 6579SOL    HW231371   0.345   2.850   2.410  1.3213 -0.7429  1.5618
 6580SOL     OW31372   3.913   1.956   4.198  0.3042  0.5775  0.1714
 6580SOL    HW131373   3.894   1.896   4.125  2.8933  1.6796 -1.3987
 6580SOL    HW231374   3.898   2.040   4.155  1.5799 -0.0330 -1.4709
 6581SOL     OW31375   2.133   0.419  10.419 -0.6008  0.2166  0.3288
 6581SOL    HW131376   2.071   0.372  10.364 -0.5799  0.1490  0.3624
 6581SOL    HW231377   2.103   0.383  10.503 -1.2424  3.9300  1.7120
 6582SOL     OW31378   2.297   3.982   8.566 -0.2018 -0.3641  0.4472
 6582SOL    HW131379   2.224   3.949   8.515  0.2068  0.1520 -0.4655
 6582SOL    HW231380   2.371   3.944   8.519 -0.2545 -0.9730  0.8554
 6583SOL     OW31381   0.949   4.671   7.615 -0.0945 -0.1685 -0.1696
 6583SOL    HW131382   0.936   0.004   7.679  0.8865 -2.2068  2.2430
 6583SOL    HW231383   0.882   4.693   7.550  0.0815  1.3428  0.1479
 6584SOL     OW31384   1.605   0.745   8.655  0.3595 -0.0297 -0.3187
 6584SOL    HW131385   1.655   0.808   8.604  0.9259  1.5436  2.2035
 6584SOL    HW231386   1.519   0.788   8.656  0.6235  0.5064 -0.6285
 6585SOL     OW31387   3.164   1.494  16.330  0.1477 -0.3245 -0.1653
 6585SOL    HW131388   3.105   1.496  16.405 -0.3165 -0.2427 -0.5366
 6585SOL    HW231389   3.244   1.464  16.374 -0.2108 -2.2405 -0.8116
 6586SOL     OW31390   3.262   4.724   4.498 -0.2162  0.1116  0.4403
 6586SOL    HW131391   3.218   0.015   4.578  1.0676 -0.1370  1.2333
 6586SOL    HW231392   3.185   4.709   4.443  1.1587 -1.8501 -0.9102
 6587SOL     OW31393   3.314   4.696   7.220 -0.1476  0.2800 -0.6394
 6587SOL    HW131394   3.364   0.025   7.174 -0.3335  0.4522 -0.5912
 6587SOL    HW231395   3.347   4.619   7.174 -0.3469  0.3159 -0.8424
 6588SOL     OW31396   1.718   4.245  13.022  0.2083  0.4205  0.2967
 6588SOL    HW131397   1.793   4.242  12.962 -0.1004  1.5600 -0.1442
 6588SOL    HW231398   1.729   4.160  13.065  1.0767 -0.1380 -1.0266
 6589SOL     OW31399   0.687   1.265   2.830  0.0286 -0.1689 -0.4499
 6589SOL    HW131400   0.764   1.256   2.773  0.8366 -0.8008  0.7426
 6589SOL    HW231401   0.678   1.171   2.848  0.2581 -0.4227 -1.6216
 6590SOL     OW31402   3.019   2.476   2.390 -0.4979  0.5510 -0.1639
 6590SOL    HW131403   2.939   2.521   2.361  0.5568  2.6630  0.2128
 6590SOL    HW231404   2.987   2.388   2.411  1.3555  0.4113  2.0942
 6591SOL     OW31405   3.497   3.743   4.561  0.1323  0.2534  0.5418
 6591SOL    HW131406   3.542   3.680   4.617  1.2947  0.2895 -0.3561
 6591SOL    HW231407   3.419   3.761   4.613 -0.5806  0.3021 -0.5221
 6592SOL     OW31408   4.445   1.203  14.635 -0.1749  0.0858  0.5251
 6592SOL    HW131409   4.470   1.211  14.544 -0.7984 -0.0486  0.3409
 6592SOL    HW231410   4.522   1.245  14.674 -0.4248 -0.7851  1.9697
 6593SOL     OW31411   0.633   3.584   3.657 -0.0421 -0.3026  0.0379
 6593SOL    HW131412   0.626   3.494   3.690  1.2221 -0.4597 -0.1037
 6593SOL    HW231413   0.709   3.576   3.599 -0.0468 -0.5310  0.0635
 6594SOL     OW31414   2.551   0.412  16.926 -0.4148 -0.3937 -0.0835
 6594SOL    HW131415   2.563   0.322  16.897 -0.3929  0.0989 -1.5667
 6594SOL    HW231416   2.612   0.422  17.000  0.6667  0.8746 -1.1588
 6595SOL     OW31417   0.601   0.639   9.927  0.2569 -0.1136  0.1417
 6595SOL    HW131418   0.574   0.631   9.836  1.5176  0.9520 -0.3147
 6595SOL    HW231419   0.694   0.616   9.921  0.1198 -1.2296  2.0532
 6596SOL     OW31420   1.055   3.805  14.132  0.1918 -0.0139 -0.3703
 6596SOL    HW131421   0.969   3.845  14.141 -0.0053 -0.7105  0.7608
 6596SOL    HW231422   1.039   3.751  14.055 -1.2404 -1.3874  0.8962
 6597SOL     OW31423   3.216   3.653   1.541 -0.3141  0.2321  0.6928
 6597SOL    HW131424   3.174   3.583   1.491  1.5349  0.3449 -1.0280
 6597SOL    HW231425   3.214   3.729   1.482 -0.2828 -0.1044  0.2545
 6598SOL     OW31426   3.869   2.770   7.163 -0.0255 -0.0101  0.0727
 6598SOL    HW131427   3.851   2.802   7.251 -3.4613 -0.9096 -0.2975
 6598SOL    HW231428   3.950   2.819   7.147  1.2386 -1.3567  2.4442
 6599SOL     OW31429   3.542   4.301   6.415 -0.0010  0.2461 -0.2778
 6599SOL    HW131430   3.530   4.313   6.321 -2.6028  1.8065  0.2650
 6599SOL    HW231431   3.614   4.364   6.421 -0.8216  1.1968 -0.4712
 6600SOL     OW31432   3.491   4.674  12.178 -0.3313 -0.3609  0.3000
 6600SOL    HW131433   3.423   4.611  12.155  0.3264 -0.8753 -0.2496
 6600SOL    HW231434   3.549   4.617  12.228  1.0390  0.6134 -0.1797
 6601SOL     OW31435   0.755   3.985   2.183 -0.3536 -0.2220  0.2651
 6601SOL    HW131436   0.668   4.023   2.169  0.0538  0.0977 -1.3934
 6601SOL    HW231437   0.722   3.951   2.267  0.2542 -1.3367  0.0588
 6602SOL     OW31438   2.100   3.768   5.940 -0.8323  0.2022 -0.2895
 6602SOL    HW131439   2.133   3.700   5.999 -0.1057  1.2396  0.4788
 6602SOL    HW231440   2.111   3.847   5.992 -0.8463  0.7548 -1.1272
 6603SOL     OW31441   3.398   3.822  11.359 -0.2393  0.2506 -0.2810
 6603SOL    HW131442   3.426   3.823  11.268 -0.7142 -0.6755 -0.4379
 6603SOL    HW231443   3.304   3.834  11.348 -0.3379  0.9946  1.3376
 6604SOL     OW31444   0.966   2.937   6.124 -0.1669  0.0064 -0.5748
 6604SOL    HW131445   1.027   3.001   6.088 -2.0235  2.2392  0.2473
 6604SOL    HW231446   0.889   2.993   6.129 -1.8401 -2.2201 -1.2103
 6605SOL     OW31447   2.646   1.512  15.792 -0.4741  0.5249 -0.0998
 6605SOL    HW131448   2.739   1.513  15.816  0.4904  2.2365 -3.9297
 6605SOL    HW231449   2.654   1.531  15.699  0.1218  0.0067 -0.1567
 6606SOL     OW31450   1.031   0.241   3.013  0.5913 -0.4224  0.0885
 6606SOL    HW131451   1.042   0.336   3.008 -0.6685 -0.3341 -1.0795
 6606SOL    HW231452   1.123   0.217   3.005  0.9973  0.8749  0.9296
 6607SOL     OW31453   0.853   0.640   4.242  0.1415  0.3488 -0.3136
 6607SOL    HW131454   0.795   0.711   4.216 -1.4360 -0.9498 -0.3090
 6607SOL    HW231455   0.805   0.610   4.319  1.1050 -0.1391  0.0982
 6608SOL     OW31456   3.495   0.963   8.372 -0.3677 -0.2565  0.5997
 6608SOL    HW131457   3.586   0.965   8.342 -0.9942 -1.6167 -1.4046
 6608SOL    HW231458   3.491   0.875   8.411 -0.5778  0.2286  1.6678
 6609SOL     OW31459   1.447   3.493   8.842  0.0771 -0.4123 -0.5797
 6609SOL    HW131460   1.495   3.547   8.905 -2.3787 -0.1891  1.0753
 6609SOL    HW231461   1.360   3.501   8.881 -0.9031  0.3190 -2.8727
 6610SOL     OW31462   1.034   2.066   9.015  0.7477  0.4202  0.3274
 6610SOL    HW131463   1.007   2.150   8.977 -1.0349 -0.3589 -0.1470
 6610SOL    HW231464   1.102   2.093   9.076  2.5838  1.2211 -2.0894
 6611SOL     OW31465   1.293   1.620   9.327  0.5160  0.1513 -0.2951
 6611SOL    HW131466   1.287   1.525   9.315  0.0749  0.4049 -2.0552
 6611SOL    HW231467   1.387   1.632   9.341  0.3676  2.0115 -0.8636
 6612SOL     OW31468   4.271   1.648   7.190 -0.2073  0.3110  0.3280
 6612SOL    HW131469   4.186   1.615   7.218  0.8700 -0.6983  2.3686
 6612SOL    HW231470   4.245   1.716   7.128 -1.4187  2.3231  3.0453
 6613SOL     OW31471   2.577   2.517  14.814  0.0185  0.2924 -0.2948
 6613SOL    HW131472   2.602   2.482  14.728 -0.2034 -1.4801  0.3562
 6613SOL    HW231473   2.505   2.457  14.833 -0.4508  0.9666  0.0288
 6614SOL     OW31474   2.578   0.198   2.306 -0.0757 -0.1656 -0.4704
 6614SOL    HW131475   2.512   0.173   2.241 -1.9183  0.8254  1.0196
 6614SOL    HW231476   2.582   0.292   2.291 -0.9144 -0.2233 -1.0271
 6615SOL     OW31477   2.390   2.962   6.460 -0.1626 -0.0919  0.1613
 6615SOL    HW131478   2.457   2.959   6.392 -0.5891 -1.5551 -0.2074
 6615SOL    HW231479   2.329   3.027   6.426 -0.2878  1.2257  2.9100
 6616SOL     OW31480   4.010   4.532   5.615 -0.1993  0.3222  0.5517
 6616SOL    HW131481   4.082   4.482   5.654 -0.0385 -1.1017 -1.5669
 6616SOL    HW231482   4.012   4.606   5.675  0.0064  0.0420  0.8958
 6617SOL     OW31483   2.295   4.185  15.209  0.2195 -0.0354  0.1692
 6617SOL    HW131484   2.335   4.190  15.122  0.6355  0.9486  0.4133
 6617SOL    HW231485   2.366   4.211  15.268 -0.6339  0.4230  0.9784
 6618SOL     OW31486   1.125   3.863   2.444 -0.2623 -0.1308  0.8439
 6618SOL    HW131487   1.074   3.894   2.519 -1.3255  0.8705 -0.2863
 6618SOL    HW231488   1.088   3.916   2.374 -0.9808 -2.4163 -0.4871
 6619SOL     OW31489   4.626   2.358   8.939 -0.8417 -0.1954 -0.4037
 6619SOL    HW131490   4.648   2.356   9.032  1.3087  1.3258 -0.8712
 6619SOL    HW231491   4.690   2.423   8.910 -0.8700  0.5442  1.1980
 6620SOL     OW31492   4.047   4.574   2.002 -0.2889 -0.8000 -0.3872
 6620SOL    HW131493   3.998   4.494   1.981 -1.7200  0.2435 -0.9943
 6620SOL    HW231494   4.118   4.535   2.053 -0.3842  1.5611  1.5439
 6621SOL     OW31495   2.998   1.332   2.970 -0.2352 -0.3047  0.1068
 6621SOL    HW131496   3.021   1.247   2.933  0.8548 -0.2245  0.5882
 6621SOL    HW231497   2.964   1.319   3.059  0.8550 -0.8092  0.4642
 6622SOL     OW31498   0.789   4.128   2.554  0.2621  0.1602 -0.1653
 6622SOL    HW131499   0.852   4.200   2.553  0.3342  0.0929 -1.5309
 6622SOL    HW231500   0.829   4.065   2.613 -3.9121 -1.5142  0.8547
 6623SOL     OW31501   0.219   2.315  11.280 -0.8649 -0.1527 -0.1690
 6623SOL    HW131502   0.193   2.345  11.367 -2.7193 -0.5242 -0.6123
 6623SOL    HW231503   0.153   2.248  11.260 -0.6717 -0.1929 -0.6846
 6624SOL     OW31504   2.809   3.531   2.145  0.7203 -0.3810 -0.1294
 6624SOL    HW131505   2.814   3.594   2.073  0.7121 -0.6418 -0.3575
 6624SOL    HW231506   2.902   3.513   2.163  0.4022 -1.2443  0.6349
 6625SOL     OW31507   1.884   3.414   5.434  0.3865  0.4998  0.3651
 6625SOL    HW131508   1.958   3.474   5.447  1.9256 -1.1817 -0.6059
 6625SOL    HW231509   1.816   3.476   5.410 -1.9313 -1.6666  1.3327
 6626SOL     OW31510   3.231   4.623   8.395  0.3646 -0.6756  0.2015
 6626SOL    HW131511   3.139   4.635   8.419  1.1146  3.6217  0.8666
 6626SOL    HW231512   3.265   4.642   8.482 -1.0263  0.0388  0.5804
 6627SOL     OW31513   3.688   2.862   9.652  0.3570 -0.0528 -0.2173
 6627SOL    HW131514   3.698   2.804   9.577  1.2922 -0.5356  0.2818
 6627SOL    HW231515   3.727   2.943   9.619 -0.2552 -0.5583 -2.1444
 6628SOL     OW31516   1.594   4.084   3.108 -0.0805  0.1949  0.1449
 6628SOL    HW131517   1.609   4.024   3.182  1.5647  2.8653  1.9635
 6628SOL    HW231518   1.593   4.025   3.033 -2.0183 -0.2115  0.5013
 6629SOL     OW31519   4.592   1.976  17.605 -0.2817 -0.0010 -0.1883
 6629SOL    HW131520   4.606   1.932  17.689 -2.6698  0.3219  0.3924
 6629SOL    HW231521   4.683   2.001  17.588  0.3434 -0.6740  2.1827
 6630SOL     OW31522   1.736   2.784   5.658  0.2919  0.3447 -0.1479
 6630SOL    HW131523   1.740   2.823   5.570 -1.5616 -0.0433 -0.4048
 6630SOL    HW231524   1.743   2.864   5.710  0.9969  0.6412 -0.6961
 6631SOL     OW31525   0.459   2.367   1.915 -0.7557 -0.4876  0.1712
 6631SOL    HW131526   0.527   2.400   1.973 -0.1069  0.9430 -1.4282
 6631SOL    HW231527   0.391   2.431   1.938  0.6365  1.7789 -2.0713
 6632SOL     OW31528   1.801   4.464   8.849 -0.1325 -0.2437  0.4108
 6632SOL    HW131529   1.857   4.421   8.914 -0.8932  1.5887  2.2816
 6632SOL    HW231530   1.713   4.437   8.875 -0.3291  0.5131  0.5318
 6633SOL     OW31531   3.789   2.243   1.081 -0.1584 -0.3070 -0.2477
 6633SOL    HW131532   3.835   2.315   1.037  0.8307 -0.0173  1.2452
 6633SOL    HW231533   3.783   2.175   1.014 -0.2258 -1.2364  0.6952
 6634SOL     OW31534   3.969   1.566  15.326  0.2914  0.2383 -0.1785
 6634SOL    HW131535   4.031   1.496  15.303  2.0846  1.0556  2.1178
 6634SOL    HW231536   3.883   1.525  15.327  0.6569 -0.5666 -1.8596
 6635SOL     OW31537   2.315   4.493   6.503  0.3700 -0.3992 -0.0021
 6635SOL    HW131538   2.228   4.506   6.465  0.7003  0.4726 -0.4545
 6635SOL    HW231539   2.344   4.584   6.506  1.1259 -0.6102 -0.5979
 6636SOL     OW31540   3.601   1.225   6.760 -0.1468 -0.3445 -0.1779
 6636SOL    HW131541   3.648   1.193   6.683 -1.7206 -2.9701 -0.0275
 6636SOL    HW231542   3.536   1.156   6.756  0.7388 -1.1061 -1.4087
 6637SOL     OW31543   4.436   0.654   8.195 -0.2353  0.0227  0.2966
 6637SOL    HW131544   4.458   0.624   8.283  0.5584  0.8481  0.3876
 6637SOL    HW231545   4.523   0.687   8.174  1.1748 -2.5187  2.1589
 6638SOL     OW31546   0.503   4.387  14.605 -0.0130 -0.6379 -0.2472
 6638SOL    HW131547   0.582   4.365  14.653 -0.1403 -2.2695 -0.7901
 6638SOL    HW231548   0.535   4.401  14.516  1.5603 -1.3807  0.2058
 6639SOL     OW31549   1.222   3.315   9.302  0.4332  0.4580  0.2565
 6639SOL    HW131550   1.191   3.402   9.325 -1.0736 -0.2714  0.9860
 6639SOL    HW231551   1.136   3.273   9.300 -0.1743  1.6530  1.8892
 6640SOL     OW31552   0.533   4.708   2.550 -0.3321 -0.4454 -0.3713
 6640SOL    HW131553   0.602   0.029   2.520 -1.3121 -0.1077 -2.0256
 6640SOL    HW231554   0.506   0.017   2.629 -1.1112  0.2899 -1.0625
 6641SOL     OW31555   3.923   1.647  12.381  0.8225  0.2264 -0.0277
 6641SOL    HW131556   3.879   1.732  12.374  1.4757  0.5366 -0.2727
 6641SOL    HW231557   4.006   1.669  12.423 -0.2543  0.6568  1.8652
 6642SOL     OW31558   0.764   3.388   2.207 -0.5562  0.3150 -0.2587
 6642SOL    HW131559   0.824   3.461   2.190  0.3250 -0.4166 -0.2920
 6642SOL    HW231560   0.809   3.321   2.156  2.8281 -0.0017  3.1092
 6643SOL     OW31561   2.550   1.348   3.762  0.0602  0.1805  0.0409
 6643SOL    HW131562   2.506   1.430   3.781  2.7525  1.1273  2.1583
 6643SOL    HW231563   2.579   1.362   3.672 -1.4078 -0.7037 -0.5829
 6644SOL     OW31564   2.608   4.711  12.316  0.1230  0.1731  0.0634
 6644SOL    HW131565   2.630   4.629  12.362 -0.3495 -0.2106 -0.3982
 6644SOL    HW231566   2.663   0.028  12.372  1.0102  2.2785 -2.8880
 6645SOL     OW31567   4.306   3.444   8.332 -0.5729 -0.2997 -0.3497
 6645SOL    HW131568   4.341   3.430   8.420 -0.2980 -0.0662 -0.4238
 6645SOL    HW231569   4.385   3.471   8.286  0.3971 -0.8120  1.0175
 6646SOL     OW31570   1.319   4.737   2.278  0.0776  0.1702  0.2562
 6646SOL    HW131571   1.289   4.651   2.248  1.0066  0.3604 -1.1842
 6646SOL    HW231572   1.409   0.008   2.247  0.9738 -0.2362  2.7210
 6647SOL     OW31573   4.073   0.466  10.360  0.1104  0.2729  0.0640
 6647SOL    HW131574   4.084   0.392  10.420 -0.3920 -0.8004 -1.1620
 6647SOL    HW231575   4.103   0.538  10.415  0.3606  0.5679 -0.4632
 6648SOL     OW31576   1.147   0.809   3.319  0.3840  0.4401 -0.3934
 6648SOL    HW131577   1.141   0.717   3.345  1.1121  0.2613 -0.8556
 6648SOL    HW231578   1.057   0.834   3.342  0.2617 -1.6860  1.3834
 6649SOL     OW31579   3.854   4.313  11.133  0.3945 -0.1168 -0.3970
 6649SOL    HW131580   3.909   4.300  11.056  0.8580  0.5134 -0.1732
 6649SOL    HW231581   3.770   4.348  11.102 -0.7590 -0.0773  2.7849
 6650SOL     OW31582   0.838   4.488   4.766  0.2502  0.8011  0.1833
 6650SOL    HW131583   0.818   4.400   4.799 -0.5100  0.5071 -1.0408
 6650SOL    HW231584   0.833   4.477   4.671  0.6458  1.6582  0.0694
 6651SOL     OW31585   1.861   4.238  12.757 -0.0222  0.0471  0.0369
 6651SOL    HW131586   1.930   4.296  12.726 -0.1886 -0.5354 -1.4154
 6651SOL    HW231587   1.896   4.150  12.744 -0.8323 -0.1548 -0.7484
 6652SOL     OW31588   2.540   1.364   4.775 -0.2985 -0.1236 -0.2731
 6652SOL    HW131589   2.459   1.313   4.770  1.2656 -2.7152  0.9646
 6652SOL    HW231590   2.542   1.390   4.683  0.8431  2.7872  0.5727
 6653SOL     OW31591   3.487   0.464   8.210  0.4488  0.6642  0.0061
 6653SOL    HW131592   3.522   0.553   8.219 -1.6728  1.0720  3.8227
 6653SOL    HW231593   3.522   0.433   8.293  1.3072 -0.4339 -0.7585
 6654SOL     OW31594   3.189   1.185   7.194  0.5942 -0.0481  0.0688
 6654SOL    HW131595   3.269   1.135   7.210  0.9982  1.6874  3.4861
 6654SOL    HW231596   3.240   1.259   7.163  0.7725 -0.7671 -1.3759
 6655SOL     OW31597   2.292   2.911   4.742 -0.2925  0.0299  0.2037
 6655SOL    HW131598   2.342   2.845   4.791  2.1474  0.6203 -1.4937
 6655SOL    HW231599   2.336   2.920   4.657 -0.5423 -2.8218 -0.2461
 6656SOL     OW31600   0.072   1.277   7.557  0.2744 -0.2317 -0.4051
 6656SOL    HW131601   4.734   1.292   7.615  1.1716 -1.2953  1.0295
 6656SOL    HW231602   0.026   1.216   7.499 -0.2874  1.0159 -1.2830
 6657SOL     OW31603   1.336   0.565  16.847 -0.2975  0.1982 -0.1821
 6657SOL    HW131604   1.319   0.656  16.867 -0.3870  0.1743 -0.1509
 6657SOL    HW231605   1.247   0.530  16.840 -0.1501 -0.3221  0.5961
 6658SOL     OW31606   0.193   1.959   3.765  0.5496 -0.5208 -0.4629
 6658SOL    HW131607   0.238   1.933   3.846  1.8949  1.3568 -0.6039
 6658SOL    HW231608   0.162   1.876   3.730 -1.4099 -0.1250  0.3000
 6659SOL     OW31609   4.303   4.701   3.318 -0.8442 -0.1695  0.1599
 6659SOL    HW131610   4.300   4.605   3.316 -0.6661 -0.2372  4.0998
 6659SOL    HW231611   4.398   4.715   3.320 -0.7748 -0.5873 -0.0989
 6660SOL     OW31612   4.692   2.887  12.141 -0.0974 -0.1813  0.2634
 6660SOL    HW131613   4.708   2.830  12.216 -1.5011 -0.2315  0.5273
 6660SOL    HW231614   4.615   2.931  12.177  1.2664  1.0805  1.6498
 6661SOL     OW31615   0.348   1.400   8.112 -0.5411  0.2514 -0.5416
 6661SOL    HW131616   0.287   1.431   8.179 -0.1317 -0.0883 -0.0155
 6661SOL    HW231617   0.305   1.443   8.038  1.0804  0.7623 -1.1732
 6662SOL     OW31618   4.210   0.595   6.718 -0.1488 -0.2141 -0.1804
 6662SOL    HW131619   4.181   0.546   6.795 -2.1480  1.0309 -0.1392
 6662SOL    HW231620   4.265   0.533   6.671 -0.8280 -0.7024 -0.3268
 6663SOL     OW31621   2.881   0.795  14.958  0.4995 -0.0929 -0.0588
 6663SOL    HW131622   2.939   0.734  15.003  1.2785  0.7674  0.0954
 6663SOL    HW231623   2.832   0.821  15.036 -1.3146  1.8304 -1.8344
 6664SOL     OW31624   1.564   3.571   7.326  0.5440 -0.1204 -0.2882
 6664SOL    HW131625   1.632   3.634   7.304  0.9800 -0.1754  0.9088
 6664SOL    HW231626   1.492   3.599   7.269  1.5090  1.3841 -0.7561
 6665SOL     OW31627   4.353   1.522   4.038 -0.2432 -0.0871 -0.4033
 6665SOL    HW131628   4.391   1.562   3.959 -4.1074  1.3698 -1.5103
 6665SOL    HW231629   4.331   1.588   4.103 -0.8577 -0.1096 -0.5856
 6666SOL     OW31630   4.103   3.986   8.729  0.0699 -0.4199 -0.4532
 6666SOL    HW131631   4.045   3.912   8.745  1.1632 -1.4121 -1.1151
 6666SOL    HW231632   4.184   3.946   8.698  0.4430  1.3888 -1.8063
 6667SOL     OW31633   3.971   1.759  13.120  0.1968 -0.5851  0.2267
 6667SOL    HW131634   3.902   1.723  13.174  2.8714 -2.7564  2.2089
 6667SOL    HW231635   3.999   1.836  13.169  3.6757 -0.9646 -1.0869
 6668SOL     OW31636   2.923   0.711  14.279  0.0278 -0.1766  0.0768
 6668SOL    HW131637   2.946   0.675  14.365 -1.2844  1.5857  1.1786
 6668SOL    HW231638   2.835   0.678  14.260  0.0943 -1.1476  1.4222
 6669SOL     OW31639   0.976   1.555   8.678  0.4561  0.5670 -0.3641
 6669SOL    HW131640   1.061   1.594   8.694  0.1798  0.2565  1.8775
 6669SOL    HW231641   0.969   1.591   8.590 -0.3546  0.5933 -0.2931
 6670SOL     OW31642   2.330   1.960  13.213 -0.6329 -0.3198  0.1871
 6670SOL    HW131643   2.414   1.954  13.259 -1.2199 -1.6230  1.1106
 6670SOL    HW231644   2.281   1.906  13.276  0.5111 -0.8203  0.6539
 6671SOL     OW31645   4.423   3.675   7.470 -0.2388 -0.1270  0.0905
 6671SOL    HW131646   4.458   3.655   7.557  3.3212  0.8107 -1.1304
 6671SOL    HW231647   4.433   3.588   7.432 -0.3056 -0.5857  1.1232
 6672SOL     OW31648   4.560   2.395  17.000 -0.4401  0.1152  0.3539
 6672SOL    HW131649   4.613   2.458  17.048 -2.8301  1.1612  1.6301
 6672SOL    HW231650   4.566   2.438  16.915  0.5453 -0.3083  0.2103
 6673SOL     OW31651   1.024   1.967   7.261 -0.1175 -0.4025  0.2923
 6673SOL    HW131652   1.095   2.026   7.238 -1.6253  2.5474  3.1565
 6673SOL    HW231653   0.993   2.010   7.341 -0.0794 -1.8378  1.0752
 6674SOL     OW31654   0.295   3.470   7.266  0.4672 -0.6702  0.2139
 6674SOL    HW131655   0.372   3.487   7.320 -1.3006 -0.1507  2.5756
 6674SOL    HW231656   0.321   3.386   7.228 -0.6015 -0.9281  0.0506
 6675SOL     OW31657   0.514   4.565   5.673  0.4002  0.2099 -0.1031
 6675SOL    HW131658   0.509   4.653   5.637  0.2351  0.2992  0.1420
 6675SOL    HW231659   0.592   4.534   5.626  0.7503  1.7415 -0.5131
 6676SOL     OW31660   0.947   4.475   9.606 -0.1339  0.0657  0.4885
 6676SOL    HW131661   0.956   4.428   9.689 -1.3688 -0.4876  0.3123
 6676SOL    HW231662   0.870   4.423   9.581  0.5766 -0.9216  0.3573
 6677SOL     OW31663   4.363   0.674   7.551 -0.0788  0.1827  0.3284
 6677SOL    HW131664   4.422   0.651   7.623  0.0236 -0.0193  0.1773
 6677SOL    HW231665   4.384   0.607   7.487  0.1706 -0.7832  1.4203
 6678SOL     OW31666   3.205   1.033   3.506  0.0289 -0.0656  0.3997
 6678SOL    HW131667   3.285   1.068   3.544  0.6267 -0.8144 -0.1757
 6678SOL    HW231668   3.167   1.095   3.445 -0.1302  0.5637  1.1363
 6679SOL     OW31669   2.249   4.601   2.584 -0.3844 -0.0014 -0.1779
 6679SOL    HW131670   2.315   4.668   2.600 -1.4249  1.0991 -0.4478
 6679SOL    HW231671   2.243   4.557   2.669  1.2189 -1.0558 -0.6157
 6680SOL     OW31672   0.403   0.405   6.442  0.2308  0.4640  0.5303
 6680SOL    HW131673   0.494   0.398   6.471  0.4020 -1.0828 -0.4119
 6680SOL    HW231674   0.367   0.339   6.501 -0.3912  1.4990  1.3146
 6681SOL     OW31675   3.425   2.242  10.717  0.7365  0.0192 -0.1873
 6681SOL    HW131676   3.370   2.167  10.693  0.9959  0.3021 -1.6392
 6681SOL    HW231677   3.399   2.263  10.807 -0.5863  0.6711 -0.7324
 6682SOL     OW31678   1.628   3.119   1.946 -0.3076  0.0249  0.0661
 6682SOL    HW131679   1.674   3.067   1.880 -0.5643  0.9599 -0.8611
 6682SOL    HW231680   1.700   3.159   1.994  1.1704 -1.0073 -1.3001
 6683SOL     OW31681   3.738   0.568   3.502  0.3251 -0.1399  0.1156
 6683SOL    HW131682   3.798   0.609   3.565 -0.8212 -1.5025  2.0710
 6683SOL    HW231683   3.750   0.478   3.530 -1.3678 -0.7129 -1.0055
 6684SOL     OW31684   0.505   4.026   3.651  0.2904 -0.2237 -0.3621
 6684SOL    HW131685   0.575   3.981   3.699 -3.4366 -3.9358  1.6740
 6684SOL    HW231686   0.478   3.951   3.598  1.2613  1.3788 -3.0742
 6685SOL     OW31687   3.739   2.768  16.477  0.0084  0.0784  0.1521
 6685SOL    HW131688   3.818   2.716  16.494 -0.4590 -0.5118  0.4954
 6685SOL    HW231689   3.678   2.730  16.540 -2.0404 -0.2753 -2.0529
 6686SOL     OW31690   0.621   0.831   5.209 -0.1192 -0.5989  0.2863
 6686SOL    HW131691   0.529   0.857   5.210  0.2526  0.6923  0.3299
 6686SOL    HW231692   0.610   0.741   5.240  1.1009  0.1542  2.8746
 6687SOL     OW31693   0.227   1.844   9.380  0.1337  0.5716  0.5354
 6687SOL    HW131694   0.208   1.837   9.287 -0.9463  2.2657  0.6240
 6687SOL    HW231695   0.256   1.753   9.383 -1.0682  0.1848  0.5743
 6688SOL     OW31696   3.712   2.409   8.182 -0.2922 -0.7576  0.0714
 6688SOL    HW131697   3.778   2.345   8.208  1.5882  0.5878 -1.3757
 6688SOL    HW231698   3.659   2.367   8.113 -2.0755  0.3210  0.7975
 6689SOL     OW31699   3.947   2.810   4.571 -0.4541  0.0494 -0.2213
 6689SOL    HW131700   3.867   2.819   4.623 -1.1586  1.2660 -1.5023
 6689SOL    HW231701   3.937   2.882   4.508  0.0300 -2.4136 -3.0799
 6690SOL     OW31702   4.290   2.111   8.245 -0.2625  0.9806  0.3785
 6690SOL    HW131703   4.383   2.104   8.226 -0.1297  1.1303  0.9774
 6690SOL    HW231704   4.276   2.203   8.223  0.3426  0.5388 -1.8484
 6691SOL     OW31705   1.164   1.036  17.466 -0.6268 -1.0693 -0.1566
 6691SOL    HW131706   1.157   0.991  17.382  1.3054 -1.3351 -0.1785
 6691SOL    HW231707   1.087   1.092  17.457 -1.7604 -2.4021  1.3070
 6692SOL     OW31708   0.940   2.657   2.443 -0.7775  0.7476 -0.0855
 6692SOL    HW131709   0.963   2.565   2.459 -2.0518  0.4992  0.3194
 6692SOL    HW231710   1.005   2.661   2.373  0.1533 -0.1255  0.7366
 6693SOL     OW31711   1.019   1.377   4.970  0.1830 -0.1688  0.5906
 6693SOL    HW131712   0.990   1.351   4.883  0.6876 -1.2959  0.7570
 6693SOL    HW231713   1.031   1.295   5.018 -1.6387  0.6094  2.3735
 6694SOL     OW31714   1.379   0.237  12.046 -0.3893  0.3901  0.4661
 6694SOL    HW131715   1.393   0.254  11.952 -0.4425  1.5089  0.6514
 6694SOL    HW231716   1.307   0.299  12.057 -0.2124  0.6603  0.1084
 6695SOL     OW31717   3.033   3.273   6.891 -0.1407  0.6296  0.0813
 6695SOL    HW131718   3.119   3.285   6.852 -0.4374 -1.4424 -1.1904
 6695SOL    HW231719   3.033   3.181   6.916  1.0327  0.4723 -0.5345
 6696SOL     OW31720   3.793   0.460   5.885  0.8468  0.2441 -0.0750
 6696SOL    HW131721   3.845   0.426   5.812  0.4129 -1.9418  0.6351
 6696SOL    HW231722   3.864   0.498   5.937  0.4815  0.0057  0.5957
 6697SOL     OW31723   0.157   1.952  10.070  0.1609 -0.4548 -0.4021
 6697SOL    HW131724   0.248   1.925  10.071  0.1090 -0.6220  1.3846
 6697SOL    HW231725   0.154   2.035  10.023  1.1081 -0.2612 -0.1030
 6698SOL     OW31726   1.561   2.056   3.160  0.9769 -0.2033  0.0305
 6698SOL    HW131727   1.574   2.110   3.238 -0.6882 -1.6725  1.3037
 6698SOL    HW231728   1.602   2.116   3.097  0.0239  1.5903  1.1418
 6699SOL     OW31729   0.863   0.889   6.773  0.7407  0.0316  0.1077
 6699SOL    HW131730   0.877   0.962   6.713  0.9767 -0.3778 -0.3355
 6699SOL    HW231731   0.816   0.825   6.720  0.5348  0.3509 -0.0944
 6700SOL     OW31732   3.961   0.044   5.758 -0.1356 -0.7864  0.0274
 6700SOL    HW131733   3.936   0.044   5.850  0.8307 -0.1239  0.2907
 6700SOL    HW231734   3.916   0.123   5.726 -0.7044 -0.9577  0.3970
 6701SOL     OW31735   2.332   2.739  16.883  0.2732 -0.5368 -0.7153
 6701SOL    HW131736   2.315   2.667  16.822  0.2011  0.4139 -1.8174
 6701SOL    HW231737   2.265   2.801  16.855  0.4934 -0.2242 -0.5468
 6702SOL     OW31738   4.509   3.870   7.036  0.1887  0.3977  0.1268
 6702SOL    HW131739   4.447   3.797   7.047 -1.7531  2.1176  0.6457
 6702SOL    HW231740   4.581   3.846   7.094  0.0550  1.0918  0.5692
 6703SOL     OW31741   2.156   0.060   0.935 -0.2996  0.3087 -0.3126
 6703SOL    HW131742   2.068   0.069   0.970 -0.1143  0.6914  0.0528
 6703SOL    HW231743   2.125   0.069   0.845 -1.0390 -0.2983 -0.1158
 6704SOL     OW31744   3.982   4.649   8.897  0.1572  0.0713 -0.4102
 6704SOL    HW131745   4.049   4.606   8.844 -0.5850  1.4744 -2.4954
 6704SOL    HW231746   4.046   4.708   8.938 -1.0127 -0.5656  2.3369
 6705SOL     OW31747   3.012   1.286   6.985  0.0639  0.1787  0.1794
 6705SOL    HW131748   2.929   1.243   7.004  0.5847 -0.7228  0.4310
 6705SOL    HW231749   3.069   1.265   7.060  0.1909 -1.8227 -0.4721
 6706SOL     OW31750   1.308   4.660   3.524  0.1236  0.5770  0.0135
 6706SOL    HW131751   1.269   0.008   3.507  2.4336  1.4283 -0.9899
 6706SOL    HW231752   1.354   4.651   3.440 -3.1708  1.3382 -1.8858
 6707SOL     OW31753   1.085   3.775  14.413 -0.3808 -0.5124  0.0592
 6707SOL    HW131754   1.099   3.760  14.320 -0.0081 -1.2741  0.2340
 6707SOL    HW231755   1.008   3.832  14.418  0.3726  0.3611  2.0589
 6708SOL     OW31756   3.241   4.151  10.818  0.2021 -0.4076  0.2190
 6708SOL    HW131757   3.315   4.091  10.829 -0.2078 -0.7109  1.3748
 6708SOL    HW231758   3.187   4.091  10.768 -0.0452  1.5261 -1.8330
 6709SOL     OW31759   4.605   2.818   8.676  0.1554 -0.0376 -0.2364
 6709SOL    HW131760   4.536   2.869   8.632 -2.1773 -0.6805  2.6678
 6709SOL    HW231761   4.556   2.786   8.751 -1.9145  3.6297 -0.0172
 6710SOL     OW31762   0.974   0.146   6.109 -0.8858  0.3853 -0.7309
 6710SOL    HW131763   1.062   0.181   6.092 -0.4478 -0.4368 -0.1164
 6710SOL    HW231764   0.952   0.184   6.194  0.3071  0.7402 -0.5769
 6711SOL     OW31765   0.682   3.623  13.010 -0.3572 -0.1284 -0.2181
 6711SOL    HW131766   0.600   3.603  13.055 -0.1156 -0.7891 -0.0753
 6711SOL    HW231767   0.727   3.550  13.052  0.4214  0.3895 -0.1374
 6712SOL     OW31768   0.292   2.287   8.802  0.3324  0.0186  0.0515
 6712SOL    HW131769   0.303   2.202   8.844 -1.1121 -0.4265 -0.4930
 6712SOL    HW231770   0.284   2.337   8.883 -3.6819  1.9388 -1.5235
 6713SOL     OW31771   1.793   2.189   2.524  0.0670  0.0875 -0.4797
 6713SOL    HW131772   1.767   2.097   2.533 -1.1856  0.6996  2.4000
 6713SOL    HW231773   1.743   2.202   2.444 -0.7070 -1.8865 -0.3253
 6714SOL     OW31774   4.314   4.730  17.466  0.6476 -0.0818 -0.6937
 6714SOL    HW131775   4.259   0.012  17.390 -0.6829  0.2623  0.3444
 6714SOL    HW231776   4.382   0.056  17.446 -0.8485  0.7355 -3.2072
 6715SOL     OW31777   1.900   2.774  17.534 -0.0974 -0.6549  0.2338
 6715SOL    HW131778   1.885   2.837  17.464  0.4955 -0.1681  0.5511
 6715SOL    HW231779   1.872   2.691  17.495 -2.1515  0.3069 -0.3394
 6716SOL     OW31780   2.201   0.395   2.360  0.1003 -0.0947  0.1723
 6716SOL    HW131781   2.196   0.360   2.271  2.6187  1.2779 -0.4968
 6716SOL    HW231782   2.158   0.322   2.405  2.5150 -1.2656  0.5678
 6717SOL     OW31783   4.208   2.847  12.427 -0.6413  0.0585 -0.0673
 6717SOL    HW131784   4.291   2.815  12.464  0.3975  1.6788 -0.9650
 6717SOL    HW231785   4.214   2.826  12.334  0.7528 -1.3578  0.3290
 6718SOL     OW31786   1.706   3.149   6.999  0.1839 -0.6554  0.0678
 6718SOL    HW131787   1.692   3.229   7.050 -1.6446 -0.4723 -0.7278
 6718SOL    HW231788   1.617   3.127   6.973  0.2855 -0.3566 -0.5241
 6719SOL     OW31789   2.241   2.071   1.879 -0.0839  0.4250 -0.3805
 6719SOL    HW131790   2.272   2.005   1.817 -0.9488 -0.5784  0.2628
 6719SOL    HW231791   2.320   2.068   1.934  0.4969 -2.7746 -1.4049
 6720SOL     OW31792   3.372   4.614  11.051  0.2784  0.2685  0.8134
 6720SOL    HW131793   3.362   4.532  11.002 -1.4545 -0.3837  2.2648
 6720SOL    HW231794   3.467   4.616  11.060  0.1572  3.1099  1.3636
 6721SOL     OW31795   0.675   4.410   4.529  0.1458  0.0302  0.5710
 6721SOL    HW131796   0.703   4.320   4.514 -0.4064  0.1417 -1.2352
 6721SOL    HW231797   0.699   4.451   4.446  1.1167 -2.3590 -0.3250
 6722SOL     OW31798   1.216   4.690   4.632 -0.0814 -0.2944  0.3204
 6722SOL    HW131799   1.296   4.648   4.663 -0.3786 -1.1295 -0.0421
 6722SOL    HW231800   1.221   0.035   4.680 -1.7086 -0.3222  0.5370
 6723SOL     OW31801   0.525   0.484  10.295  0.0307 -0.2786 -0.7143
 6723SOL    HW131802   0.522   0.579  10.287 -0.6011 -0.1841  0.5840
 6723SOL    HW231803   0.603   0.471  10.242 -0.4979 -2.0645 -1.0578
 6724SOL     OW31804   0.843   2.090   3.212 -0.3756  0.5220  0.3916
 6724SOL    HW131805   0.872   2.058   3.126 -0.3107  0.3667  0.4694
 6724SOL    HW231806   0.925   2.069   3.257 -0.3607 -0.0288  0.1103
 6725SOL     OW31807   4.354   3.700   0.749  0.2029  0.5639 -0.3300
 6725SOL    HW131808   4.298   3.750   0.808 -0.4319 -4.1291  3.1049
 6725SOL    HW231809   4.436   3.749   0.745  1.0464 -0.7915  0.1973
 6726SOL     OW31810   3.511   1.314   2.599  0.1097 -0.0539 -0.2605
 6726SOL    HW131811   3.449   1.278   2.663 -0.4427  1.8165  0.2564
 6726SOL    HW231812   3.597   1.283   2.629  1.6171  1.7917 -2.7407
 6727SOL     OW31813   4.036   4.211   5.687 -0.5184  0.2504  0.3582
 6727SOL    HW131814   3.946   4.208   5.655 -0.3517 -0.3850 -0.0559
 6727SOL    HW231815   4.031   4.189   5.780  0.2779 -1.8903 -0.0902
 6728SOL     OW31816   1.202   0.091   8.163  0.1481 -0.0136  0.0027
 6728SOL    HW131817   1.122   0.060   8.120  0.9785 -0.3009 -1.3564
 6728SOL    HW231818   1.248   0.009   8.181  0.8119  0.6168  1.1755
 6729SOL     OW31819   2.449   2.790   2.580  0.0656 -0.0967 -0.2949
 6729SOL    HW131820   2.408   2.828   2.658 -3.1887  0.3727 -2.2918
 6729SOL    HW231821   2.540   2.796   2.611 -0.2237  1.8297  0.1278
 6730SOL     OW31822   2.817   3.641   7.009 -0.1418 -0.1410 -0.4643
 6730SOL    HW131823   2.882   3.628   6.939  3.2923  2.5116  2.2164
 6730SOL    HW231824   2.764   3.562   7.007 -1.7070  0.8591  1.1643
 6731SOL     OW31825   2.799   0.148   9.232  0.3891  0.2122 -0.1798
 6731SOL    HW131826   2.742   0.104   9.169 -0.6814  2.2481 -0.6411
 6731SOL    HW231827   2.795   0.080   9.299 -0.1889 -0.5021 -0.9361
 6732SOL     OW31828   0.984   0.185   4.048  0.0621  0.1937 -0.1797
 6732SOL    HW131829   1.078   0.192   4.029  0.6013 -1.6109  1.8292
 6732SOL    HW231830   0.952   0.122   3.982 -0.0787 -1.9271  1.9080
 6733SOL     OW31831   1.312   3.770  14.055 -0.7056 -0.3691 -0.8461
 6733SOL    HW131832   1.331   3.861  14.079 -0.4102  0.2458 -3.4568
 6733SOL    HW231833   1.220   3.763  14.082 -1.1045  1.3372 -1.7507
 6734SOL     OW31834   2.342   4.336  11.315  0.3256  0.1094  0.2275
 6734SOL    HW131835   2.302   4.351  11.401  0.9496 -1.0370  0.7143
 6734SOL    HW231836   2.427   4.380  11.320 -0.1525  1.0930 -0.2684
 6735SOL     OW31837   0.152   2.242   6.534 -0.7465 -0.0070  0.3901
 6735SOL    HW131838   0.100   2.310   6.576 -1.1939  0.2694 -0.6062
 6735SOL    HW231839   0.112   2.163   6.571  0.8935 -1.4011 -0.7900
 6736SOL     OW31840   1.761   1.407   8.302 -0.4377 -0.0699 -0.2982
 6736SOL    HW131841   1.748   1.324   8.346  0.2090  1.5806  3.0001
 6736SOL    HW231842   1.677   1.448   8.323 -1.8387 -2.4850 -1.2092
 6737SOL     OW31843   2.057   3.810   5.012  0.0213 -0.1245 -0.4223
 6737SOL    HW131844   2.144   3.796   5.051 -0.8110  1.3305  1.9818
 6737SOL    HW231845   2.074   3.897   4.975 -0.5583  0.6388  1.1122
 6738SOL     OW31846   2.512   3.262  12.288  0.2152 -0.1302 -0.1526
 6738SOL    HW131847   2.591   3.227  12.248  0.0586 -0.3784 -0.2484
 6738SOL    HW231848   2.449   3.237  12.219 -1.3953 -0.7981  1.5568
 6739SOL     OW31849   1.677   2.275   1.526  0.0882 -1.1263 -0.3357
 6739SOL    HW131850   1.728   2.318   1.458  0.7354  1.6152  1.9055
 6739SOL    HW231851   1.636   2.351   1.567 -0.5437 -1.1209 -0.9692
 6740SOL     OW31852   1.544   0.318   5.458  0.1438 -0.0447 -0.1686
 6740SOL    HW131853   1.536   0.308   5.364 -0.7410 -0.6007 -0.0385
 6740SOL    HW231854   1.598   0.395   5.473 -0.3343 -0.3293  3.0748
 6741SOL     OW31855   3.742   0.319   3.562  0.1457 -0.2966  0.0629
 6741SOL    HW131856   3.712   0.250   3.622 -0.1759 -1.8516 -1.9016
 6741SOL    HW231857   3.722   0.279   3.478  2.5857  0.2897 -0.7960
 6742SOL     OW31858   0.030   1.072  14.651 -0.1536  0.3473  0.4253
 6742SOL    HW131859   0.105   1.026  14.689 -1.9780 -0.4420  3.0549
 6742SOL    HW231860   4.698   1.009  14.673  1.1913 -1.0248  0.7939
 6743SOL     OW31861   2.429   0.657   4.281 -0.4552  1.0618 -0.1087
 6743SOL    HW131862   2.461   0.571   4.308 -0.1388  1.1311 -0.2650
 6743SOL    HW231863   2.508   0.710   4.273  0.4870 -0.3567 -0.2927
 6744SOL     OW31864   3.178   4.003   8.934  0.2478 -0.0383 -0.6036
 6744SOL    HW131865   3.084   4.016   8.925  0.3180  2.0538  1.6218
 6744SOL    HW231866   3.207   3.950   8.860 -3.1687 -1.5671 -0.8386
 6745SOL     OW31867   2.316   1.034   7.205 -0.6544  0.1288 -0.4513
 6745SOL    HW131868   2.232   0.989   7.198 -0.8175  0.3483  0.0878
 6745SOL    HW231869   2.342   1.014   7.115  0.8296 -1.3336  0.3199
 6746SOL     OW31870   0.414   4.199  17.411 -0.2119  0.4529 -0.6496
 6746SOL    HW131871   0.394   4.291  17.395  2.7478  0.9573 -1.4230
 6746SOL    HW231872   0.449   4.172  17.326  0.4924  1.0290 -0.5420
 6747SOL     OW31873   0.957   3.202   5.469  0.3218 -0.0131 -0.3473
 6747SOL    HW131874   1.026   3.152   5.512 -1.8245 -1.9490  0.8832
 6747SOL    HW231875   0.892   3.133   5.455 -0.2544  0.2146  1.1968
 6748SOL     OW31876   4.555   2.198   8.221 -0.4331 -0.4731 -0.7633
 6748SOL    HW131877   4.650   2.183   8.219 -0.2667  0.4003  1.7688
 6748SOL    HW231878   4.542   2.238   8.306  0.8610 -1.0495 -0.2941
 6749SOL     OW31879   3.571   3.473   5.839 -0.0281 -0.1991  0.1861
 6749SOL    HW131880   3.546   3.564   5.858  1.8585  0.5985 -1.0387
 6749SOL    HW231881   3.488   3.427   5.834  0.8258 -1.8964  1.8213
 6750SOL     OW31882   2.408   4.253   3.148 -0.2791 -0.0305 -0.2674
 6750SOL    HW131883   2.336   4.264   3.085 -1.7496 -0.5830  1.3250
 6750SOL    HW231884   2.389   4.168   3.188  1.2454  0.0563  0.6279
 6751SOL     OW31885   0.658   3.691   2.397 -0.6160 -0.4613  0.0749
 6751SOL    HW131886   0.664   3.785   2.417  1.8804 -0.2014 -1.8204
 6751SOL    HW231887   0.748   3.660   2.404 -0.1218  1.0982  0.5812
 6752SOL     OW31888   3.292   1.210   2.750  0.3430  0.5292 -0.0274
 6752SOL    HW131889   3.331   1.174   2.829  1.4521  1.1649 -0.2863
 6752SOL    HW231890   3.200   1.224   2.774 -0.3967 -0.3083 -2.3977
 6753SOL     OW31891   0.548   1.674   4.468 -0.4551  0.4183 -0.3415
 6753SOL    HW131892   0.638   1.677   4.499 -0.1005 -2.7444 -0.9985
 6753SOL    HW231893   0.506   1.627   4.540 -0.2774 -1.1431 -1.2672
 6754SOL     OW31894   4.122   1.180   7.415  0.2724  0.1694  0.3838
 6754SOL    HW131895   4.058   1.159   7.483  0.0810  0.8485  0.4169
 6754SOL    HW231896   4.182   1.237   7.462  0.3310 -0.1795  0.7295
 6755SOL     OW31897   3.818   1.251   7.736  0.4143  0.1239 -0.0952
 6755SOL    HW131898   3.810   1.233   7.642  1.9104 -0.6251 -0.0868
 6755SOL    HW231899   3.876   1.327   7.731  2.0920 -1.1895 -0.6170
 6756SOL     OW31900   2.485   2.261  11.936 -0.2522  0.5917  0.3060
 6756SOL    HW131901   2.506   2.189  11.996  0.1635  0.9066  0.5362
 6756SOL    HW231902   2.482   2.219  11.850  2.4779 -0.9324  0.9273
 6757SOL     OW31903   1.093   4.021   7.833  0.1317 -0.5022 -0.4297
 6757SOL    HW131904   1.149   4.009   7.910 -0.2444 -1.4748 -0.3047
 6757SOL    HW231905   1.014   3.974   7.858 -0.1843  0.4560  0.3661
 6758SOL     OW31906   0.147   0.664   3.800  0.4577 -0.1252  0.1544
 6758SOL    HW131907   0.216   0.623   3.853  0.2532 -1.6831 -0.8127
 6758SOL    HW231908   0.139   0.610   3.722  0.7090  0.8245 -0.5404
 6759SOL     OW31909   4.510   3.227   7.144 -0.2731 -0.1592  0.5978
 6759SOL    HW131910   4.571   3.159   7.114 -0.3486 -0.1863  0.5054
 6759SOL    HW231911   4.570   3.301   7.138  0.1070 -0.5536 -0.5041
 6760SOL     OW31912   4.146   1.122   3.563 -0.6970  0.1306  0.4689
 6760SOL    HW131913   4.107   1.038   3.542 -0.8418  0.2280  0.3460
 6760SOL    HW231914   4.085   1.163   3.624 -0.1930  0.2977  0.8678
 6761SOL     OW31915   0.018   2.416   9.225  0.2444  0.2963 -0.3383
 6761SOL    HW131916   4.728   2.482   9.289 -3.3458 -0.9416 -0.5488
 6761SOL    HW231917   0.033   2.346   9.288 -0.8233  1.6179  1.3818
 6762SOL     OW31918   3.377   2.110  13.622 -0.1725  0.7385 -0.2091
 6762SOL    HW131919   3.329   2.054  13.683 -1.7729  0.7036 -1.5067
 6762SOL    HW231920   3.461   2.131  13.664  0.4857  0.9123 -1.5963
 6763SOL     OW31921   3.021   4.444  17.212 -0.1641  0.6497 -0.1093
 6763SOL    HW131922   3.108   4.435  17.174 -0.6247 -0.4151 -0.9001
 6763SOL    HW231923   2.982   4.369  17.167  0.7076 -0.7979  1.4974
 6764SOL     OW31924   1.019   0.390   9.024 -0.0321 -0.1596  0.1658
 6764SOL    HW131925   1.067   0.443   9.087 -2.2835  1.0624  0.8548
 6764SOL    HW231926   0.980   0.331   9.089 -3.0736 -0.2740 -1.7636
 6765SOL     OW31927   4.625   2.613   0.464 -0.6006  0.3007 -0.0770
 6765SOL    HW131928   4.629   2.596   0.558 -0.6122  0.1502 -0.1034
 6765SOL    HW231929   4.651   2.704   0.453 -2.7606  0.8247 -0.7518
 6766SOL     OW31930   2.907   3.543   2.985  0.6365  0.5695  0.3789
 6766SOL    HW131931   2.991   3.574   2.953  1.4824  0.9769  2.9455
 6766SOL    HW231932   2.855   3.517   2.909  0.0952 -1.2285  1.3632
 6767SOL     OW31933   2.259   2.168  14.492 -0.1989 -0.1416 -0.1932
 6767SOL    HW131934   2.217   2.227  14.554 -0.4851 -1.0186  0.4493
 6767SOL    HW231935   2.348   2.198  14.477  0.3949 -1.1248  1.3498
 6768SOL     OW31936   0.812   3.403   5.396  0.0170 -0.2656  0.0778
 6768SOL    HW131937   0.723   3.386   5.427  0.4332  0.2714  1.5556
 6768SOL    HW231938   0.866   3.331   5.429  0.4745  0.1350  0.2076
 6769SOL     OW31939   3.652   2.161   5.550  0.2917  0.0648  0.5709
 6769SOL    HW131940   3.740   2.197   5.538 -0.5395  1.6494 -0.6941
 6769SOL    HW231941   3.629   2.186   5.640  1.9093  0.0691  0.9793
 6770SOL     OW31942   3.072   3.188  13.773 -0.0313 -0.3014  0.0765
 6770SOL    HW131943   3.151   3.224  13.814 -0.9558  1.6473  0.1274
 6770SOL    HW231944   3.098   3.171  13.683  1.9782  0.1168  0.5848
 6771SOL     OW31945   0.084   2.195   8.179  0.2265  0.7448  0.0721
 6771SOL    HW131946   0.134   2.199   8.260  1.0253 -2.3552 -0.2592
 6771SOL    HW231947   0.113   2.109   8.148  3.7658  1.8470  0.4270
 6772SOL     OW31948   3.930   2.082   8.224 -0.0640 -0.3423 -0.2143
 6772SOL    HW131949   3.970   2.096   8.310  2.2141  1.5467 -1.5998
 6772SOL    HW231950   3.850   2.033   8.245  0.4754 -0.2883  1.9787
 6773SOL     OW31951   2.763   4.098   1.640 -0.1345 -0.4492  0.0560
 6773SOL    HW131952   2.722   4.036   1.579 -0.5479 -2.0028  1.9294
 6773SOL    HW231953   2.835   4.044   1.671 -0.1982 -0.9177 -0.6157
 6774SOL     OW31954   1.458   0.353   4.365 -0.3667  0.1249 -0.1811
 6774SOL    HW131955   1.472   0.405   4.444  2.2822 -1.7864  0.6359
 6774SOL    HW231956   1.376   0.382   4.327 -0.0527 -1.2310 -1.8742
 6775SOL     OW31957   3.821   3.130  16.189  0.1263 -0.2233 -0.9609
 6775SOL    HW131958   3.737   3.168  16.212  0.2021  0.3267 -1.5857
 6775SOL    HW231959   3.838   3.147  16.096 -1.7160  1.8820 -0.9235
 6776SOL     OW31960   0.056   0.495   7.471  0.1531  0.4384  0.4037
 6776SOL    HW131961   0.054   0.400   7.460  0.1021  0.6721 -1.5839
 6776SOL    HW231962   0.111   0.513   7.395  0.0954 -2.4812 -0.3254
 6777SOL     OW31963   1.994   4.463   7.852 -0.1565 -0.4541  0.0066
 6777SOL    HW131964   1.995   4.549   7.892 -3.2192  1.2226 -3.5033
 6777SOL    HW231965   1.988   4.474   7.757  0.0050  0.2820  0.0859
 6778SOL     OW31966   0.375   0.022   7.121 -0.2703 -0.0502  0.2873
 6778SOL    HW131967   0.410   0.111   7.115  0.7371 -0.4511  0.1772
 6778SOL    HW231968   0.439   4.703   7.078  0.8652  0.0004  1.9081
 6779SOL     OW31969   3.532   1.628   8.875  0.0384  0.0913  0.6028
 6779SOL    HW131970   3.546   1.692   8.805  2.6690 -0.7669  0.3454
 6779SOL    HW231971   3.447   1.607   8.836  0.8432  0.9870 -1.6951
 6780SOL     OW31972   3.799   0.965   8.382 -0.1834 -0.1036 -0.1232
 6780SOL    HW131973   3.820   0.873   8.371  1.5850  0.4026 -1.0490
 6780SOL    HW231974   3.876   1.009   8.344  1.5226 -2.1790  0.9073
 6781SOL     OW31975   2.667   0.505  13.950 -0.2726 -0.0535  0.3847
 6781SOL    HW131976   2.631   0.551  14.026  0.0342  2.5010 -1.0369
 6781SOL    HW231977   2.745   0.556  13.930 -1.6602  1.7558 -0.3891
 6782SOL     OW31978   2.096   2.152   5.563 -0.0062 -0.3358 -0.1500
 6782SOL    HW131979   2.137   2.202   5.493  2.4409 -0.3123  1.2739
 6782SOL    HW231980   2.007   2.186   5.562  0.7083  1.4646 -1.6491
 6783SOL     OW31981   3.463   2.504   9.014 -0.4467  0.0031 -1.0369
 6783SOL    HW131982   3.461   2.524   9.108  0.3846 -0.0031 -1.0199
 6783SOL    HW231983   3.540   2.448   9.004  0.9943  1.5474  1.4244
 6784SOL     OW31984   0.431   0.944   4.757 -1.0195 -0.1902  0.1725
 6784SOL    HW131985   0.502   0.965   4.697 -0.5087 -2.3974  0.0311
 6784SOL    HW231986   0.480   0.892   4.821  2.2570  0.7835 -1.5490
 6785SOL     OW31987   2.673   3.769  16.574  0.0619  0.2662  0.1155
 6785SOL    HW131988   2.715   3.690  16.539 -0.1749  0.1229  0.1483
 6785SOL    HW231989   2.642   3.721  16.651  1.2844 -3.9397 -2.0067
 6786SOL     OW31990   1.265   2.596   9.141 -0.0352 -0.6279 -0.0321
 6786SOL    HW131991   1.285   2.567   9.052 -0.8121 -1.9588  0.2310
 6786SOL    HW231992   1.197   2.661   9.123  0.0526 -0.4703  0.2007
 6787SOL     OW31993   4.680   3.617  15.595 -0.0718 -0.1934  0.0898
 6787SOL    HW131994   0.006   3.679  15.558  0.4972 -0.4948  0.5725
 6787SOL    HW231995   0.000   3.544  15.574  0.6299  1.0060 -2.1832
 6788SOL     OW31996   3.457   1.602   9.557  0.1124  0.4135  0.0251
 6788SOL    HW131997   3.408   1.654   9.494 -0.3780 -1.6571 -1.2914
 6788SOL    HW231998   3.478   1.523   9.507  0.6730 -0.6710  1.9292
 6789SOL     OW31999   1.705   2.214  12.410  0.8848 -0.3205  0.1244
 6789SOL    HW132000   1.738   2.204  12.500  0.2173 -0.9754  0.2944
 6789SOL    HW232001   1.617   2.251  12.420  1.3534  1.0692 -0.8573
 6790SOL     OW32002   0.985   0.994   3.135  0.1084 -0.0893 -0.4755
 6790SOL    HW132003   0.944   0.908   3.129 -3.9833  2.0814 -3.1902
 6790SOL    HW232004   0.974   1.013   3.228 -2.1367 -1.1841 -0.5080
 6791SOL     OW32005   3.770   4.686   5.381  0.4717 -0.1703  0.3665
 6791SOL    HW132006   3.738   4.626   5.448  1.4710 -0.4995  0.5476
 6791SOL    HW232007   3.786   0.032   5.427  0.1820 -0.9850  1.9514
 6792SOL     OW32008   0.905   4.463   3.542  0.7282  0.3703  0.5961
 6792SOL    HW132009   0.981   4.498   3.496  2.4704  0.8474  3.8522
 6792SOL    HW232010   0.835   4.513   3.499 -0.8043 -2.2161  0.0671
 6793SOL     OW32011   1.266   3.960   6.452  0.5053  0.0680  0.5970
 6793SOL    HW132012   1.204   4.015   6.500  0.2522 -0.1861  0.5666
 6793SOL    HW232013   1.345   3.977   6.503  0.3079  1.5777  0.3774
 6794SOL     OW32014   4.393   2.176   1.689  0.5312  0.2873  0.1017
 6794SOL    HW132015   4.412   2.230   1.766 -0.3126  2.5937 -1.3117
 6794SOL    HW232016   4.298   2.182   1.701  0.5841  1.2142  0.0620
 6795SOL     OW32017   4.155   3.525  17.741 -0.6347 -0.3781 -0.0337
 6795SOL    HW132018   4.070   3.541   0.033 -0.1984  0.3553  0.6017
 6795SOL    HW232019   4.201   3.585   0.052  0.8977  0.3600 -1.9910
 6796SOL     OW32020   2.449   2.092   2.058  0.2262 -0.4684  0.0094
 6796SOL    HW132021   2.472   2.112   2.149  2.2915 -0.1106 -0.5878
 6796SOL    HW232022   2.428   2.182   2.033 -2.1356 -1.4435 -1.4578
 6797SOL     OW32023   2.089   4.228   4.141  0.0670 -0.1888  0.5452
 6797SOL    HW132024   2.096   4.196   4.230  2.9145 -0.2797  0.2944
 6797SOL    HW232025   2.015   4.288   4.151  0.4571  0.4949 -0.5598
 6798SOL     OW32026   1.368   3.655  10.400 -0.2417 -0.2515 -0.6275
 6798SOL    HW132027   1.447   3.603  10.386  1.0137  1.1054  1.4914
 6798SOL    HW232028   1.363   3.692  10.312 -1.4410  0.9738 -0.0522
 6799SOL     OW32029   4.601   1.100  15.340 -0.5081  0.3355  0.4464
 6799SOL    HW132030   4.607   1.145  15.425  0.5105  1.3961 -0.1885
 6799SOL    HW232031   4.604   1.177  15.283  0.0688  0.5538  0.7782
 6800SOL     OW32032   2.168   4.605   8.325 -0.1887  0.4140  0.0473
 6800SOL    HW132033   2.126   4.523   8.351 -0.2117  0.1302 -0.8653
 6800SOL    HW232034   2.183   4.639   8.413 -2.5255  0.7884  0.2728
 6801SOL     OW32035   4.282   4.175   8.262 -0.1463 -0.2648  0.7632
 6801SOL    HW132036   4.251   4.233   8.331  0.1409  0.1082  0.5794
 6801SOL    HW232037   4.210   4.112   8.263  0.4515 -1.0098 -3.3601
 6802SOL     OW32038   0.556   1.573  17.650  0.2802 -0.1710 -0.1548
 6802SOL    HW132039   0.598   1.493  17.679  1.7704  1.0340  0.9874
 6802SOL    HW232040   0.536   1.621  17.730  0.6997 -0.4418  0.1094
 6803SOL     OW32041   1.662   1.236   9.102 -0.6746  0.0095 -0.1116
 6803SOL    HW132042   1.716   1.161   9.129  1.3321  1.4044 -0.2080
 6803SOL    HW232043   1.576   1.204   9.128  1.2287 -2.8529  2.6742
 6804SOL     OW32044   1.875   1.485   2.802  0.2393  0.2500  0.4989
 6804SOL    HW132045   1.838   1.521   2.722  0.6202 -0.7415 -0.1166
 6804SOL    HW232046   1.812   1.414   2.805 -0.2980  0.7592  1.4217
 6805SOL     OW32047   4.572   2.378  11.381  0.5663  0.1378 -0.1558
 6805SOL    HW132048   4.646   2.386  11.320  0.4250 -1.0246 -0.4795
 6805SOL    HW232049   4.599   2.452  11.435  0.2805 -0.8502  1.3284
 6806SOL     OW32050   0.560   0.659   8.289 -0.0803 -0.2059 -0.1997
 6806SOL    HW132051   0.645   0.702   8.287 -0.0790 -0.2260 -0.6467
 6806SOL    HW232052   0.503   0.734   8.306 -0.4154 -0.6193  0.5350
 6807SOL     OW32053   3.550   1.158   8.065 -0.0100 -0.3204 -0.2924
 6807SOL    HW132054   3.619   1.184   8.126 -0.3482  1.5911 -0.7211
 6807SOL    HW232055   3.558   1.236   8.010  0.6327 -0.6353 -0.6358
 6808SOL     OW32056   2.169   2.902   3.833 -0.6135  0.5662  0.0934
 6808SOL    HW132057   2.133   2.837   3.772  2.0105 -1.1307  0.3502
 6808SOL    HW232058   2.165   2.848   3.912  1.3591 -2.9376 -2.1753
 6809SOL     OW32059   4.402   4.079   1.909 -0.4984  0.1242 -0.0401
 6809SOL    HW132060   4.435   4.057   1.821  0.0921 -0.5956  0.3571
 6809SOL    HW232061   4.369   4.167   1.893  1.9271  1.0385  0.0257
 6810SOL     OW32062   1.899   1.431  17.494 -0.2803  0.2181 -0.3624
 6810SOL    HW132063   1.902   1.513  17.543  0.5411  0.6484 -1.1335
 6810SOL    HW232064   1.982   1.390  17.519 -0.4051  1.7133  2.5268
 6811SOL     OW32065   3.766   0.323  16.702  0.2091  0.4405  0.3165
 6811SOL    HW132066   3.806   0.238  16.721 -1.3920 -0.6627 -1.2456
 6811SOL    HW232067   3.763   0.349  16.794  2.3787  1.0924  0.1935
 6812SOL     OW32068   2.444   4.402  16.108 -0.0747  0.6256 -0.2594
 6812SOL    HW132069   2.383   4.470  16.081 -2.7918 -1.5043  0.4420
 6812SOL    HW232070   2.434   4.346  16.031  1.5842 -1.3519  0.9752
 6813SOL     OW32071   1.308   3.933   6.178  0.7959  0.3841  0.3491
 6813SOL    HW132072   1.321   3.842   6.150 -0.2027 -0.1581  1.6103
 6813SOL    HW232073   1.340   3.924   6.268 -1.3666 -1.5631  0.9412
 6814SOL     OW32074   3.214   1.503   9.614  0.3328  0.4713 -0.0294
 6814SOL    HW132075   3.253   1.456   9.541 -0.8613  0.5561 -0.7081
 6814SOL    HW232076   3.286   1.566   9.613  0.1104  0.7039 -0.8154
 6815SOL     OW32077   1.451   4.431   6.908 -0.1736  0.1362 -0.1772
 6815SOL    HW132078   1.436   4.343   6.873  0.3701 -0.2267  0.5011
 6815SOL    HW232079   1.542   4.427   6.935 -0.4809 -2.9274  0.3478
 6816SOL     OW32080   1.879   0.484  12.087 -0.0831  0.4450 -0.2610
 6816SOL    HW132081   1.944   0.450  12.149  0.2230 -0.2927 -0.9777
 6816SOL    HW232082   1.890   0.414  12.022  0.7466 -0.3797  0.7682
 6817SOL     OW32083   1.593   2.453   1.736  0.1441  0.1165 -0.2236
 6817SOL    HW132084   1.566   2.373   1.782  2.5627 -0.4141  0.2807
 6817SOL    HW232085   1.607   2.514   1.808  1.8591 -1.7038  0.9922
 6818SOL     OW32086   0.128   2.402   5.778 -0.0699  0.5975  0.1949
 6818SOL    HW132087   0.182   2.339   5.827 -0.0423  0.8683  0.5166
 6818SOL    HW232088   0.183   2.439   5.709  0.7901 -0.8863  0.0703
 6819SOL     OW32089   4.001   1.472   0.707 -0.6229  0.8415 -0.0751
 6819SOL    HW132090   4.055   1.532   0.757  1.1368 -1.6385  0.9946
 6819SOL    HW232091   4.044   1.392   0.737 -0.6573  1.8177  2.5416
 6820SOL     OW32092   0.328   1.929   3.024  0.4119 -0.3025 -0.1879
 6820SOL    HW132093   0.375   2.009   3.047  0.9678 -1.1739  1.6729
 6820SOL    HW232094   0.248   1.974   2.999  0.9543  1.5396  1.3420
 6821SOL     OW32095   1.924   2.461  10.421 -0.2461  0.3231  0.2393
 6821SOL    HW132096   1.986   2.410  10.474  0.6655 -1.0908 -2.1616
 6821SOL    HW232097   1.873   2.510  10.485 -0.8787 -0.6216  0.4499
 6822SOL     OW32098   3.705   2.691   0.707  1.3732 -0.6106  0.7878
 6822SOL    HW132099   3.704   2.670   0.613  0.1245 -0.4415  0.7687
 6822SOL    HW232100   3.799   2.696   0.726  0.9702  0.8170  2.3717
 6823SOL     OW32101   2.404   0.152   7.339 -0.1554 -0.1345 -0.1514
 6823SOL    HW132102   2.395   0.119   7.250 -0.4047 -1.9841  0.5656
 6823SOL    HW232103   2.439   0.074   7.382  0.2113 -0.3269 -0.7945
 6824SOL     OW32104   1.587   0.456   4.050  0.0410  0.4546 -0.4893
 6824SOL    HW132105   1.604   0.490   4.138  1.6409  0.2534 -0.7291
 6824SOL    HW232106   1.563   0.364   4.058 -1.2939  0.8502  0.0971
 6825SOL     OW32107   0.524   3.211   3.100 -0.0295  0.4011  0.1168
 6825SOL    HW132108   0.607   3.255   3.083 -1.0621  2.6229  0.8525
 6825SOL    HW232109   0.533   3.122   3.066 -0.0013  0.2517  0.5146
 6826SOL     OW32110   2.833   4.687   5.244 -0.2787  0.4121  0.5145
 6826SOL    HW132111   2.877   4.620   5.296 -1.1397  0.5860  1.4801
 6826SOL    HW232112   2.845   0.027   5.299 -2.6002  1.6762 -0.7652
 6827SOL     OW32113   1.543   3.014   9.111  1.1045 -0.5151 -0.2963
 6827SOL    HW132114   1.512   2.944   9.168  0.4078  0.1291  0.1118
 6827SOL    HW232115   1.466   3.070   9.113  1.3266 -0.2840  2.6123
 6828SOL     OW32116   2.841   1.605   1.959  0.1286  0.2603 -0.4144
 6828SOL    HW132117   2.885   1.522   1.940  0.9235  0.5404  0.1729
 6828SOL    HW232118   2.898   1.636   2.030 -2.4029  1.1322  1.2130
 6829SOL     OW32119   0.957   3.874   9.451 -0.3579  0.3897 -0.3975
 6829SOL    HW132120   0.910   3.952   9.479 -1.5384 -0.8406  1.0461
 6829SOL    HW232121   0.885   3.831   9.405 -0.4513  0.6814 -0.5229
 6830SOL     OW32122   0.317   1.733   5.564  0.0884 -0.4401  0.2432
 6830SOL    HW132123   0.351   1.693   5.644  1.4285 -1.5408 -0.8811
 6830SOL    HW232124   0.239   1.681   5.546 -0.0209  0.3953 -1.6536
 6831SOL     OW32125   0.325   0.245  11.660 -0.2479  0.9518  0.0388
 6831SOL    HW132126   0.246   0.196  11.681  0.4779  0.7665  2.4065
 6831SOL    HW232127   0.344   0.273  11.750 -2.1687 -0.2120  0.8101
 6832SOL     OW32128   1.744   4.412   7.685 -0.3481 -0.5703  0.1576
 6832SOL    HW132129   1.771   4.503   7.697  0.7327 -1.0845  1.5666
 6832SOL    HW232130   1.651   4.422   7.705 -0.3473 -0.2665 -0.0027
 6833SOL     OW32131   1.443   0.799   6.377  0.4118  0.6601 -0.0571
 6833SOL    HW132132   1.423   0.714   6.339  2.1279  1.5972 -3.0935
 6833SOL    HW232133   1.373   0.850   6.337  0.6108  0.7089 -0.3419
 6834SOL     OW32134   2.856   4.573   1.676 -0.1704 -0.1068 -1.0182
 6834SOL    HW132135   2.788   4.509   1.694 -0.6054  0.5834 -0.2093
 6834SOL    HW232136   2.900   4.532   1.602  0.6526  0.2178 -0.7094
 6835SOL     OW32137   1.637   1.333   3.313  0.2533  0.4991  0.3774
 6835SOL    HW132138   1.580   1.275   3.363 -0.6111  0.1526 -1.0269
 6835SOL    HW232139   1.721   1.286   3.314 -1.7570 -3.0888 -2.6274
 6836SOL     OW32140   1.510   3.589   8.586 -0.6101 -0.1774  0.2145
 6836SOL    HW132141   1.502   3.560   8.677 -0.3311 -1.3426 -0.1331
 6836SOL    HW232142   1.502   3.504   8.544 -1.2862 -0.1582  0.2975
 6837SOL     OW32143   3.688   3.852   9.398  0.1551  0.1300 -0.1478
 6837SOL    HW132144   3.635   3.826   9.323 -0.3279  0.7501 -0.0191
 6837SOL    HW232145   3.674   3.780   9.460 -1.2023  1.4028  0.9997
 6838SOL     OW32146   4.373   0.141   7.373 -0.0253  0.0249 -0.0470
 6838SOL    HW132147   4.418   0.071   7.421 -1.4396 -0.0901  1.1182
 6838SOL    HW232148   4.444   0.181   7.325 -0.0846 -1.1237 -1.0986
 6839SOL     OW32149   1.410   0.394   2.356  0.0906 -0.4556  0.3097
 6839SOL    HW132150   1.460   0.376   2.436 -1.1988  1.3617  1.5410
 6839SOL    HW232151   1.454   0.470   2.317  1.7406  0.1318  3.2468
 6840SOL     OW32152   1.715   2.055   5.631 -0.1927  0.4108  0.3306
 6840SOL    HW132153   1.632   2.069   5.585  1.1964  2.3580 -1.6266
 6840SOL    HW232154   1.758   1.992   5.572 -0.8306  0.6354 -0.3785
 6841SOL     OW32155   0.667   0.415  12.087  0.2804 -0.2537  0.1059
 6841SOL    HW132156   0.695   0.382  12.172 -0.0166  1.6099  0.9239
 6841SOL    HW232157   0.744   0.445  12.039  0.9711  1.5977  2.3871
 6842SOL     OW32158   1.495   4.015   4.819  0.2445 -0.3895  0.2229
 6842SOL    HW132159   1.573   4.031   4.872  0.9315 -0.5259 -0.7438
 6842SOL    HW232160   1.458   3.944   4.870  3.2559 -2.3859 -0.3599
 6843SOL     OW32161   2.510   1.708   7.718  0.7391  0.1271 -0.3125
 6843SOL    HW132162   2.571   1.727   7.789  0.6064 -2.1651  0.4217
 6843SOL    HW232163   2.499   1.614   7.734  0.7024  0.3188  0.7611
 6844SOL     OW32164   2.728   1.894   5.767  0.4762 -0.4198  0.2245
 6844SOL    HW132165   2.683   1.901   5.851 -1.4564 -1.4740 -0.7133
 6844SOL    HW232166   2.786   1.823   5.792  1.0616  0.4169  1.2207
 6845SOL     OW32167   1.240   4.700  17.372 -0.1339 -0.3521  0.0995
 6845SOL    HW132168   1.224   4.606  17.356  0.4523 -0.6601  1.3654
 6845SOL    HW232169   1.311   4.707  17.435  0.2507  0.1887 -0.4001
 6846SOL     OW32170   3.791   1.802   7.903  0.4082  0.5040  0.3136
 6846SOL    HW132171   3.715   1.745   7.890 -0.5153  1.6089  0.8749
 6846SOL    HW232172   3.805   1.801   7.997 -1.2640 -0.4202  0.5427
 6847SOL     OW32173   3.328   1.090   4.922  0.8630  0.2543 -0.5928
 6847SOL    HW132174   3.346   1.118   4.832  1.2773 -0.2859 -0.6793
 6847SOL    HW232175   3.271   1.013   4.916  1.5834 -0.4083  1.2291
 6848SOL     OW32176   3.817   0.428   8.605  0.3435 -0.4715  0.1667
 6848SOL    HW132177   3.839   0.497   8.668 -0.5799 -0.3830  0.3883
 6848SOL    HW232178   3.832   0.353   8.664 -0.9993 -0.6190  0.3181
 6849SOL     OW32179   2.803   1.389   8.266  0.0905  0.2079 -0.6094
 6849SOL    HW132180   2.876   1.451   8.254  0.5768 -0.4560 -1.1044
 6849SOL    HW232181   2.851   1.307   8.280 -2.4646 -1.1962 -0.1377
 6850SOL     OW32182   0.031   2.013   4.921 -0.1150 -0.2807 -0.4169
 6850SOL    HW132183   0.060   2.026   5.011 -1.3426  1.4513 -0.2817
 6850SOL    HW232184   0.014   2.101   4.887 -0.4846  0.3111  1.3208
 6851SOL     OW32185   3.010   0.473  12.610  0.0733  0.3822 -0.3602
 6851SOL    HW132186   2.947   0.436  12.548  2.6019 -1.0854 -2.0572
 6851SOL    HW232187   2.955   0.472  12.689 -0.3388  0.9990 -0.6462
 6852SOL     OW32188   2.913   0.574   6.718  0.7863 -0.2812  0.0851
 6852SOL    HW132189   2.952   0.553   6.802  1.3156 -0.5599 -0.2286
 6852SOL    HW232190   2.979   0.547   6.654  2.7001 -0.5388  2.1912
 6853SOL     OW32191   1.388   1.895  10.825 -0.4011 -0.1629 -0.1062
 6853SOL    HW132192   1.407   1.971  10.881 -2.0226  0.1878 -0.0512
 6853SOL    HW232193   1.317   1.859  10.877 -1.6264 -0.7286 -2.1923
 6854SOL     OW32194   2.303   2.598   7.648 -0.0128  0.0322 -0.5055
 6854SOL    HW132195   2.296   2.619   7.741  0.3499  0.1862 -0.5138
 6854SOL    HW232196   2.395   2.612   7.628  0.3172 -0.9806  0.3320
 6855SOL     OW32197   2.133   0.335  15.628 -0.1060  0.5680  0.1649
 6855SOL    HW132198   2.192   0.260  15.616 -1.4291 -0.2042 -1.5902
 6855SOL    HW232199   2.075   0.306  15.698  0.7426  1.5507  1.2594
 6856SOL     OW32200   3.637   2.474  14.347  0.4872 -0.5296 -0.4445
 6856SOL    HW132201   3.643   2.565  14.318  2.3511 -0.3766  0.4118
 6856SOL    HW232202   3.731   2.456  14.351  0.1765 -1.6963  1.5242
 6857SOL     OW32203   3.395   2.619  14.076  0.1403  0.2331  0.0719
 6857SOL    HW132204   3.362   2.699  14.036  0.8712  0.8396  0.7037
 6857SOL    HW232205   3.462   2.651  14.136  0.1794 -2.9279  1.6996
 6858SOL     OW32206   4.415   3.537   6.676 -0.1923  0.1569 -0.6432
 6858SOL    HW132207   4.339   3.579   6.716  0.1871  1.6264 -1.4734
 6858SOL    HW232208   4.459   3.516   6.758 -1.0337  0.2766 -0.1535
 6859SOL     OW32209   1.829   2.314   3.585  0.5567 -0.2050  0.2135
 6859SOL    HW132210   1.917   2.351   3.582  0.1818  0.6286 -0.4793
 6859SOL    HW232211   1.805   2.326   3.493  1.2266  2.2026  0.3551
 6860SOL     OW32212   4.729   0.192   9.271 -0.8409  0.2820  0.4345
 6860SOL    HW132213   4.667   0.238   9.328 -1.3379  0.7959 -0.5293
 6860SOL    HW232214   0.020   0.272   9.227 -0.3695 -0.2519 -0.2371
 6861SOL     OW32215   3.818   2.695  10.720 -0.0635  0.2538 -0.2240
 6861SOL    HW132216   3.908   2.660  10.717 -0.1106  0.1549 -0.5031
 6861SOL    HW232217   3.824   2.770  10.662  0.7199 -0.4994 -1.1263
 6862SOL     OW32218   1.986   1.287   1.322  0.1157  0.0696 -0.0880
 6862SOL    HW132219   2.067   1.248   1.289 -1.2574 -1.9526 -1.1065
 6862SOL    HW232220   1.976   1.359   1.260 -1.1176  0.3446  0.4127
 6863SOL     OW32221   4.681   0.620  12.588  0.1727 -0.2197  0.0609
 6863SOL    HW132222   4.594   0.647  12.558  0.5380  0.6800 -0.1803
 6863SOL    HW232223   4.683   0.652  12.678  1.6975  0.4916 -0.2276
 6864SOL     OW32224   0.610   2.947   3.300 -0.1312 -0.1944  0.8578
 6864SOL    HW132225   0.700   2.964   3.271  0.0891 -1.3859  0.8386
 6864SOL    HW232226   0.572   2.878   3.246  1.4606  0.4480 -1.0829
 6865SOL     OW32227   4.189   1.320   4.145 -0.8368 -0.7734  0.5204
 6865SOL    HW132228   4.255   1.348   4.081 -0.7556 -0.7188  0.6262
 6865SOL    HW232229   4.125   1.281   4.086  1.0782 -3.7747  0.4440
 6866SOL     OW32230   4.523   1.108  16.365 -0.1762  0.2150 -0.1132
 6866SOL    HW132231   4.548   1.158  16.443 -0.9278 -1.9650  1.5515
 6866SOL    HW232232   4.572   1.030  16.390  0.9635  0.2806 -2.1709
 6867SOL     OW32233   4.078   2.344   7.802 -0.2582  0.1867 -0.3855
 6867SOL    HW132234   3.984   2.353   7.817  0.2613  0.7369  2.5553
 6867SOL    HW232235   4.107   2.295   7.879  0.9636  2.3808  0.5567
 6868SOL     OW32236   1.874   2.096   3.740  0.3133 -0.0172 -0.6742
 6868SOL    HW132237   1.881   2.112   3.834  2.5192 -2.2504 -0.4458
 6868SOL    HW232238   1.841   2.173   3.694 -0.8763  1.0732  1.9817
 6869SOL     OW32239   2.179   0.880   9.668  0.8052 -0.1463 -0.1990
 6869SOL    HW132240   2.143   0.791   9.661  0.6972 -0.1818  0.7945
 6869SOL    HW232241   2.267   0.867   9.703  0.5576 -1.0295  0.1044
 6870SOL     OW32242   4.519   1.956   6.115 -0.2534 -0.2829  0.1868
 6870SOL    HW132243   4.608   1.922   6.121  0.3277  0.4810 -4.3117
 6870SOL    HW232244   4.482   1.888   6.060 -0.2743  0.8736 -1.2357
 6871SOL     OW32245   1.788   3.935   6.885 -0.2630  0.0968 -0.0463
 6871SOL    HW132246   1.840   3.924   6.965 -2.3476  2.1899  1.5844
 6871SOL    HW232247   1.744   4.017   6.908 -3.9349 -2.2321  1.2190
 6872SOL     OW32248   0.264   4.076   9.050 -0.0097 -0.0487 -0.0047
 6872SOL    HW132249   0.206   4.060   9.125  1.6139  0.1289  1.2875
 6872SOL    HW232250   0.263   3.990   9.009  0.6813  0.6049 -1.3698
 6873SOL     OW32251   4.517   2.554   4.016 -0.4825  0.2939 -0.9759
 6873SOL    HW132252   4.558   2.573   4.101  3.4810 -2.0266 -2.3885
 6873SOL    HW232253   4.523   2.640   3.975  0.2646  0.9693  0.5285
 6874SOL     OW32254   2.741   3.183   2.993  0.2803 -0.5668  0.4785
 6874SOL    HW132255   2.713   3.273   2.972 -1.0152 -0.7635  1.3284
 6874SOL    HW232256   2.835   3.197   2.998  0.2955 -1.3127  2.1754
 6875SOL     OW32257   2.314   1.809   8.100 -0.5841 -0.3342 -0.4731
 6875SOL    HW132258   2.224   1.830   8.124 -0.4146  2.4519 -2.3453
 6875SOL    HW232259   2.359   1.831   8.182 -0.3197 -0.0977 -0.6832
 6876SOL     OW32260   0.996   2.844   1.508  0.0309  0.2619 -0.4043
 6876SOL    HW132261   1.007   2.776   1.575  1.9731  0.9127 -0.0500
 6876SOL    HW232262   0.958   2.914   1.561  0.5295  0.3389 -0.1400
 6877SOL     OW32263   0.480   1.994   3.663 -0.9132 -0.3856  0.0054
 6877SOL    HW132264   0.510   2.085   3.666 -1.5402 -0.2491  2.3764
 6877SOL    HW232265   0.466   1.984   3.757  0.9895 -3.6195 -0.0708
 6878SOL     OW32266   4.412   4.273   9.329 -0.4926  0.3910  0.1240
 6878SOL    HW132267   4.392   4.259   9.237  1.4018  0.1407 -0.2483
 6878SOL    HW232268   4.402   4.368   9.329  0.1806  0.4598  0.0050
 6879SOL     OW32269   0.779   1.725   1.601 -0.3231  0.4763 -0.1958
 6879SOL    HW132270   0.703   1.711   1.659 -1.2378 -0.3013 -1.5811
 6879SOL    HW232271   0.835   1.654   1.634 -3.3501 -0.3741  3.2574
 6880SOL     OW32272   2.401   4.508   8.622 -0.2838 -0.4525  0.0635
 6880SOL    HW132273   2.364   4.503   8.711 -0.2148  0.3933  0.1377
 6880SOL    HW232274   2.428   4.417   8.608  1.4462  0.0171  0.4397
 6881SOL     OW32275   0.478   2.153   3.055 -0.4301  0.6839 -0.3969
 6881SOL    HW132276   0.517   2.202   3.127  1.0839  0.8397 -1.3180
 6881SOL    HW232277   0.501   2.203   2.976  0.5705 -0.2486 -0.6958
 6882SOL     OW32278   4.115   3.475   3.387 -0.0736 -0.2682  0.4708
 6882SOL    HW132279   4.143   3.545   3.328  1.2631 -1.0256  0.2240
 6882SOL    HW232280   4.188   3.449   3.443  2.5079  1.7003 -2.0110
 6883SOL     OW32281   4.105   4.094   5.954 -0.3630 -0.0214 -0.7203
 6883SOL    HW132282   4.082   4.083   6.046  0.2567  1.5181 -0.3903
 6883SOL    HW232283   4.055   4.018   5.924 -0.4756  0.0868 -0.8044
 6884SOL     OW32284   3.928   0.516   6.632 -0.0974 -0.0686  0.3989
 6884SOL    HW132285   3.886   0.448   6.686  1.6513  0.0491  1.9079
 6884SOL    HW232286   3.972   0.571   6.696  1.0665  0.0112 -0.4829
 6885SOL     OW32287   0.404   0.914   0.278  0.3176  0.1121  0.0429
 6885SOL    HW132288   0.311   0.931   0.295 -0.5953 -0.3746 -4.4633
 6885SOL    HW232289   0.401   0.825   0.243  1.9278  1.0870 -2.5665
 6886SOL     OW32290   3.994   2.321   6.836 -0.6294  0.4503  0.2579
 6886SOL    HW132291   4.021   2.348   6.747  0.7322 -0.8780  0.2757
 6886SOL    HW232292   3.943   2.398   6.863 -2.3483 -1.0604  1.2346
 6887SOL     OW32293   1.645   4.645  14.286  0.5337 -0.2636 -0.1192
 6887SOL    HW132294   1.741   4.652  14.295  0.3855  2.2530 -0.5243
 6887SOL    HW232295   1.628   4.730  14.327  2.3167  1.6650 -3.3941
 6888SOL     OW32296   0.820   3.526   5.147 -0.1631  0.2870 -0.6714
 6888SOL    HW132297   0.915   3.529   5.161 -0.3505 -0.0112  0.6494
 6888SOL    HW232298   0.786   3.466   5.214 -0.7260  0.5162 -0.7571
 6889SOL     OW32299   3.376   4.130   7.717 -0.0855  0.7786 -0.6528
 6889SOL    HW132300   3.387   4.074   7.641  0.5941  1.7047 -1.2324
 6889SOL    HW232301   3.283   4.152   7.724 -0.0053  0.9948 -0.2579
 6890SOL     OW32302   0.428   4.219  10.301  0.0395 -0.0652 -0.6181
 6890SOL    HW132303   0.404   4.163  10.227 -1.3117 -2.0817  1.3813
 6890SOL    HW232304   0.499   4.164  10.335  0.3513  2.3266  2.6214
 6891SOL     OW32305   1.894   0.224   4.117  0.0661 -0.1206  0.2587
 6891SOL    HW132306   1.851   0.305   4.144  0.7866  0.8223 -1.4179
 6891SOL    HW232307   1.984   0.257   4.117  0.2751 -0.6864  0.9140
 6892SOL     OW32308   1.361   2.773   8.366 -0.2446 -0.4127 -0.7394
 6892SOL    HW132309   1.431   2.823   8.408 -0.2973 -1.2066  0.3013
 6892SOL    HW232310   1.354   2.682   8.395  2.1497 -0.2526  0.2977
 6893SOL     OW32311   3.744   1.237  12.032 -0.2274  0.5799  0.4870
 6893SOL    HW132312   3.681   1.164  12.029  0.5311 -0.0268 -0.3119
 6893SOL    HW232313   3.688   1.311  12.010 -0.6804 -0.7453 -2.8192
 6894SOL     OW32314   2.808   0.336  14.854 -0.4420 -0.1411  0.3790
 6894SOL    HW132315   2.886   0.292  14.887  2.0030  2.0938 -2.3383
 6894SOL    HW232316   2.852   0.409  14.811  0.9863 -1.3065 -0.1520
 6895SOL     OW32317   2.709   0.363   6.769  0.2216 -0.2383  0.3700
 6895SOL    HW132318   2.703   0.402   6.856 -0.4742  0.9234 -0.1967
 6895SOL    HW232319   2.736   0.448   6.732 -0.7797 -0.0545  0.0533
 6896SOL     OW32320   2.161   4.048   4.967 -0.0804 -0.2409  0.3229
 6896SOL    HW132321   2.220   4.063   4.893 -0.6606 -2.0134 -0.4899
 6896SOL    HW232322   2.150   4.138   4.997  0.9840  0.6257 -1.8838
 6897SOL     OW32323   1.896   2.817  10.780 -0.1555 -0.5349 -0.3356
 6897SOL    HW132324   1.800   2.812  10.790  0.0638 -0.6871  1.8208
 6897SOL    HW232325   1.921   2.727  10.760 -2.4929 -0.8811 -1.6881
 6898SOL     OW32326   4.182   0.272  11.376  0.0490 -0.1044  0.2207
 6898SOL    HW132327   4.254   0.240  11.431 -0.0270 -0.0340  0.3633
 6898SOL    HW232328   4.122   0.301  11.445 -0.0768 -2.5950  1.1576
 6899SOL     OW32329   1.321   3.831  10.161  0.6395  0.2445  0.3835
 6899SOL    HW132330   1.342   3.889  10.088  0.9966 -1.4858 -0.8845
 6899SOL    HW232331   1.386   3.764  10.143 -1.8258 -2.0439  0.0710
 6900SOL     OW32332   0.833   1.367   3.736 -0.0326  0.1560  0.2471
 6900SOL    HW132333   0.744   1.339   3.757 -0.8590  1.2607 -1.8134
 6900SOL    HW232334   0.881   1.366   3.819  0.5912 -2.8986 -0.1458
 6901SOL     OW32335   3.811   0.003   2.659  0.4076 -0.0240 -0.3682
 6901SOL    HW132336   3.899   0.009   2.697 -0.0388  1.1982  0.4576
 6901SOL    HW232337   3.793   0.096   2.649 -2.4276 -0.6528 -1.1507
 6902SOL     OW32338   0.226   1.849  12.163  0.8089 -0.2894 -0.2754
 6902SOL    HW132339   0.320   1.868  12.159  0.6171  0.1522 -2.7400
 6902SOL    HW232340   0.225   1.774  12.104  1.3552  0.5621 -1.3879
 6903SOL     OW32341   1.804   4.305   3.618 -0.5514  0.0308 -0.0577
 6903SOL    HW132342   1.795   4.210   3.621 -1.5961  0.1642  0.9328
 6903SOL    HW232343   1.896   4.308   3.590 -0.9682  2.0943 -1.2018
 6904SOL     OW32344   3.310   2.070   5.265  0.1289 -0.0907  0.2094
 6904SOL    HW132345   3.218   2.084   5.242  0.3568 -0.8395 -1.1968
 6904SOL    HW232346   3.318   2.137   5.333 -1.4028 -1.5658  1.8428
 6905SOL     OW32347   4.599   4.045   6.697  0.2304 -0.2845 -0.0349
 6905SOL    HW132348   4.506   4.059   6.679  0.2397 -2.4226 -1.6849
 6905SOL    HW232349   4.606   3.954   6.670 -3.6191 -0.5068 -0.3441
 6906SOL     OW32350   2.363   1.101   1.763 -0.2505  0.1371 -0.1030
 6906SOL    HW132351   2.419   1.052   1.823 -0.0778 -0.5021 -0.7859
 6906SOL    HW232352   2.413   1.089   1.681 -0.3378  0.1451 -0.1568
 6907SOL     OW32353   3.041   3.799   9.466 -0.2967 -0.2644 -0.3209
 6907SOL    HW132354   3.079   3.721   9.508  0.7365  0.6833  0.4866
 6907SOL    HW232355   3.120   3.805   9.411 -0.3232  1.2299 -0.1918
 6908SOL     OW32356   4.720   2.130  15.247  0.0195  0.3356 -0.2357
 6908SOL    HW132357   0.041   2.140  15.172  0.9164  0.5123  0.4896
 6908SOL    HW232358   0.021   2.197  15.303  1.3927  0.9671 -1.9509
 6909SOL     OW32359   2.753   1.521   5.384  0.3474 -0.0874 -0.1528
 6909SOL    HW132360   2.808   1.502   5.308  0.2057 -2.0610  0.2361
 6909SOL    HW232361   2.822   1.566   5.434 -0.5227 -0.7804  1.6608
 6910SOL     OW32362   1.423   3.528  13.868 -0.4788 -0.1439  0.6870
 6910SOL    HW132363   1.451   3.486  13.787 -1.3456  0.3575  0.1277
 6910SOL    HW232364   1.340   3.486  13.891 -0.0477 -1.6755 -0.5293
 6911SOL     OW32365   4.583   1.160   5.716  0.2505  0.4286 -0.5221
 6911SOL    HW132366   4.577   1.197   5.628 -1.5474  0.6572 -0.3003
 6911SOL    HW232367   4.671   1.123   5.718 -0.3797 -1.0263  0.6315
 6912SOL     OW32368   3.787   2.813   7.415 -0.0417  0.0718  0.3771
 6912SOL    HW132369   3.791   2.731   7.464 -0.9266 -0.3212 -0.2027
 6912SOL    HW232370   3.692   2.808   7.403 -0.1312 -0.1560  1.1477
 6913SOL     OW32371   0.232   3.465   1.473 -0.6944  0.1168 -0.1839
 6913SOL    HW132372   0.242   3.458   1.379  1.6709  1.0395 -0.0000
 6913SOL    HW232373   0.142   3.499   1.476 -1.4359 -1.9832  2.3660
 6914SOL     OW32374   1.033   1.454   9.921 -0.8764  0.1761 -0.2426
 6914SOL    HW132375   1.094   1.467   9.848  0.3364  0.1092  0.7457
 6914SOL    HW232376   1.092   1.420   9.989 -0.1703  0.3646 -0.7525
 6915SOL     OW32377   1.335   0.499   3.901  0.0408 -0.5765 -0.6314
 6915SOL    HW132378   1.396   0.489   3.828  1.8166  4.0025  0.2168
 6915SOL    HW232379   1.398   0.520   3.970  0.1809 -0.4259 -0.8067
 6916SOL     OW32380   0.291   1.116   7.536  0.0751 -0.3491  1.0069
 6916SOL    HW132381   0.259   1.206   7.528  1.2219  0.0858  1.3198
 6916SOL    HW232382   0.284   1.090   7.445  1.9267  2.0675  0.1644
 6917SOL     OW32383   3.814   3.234   2.771 -0.0764 -0.1331  0.0573
 6917SOL    HW132384   3.848   3.171   2.708  1.4606 -1.2509  2.0079
 6917SOL    HW232385   3.719   3.227   2.761  0.0750  0.1304 -1.5989
 6918SOL     OW32386   1.731   0.836   4.439  0.0366 -0.5234  0.0845
 6918SOL    HW132387   1.703   0.866   4.525 -0.6779 -4.5220  1.2544
 6918SOL    HW232388   1.821   0.868   4.443 -0.5456  0.7782  2.7208
 6919SOL     OW32389   2.752   3.584   6.618 -0.0872 -0.1015  0.4742
 6919SOL    HW132390   2.752   3.575   6.522  2.2629 -0.6244  0.5248
 6919SOL    HW232391   2.720   3.673   6.634  1.1657  0.4597 -0.1881
 6920SOL     OW32392   2.094   1.499   2.952 -0.6410  0.4479  0.1169
 6920SOL    HW132393   2.045   1.473   3.030 -2.6042 -0.6900 -1.4968
 6920SOL    HW232394   2.019   1.504   2.893 -1.0901  2.5483  0.8879
 6921SOL     OW32395   0.865   0.482   8.800  0.2332 -0.2225  0.0385
 6921SOL    HW132396   0.925   0.466   8.873  1.6008  1.3496 -0.7260
 6921SOL    HW232397   0.817   0.548   8.851 -0.1183 -2.4906  2.6096
 6922SOL     OW32398   3.476   2.022   8.853 -0.0542 -0.1562 -0.3289
 6922SOL    HW132399   3.384   2.008   8.831 -0.0377  0.1549 -0.5951
 6922SOL    HW232400   3.528   1.977   8.785  1.6588  2.2278 -0.5833
 6923SOL     OW32401   0.261   0.403   1.816 -0.0520  0.2689  0.5948
 6923SOL    HW132402   0.355   0.420   1.822  0.0420  0.2297 -0.6849
 6923SOL    HW232403   0.261   0.314   1.851 -0.6522 -0.3224 -0.8991
 6924SOL     OW32404   3.835   4.726   6.437 -0.2714  0.0451 -0.5182
 6924SOL    HW132405   3.881   4.736   6.353 -0.7091  2.2340 -0.5099
 6924SOL    HW232406   3.818   4.632   6.436 -0.7324  0.1207  0.9959
 6925SOL     OW32407   0.339   3.597  17.007 -0.3081 -0.1972 -0.4176
 6925SOL    HW132408   0.260   3.649  17.018 -0.0293  0.2134 -0.3300
 6925SOL    HW232409   0.304   3.532  16.946 -0.2276  1.5798 -2.3810
 6926SOL     OW32410   0.106   0.232   7.433  0.5177 -0.3810 -0.1885
 6926SOL    HW132411   0.090   0.202   7.523 -0.7176 -0.6334 -0.4983
 6926SOL    HW232412   0.110   0.146   7.391 -3.7400 -0.7455  0.1668
 6927SOL     OW32413   2.089   1.695  16.722 -0.2532  0.2493 -0.1421
 6927SOL    HW132414   2.026   1.720  16.790  1.0540  0.3373  1.0335
 6927SOL    HW232415   2.159   1.757  16.740  0.0711 -0.7099  1.9062
 6928SOL     OW32416   4.665   0.039   5.937  0.0402 -0.5131 -0.1322
 6928SOL    HW132417   4.622   0.122   5.916  0.7234  0.1484  1.0724
 6928SOL    HW232418   4.733   0.031   5.870 -0.8848 -0.6812 -1.0447
 6929SOL     OW32419   3.088   0.382  11.394 -0.1289  0.3679 -0.1362
 6929SOL    HW132420   3.136   0.424  11.322 -1.4381 -0.3952 -1.4526
 6929SOL    HW232421   3.166   0.378  11.449  0.6114 -3.2809 -1.4469
 6930SOL     OW32422   1.447   3.300   6.495  0.3131  0.4814  0.3301
 6930SOL    HW132423   1.423   3.208   6.496  3.2652 -0.2842 -0.6471
 6930SOL    HW232424   1.511   3.300   6.424 -2.3652 -1.4340 -2.0921
 6931SOL     OW32425   1.413   0.049   8.570 -0.5946 -1.1303 -0.1445
 6931SOL    HW132426   1.331   0.015   8.607 -1.0554  0.4264  0.3103
 6931SOL    HW232427   1.422   0.132   8.617 -0.9557 -0.8444 -0.5709
 6932SOL     OW32428   1.040   3.316  16.543  0.5030  0.1122 -0.2367
 6932SOL    HW132429   1.022   3.227  16.573 -0.1100  0.5124  0.5831
 6932SOL    HW232430   1.013   3.371  16.616 -0.9263 -2.5997  1.2588
 6933SOL     OW32431   2.358   2.709   4.243  0.7311  0.5129 -0.0437
 6933SOL    HW132432   2.428   2.654   4.278  1.2872  0.7627 -0.7463
 6933SOL    HW232433   2.400   2.792   4.221  3.4828 -0.1378  2.8407
 6934SOL     OW32434   3.556   1.694   9.181  0.1178  0.1884 -0.2396
 6934SOL    HW132435   3.529   1.687   9.089 -0.4265  2.5105 -0.2561
 6934SOL    HW232436   3.491   1.753   9.219 -1.4531 -1.1693 -0.8041
 6935SOL     OW32437   3.819   0.008   4.934 -0.0363  0.6901  0.0740
 6935SOL    HW132438   3.749   0.013   4.870 -0.4192 -1.1479  0.3349
 6935SOL    HW232439   3.786   0.050   5.013 -1.9967  1.1380 -1.0036
 6936SOL     OW32440   1.598   1.504   1.283 -0.3514 -0.1486 -0.5853
 6936SOL    HW132441   1.544   1.428   1.262 -0.3626 -0.2155 -0.3117
 6936SOL    HW232442   1.597   1.557   1.203 -0.3298 -0.2469 -0.6504
 6937SOL     OW32443   3.312   3.322   6.830 -0.5069 -0.1503  0.4558
 6937SOL    HW132444   3.398   3.286   6.807 -1.4552 -1.3895 -1.1794
 6937SOL    HW232445   3.335   3.361   6.914 -0.1820  0.8001 -0.0745
 6938SOL     OW32446   1.328   4.453   9.739  0.1355  0.8137 -0.3000
 6938SOL    HW132447   1.330   4.417   9.650 -0.6484  1.4062 -0.5559
 6938SOL    HW232448   1.294   4.378   9.788 -1.9049  0.6687 -1.9402
 6939SOL     OW32449   3.379   0.528   0.157 -0.1450  0.6861 -0.9201
 6939SOL    HW132450   3.289   0.539   0.125 -1.0362  0.1466  1.3585
 6939SOL    HW232451   3.399   0.471   0.084  2.1946 -1.6695  1.5652
 6940SOL     OW32452   0.748   2.679   3.110 -0.5902  0.0621 -0.5200
 6940SOL    HW132453   0.653   2.677   3.107 -0.5808 -1.7853  0.2828
 6940SOL    HW232454   0.766   2.628   3.031 -0.4503  2.6282 -2.1043
 6941SOL     OW32455   0.051   2.536   4.904  0.3568 -0.2353 -0.1621
 6941SOL    HW132456   0.112   2.595   4.862  1.4731 -0.5610  0.9851
 6941SOL    HW232457   0.052   2.591   4.982 -2.2338  0.0306 -0.3048
 6942SOL     OW32458   2.397   0.700   1.403 -0.1528 -0.1218 -0.0178
 6942SOL    HW132459   2.334   0.719   1.333 -1.0885 -0.0287  0.8383
 6942SOL    HW232460   2.411   0.789   1.436 -4.5759  1.2133 -1.7522
 6943SOL     OW32461   3.621   1.945   1.885  0.1084  0.0412  0.1043
 6943SOL    HW132462   3.634   1.851   1.878  0.1816  0.0400  0.2531
 6943SOL    HW232463   3.587   1.971   1.799 -0.2833  1.0352  0.5618
 6944SOL     OW32464   1.901   1.001  17.511  0.4338  0.4984  0.3764
 6944SOL    HW132465   1.960   1.073  17.487  0.6495  0.4291  0.6973
 6944SOL    HW232466   1.848   0.993  17.432  1.1243  0.7339 -0.1062
 6945SOL     OW32467   3.460   3.682   4.956 -0.1063 -0.3633 -0.2117
 6945SOL    HW132468   3.445   3.776   4.973  0.3245 -0.5618  1.2588
 6945SOL    HW232469   3.525   3.665   5.024 -2.0494  0.0158  1.7849
 6946SOL     OW32470   2.922   1.663   4.080  0.1069  0.0867 -0.7204
 6946SOL    HW132471   2.862   1.677   4.006 -1.0285  0.2207  0.2385
 6946SOL    HW232472   2.934   1.749   4.121  2.4194 -0.5931  0.0011
 6947SOL     OW32473   1.299   4.471  16.174 -0.0087  0.0457 -0.1172
 6947SOL    HW132474   1.233   4.474  16.243  1.9052  0.8155  1.6889
 6947SOL    HW232475   1.260   4.405  16.116  1.3140 -1.1552  0.3547
 6948SOL     OW32476   4.086   0.563   9.838 -0.1818 -0.4728  0.2060
 6948SOL    HW132477   4.171   0.606   9.842  0.3289 -1.3643 -1.1903
 6948SOL    HW232478   4.089   0.505   9.914  2.3067 -0.3924  0.1582
 6949SOL     OW32479   2.047   0.453   2.010  0.2789  0.3085  0.1085
 6949SOL    HW132480   2.083   0.540   2.029 -2.1944  1.3678 -0.1492
 6949SOL    HW232481   2.081   0.445   1.921 -1.0957 -2.4771 -0.1581
 6950SOL     OW32482   2.481   2.399   6.311 -0.0881 -0.1444  0.4622
 6950SOL    HW132483   2.425   2.425   6.385  2.4816 -0.1682  2.4039
 6950SOL    HW232484   2.514   2.313   6.337 -1.2251 -0.2050  1.7149
 6951SOL     OW32485   0.833   1.029   2.019 -0.2834 -0.2635  0.3386
 6951SOL    HW132486   0.904   1.061   1.963 -0.4710  1.1122  0.8932
 6951SOL    HW232487   0.775   1.104   2.014 -0.2481 -0.2277  0.4616
 6952SOL     OW32488   1.921   1.670  11.951 -0.5393  0.0117 -0.1477
 6952SOL    HW132489   2.005   1.702  11.984 -0.7079  2.0607 -1.7506
 6952SOL    HW232490   1.877   1.749  11.922 -0.5141 -0.1980 -0.7410
 6953SOL     OW32491   2.641   2.015   4.077  0.1559 -0.2195  0.1618
 6953SOL    HW132492   2.555   2.042   4.109 -0.0617  1.5661 -1.9566
 6953SOL    HW232493   2.621   1.968   3.996 -1.8368  3.1658 -1.3090
 6954SOL     OW32494   4.547   3.792  10.138  0.4371  0.0812 -0.3247
 6954SOL    HW132495   4.553   3.837  10.054 -0.3953  1.8960  0.5960
 6954SOL    HW232496   4.553   3.870  10.193 -0.8516  0.8064 -1.2094
 6955SOL     OW32497   4.419   1.424   2.627 -0.5256  0.3402  0.0057
 6955SOL    HW132498   4.358   1.385   2.565  0.0520 -2.3370  1.1150
 6955SOL    HW232499   4.505   1.394   2.599 -1.6833 -0.7292 -2.3936
 6956SOL     OW32500   3.314   2.756   9.728 -0.1546 -0.0700 -1.1643
 6956SOL    HW132501   3.240   2.816   9.721  1.8322  2.6811  1.3567
 6956SOL    HW232502   3.349   2.777   9.815 -0.7837 -0.1028 -0.9027
 6957SOL     OW32503   3.249   2.882  16.683 -0.9595 -0.2059  0.3737
 6957SOL    HW132504   3.323   2.887  16.622 -0.2667 -2.1903  1.0806
 6957SOL    HW232505   3.278   2.818  16.747  2.3395  0.6622 -0.2575
 6958SOL     OW32506   0.446   2.605   8.301  0.0700 -0.3652 -1.3113
 6958SOL    HW132507   0.520   2.554   8.334  0.7374  0.1818 -1.9722
 6958SOL    HW232508   0.495   2.669   8.250  0.5181 -0.3807 -0.9071
 6959SOL     OW32509   4.401   4.588   8.912 -0.5316  0.2601  0.0020
 6959SOL    HW132510   4.321   4.537   8.898  0.3789 -1.3985  0.8133
 6959SOL    HW232511   4.398   4.657   8.846  2.0162  0.3243 -0.0418
 6960SOL     OW32512   1.990   4.396   4.356 -0.1488  0.4998 -0.5538
 6960SOL    HW132513   1.906   4.349   4.351  1.0369 -1.6565 -0.2919
 6960SOL    HW232514   2.015   4.359   4.441 -0.8242 -0.6752 -0.8634
 6961SOL     OW32515   3.786   3.387   5.734  0.3744  0.2988 -0.1962
 6961SOL    HW132516   3.701   3.420   5.761 -1.3190 -3.8783 -0.3958
 6961SOL    HW232517   3.811   3.455   5.672  0.0581 -2.0309 -2.8657
 6962SOL     OW32518   3.189   4.293   3.116 -0.0810 -0.1327 -0.5931
 6962SOL    HW132519   3.105   4.254   3.138 -0.9841  1.8537 -0.5160
 6962SOL    HW232520   3.177   4.294   3.021 -1.1824 -1.9058 -0.4753
 6963SOL     OW32521   1.155   2.116  12.283  0.1486  0.3078  0.5145
 6963SOL    HW132522   1.227   2.055  12.297 -0.6060 -0.7470 -0.1731
 6963SOL    HW232523   1.199   2.159  12.210  0.7396 -0.0420  0.6710
 6964SOL     OW32524   3.132   2.882   5.001  0.0909 -0.1076 -0.1737
 6964SOL    HW132525   3.211   2.934   5.015 -0.8355  1.1843  0.2341
 6964SOL    HW232526   3.120   2.912   4.910  0.8826 -1.1603 -0.6284
 6965SOL     OW32527   3.750   2.604   6.283 -0.1705  0.0857 -0.1199
 6965SOL    HW132528   3.782   2.669   6.219 -1.8445  0.6990 -0.3270
 6965SOL    HW232529   3.663   2.634   6.309  0.0655  0.1049  0.6464
 6966SOL     OW32530   0.084   0.868  13.515  0.5354  1.0659  0.4933
 6966SOL    HW132531   0.134   0.895  13.438 -1.4047  1.0351 -0.7820
 6966SOL    HW232532   0.028   0.945  13.525  2.1257  2.0608  1.6815
 6967SOL     OW32533   0.068   4.399   6.794  0.0276 -0.2360 -0.2473
 6967SOL    HW132534   0.070   4.303   6.800 -0.2266 -0.2570 -0.4896
 6967SOL    HW232535   0.077   4.415   6.700 -1.3105  0.6601 -0.2139
 6968SOL     OW32536   1.882   1.889   7.417  0.2624  0.3178  0.3670
 6968SOL    HW132537   1.826   1.878   7.494 -0.4025 -1.2557 -0.3445
 6968SOL    HW232538   1.844   1.827   7.354  1.2315 -0.9621  1.0389
 6969SOL     OW32539   1.553   2.417   3.556  0.1180  0.3849 -0.2803
 6969SOL    HW132540   1.647   2.429   3.570 -0.1065 -0.5353  1.9053
 6969SOL    HW232541   1.544   2.483   3.487  0.3626  1.4646  0.7324
 6970SOL     OW32542   1.728   0.018  17.238 -0.4589  0.1720 -0.0830
 6970SOL    HW132543   1.821   4.732  17.247  0.5529  4.2981  0.2795
 6970SOL    HW232544   1.718   0.113  17.239  1.9981  0.4429 -1.3703
 6971SOL     OW32545   1.216   0.698  16.245 -0.2350  0.2391 -0.6625
 6971SOL    HW132546   1.246   0.707  16.154  0.6471 -1.5232 -0.5353
 6971SOL    HW232547   1.131   0.663  16.218 -0.2553 -0.0511 -0.2204
 6972SOL     OW32548   0.330   2.691  11.114 -0.2007 -0.8285  0.3254
 6972SOL    HW132549   0.399   2.755  11.134 -1.7479  1.1017 -0.4668
 6972SOL    HW232550   0.301   2.717  11.026 -2.1284  0.7553  1.4025
 6973SOL     OW32551   2.954   2.110   3.641 -0.5834  0.4265  0.6296
 6973SOL    HW132552   3.022   2.052   3.606  2.0610  2.4097  2.4147
 6973SOL    HW232553   2.882   2.080   3.586 -0.1730  0.1869  0.2206
 6974SOL     OW32554   0.174   4.395  12.205 -0.1377 -0.5549 -0.1029
 6974SOL    HW132555   0.260   4.358  12.222  0.4163 -0.2177 -2.3040
 6974SOL    HW232556   0.130   4.310  12.196  0.6854 -0.7381 -2.1947
 6975SOL     OW32557   0.304   2.930   6.426  0.3788  0.1631  0.0016
 6975SOL    HW132558   0.219   2.891   6.450 -0.3773  0.6441 -1.9143
 6975SOL    HW232559   0.268   3.000   6.373 -0.9716  0.9808  1.9925
 6976SOL     OW32560   1.129   1.319  12.081 -0.2790 -0.2291  0.3380
 6976SOL    HW132561   1.125   1.415  12.083 -1.5170 -0.2837  0.5467
 6976SOL    HW232562   1.153   1.303  11.990  1.6192 -2.1601  1.1776
 6977SOL     OW32563   4.187   2.986  12.003  0.2835  0.9714 -0.3136
 6977SOL    HW132564   4.199   3.024  12.090  0.0947  1.5221 -0.5275
 6977SOL    HW232565   4.104   3.027  11.977  0.4894  1.4527 -0.2012
 6978SOL     OW32566   1.749   1.900   0.508 -0.2889 -0.7868 -0.4033
 6978SOL    HW132567   1.665   1.875   0.547 -0.7132  3.3393  1.3388
 6978SOL    HW232568   1.733   1.974   0.449 -1.6941 -0.4236  0.4292
 6979SOL     OW32569   2.297   1.243  14.451 -0.7016  0.2570  0.7730
 6979SOL    HW132570   2.219   1.267  14.500 -0.4587 -0.3615  1.4692
 6979SOL    HW232571   2.366   1.223  14.515  1.3143  0.2321 -1.4059
 6980SOL     OW32572   1.542   1.713   8.899 -0.4972  0.7448 -0.2559
 6980SOL    HW132573   1.510   1.785   8.954  1.9287  1.5614  0.1142
 6980SOL    HW232574   1.511   1.640   8.952  0.4620  0.9698  0.6280
 6981SOL     OW32575   2.800   2.263   3.832 -0.2481  0.2200 -0.3122
 6981SOL    HW132576   2.841   2.193   3.883 -2.1784 -1.6003 -1.2550
 6981SOL    HW232577   2.819   2.239   3.741  1.5946 -0.8707  0.3501
 6982SOL     OW32578   2.924   4.581  15.264  0.4121 -0.1712  0.5174
 6982SOL    HW132579   2.857   4.554  15.202  2.0296 -1.8941 -0.4872
 6982SOL    HW232580   2.962   4.667  15.247 -1.1576  0.5995  0.9974
 6983SOL     OW32581   4.730   2.367  13.059 -0.4891 -0.5700  0.0982
 6983SOL    HW132582   4.666   2.425  13.017  1.6847  0.9801 -1.0801
 6983SOL    HW232583   0.039   2.428  13.115 -1.5838 -1.0428  1.5334
 6984SOL     OW32584   2.874   4.448   5.790 -0.4168 -0.6255 -0.0156
 6984SOL    HW132585   2.805   4.502   5.751  1.4365  1.8110  0.0510
 6984SOL    HW232586   2.951   4.505   5.792  0.1519 -1.3973  0.1233
 6985SOL     OW32587   0.899   0.341   1.944  0.1206 -0.1129  0.5807
 6985SOL    HW132588   0.892   0.344   2.040  2.1481  1.7590  0.6818
 6985SOL    HW232589   0.885   0.434   1.923  1.1314  0.1672  1.1436
 6986SOL     OW32590   1.481   1.413   0.480 -0.3493 -0.3885 -0.9362
 6986SOL    HW132591   1.418   1.408   0.408 -2.0216  1.2844  0.4139
 6986SOL    HW232592   1.557   1.444   0.431 -0.2920  0.9105 -0.0188
 6987SOL     OW32593   3.503   2.959   8.613 -0.3949  0.0414 -0.0854
 6987SOL    HW132594   3.503   2.864   8.602 -2.1063 -0.1088  1.1685
 6987SOL    HW232595   3.588   2.972   8.655 -0.4795  2.0101 -0.5152
 6988SOL     OW32596   1.967   1.339   4.805  0.0920 -0.2992  0.5704
 6988SOL    HW132597   1.877   1.328   4.836 -0.0713 -1.8310 -0.4611
 6988SOL    HW232598   1.961   1.426   4.767  2.2207 -0.5812 -0.4191
 6989SOL     OW32599   0.119   3.335  13.820 -0.2334 -0.4496  0.2135
 6989SOL    HW132600   0.086   3.268  13.880  2.7926 -0.2945  2.0707
 6989SOL    HW232601   0.211   3.334  13.845  0.2971  1.0586 -1.6753
 6990SOL     OW32602   1.814   0.148   3.548  0.0025 -0.2841  0.2038
 6990SOL    HW132603   1.827   0.071   3.493  1.4249  0.3399 -0.3254
 6990SOL    HW232604   1.787   0.099   3.626 -0.5689  1.2539  0.9780
 6991SOL     OW32605   0.619   3.789   3.949 -0.2650  0.0393 -0.0841
 6991SOL    HW132606   0.572   3.873   3.945  1.6081  1.1430  0.9230
 6991SOL    HW232607   0.587   3.739   3.874 -0.7078  1.9334 -1.1663
 6992SOL     OW32608   4.447   2.382   2.835 -0.3134  0.7291 -0.3447
 6992SOL    HW132609   4.375   2.383   2.772 -1.7311 -0.1531  1.2536
 6992SOL    HW232610   4.418   2.455   2.890  1.9455  1.7986 -0.5497
 6993SOL     OW32611   0.363   1.425   4.634 -0.0255  0.0660  0.5322
 6993SOL    HW132612   0.382   1.446   4.726 -1.0431 -0.8004  0.9543
 6993SOL    HW232613   0.311   1.346   4.650  0.0055 -0.1658 -0.5608
 6994SOL     OW32614   1.903   1.552   2.539 -0.1446 -0.6813 -0.4492
 6994SOL    HW132615   1.880   1.464   2.508  0.3015 -1.5765  1.8271
 6994SOL    HW232616   1.819   1.599   2.540  0.2014 -0.0208 -1.8810
 6995SOL     OW32617   4.302   4.561  10.020 -0.3745  0.3810 -0.1343
 6995SOL    HW132618   4.392   4.584  10.000 -1.0063  0.9714 -2.2790
 6995SOL    HW232619   4.287   4.507   9.942 -1.8456  0.3030  0.1968
 6996SOL     OW32620   2.213   4.162   9.818 -0.5628 -0.2546  0.7205
 6996SOL    HW132621   2.249   4.149   9.906 -0.5603  2.1863  1.0889
 6996SOL    HW232622   2.288   4.188   9.766 -0.8776  2.2575  1.4925
 6997SOL     OW32623   3.937   2.357   3.218  0.3858  0.3654 -0.4744
 6997SOL    HW132624   3.973   2.427   3.163  1.6719  0.6565  0.7278
 6997SOL    HW232625   3.851   2.395   3.237  0.9523  2.2752 -1.7047
 6998SOL     OW32626   3.725   4.318   9.961  0.4999 -0.3028  0.1151
 6998SOL    HW132627   3.717   4.250  10.028  1.4584 -0.2057  0.3195
 6998SOL    HW232628   3.663   4.374  10.007 -0.0728 -0.1542 -0.8329
 6999SOL     OW32629   2.167   4.075   4.371  0.3963 -0.3666 -0.1541
 6999SOL    HW132630   2.128   4.110   4.451 -2.5551  1.3613 -2.3641
 6999SOL    HW232631   2.161   3.980   4.371  2.9468 -0.5231  0.4776
 7000SOL     OW32632   4.361   2.868  17.445  0.0905 -0.7041  0.0512
 7000SOL    HW132633   4.397   2.956  17.433  2.2733 -1.9453 -2.5211
 7000SOL    HW232634   4.414   2.819  17.382 -1.3614 -2.6293  0.3374
 7001SOL     OW32635   4.010   2.000   7.588  0.1204 -0.4612 -0.4765
 7001SOL    HW132636   3.970   2.086   7.601  0.9263 -0.5138  2.3973
 7001SOL    HW232637   4.078   2.025   7.525  1.2404  1.4838  1.4783
 7002SOL     OW32638   4.710   4.184  13.513  0.5003 -0.1441 -0.1776
 7002SOL    HW132639   0.054   4.141  13.538  1.7459  0.9474 -2.2596
 7002SOL    HW232640   4.665   4.192  13.597  0.6342  1.4454 -0.2524
 7003SOL     OW32641   2.583   4.227   2.438 -0.0788  0.2613  0.1114
 7003SOL    HW132642   2.498   4.249   2.475 -1.5539  2.2059 -4.4248
 7003SOL    HW232643   2.571   4.254   2.347 -0.2761 -1.5252 -0.3931
 7004SOL     OW32644   0.447   0.174   4.270  0.1082 -0.1525  0.1347
 7004SOL    HW132645   0.501   0.204   4.197 -0.9297  0.6934 -0.2881
 7004SOL    HW232646   0.365   0.205   4.233 -1.8987 -2.1476  2.9261
 7005SOL     OW32647   1.190   0.380   9.913  0.4100 -0.9477 -0.2191
 7005SOL    HW132648   1.123   0.350   9.852 -0.0404  0.6024 -0.4839
 7005SOL    HW232649   1.273   0.338   9.892 -0.0124 -0.4040 -2.9872
 7006SOL     OW32650   3.082   2.882  17.693 -0.4619  0.5307  0.6882
 7006SOL    HW132651   3.097   2.922  17.608  0.9329  0.8929  1.0941
 7006SOL    HW232652   3.157   2.916  17.742  0.9977  1.1288 -1.9793
 7007SOL     OW32653   3.133   3.779   6.195  0.0954 -0.2624 -0.4624
 7007SOL    HW132654   3.122   3.750   6.286  0.8776 -1.3305 -0.7026
 7007SOL    HW232655   3.223   3.759   6.169  0.7029  2.6408 -0.6120
 7008SOL     OW32656   1.064   2.543   8.621 -0.3405  0.0935  0.2201
 7008SOL    HW132657   0.979   2.579   8.648 -0.2938 -0.4221  1.0532
 7008SOL    HW232658   1.035   2.475   8.561  0.4112 -0.8583  0.9453
 7009SOL     OW32659   0.848   3.399  10.103  0.4392  0.4763 -0.1025
 7009SOL    HW132660   0.787   3.385  10.030 -0.5512 -1.6649  1.1256
 7009SOL    HW232661   0.829   3.327  10.163  0.4896 -1.6405 -2.6202
 7010SOL     OW32662   0.113   4.337   4.076 -0.9558  0.1607  0.2262
 7010SOL    HW132663   0.164   4.339   3.995  0.4531  2.0875  1.1698
 7010SOL    HW232664   0.039   4.280   4.053 -2.1878  1.9886 -0.3552
 7011SOL     OW32665   1.740   1.888   2.226  0.2680  0.5002  0.2633
 7011SOL    HW132666   1.786   1.840   2.157  0.4774  3.2097 -1.4961
 7011SOL    HW232667   1.788   1.877   2.308  2.4688 -2.5679 -1.4155
 7012SOL     OW32668   3.630   3.447   9.181  0.0004 -0.2329 -0.0917
 7012SOL    HW132669   3.700   3.385   9.158  1.6707  2.7730 -3.0683
 7012SOL    HW232670   3.643   3.524   9.126  1.6244 -0.2074  0.3338
 7013SOL     OW32671   3.541   1.553   5.825 -0.0093 -0.2615  0.0313
 7013SOL    HW132672   3.522   1.610   5.751 -1.9974 -0.3946  0.4275
 7013SOL    HW232673   3.628   1.588   5.844  0.1154 -1.7285  2.1964
 7014SOL     OW32674   1.145   1.202   6.734  0.3255  0.1256 -0.0268
 7014SOL    HW132675   1.182   1.290   6.721  0.7024 -0.1982 -1.2018
 7014SOL    HW232676   1.221   1.163   6.777 -1.8604 -2.5339  1.4047
 7015SOL     OW32677   3.089   2.584   8.312 -0.2031 -0.9675  0.3119
 7015SOL    HW132678   3.176   2.617   8.334 -0.8244  0.2076  0.9863
 7015SOL    HW232679   3.042   2.664   8.336  3.1598  1.0576  0.2569
 7016SOL     OW32680   1.235   0.319   1.746 -0.2814 -0.2770 -0.1211
 7016SOL    HW132681   1.231   0.400   1.797 -0.5313  1.0118 -2.1807
 7016SOL    HW232682   1.216   0.251   1.811  1.7585  0.4722  1.2913
 7017SOL     OW32683   4.081   1.895   8.698  0.4817  0.5745 -0.0453
 7017SOL    HW132684   4.159   1.950   8.711  0.3748  0.1004  2.5249
 7017SOL    HW232685   4.039   1.909   8.783 -1.0959  1.4421 -0.9687
 7018SOL     OW32686   0.118   1.012   8.938  0.1900 -0.4794 -0.7012
 7018SOL    HW132687   0.132   0.920   8.917  0.8500 -0.2675 -1.2028
 7018SOL    HW232688   0.208   1.042   8.951  0.0248 -0.4033  0.3043
 7019SOL     OW32689   0.564   4.380   3.097 -0.0987  0.4553  0.4383
 7019SOL    HW132690   0.558   4.321   3.172  2.2085  1.9883  1.8076
 7019SOL    HW232691   0.509   4.333   3.033 -0.0324  0.6454  0.2419
 7020SOL     OW32692   0.628   1.469   1.332  0.2063 -0.0158  0.0172
 7020SOL    HW132693   0.569   1.528   1.288  0.1138  1.5327  2.2115
 7020SOL    HW232694   0.691   1.455   1.262  1.1950 -0.1540  0.9230
 7021SOL     OW32695   0.782   2.753  10.302 -0.2016  0.1641 -0.2572
 7021SOL    HW132696   0.714   2.748  10.369  0.8426  3.2253  1.0346
 7021SOL    HW232697   0.864   2.764  10.350 -0.0308 -2.8221  0.1746
 7022SOL     OW32698   3.967   4.593   7.641  0.3586  0.1755  1.3602
 7022SOL    HW132699   4.047   4.545   7.622 -0.9620 -0.6464 -2.0817
 7022SOL    HW232700   4.008   4.680   7.643  1.9851 -0.5277 -1.8036
 7023SOL     OW32701   0.217   3.225   2.955 -0.3790 -0.0759  0.9295
 7023SOL    HW132702   0.180   3.310   2.931 -0.0644 -0.4254 -0.7305
 7023SOL    HW232703   0.308   3.250   2.973 -0.3712  0.3633  0.2828
 7024SOL     OW32704   4.203   3.835   3.351  0.4138  0.8891 -0.2152
 7024SOL    HW132705   4.200   3.925   3.384  1.4553  0.2801  1.5538
 7024SOL    HW232706   4.270   3.786   3.398 -0.4004 -3.4882 -3.6194
 7025SOL     OW32707   3.460   1.951   7.485  1.2127 -0.3999  0.1489
 7025SOL    HW132708   3.506   1.924   7.565 -1.5127 -1.4040  1.3684
 7025SOL    HW232709   3.376   1.907   7.496  1.6728 -1.0950  0.8853
 7026SOL     OW32710   3.258   1.263   4.396  0.4602 -0.3262  0.2556
 7026SOL    HW132711   3.168   1.278   4.369  0.7895 -0.6258 -1.0314
 7026SOL    HW232712   3.297   1.252   4.309  1.8693  0.0924  0.8356
 7027SOL     OW32713   0.760   0.467   4.409  0.3627  0.0067  0.3130
 7027SOL    HW132714   0.778   0.413   4.332  0.5346  1.7622 -0.8860
 7027SOL    HW232715   0.665   0.464   4.416  0.2124  3.1558 -0.3972
 7028SOL     OW32716   3.783   2.794  10.988 -0.3843  0.1636  0.3561
 7028SOL    HW132717   3.774   2.766  10.897  0.2493 -0.8197  0.5953
 7028SOL    HW232718   3.698   2.832  11.011  0.2054  1.8746 -0.3534
 7029SOL     OW32719   3.689   0.144   5.579 -0.2391 -0.2198  0.0616
 7029SOL    HW132720   3.600   0.177   5.594  0.3164 -0.0966  3.1453
 7029SOL    HW232721   3.674   0.051   5.597  1.3996 -0.1128  1.9081
 7030SOL     OW32722   0.529   4.195  10.744 -0.4466  0.0574 -0.0734
 7030SOL    HW132723   0.617   4.158  10.738 -0.4761  0.2029 -1.3483
 7030SOL    HW232724   0.552   4.283  10.773 -0.2737  0.4172 -1.2974
 7031SOL     OW32725   1.567   1.227   6.139 -0.9163 -0.0123 -0.2955
 7031SOL    HW132726   1.610   1.141   6.136  2.5193  1.7571 -1.1898
 7031SOL    HW232727   1.555   1.266   6.052 -1.6371 -0.8740 -0.5867
 7032SOL     OW32728   1.257   2.493  17.456 -0.0989 -0.0740 -0.1161
 7032SOL    HW132729   1.230   2.505  17.365 -0.6932 -0.0562  0.0589
 7032SOL    HW232730   1.202   2.558  17.500 -0.4951  0.7791 -1.8946
 7033SOL     OW32731   2.765   3.668  12.596  1.3146 -0.3650  0.3560
 7033SOL    HW132732   2.719   3.631  12.671 -0.6373  1.3271 -0.0235
 7033SOL    HW232733   2.717   3.629  12.522  1.8007 -2.1776  0.9886
 7034SOL     OW32734   0.250   3.437  13.376 -0.1652  0.4872  0.5754
 7034SOL    HW132735   0.168   3.390  13.360 -0.1621  0.2674  1.2095
 7034SOL    HW232736   0.244   3.472  13.465  0.8207  1.1153  0.4007
 7035SOL     OW32737   4.263   3.001   9.500 -0.1127 -0.8092 -0.0624
 7035SOL    HW132738   4.327   3.021   9.432 -0.4814  1.6933  0.3318
 7035SOL    HW232739   4.320   2.949   9.557  1.5058 -0.7932 -1.6684
 7036SOL     OW32740   0.181   1.570   7.960 -0.2357 -0.1874 -0.2388
 7036SOL    HW132741   0.212   1.651   8.000 -3.7593 -0.6170  3.3629
 7036SOL    HW232742   0.094   1.588   7.924  0.9065  1.0113 -2.4211
 7037SOL     OW32743   4.462   0.463   1.401  0.1849 -0.0837 -0.4812
 7037SOL    HW132744   4.367   0.471   1.401  0.2786  0.8551 -2.8225
 7037SOL    HW232745   4.473   0.378   1.360 -1.8099 -1.3355  1.5769
 7038SOL     OW32746   2.398   1.881   1.744 -0.5215  0.3779  0.0929
 7038SOL    HW132747   2.412   1.817   1.674  2.1339  0.1640  0.7938
 7038SOL    HW232748   2.481   1.864   1.789  0.0085  1.8364 -0.3491
 7039SOL     OW32749   3.948   1.844   8.974  0.1202 -0.2151 -0.0662
 7039SOL    HW132750   3.882   1.821   9.040  0.8036  2.1000  1.4067
 7039SOL    HW232751   3.937   1.765   8.920 -2.2074  1.0610 -1.4729
 7040SOL     OW32752   1.041   1.573  14.638 -0.2740 -0.6393 -0.3572
 7040SOL    HW132753   1.127   1.569  14.681  0.2053 -2.0715 -1.4489
 7040SOL    HW232754   0.986   1.590  14.715  2.5582  1.0765  1.3249
 7041SOL     OW32755   1.707   4.464   6.569  1.0539 -0.4651  1.0868
 7041SOL    HW132756   1.636   4.453   6.506  0.6996  1.3019  1.1772
 7041SOL    HW232757   1.744   4.550   6.550 -2.8029  0.7835 -0.9029
 7042SOL     OW32758   1.130   4.151  10.238 -0.4106 -0.3220 -0.1601
 7042SOL    HW132759   1.168   4.212  10.301 -3.6381  0.7980  0.6841
 7042SOL    HW232760   1.140   4.067  10.283  0.3923  0.8195  1.8276
 7043SOL     OW32761   3.969   2.513   2.859 -0.5484 -0.2571  0.5786
 7043SOL    HW132762   3.921   2.582   2.813  0.2293 -1.9945 -2.9110
 7043SOL    HW232763   3.975   2.559   2.942 -0.9310  1.8525 -0.5543
 7044SOL     OW32764   4.619   4.518   1.585  0.0375 -0.6130 -0.4839
 7044SOL    HW132765   4.547   4.513   1.523 -1.0318  1.7245  0.5631
 7044SOL    HW232766   4.682   4.455   1.549  0.4519  0.1304 -1.0590
 7045SOL     OW32767   2.931   0.552   5.664  0.0568  0.1058 -0.0321
 7045SOL    HW132768   2.845   0.531   5.629 -0.6271  0.5413  1.3779
 7045SOL    HW232769   2.906   0.579   5.752  1.5828 -2.2740  1.1550
 7046SOL     OW32770   3.696   0.944   9.273 -0.7784  0.1899 -0.2658
 7046SOL    HW132771   3.704   0.918   9.365 -3.3305  0.4935  0.0453
 7046SOL    HW232772   3.607   0.978   9.282 -0.9679 -0.3367 -0.1690
 7047SOL     OW32773   3.404   1.491   4.340  0.2691  0.0822 -0.1929
 7047SOL    HW132774   3.344   1.421   4.365  0.7005 -0.1125  0.2995
 7047SOL    HW232775   3.441   1.447   4.263 -2.4073  0.3670 -1.6362
 7048SOL     OW32776   2.212   3.081   5.171 -0.6428 -0.2951 -0.5055
 7048SOL    HW132777   2.175   3.010   5.119 -3.1050  0.1957  0.5699
 7048SOL    HW232778   2.134   3.112   5.218 -0.9544 -1.8787  0.0322
 7049SOL     OW32779   3.479   2.893   4.066  0.2995  0.0310  0.1141
 7049SOL    HW132780   3.408   2.950   4.035 -0.4705 -1.4509 -0.9009
 7049SOL    HW232781   3.447   2.813   4.024 -0.0324 -0.6932  1.7469
 7050SOL     OW32782   4.591   2.153   2.881 -0.1962  0.4340  0.2575
 7050SOL    HW132783   4.552   2.239   2.862  0.9206  0.2502 -2.8174
 7050SOL    HW232784   4.526   2.090   2.852  0.2784 -0.6242  1.5451
 7051SOL     OW32785   1.374   4.153   7.025 -0.1792  0.0046 -0.4187
 7051SOL    HW132786   1.344   4.224   7.081  0.1450 -0.3545  0.2021
 7051SOL    HW232787   1.296   4.109   6.992 -0.6501  1.2857 -1.0246
 7052SOL     OW32788   2.468   1.994   2.646  0.3617 -0.0529 -0.4496
 7052SOL    HW132789   2.483   1.962   2.557  0.2395  2.2727 -1.2987
 7052SOL    HW232790   2.374   1.978   2.658  0.0209  1.6390 -0.8634
 7053SOL     OW32791   1.143   0.230   6.978  0.2210  0.7142  0.0665
 7053SOL    HW132792   1.234   0.233   6.948  0.6331  1.2054  1.3840
 7053SOL    HW232793   1.151   0.259   7.069 -0.1544  1.5675 -0.1746
 7054SOL     OW32794   3.226   4.436   2.561 -0.7563 -0.1865 -0.2600
 7054SOL    HW132795   3.276   4.354   2.570  1.5298  0.9606 -2.4653
 7054SOL    HW232796   3.298   4.499   2.556 -0.6690 -0.4786 -2.5943
 7055SOL     OW32797   4.734   3.717   8.601 -0.5143  0.6014  0.3699
 7055SOL    HW132798   4.732   3.801   8.556 -0.5878 -0.2175 -1.1490
 7055SOL    HW232799   4.678   3.729   8.677  1.9051 -0.7984  2.4059
 7056SOL     OW32800   2.102   3.923  11.326  0.3286 -0.0670  0.3180
 7056SOL    HW132801   2.168   3.992  11.318 -0.6945  0.7745 -1.0360
 7056SOL    HW232802   2.056   3.962  11.400 -1.0718 -2.0917  0.4947
 7057SOL     OW32803   2.240   2.490   6.787  0.3849 -0.1479  0.2193
 7057SOL    HW132804   2.268   2.436   6.861  0.1452  0.0614  0.4596
 7057SOL    HW232805   2.149   2.506   6.811  0.5689 -0.2443  0.9646
 7058SOL     OW32806   1.613   3.761   6.807  0.0669  0.2003  0.3512
 7058SOL    HW132807   1.640   3.701   6.877  1.2193 -0.8233 -0.9672
 7058SOL    HW232808   1.688   3.821   6.806  1.4669 -1.5452  0.0425
 7059SOL     OW32809   4.483   4.116   9.536 -0.3435  0.1343  0.0675
 7059SOL    HW132810   4.465   4.147   9.447  0.2750 -1.9063 -0.7798
 7059SOL    HW232811   4.488   4.197   9.586 -1.1342  1.3607 -1.8437
 7060SOL     OW32812   4.321   4.112  13.601 -0.5864 -0.0467 -0.1822
 7060SOL    HW132813   4.258   4.069  13.659  3.0507 -2.6870  1.8598
 7060SOL    HW232814   4.401   4.107  13.654 -1.1124 -1.1440  0.5061
 7061SOL     OW32815   1.978   0.583   2.749 -0.1609  0.2415 -0.0078
 7061SOL    HW132816   2.066   0.553   2.724 -0.9693 -1.8627 -0.3228
 7061SOL    HW232817   1.923   0.520   2.703  1.7291 -0.6793 -1.0003
 7062SOL     OW32818   1.977   4.687   3.122 -0.0921  0.2382  0.1636
 7062SOL    HW132819   1.981   4.735   3.205 -1.2995 -0.3156  0.5498
 7062SOL    HW232820   1.933   0.021   3.076  1.9354  1.0057 -0.5497
 7063SOL     OW32821   3.001   0.713  16.130  0.2298  0.3260 -0.0109
 7063SOL    HW132822   3.008   0.806  16.150 -0.0740  0.4662 -0.5754
 7063SOL    HW232823   3.021   0.683  16.219  3.9994  0.0960 -0.9536
 7064SOL     OW32824   1.870   2.945   7.400  0.6840 -0.4347  0.2230
 7064SOL    HW132825   1.812   2.906   7.335 -3.1183  3.1250  1.5112
 7064SOL    HW232826   1.806   3.005   7.438  0.4150 -0.4591 -0.1924
 7065SOL     OW32827   1.996   2.791   2.079 -0.3417 -0.1839  0.1309
 7065SOL    HW132828   2.033   2.811   2.165 -0.0168  1.6228 -0.4480
 7065SOL    HW232829   2.034   2.862   2.029  0.3979  0.5282  1.6839
 7066SOL     OW32830   1.221   0.987   8.867 -0.8668  0.0130  0.8364
 7066SOL    HW132831   1.197   0.938   8.946 -0.9057  0.2421  0.9661
 7066SOL    HW232832   1.217   1.082   8.882 -0.2033  0.3798 -1.3957
 7067SOL     OW32833   0.560   2.433   5.096 -0.2198  0.4023 -0.2270
 7067SOL    HW132834   0.531   2.500   5.034 -2.0281 -0.4346 -0.3067
 7067SOL    HW232835   0.483   2.433   5.153  0.1055 -0.6523  0.2099
 7068SOL     OW32836   3.148   3.263   2.454  0.3768  1.0460  0.0143
 7068SOL    HW132837   3.145   3.179   2.409  2.0460  1.1912 -0.3817
 7068SOL    HW232838   3.242   3.276   2.461  0.6559  0.3395 -2.4019
 7069SOL     OW32839   2.351   2.588   7.178  0.0860 -0.1079 -0.0064
 7069SOL    HW132840   2.428   2.640   7.203 -1.2239  2.3181 -1.0359
 7069SOL    HW232841   2.295   2.611   7.253 -0.4390 -1.4670  0.0143
 7070SOL     OW32842   2.289   1.327  17.277 -0.4416  0.2948 -0.3708
 7070SOL    HW132843   2.211   1.312  17.223  1.0937  2.3904 -3.1515
 7070SOL    HW232844   2.340   1.252  17.245  0.9068  0.8085  0.5572
 7071SOL     OW32845   0.912   1.431   8.894  0.2882 -0.3105 -0.2431
 7071SOL    HW132846   0.828   1.386   8.891 -0.5600  1.2241  0.0920
 7071SOL    HW232847   0.915   1.457   8.802  1.1492 -0.4647 -0.2585
 7072SOL     OW32848   1.294   2.326   6.117  0.0762 -0.1558 -0.0289
 7072SOL    HW132849   1.298   2.231   6.130 -0.0228 -0.3048 -1.0644
 7072SOL    HW232850   1.209   2.324   6.073  0.2229  0.1072 -0.3244
 7073SOL     OW32851   3.530   1.473   7.140 -0.0510  0.2420 -0.2078
 7073SOL    HW132852   3.435   1.483   7.143 -0.1820 -0.8295 -1.1515
 7073SOL    HW232853   3.556   1.553   7.186 -0.6989  1.3505 -1.7856
 7074SOL     OW32854   4.347   1.588   2.140 -0.2400  0.2139 -0.9806
 7074SOL    HW132855   4.317   1.615   2.227  0.8360 -1.1632 -0.1771
 7074SOL    HW232856   4.330   1.494   2.142  2.6390 -0.2638  1.4034
 7075SOL     OW32857   4.203   1.843   7.016 -0.3534 -0.8595  0.5117
 7075SOL    HW132858   4.181   1.907   6.949  1.3540  0.0399  0.8161
 7075SOL    HW232859   4.253   1.788   6.955 -0.0123  0.0147  0.0166
 7076SOL     OW32860   0.318   3.437  16.538 -0.2525  0.6989 -0.0153
 7076SOL    HW132861   0.278   3.523  16.552 -2.3237 -0.3568  0.5098
 7076SOL    HW232862   0.275   3.385  16.606  0.4236  1.7686  1.2267
 7077SOL     OW32863   1.960   1.673   5.340  0.5686  0.0032  0.9816
 7077SOL    HW132864   2.053   1.695   5.332 -0.0442  1.9781 -0.6152
 7077SOL    HW232865   1.960   1.582   5.370 -2.2751 -0.2944  0.0679
 7078SOL     OW32866   1.720   1.752   3.692  0.2485  0.2930 -0.3839
 7078SOL    HW132867   1.707   1.802   3.612 -0.8689 -2.8013 -2.0981
 7078SOL    HW232868   1.813   1.727   3.692 -0.6251 -2.9123 -0.1801
 7079SOL     OW32869   0.125   3.929   4.404  0.1369 -0.4169 -0.0675
 7079SOL    HW132870   0.037   3.902   4.380 -0.0636  0.3331 -0.1808
 7079SOL    HW232871   0.129   4.019   4.372  1.7042 -0.5617 -0.2958
 7080SOL     OW32872   1.869   1.021   6.884 -0.2966 -0.2143  0.1810
 7080SOL    HW132873   1.839   1.040   6.795 -0.7388  1.7203  0.7389
 7080SOL    HW232874   1.964   1.026   6.877 -0.5476  2.5178 -1.3619
 7081SOL     OW32875   2.704   0.437   4.052  0.0943 -0.3136  0.5283
 7081SOL    HW132876   2.723   0.378   4.125  1.5938 -0.8341 -0.2730
 7081SOL    HW232877   2.782   0.427   3.997  0.2887  3.9317  0.0417
 7082SOL     OW32878   0.048   4.043   3.360  0.3923  0.1466  0.2514
 7082SOL    HW132879   0.119   3.979   3.355  1.1989  1.0167  0.6314
 7082SOL    HW232880   0.085   4.119   3.315  1.2187 -0.9240 -0.8651
 7083SOL     OW32881   4.466   3.689   1.382  0.5343 -0.3022 -0.2162
 7083SOL    HW132882   4.425   3.739   1.311 -0.7558 -0.6765  0.2735
 7083SOL    HW232883   4.516   3.760   1.422  0.7516 -1.9871  2.5311
 7084SOL     OW32884   3.435   0.236   4.625 -0.1232 -0.1711 -1.0146
 7084SOL    HW132885   3.489   0.294   4.679 -0.5820 -0.8207  0.1355
 7084SOL    HW232886   3.392   0.171   4.680 -1.9797  2.4736  0.6254
 7085SOL     OW32887   1.467   3.340   4.898  0.3308  0.2366  0.3363
 7085SOL    HW132888   1.402   3.271   4.907 -0.4106  0.6412 -2.0319
 7085SOL    HW232889   1.421   3.408   4.851  0.2842 -0.3634 -0.4845
 7086SOL     OW32890   3.304   0.966   4.386 -0.0677  0.5780  0.0726
 7086SOL    HW132891   3.321   1.057   4.411 -1.9949  0.4795  1.7343
 7086SOL    HW232892   3.300   0.926   4.473  2.9756  1.5799  0.6966
 7087SOL     OW32893   3.525   0.184   6.625 -0.2936  0.3479  0.2384
 7087SOL    HW132894   3.438   0.151   6.605 -1.3646  1.9466  2.2263
 7087SOL    HW232895   3.525   0.261   6.567  2.4460  0.5566  0.5215
 7088SOL     OW32896   0.120   3.927  10.046  0.8174  0.0900 -0.1870
 7088SOL    HW132897   0.124   3.841  10.086 -1.3686  0.8196  1.5930
 7088SOL    HW232898   0.040   3.960  10.087  0.0507 -0.7775 -0.9937
 7089SOL     OW32899   1.177   4.164   6.240 -0.3022 -0.1282 -0.4626
 7089SOL    HW132900   1.218   4.217   6.173  0.0993  0.1762  0.0240
 7089SOL    HW232901   1.216   4.078   6.227 -0.8196 -0.0036 -2.7898
 7090SOL     OW32902   1.367   3.909   0.615 -0.3000  0.1073  0.3256
 7090SOL    HW132903   1.382   3.819   0.586  0.0848 -0.0283  0.9317
 7090SOL    HW232904   1.460   3.931   0.605  0.2266 -0.9558  2.7384
 7091SOL     OW32905   2.655   3.458   5.255  0.0538 -0.4915  0.2728
 7091SOL    HW132906   2.564   3.481   5.275 -0.3351 -2.2771  0.5758
 7091SOL    HW232907   2.669   3.509   5.176  2.0148 -0.4014  0.6839
 7092SOL     OW32908   4.698   3.804   8.059  0.2230 -0.5026  0.3594
 7092SOL    HW132909   0.003   3.819   7.975  0.7445  0.3667  0.7746
 7092SOL    HW232910   4.616   3.764   8.031 -0.7623  0.6311  1.5919
 7093SOL     OW32911   3.955   1.381   7.121 -0.5406  0.0004 -0.0603
 7093SOL    HW132912   3.874   1.382   7.069 -0.6454  0.7172  0.1144
 7093SOL    HW232913   3.915   1.403   7.205 -0.8063  0.6830 -0.3599
 7094SOL     OW32914   0.288   0.237  12.390  0.1693  0.1058  0.2668
 7094SOL    HW132915   0.297   0.314  12.445 -3.4938  0.8467 -0.1838
 7094SOL    HW232916   0.365   0.186  12.415 -0.8838 -1.8971 -0.5280
 7095SOL     OW32917   4.715   2.375  16.249 -0.0200 -0.3882  0.4447
 7095SOL    HW132918   4.654   2.377  16.323 -1.2117 -0.3268 -0.5406
 7095SOL    HW232919   0.029   2.297  16.269  0.2075 -0.0062  1.3311
 7096SOL     OW32920   0.531   2.163   5.426 -0.7550  0.2557  0.2681
 7096SOL    HW132921   0.519   2.085   5.480  1.0308  0.0565  0.3851
 7096SOL    HW232922   0.441   2.182   5.399 -0.5457  2.7107  1.2816
 7097SOL     OW32923   3.371   0.076   7.665 -0.6187 -0.5416  0.5877
 7097SOL    HW132924   3.374   0.125   7.747  0.4464 -3.1479  2.0962
 7097SOL    HW232925   3.365   0.141   7.594  0.3873  0.1816  1.1756
 7098SOL     OW32926   0.745   1.241  16.612 -0.0497  0.1859 -0.3458
 7098SOL    HW132927   0.747   1.150  16.582  0.8394  0.7089 -1.8729
 7098SOL    HW232928   0.675   1.278  16.559 -0.0357  0.4163 -0.2026
 7099SOL     OW32929   2.550   0.693   3.267  0.1163 -0.5148 -0.0075
 7099SOL    HW132930   2.592   0.607   3.270 -0.8653 -0.9350  1.4503
 7099SOL    HW232931   2.501   0.681   3.186  0.7169  4.1428 -1.0729
 7100SOL     OW32932   2.033   0.564  16.809  0.3209  0.1418  0.2643
 7100SOL    HW132933   2.052   0.631  16.744 -0.4474  0.6502  0.5646
 7100SOL    HW232934   1.940   0.539  16.804  0.7300 -1.1010 -1.2398
 7101SOL     OW32935   3.293   0.313   7.250  0.0193 -0.1683  0.1898
 7101SOL    HW132936   3.331   0.295   7.335 -2.2557 -0.5040  1.1411
 7101SOL    HW232937   3.358   0.275   7.191  0.6169  2.2555 -0.7363
 7102SOL     OW32938   4.476   4.575   5.860 -0.2531 -0.1800 -0.4064
 7102SOL    HW132939   4.506   4.643   5.921  0.2980 -0.4003 -0.4299
 7102SOL    HW232940   4.551   4.573   5.801 -0.1839 -0.7425 -0.3027
 7103SOL     OW32941   3.200   3.740   6.985 -0.1229  0.0242 -0.2978
 7103SOL    HW132942   3.186   3.721   6.892 -1.0192 -0.5762 -0.0371
 7103SOL    HW232943   3.154   3.822   7.001  1.4428  0.4990  1.7260
 7104SOL     OW32944   0.601   4.246   3.529 -0.1432 -0.5093 -0.6191
 7104SOL    HW132945   0.573   4.242   3.437 -1.6491 -1.0424 -0.1509
 7104SOL    HW232946   0.568   4.163   3.565  1.0556  0.2967  2.3117
 7105SOL     OW32947   3.553   3.209   6.695  0.2431 -0.3208  0.4847
 7105SOL    HW132948   3.636   3.179   6.732  0.6279 -1.1660 -1.0848
 7105SOL    HW232949   3.574   3.295   6.658  0.3349 -0.2031  0.8135
 7106SOL     OW32950   4.417   4.164   9.872 -0.1750 -0.8056 -0.8140
 7106SOL    HW132951   4.478   4.092   9.886 -0.4138 -0.4945  1.9184
 7106SOL    HW232952   4.462   4.223   9.932 -0.8808  0.4079 -1.4700
 7107SOL     OW32953   2.484   1.456   6.693  0.1610 -0.4513 -0.6329
 7107SOL    HW132954   2.464   1.425   6.604 -1.0956  1.5325 -1.0378
 7107SOL    HW232955   2.420   1.525   6.709 -1.1277 -1.7152 -0.3744
 7108SOL     OW32956   0.662   0.018   7.796 -0.1162 -0.4299 -0.0028
 7108SOL    HW132957   0.621   4.721   7.717  0.5730 -0.1121 -0.5013
 7108SOL    HW232958   0.594   0.002   7.862 -0.0957 -1.0426 -0.1356
 7109SOL     OW32959   1.252   4.459   2.497 -0.4817  0.3302 -0.0688
 7109SOL    HW132960   1.245   4.392   2.565 -1.9038  2.3549  1.8085
 7109SOL    HW232961   1.344   4.479   2.485 -0.3719  0.4305  0.9286
 7110SOL     OW32962   1.295   1.613   7.683  0.9999  0.3418  0.7387
 7110SOL    HW132963   1.205   1.642   7.663  0.4702 -2.3954 -0.7682
 7110SOL    HW232964   1.310   1.658   7.766  3.6194 -1.1697  1.0533
 7111SOL     OW32965   4.715   3.352   8.902 -0.4626  0.2431  0.2378
 7111SOL    HW132966   0.032   3.429   8.916  1.2312 -0.6636 -1.4118
 7111SOL    HW232967   4.731   3.329   8.810  0.2476 -0.6903  0.5909
 7112SOL     OW32968   2.615   2.083  14.191 -0.2662 -0.0648  0.4846
 7112SOL    HW132969   2.694   2.068  14.139 -0.0949 -1.1420  1.0436
 7112SOL    HW232970   2.549   2.064  14.125  0.0887  1.3892 -0.2893
 7113SOL     OW32971   2.268   1.273  16.692  0.2751  0.1145 -0.2746
 7113SOL    HW132972   2.275   1.314  16.606  0.5081 -1.6220 -1.0982
 7113SOL    HW232973   2.251   1.341  16.757 -1.0492  0.9241 -1.4898
 7114SOL     OW32974   2.456   1.902  11.551 -0.1282 -0.4310  0.2664
 7114SOL    HW132975   2.452   1.815  11.591 -0.4109 -0.5582 -0.0437
 7114SOL    HW232976   2.443   1.884  11.458  2.4674 -0.5855 -0.0707
 7115SOL     OW32977   1.128   2.617   2.234  0.0356  0.2546 -0.3430
 7115SOL    HW132978   1.193   2.649   2.171  2.3470 -2.0916  0.8695
 7115SOL    HW232979   1.087   2.550   2.180  0.4883  0.8328 -1.4140
 7116SOL     OW32980   2.500   4.134   7.603  0.0087 -0.2007 -0.4875
 7116SOL    HW132981   2.508   4.194   7.529  0.8267  0.0867 -0.1672
 7116SOL    HW232982   2.424   4.078   7.588  0.3351 -1.5054  2.7231
 7117SOL     OW32983   2.847   4.376   7.502  0.3337  0.0383  0.1524
 7117SOL    HW132984   2.843   4.449   7.440  1.2494 -0.8305 -0.9074
 7117SOL    HW232985   2.814   4.300   7.454  0.0312  0.4011 -0.2237
 7118SOL     OW32986   4.537   1.462   6.385 -0.3450 -0.2670  0.3112
 7118SOL    HW132987   4.586   1.453   6.467  1.5412  0.7500 -0.7114
 7118SOL    HW232988   4.465   1.499   6.435 -1.8013  0.1613 -2.0925
 7119SOL     OW32989   1.483   4.462  11.044 -0.6433  0.1623 -0.0512
 7119SOL    HW132990   1.425   4.386  11.055 -0.2138 -0.2398 -0.6332
 7119SOL    HW232991   1.517   4.454  10.955  0.5631 -1.5053  0.5560
 7120SOL     OW32992   1.834   0.394   2.607  0.1699 -0.3437  0.1816
 7120SOL    HW132993   1.878   0.318   2.645  0.1585 -0.3088  0.2659
 7120SOL    HW232994   1.750   0.359   2.577  0.3621  1.8955 -2.9044
 7121SOL     OW32995   2.807   2.087   1.239 -0.1277 -0.3819  0.2765
 7121SOL    HW132996   2.744   2.110   1.171  1.5112  1.5024 -0.6070
 7121SOL    HW232997   2.766   2.133   1.312 -1.7046  2.6740 -2.4993
 7122SOL     OW32998   0.617   0.795   4.473  1.1914 -0.7288 -0.3430
 7122SOL    HW132999   0.592   0.704   4.456  0.0618 -0.6432  0.9011
 7122SOL    HW233000   0.537   0.838   4.443 -0.1147 -4.7352 -2.6442
 7123SOL     OW33001   0.353   3.905  12.339 -0.1781  0.2417 -0.8229
 7123SOL    HW133002   0.436   3.857  12.349  0.0357  0.8108  0.1231
 7123SOL    HW233003   0.322   3.875  12.254 -1.0330 -0.4478 -0.2742
 7124SOL     OW33004   0.811   0.796   7.046  0.1269  0.0558 -0.0216
 7124SOL    HW133005   0.821   0.845   6.964  2.2990  0.8263  0.7074
 7124SOL    HW233006   0.838   0.863   7.109  1.0298 -1.8771  1.6566
 7125SOL     OW33007   3.844   3.838   1.886  0.1941 -0.1096  0.3773
 7125SOL    HW133008   3.808   3.750   1.893 -1.4168  0.6662  1.9521
 7125SOL    HW233009   3.756   3.875   1.882 -0.0144 -0.6925 -0.2542
 7126SOL     OW33010   3.043   0.999   8.772 -0.2504  0.6068 -0.0983
 7126SOL    HW133011   3.093   0.919   8.757 -0.5608  0.6407 -1.3164
 7126SOL    HW233012   2.950   0.986   8.754 -0.6622  2.3672  0.7480
 7127SOL     OW33013   0.184   3.851   3.723 -0.0432  0.4281  0.1449
 7127SOL    HW133014   0.219   3.823   3.808 -0.4698 -0.2109  0.1153
 7127SOL    HW233015   0.264   3.844   3.671 -1.1377  0.0264 -1.4920
 7128SOL     OW33016   2.263   1.559   8.026 -0.5835  0.1964  0.4465
 7128SOL    HW133017   2.191   1.521   8.075 -2.7503  3.3092 -0.3762
 7128SOL    HW233018   2.269   1.645   8.066 -1.9459  0.1668  0.6920
 7129SOL     OW33019   0.565   3.139   0.712 -0.3600  0.1574 -0.3409
 7129SOL    HW133020   0.478   3.128   0.751  0.3024 -1.9126  0.5664
 7129SOL    HW233021   0.552   3.104   0.624 -1.4440 -2.2283  0.7524
 7130SOL     OW33022   2.487   2.241   6.822  0.2865 -0.7516  0.1036
 7130SOL    HW133023   2.555   2.254   6.888  0.3965 -1.6562  0.1745
 7130SOL    HW233024   2.408   2.265   6.870  0.8961 -0.9005  1.1814
 7131SOL     OW33025   1.579   3.176  15.679 -0.1916  0.6807 -0.1167
 7131SOL    HW133026   1.633   3.152  15.754 -0.4807 -0.2645 -0.2048
 7131SOL    HW233027   1.648   3.182  15.614  0.5172 -0.7180  0.4993
 7132SOL     OW33028   4.614   3.039   7.773 -0.1061  0.2582  0.1257
 7132SOL    HW133029   4.584   3.075   7.689 -0.2106 -1.4370 -0.5689
 7132SOL    HW233030   4.639   2.953   7.738 -1.7277  0.2326 -0.9835
 7133SOL     OW33031   4.104   4.620  15.831 -0.2820  0.0462  0.5429
 7133SOL    HW133032   4.053   4.541  15.812  1.0793 -0.7333  0.1081
 7133SOL    HW233033   4.143   4.594  15.915 -1.9625 -1.2279  0.9081
 7134SOL     OW33034   1.775   0.869  16.736 -0.2344 -0.5108  0.7095
 7134SOL    HW133035   1.727   0.927  16.677 -1.4331 -0.5587  1.6423
 7134SOL    HW233036   1.705   0.805  16.746  0.1254 -0.8012  1.3531
 7135SOL     OW33037   0.627   3.708   9.552 -0.4534 -0.1125 -0.3079
 7135SOL    HW133038   0.632   3.777   9.619 -1.4155 -2.5234  2.2377
 7135SOL    HW233039   0.612   3.634   9.610 -0.5586  0.3595  0.2687
 7136SOL     OW33040   1.687   0.690   3.328  0.1707  0.1073 -0.5001
 7136SOL    HW133041   1.714   0.612   3.376  0.3955  1.2830  1.2539
 7136SOL    HW233042   1.636   0.741   3.390 -0.9460 -0.2248 -1.1394
 7137SOL     OW33043   1.965   2.548   8.179 -0.1035  0.5402  0.2956
 7137SOL    HW133044   1.969   2.616   8.112 -2.1190 -0.1431 -0.5345
 7137SOL    HW233045   2.035   2.575   8.238 -1.0539  0.7951  1.2935
 7138SOL     OW33046   2.005   0.232  15.842  0.0780  0.2895 -0.2727
 7138SOL    HW133047   1.913   0.209  15.847 -0.4800  2.0434 -2.3435
 7138SOL    HW233048   2.028   0.260  15.931 -0.9920 -1.6089  0.5895
 7139SOL     OW33049   4.063   2.933   7.127 -0.0670 -0.6015 -0.0935
 7139SOL    HW133050   4.114   2.887   7.061 -0.8056  0.8472 -1.6709
 7139SOL    HW233051   4.129   2.994   7.162 -0.3356 -0.0814 -0.4901
 7140SOL     OW33052   2.249   4.103   2.245 -0.0523  0.0248  0.6503
 7140SOL    HW133053   2.207   4.189   2.246 -0.6596 -0.2371 -1.4217
 7140SOL    HW233054   2.222   4.076   2.157  1.3454 -1.2963  0.6293
 7141SOL     OW33055   0.895   4.090   3.810 -0.0416 -0.1101 -0.0660
 7141SOL    HW133056   0.846   4.108   3.890 -1.0249  0.1628 -0.7421
 7141SOL    HW233057   0.965   4.155   3.817  1.5392 -1.8827  0.5566
 7142SOL     OW33058   2.457   3.913   2.880 -0.6434  0.2660 -0.3760
 7142SOL    HW133059   2.392   3.881   2.943 -0.0331 -1.3139 -0.5543
 7142SOL    HW233060   2.397   3.946   2.814  1.4862  1.8305 -1.5370
 7143SOL     OW33061   0.744   0.100  11.246  0.0822 -0.3585 -0.1726
 7143SOL    HW133062   0.791   0.136  11.170  1.2956  0.4083  0.9429
 7143SOL    HW233063   0.803   0.119  11.319 -1.4405  0.3744  0.8581
 7144SOL     OW33064   2.479   2.341   3.612 -0.0894 -0.0261 -0.0875
 7144SOL    HW133065   2.458   2.397   3.537 -0.2235 -1.7988 -1.3772
 7144SOL    HW233066   2.387   2.320   3.629 -0.4364  0.2986 -1.4896
 7145SOL     OW33067   0.090   1.874   5.962  0.2867  0.3700  0.1893
 7145SOL    HW133068   0.068   1.945   6.021 -0.1310  0.4193 -0.0266
 7145SOL    HW233069   0.176   1.843   5.990 -0.2396 -1.1594  0.1030
 7146SOL     OW33070   2.131   1.206   6.696  0.1504 -0.2420  0.6786
 7146SOL    HW133071   2.089   1.265   6.758  0.7315 -0.8496  1.6610
 7146SOL    HW233072   2.143   1.264   6.621 -0.2588  0.9641  1.5443
 7147SOL     OW33073   1.642   3.641   5.132  0.1753 -0.0973 -0.4815
 7147SOL    HW133074   1.709   3.703   5.160 -0.4460  1.1428 -1.6963
 7147SOL    HW233075   1.563   3.690   5.156 -0.6636 -1.4898 -0.3750
 7148SOL     OW33076   2.932   0.313   7.760 -0.0647 -0.4599  0.0629
 7148SOL    HW133077   2.865   0.283   7.698  0.9076 -2.8110  0.1499
 7148SOL    HW233078   3.014   0.292   7.714 -0.1283 -0.7715  0.0987
 7149SOL     OW33079   1.355   3.390   5.390 -0.1563 -0.5349 -0.3323
 7149SOL    HW133080   1.363   3.425   5.301  1.9629  1.8060  0.7821
 7149SOL    HW233081   1.262   3.368   5.394  0.7635 -3.9320  1.7169
 7150SOL     OW33082   2.950   3.118  14.226  0.0296 -0.1411  0.3483
 7150SOL    HW133083   2.940   3.099  14.319 -1.9104 -1.2128 -0.0626
 7150SOL    HW233084   2.877   3.180  14.226 -0.2837 -0.5083  0.7499
 7151SOL     OW33085   4.253   2.849   0.986  0.0467 -0.0300 -0.3414
 7151SOL    HW133086   4.273   2.831   0.894 -2.2494 -0.1850 -0.8099
 7151SOL    HW233087   4.250   2.756   1.006  2.0654 -0.0928 -0.2928
 7152SOL     OW33088   0.136   0.959   5.061  0.5338  0.0725 -0.3228
 7152SOL    HW133089   0.137   0.866   5.083  0.6066  0.2739  0.5465
 7152SOL    HW233090   0.220   0.988   5.097 -1.3357  3.4463  1.3659
 7153SOL     OW33091   1.817   1.111   6.619  0.1567 -0.0802 -0.0118
 7153SOL    HW133092   1.784   1.068   6.540 -1.3592 -1.0509  1.1513
 7153SOL    HW233093   1.909   1.125   6.599  0.6186 -2.4884  0.4492
 7154SOL     OW33094   0.506   1.980   1.116  0.0548 -0.0497  0.3447
 7154SOL    HW133095   0.598   1.955   1.104  0.2991 -0.1879  2.4043
 7154SOL    HW233096   0.475   1.922   1.046  0.1732  2.6642 -1.9308
 7155SOL     OW33097   0.785   1.313   4.765  0.4838  0.2353  0.0453
 7155SOL    HW133098   0.843   1.366   4.710  1.3982  0.4794  1.2195
 7155SOL    HW233099   0.745   1.250   4.705  1.9494 -0.7312  0.0887
 7156SOL     OW33100   0.768   4.518   2.376  0.4967 -0.6438 -0.2117
 7156SOL    HW133101   0.781   4.609   2.348  0.7046 -0.6906 -0.2707
 7156SOL    HW233102   0.814   4.516   2.460 -0.1555  1.7261  0.2180
 7157SOL     OW33103   1.751   3.932   2.428  0.3384 -0.4268  1.0007
 7157SOL    HW133104   1.811   3.972   2.491  0.8994  1.5390 -0.7951
 7157SOL    HW233105   1.800   3.900   2.352  0.0170 -0.9488  1.0151
 7158SOL     OW33106   0.608   1.945   1.908  0.5081  0.1102  0.2046
 7158SOL    HW133107   0.570   1.992   1.834  0.4744  2.6602  1.8663
 7158SOL    HW233108   0.614   2.018   1.969 -0.6056 -1.0795  1.7535
 7159SOL     OW33109   1.567   0.480   7.370 -0.5105 -0.6362 -0.2421
 7159SOL    HW133110   1.571   0.400   7.423  1.4650 -0.0968  0.4161
 7159SOL    HW233111   1.659   0.507   7.369 -0.4835 -0.7522 -1.4180
 7160SOL     OW33112   4.135   1.752   3.999  0.1296 -0.2782  0.1721
 7160SOL    HW133113   4.226   1.762   4.026 -0.5849 -0.0580  2.4732
 7160SOL    HW233114   4.101   1.703   4.074 -1.9550  1.0473  0.1026
 7161SOL     OW33115   3.742   0.125   1.454  0.0424  0.0283 -0.1951
 7161SOL    HW133116   3.812   0.136   1.519 -1.1574  3.7613  0.4761
 7161SOL    HW233117   3.687   0.059   1.495  0.0472 -0.2346 -0.6118
 7162SOL     OW33118   0.869   2.526   1.200  0.4611  0.6346  0.3417
 7162SOL    HW133119   0.906   2.538   1.112  0.4883  1.2434  0.4321
 7162SOL    HW233120   0.869   2.431   1.194  0.2179  0.7459 -1.5429
 7163SOL     OW33121   4.471   1.497   1.693  0.1086  0.2674 -0.0766
 7163SOL    HW133122   4.509   1.583   1.673 -0.7684  0.6634 -0.0404
 7163SOL    HW233123   4.402   1.533   1.748  1.2252  1.2235  0.6883
 7164SOL     OW33124   0.477   0.789   9.351  0.0081 -0.1894 -0.0288
 7164SOL    HW133125   0.386   0.758   9.356 -0.2194  0.3641 -0.6247
 7164SOL    HW233126   0.514   0.718   9.403  2.0661  0.6199 -0.4013
 7165SOL     OW33127   2.406   1.501  15.942  0.0958  0.2719 -0.0082
 7165SOL    HW133128   2.346   1.546  15.882  1.0036  0.9059 -0.4433
 7165SOL    HW233129   2.471   1.480  15.875 -0.5264 -0.9461 -0.2370
 7166SOL     OW33130   2.165   2.204   2.600 -0.0644 -0.1257 -0.0610
 7166SOL    HW133131   2.205   2.128   2.641  0.2595 -0.4447 -0.9753
 7166SOL    HW233132   2.107   2.236   2.670 -1.4328 -0.0466 -1.2221
 7167SOL     OW33133   0.997   0.984   7.111  0.5497  0.1993 -0.5008
 7167SOL    HW133134   1.059   1.034   7.057  1.0645  1.7161  1.4827
 7167SOL    HW233135   1.056   0.952   7.180 -1.5231 -1.3381  0.5473
 7168SOL     OW33136   4.221   1.307  14.104  0.2311 -0.1406 -0.1240
 7168SOL    HW133137   4.254   1.342  14.022  1.3894 -0.5116  0.1898
 7168SOL    HW233138   4.230   1.216  14.074  0.4569 -0.0569 -0.3046
 7169SOL     OW33139   3.984   0.506   7.345  0.0416  0.5125  0.1183
 7169SOL    HW133140   4.033   0.567   7.290  4.1381 -0.3563  2.8090
 7169SOL    HW233141   4.050   0.437   7.347 -0.6262 -0.1763 -2.1005
 7170SOL     OW33142   4.583   4.476   2.479  0.1485 -0.5130 -0.0719
 7170SOL    HW133143   4.633   4.521   2.412  0.8734 -0.1435  0.7243
 7170SOL    HW233144   4.601   4.386   2.453  2.8501 -0.5714  2.0383
 7171SOL     OW33145   3.405   2.874   0.050 -0.4452 -0.4184  0.6630
 7171SOL    HW133146   3.450   2.850   0.131  0.6107 -0.5265  0.0557
 7171SOL    HW233147   3.382   2.964   0.073 -0.8373 -0.0061 -1.3055
 7172SOL     OW33148   2.504   0.053   1.348  0.2331 -0.2219 -0.2716
 7172SOL    HW133149   2.443   0.117   1.384  0.8748 -1.2776  2.6600
 7172SOL    HW233150   2.568   0.036   1.417 -0.1739 -1.5491 -0.2353
 7173SOL     OW33151   3.030   4.360  15.701  0.3802 -0.4923 -0.9396
 7173SOL    HW133152   3.090   4.431  15.680  0.4709 -0.0631  0.7923
 7173SOL    HW233153   3.004   4.316  15.620 -0.6992 -0.3727 -0.6628
 7174SOL     OW33154   2.117   2.695   4.371  0.1159 -0.0302  0.1936
 7174SOL    HW133155   2.101   2.789   4.364  0.1111 -0.0444  0.0097
 7174SOL    HW233156   2.209   2.697   4.345 -0.4530  1.3930 -1.7368
 7175SOL     OW33157   2.432   0.663  16.574 -0.1347 -0.1916 -0.2149
 7175SOL    HW133158   2.352   0.715  16.568  0.3775  0.3886 -2.1484
 7175SOL    HW233159   2.495   0.720  16.529 -1.9852  1.0712 -1.2050
 7176SOL     OW33160   2.579   3.718   0.614 -0.3507  0.4799  0.3756
 7176SOL    HW133161   2.643   3.659   0.654 -2.5800 -0.0506  3.1685
 7176SOL    HW233162   2.517   3.733   0.685 -1.4721 -1.2376 -0.2287
 7177SOL     OW33163   3.083   2.848   8.985 -0.5612 -0.2400 -1.1135
 7177SOL    HW133164   3.130   2.837   9.068  0.1675 -0.6625 -1.5788
 7177SOL    HW233165   3.105   2.939   8.963 -0.9650 -0.0312 -0.6576
 7178SOL     OW33166   1.491   2.379   3.805  0.6030 -0.0807  0.0661
 7178SOL    HW133167   1.483   2.462   3.852  1.1545  2.2097 -3.8802
 7178SOL    HW233168   1.512   2.408   3.716  2.2277  0.2622  0.5503
 7179SOL     OW33169   0.926   0.459  11.961 -0.2944  0.1636  0.0199
 7179SOL    HW133170   0.912   0.491  11.872 -0.7397  0.5397  0.2262
 7179SOL    HW233171   1.015   0.492  11.970  0.3839 -1.5942 -0.2993
 7180SOL     OW33172   4.266   1.464   2.868 -0.0021  0.1243 -0.1018
 7180SOL    HW133173   4.268   1.375   2.901 -0.6238  0.1096 -0.1091
 7180SOL    HW233174   4.322   1.466   2.790 -0.6414 -1.5756 -0.5864
 7181SOL     OW33175   1.088   0.504   3.033 -0.4271 -0.0966  0.2908
 7181SOL    HW133176   1.121   0.520   3.122 -1.1974 -0.0544  0.5779
 7181SOL    HW233177   1.145   0.555   2.976 -0.9146 -0.0418 -0.1414
 7182SOL     OW33178   1.407   3.641   0.498  0.0067  0.2749  0.3789
 7182SOL    HW133179   1.500   3.643   0.476 -0.2453  1.2014 -0.5734
 7182SOL    HW233180   1.383   3.565   0.445  1.5501  0.1617 -0.1438
 7183SOL     OW33181   3.056   4.115  13.627  0.7084  0.2601 -1.2067
 7183SOL    HW133182   3.115   4.060  13.574  1.5808  0.0058  0.0361
 7183SOL    HW233183   3.111   4.191  13.643 -1.4852  1.3791  0.9762
 7184SOL     OW33184   4.211   1.081   9.873 -0.0014  0.0468 -0.6961
 7184SOL    HW133185   4.208   0.991   9.904  0.9615  0.1664 -0.2695
 7184SOL    HW233186   4.213   1.066   9.779 -0.7158 -0.8486 -0.5688
 7185SOL     OW33187   3.063   0.713   9.390 -0.0399 -0.3413  0.4916
 7185SOL    HW133188   3.089   0.641   9.333 -0.8143  1.3050 -1.9536
 7185SOL    HW233189   2.985   0.680   9.434 -1.8935  3.8684  0.3388
 7186SOL     OW33190   0.634   0.269   5.228 -0.4862 -0.1811 -0.4503
 7186SOL    HW133191   0.657   0.214   5.303 -1.0286 -1.0483 -0.9281
 7186SOL    HW233192   0.542   0.248   5.213 -0.6794  0.3837 -0.0335
 7187SOL     OW33193   1.438   1.266   6.374 -0.1893 -0.2738 -0.3391
 7187SOL    HW133194   1.487   1.235   6.297  0.8401  0.0605  0.1729
 7187SOL    HW233195   1.501   1.334   6.399  1.2947 -1.8749  0.2955
 7188SOL     OW33196   1.133   2.832   6.327 -0.2321  0.3739 -0.7625
 7188SOL    HW133197   1.199   2.892   6.293  0.5819 -0.3541 -0.4718
 7188SOL    HW233198   1.060   2.859   6.272 -0.6959  2.7210  1.0410
 7189SOL     OW33199   3.598   1.232   4.906 -0.2432  0.5345 -0.1340
 7189SOL    HW133200   3.597   1.327   4.895 -2.0108  0.3479 -1.6075
 7189SOL    HW233201   3.516   1.207   4.949  0.9454  0.5833  2.2187
 7190SOL     OW33202   0.451   4.617   8.020  0.1826  0.5109  0.3668
 7190SOL    HW133203   0.442   4.575   8.106 -2.2382  0.9091  0.2940
 7190SOL    HW233204   0.363   4.607   7.986  1.1780  0.4116 -2.1615
 7191SOL     OW33205   1.221   0.029   5.194  0.5565  0.1791 -0.6526
 7191SOL    HW133206   1.233   0.094   5.125  1.2562  0.6221 -0.1156
 7191SOL    HW233207   1.237   4.685   5.145 -1.0846 -0.5368 -0.0218
 7192SOL     OW33208   0.568   0.112   3.584  0.5282 -0.5593  0.8566
 7192SOL    HW133209   0.473   0.102   3.583  0.7049 -1.6873 -2.1434
 7192SOL    HW233210   0.588   0.088   3.494 -2.5367  1.1477 -0.2748
 7193SOL     OW33211   1.285   1.231   5.079  0.2707  0.4292 -0.4772
 7193SOL    HW133212   1.271   1.284   5.001  1.6642  0.3927 -0.7496
 7193SOL    HW233213   1.202   1.249   5.123 -0.3263  0.7109 -1.7401
 7194SOL     OW33214   4.162   3.860   0.909 -0.0366 -0.2263 -0.3204
 7194SOL    HW133215   4.072   3.847   0.939  0.9227  1.2435  3.1595
 7194SOL    HW233216   4.150   3.941   0.858 -3.4003  0.9889  2.3786
 7195SOL     OW33217   4.312   2.528   6.473 -0.8721  0.4465  0.0294
 7195SOL    HW133218   4.384   2.508   6.413 -0.7806  1.0608 -0.0640
 7195SOL    HW233219   4.263   2.589   6.418  0.3595 -0.4853 -2.0938
 7196SOL     OW33220   1.462   3.066  16.439 -0.4149 -0.0736  0.0714
 7196SOL    HW133221   1.379   3.064  16.391  0.2884 -1.7739 -1.0873
 7196SOL    HW233222   1.436   3.106  16.521 -0.9560 -0.2748 -0.0009
 7197SOL     OW33223   2.997   2.259  11.712  0.1373 -0.5156  0.0246
 7197SOL    HW133224   2.933   2.214  11.657  0.2579 -1.0314  0.3059
 7197SOL    HW233225   2.948   2.271  11.794 -0.5636 -0.7761 -0.3562
 7198SOL     OW33226   1.866   0.260   1.628 -0.7308 -0.5073  0.2431
 7198SOL    HW133227   1.845   0.222   1.543  1.4464  0.5914 -0.7851
 7198SOL    HW233228   1.877   0.183   1.685 -0.3585  0.0092  0.8680
 7199SOL     OW33229   3.871   0.622   4.593 -0.4632  0.0653 -0.7724
 7199SOL    HW133230   3.887   0.568   4.516  1.6533  0.1392 -0.3981
 7199SOL    HW233231   3.913   0.569   4.661 -0.9196  0.0675 -0.4846
 7200SOL     OW33232   0.867   3.046  15.622  0.6394  0.7084  0.4602
 7200SOL    HW133233   0.832   3.135  15.628 -1.5388 -0.2540  2.0499
 7200SOL    HW233234   0.933   3.054  15.690 -2.3293  1.7526  3.2229
 7201SOL     OW33235   1.314   0.058   7.746 -0.0613  0.1651  0.3462
 7201SOL    HW133236   1.260   0.065   7.667 -0.5744  1.2205  0.7893
 7201SOL    HW233237   1.321   4.700   7.746  1.6822  0.2937  4.6756
 7202SOL     OW33238   3.379   0.812   7.315 -0.5230  0.0258  0.5287
 7202SOL    HW133239   3.431   0.884   7.350 -0.2487 -0.6300  1.4813
 7202SOL    HW233240   3.355   0.754   7.387 -0.4019 -1.6966 -0.8402
 7203SOL     OW33241   0.942   0.611   3.417 -0.1673  0.3950 -0.3177
 7203SOL    HW133242   0.887   0.581   3.490  0.4405  1.1337  0.4555
 7203SOL    HW233243   0.886   0.670   3.366  1.3024  1.3127 -0.8768
 7204SOL     OW33244   2.564   1.493   4.236 -0.1614  0.3622 -0.1951
 7204SOL    HW133245   2.650   1.513   4.273 -1.2382 -0.6589  2.8237
 7204SOL    HW233246   2.558   1.549   4.158  0.3000  0.2478 -0.3154
 7205SOL     OW33247   0.549   3.186   8.935 -0.0408  0.0908 -0.3174
 7205SOL    HW133248   0.549   3.214   9.026 -1.5531 -1.0469  0.0210
 7205SOL    HW233249   0.555   3.091   8.941  2.9516  0.3730  0.9979
 7206SOL     OW33250   2.186   2.799   5.037  0.7385  0.0822 -0.6883
 7206SOL    HW133251   2.240   2.822   4.962  0.8198 -0.3790 -0.7684
 7206SOL    HW233252   2.187   2.704   5.027  1.6903 -0.0510  0.7570
 7207SOL     OW33253   0.124   0.844   6.287 -0.5552 -0.4368 -0.1160
 7207SOL    HW133254   0.110   0.855   6.381 -0.5907 -1.4141 -0.0133
 7207SOL    HW233255   0.039   0.840   6.244 -1.0696 -1.5009  1.0021
 7208SOL     OW33256   3.626   3.994   2.503  0.5898  0.0486  0.6762
 7208SOL    HW133257   3.587   4.078   2.482  1.2448  0.5653  1.5279
 7208SOL    HW233258   3.630   3.994   2.599 -1.8588  0.5690  0.7730
 7209SOL     OW33259   0.055   4.088  12.855 -0.2454  0.0092  0.0079
 7209SOL    HW133260   0.017   4.025  12.794  3.2570 -2.8909  0.8629
 7209SOL    HW233261   0.053   4.045  12.940 -1.9365 -0.6194 -0.3482
 7210SOL     OW33262   3.312   1.897   9.266  0.0522  0.5482 -0.2104
 7210SOL    HW133263   3.264   1.839   9.207 -0.6972  0.9831 -0.0393
 7210SOL    HW233264   3.311   1.986   9.231 -1.4346  0.8255  0.5360
 7211SOL     OW33265   0.183   3.044   7.622  0.0947 -0.2314 -1.0142
 7211SOL    HW133266   0.275   3.067   7.633  0.2656 -2.2837  1.8898
 7211SOL    HW233267   0.160   3.114   7.561 -1.0030 -0.7806 -1.2175
 7212SOL     OW33268   1.089   0.712   6.048 -0.2442 -0.5796  0.2329
 7212SOL    HW133269   1.052   0.800   6.048  0.7066 -0.1731 -1.0287
 7212SOL    HW233270   1.101   0.683   5.957 -1.5257 -1.5492  0.3726
 7213SOL     OW33271   2.236   2.260  11.329 -0.2846  0.0400 -0.4460
 7213SOL    HW133272   2.315   2.298  11.368 -1.8339  0.9162  1.8400
 7213SOL    HW233273   2.181   2.337  11.341 -1.6384 -1.1592  1.1877
 7214SOL     OW33274   1.129   0.491   8.024  0.0621  0.3990 -0.1801
 7214SOL    HW133275   1.108   0.463   8.114  4.1727  0.7521  0.8713
 7214SOL    HW233276   1.221   0.510   8.044  0.5612 -0.4790 -1.6856
 7215SOL     OW33277   2.768   1.404   6.073  0.2017 -0.0847 -0.8759
 7215SOL    HW133278   2.696   1.463   6.095 -1.1232 -1.6501 -1.0019
 7215SOL    HW233279   2.809   1.392   6.159  2.5795 -0.3521 -2.0439
 7216SOL     OW33280   2.284   4.159   5.929 -0.4032 -0.0729  0.1570
 7216SOL    HW133281   2.360   4.120   5.974 -1.5675 -1.0433  1.2897
 7216SOL    HW233282   2.308   4.251   5.917 -0.1874  0.1084  2.0183
 7217SOL     OW33283   3.871   1.777   3.975 -0.2936  0.2960  0.0273
 7217SOL    HW133284   3.958   1.738   3.972 -0.0936  0.7161  0.2672
 7217SOL    HW233285   3.815   1.700   3.974 -1.2833  1.0296 -0.6186
 7218SOL     OW33286   0.791   3.602   6.877 -0.0984  0.4308  0.1946
 7218SOL    HW133287   0.801   3.681   6.824  0.8703  0.3180  0.2160
 7218SOL    HW233288   0.715   3.562   6.834  0.3997  1.1013 -1.2956
 7219SOL     OW33289   3.872   2.530   7.985 -0.0625  0.0655 -0.4205
 7219SOL    HW133290   3.859   2.620   7.956  0.2642  0.3272  0.2506
 7219SOL    HW233291   3.788   2.503   8.022 -0.6622  0.4435 -1.5237
 7220SOL     OW33292   1.288   0.744   7.187  0.4567 -0.2888 -0.0908
 7220SOL    HW133293   1.312   0.717   7.275  1.5498 -1.2168 -0.6818
 7220SOL    HW233294   1.373   0.741   7.145  1.0070  2.1934  0.8248
 7221SOL     OW33295   0.321   1.061  10.905 -0.0071 -0.0094 -0.4866
 7221SOL    HW133296   0.242   1.113  10.894  0.8459  0.8981 -2.2964
 7221SOL    HW233297   0.378   1.133  10.876 -1.3042  0.9584 -0.6544
 7222SOL     OW33298   2.615   4.603   7.208 -0.1889 -0.3763  0.3263
 7222SOL    HW133299   2.587   4.648   7.288  1.3072  1.2817 -0.0712
 7222SOL    HW233300   2.696   4.651   7.194 -0.8376  0.7469  0.3827
 7223SOL     OW33301   1.482   1.336  15.455 -0.3791 -0.3285  0.1091
 7223SOL    HW133302   1.563   1.294  15.485  0.3145  1.6856  1.0984
 7223SOL    HW233303   1.508   1.415  15.409  2.1552 -1.6119 -0.6560
 7224SOL     OW33304   0.111   1.316  16.226  0.9221  0.4110 -0.1002
 7224SOL    HW133305   0.033   1.269  16.195  2.6610 -0.8466 -2.5406
 7224SOL    HW233306   0.136   1.366  16.149 -2.1431 -2.1615 -2.7521
 7225SOL     OW33307   0.024   1.521  13.846  0.3121  0.6028 -0.3696
 7225SOL    HW133308   0.067   1.498  13.764 -1.3624 -0.6963 -0.8969
 7225SOL    HW233309   0.072   1.590  13.892 -0.6581 -0.8368  2.8022
 7226SOL     OW33310   1.089   0.419   3.874 -0.4500 -0.2809  0.7809
 7226SOL    HW133311   1.183   0.411   3.892 -0.2514 -0.1201 -0.1758
 7226SOL    HW233312   1.069   0.339   3.827 -0.1068 -0.8854  1.6578
 7227SOL     OW33313   2.207   3.247   7.340  0.3908  0.2637  0.1230
 7227SOL    HW133314   2.156   3.175   7.301 -1.1140  1.7890 -0.7137
 7227SOL    HW233315   2.206   3.303   7.262  1.9273 -1.9116 -1.4930
 7228SOL     OW33316   1.634   3.221   3.476  0.0124  0.7035  0.0624
 7228SOL    HW133317   1.663   3.312   3.469 -2.9471  1.7954  1.5150
 7228SOL    HW233318   1.539   3.227   3.467 -0.1648 -0.5644  1.0609
 7229SOL     OW33319   1.650   3.667   0.345 -0.1991 -0.3951  0.2096
 7229SOL    HW133320   1.658   3.628   0.258  0.9908 -0.3932  0.3175
 7229SOL    HW233321   1.644   3.760   0.321  0.7534  0.1276  1.9715
 7230SOL     OW33322   2.544   0.757   8.941  0.3112 -0.0105 -0.3360
 7230SOL    HW133323   2.620   0.708   8.909  1.3316  2.4794 -1.7250
 7230SOL    HW233324   2.586   0.798   9.017 -1.4305 -2.4291  1.9102
 7231SOL     OW33325   2.241   3.565   3.841  0.0694 -0.2006 -0.1748
 7231SOL    HW133326   2.201   3.626   3.903  0.9204 -1.3367  1.4920
 7231SOL    HW233327   2.330   3.597   3.829 -0.7309  1.5811 -1.4195
 7232SOL     OW33328   2.502   1.853   7.150  0.0118 -0.0845  0.0832
 7232SOL    HW133329   2.529   1.924   7.091  0.2616 -0.7324 -0.5721
 7232SOL    HW233330   2.573   1.858   7.214 -0.2733 -1.6826  0.5188
 7233SOL     OW33331   1.864   0.494   9.774  0.0566 -0.0912 -0.5925
 7233SOL    HW133332   1.837   0.438   9.847  0.2200  1.6187  0.7713
 7233SOL    HW233333   1.792   0.485   9.712  0.0079  2.8490 -0.9820
 7234SOL     OW33334   4.424   2.111  11.021  0.0301 -0.2187 -0.0020
 7234SOL    HW133335   4.455   2.025  11.050  1.9687  0.4864 -0.0258
 7234SOL    HW233336   4.403   2.163  11.099 -0.1687 -1.2469  0.6389
 7235SOL     OW33337   1.206   3.482  15.449  0.3096  0.4554  0.1397
 7235SOL    HW133338   1.158   3.546  15.501  1.0011  2.1721 -1.3288
 7235SOL    HW233339   1.176   3.401  15.490 -2.6385 -0.1168 -3.0899
 7236SOL     OW33340   1.696   4.613   2.484  0.1338  0.1615 -0.0296
 7236SOL    HW133341   1.663   4.675   2.549  1.3860  1.0583 -0.2555
 7236SOL    HW233342   1.773   4.582   2.532 -1.4578 -3.3188  0.2903
 7237SOL     OW33343   0.167   0.745   8.889  0.1208  1.0471  0.4482
 7237SOL    HW133344   0.076   0.735   8.917 -0.4231 -0.8626 -2.0584
 7237SOL    HW233345   0.157   0.720   8.797  0.5367 -1.4038  1.0865
 7238SOL     OW33346   2.932   3.358   2.727  0.2925  0.1960  0.4749
 7238SOL    HW133347   2.839   3.356   2.750  0.2281 -1.7867  0.0324
 7238SOL    HW233348   2.978   3.318   2.801 -0.8462 -0.8273  0.6302
 7239SOL     OW33349   3.656   3.117  12.931  0.3803  0.0625 -0.2997
 7239SOL    HW133350   3.647   3.155  12.844 -0.0121  0.6632  0.0079
 7239SOL    HW233351   3.734   3.062  12.927 -1.0506 -1.9248 -1.4214
 7240SOL     OW33352   1.526   4.319   2.288 -0.1765  0.4885 -0.2849
 7240SOL    HW133353   1.468   4.382   2.245 -1.4875 -1.1983 -0.9914
 7240SOL    HW233354   1.464   4.246   2.288  0.8169 -0.3627 -1.4318
 7241SOL     OW33355   2.872   1.144   8.509  0.2843  0.2994 -0.1863
 7241SOL    HW133356   2.960   1.113   8.492  0.8950  0.8305  2.0171
 7241SOL    HW233357   2.882   1.218   8.569  0.5221 -0.5407  0.8074
 7242SOL     OW33358   0.545   3.073   7.382 -0.4111 -0.4797 -0.6511
 7242SOL    HW133359   0.554   3.160   7.421  0.0182  0.0349 -1.8995
 7242SOL    HW233360   0.514   3.022   7.457  2.8476 -0.7870  0.4871
 7243SOL     OW33361   0.383   3.134   7.907 -0.1556 -0.0219 -0.5141
 7243SOL    HW133362   0.293   3.168   7.898 -0.8231 -1.0973  1.9668
 7243SOL    HW233363   0.372   3.062   7.969  0.1681  1.0874  0.8505
 7244SOL     OW33364   2.765   4.434   0.442  0.1463 -0.0020 -0.3115
 7244SOL    HW133365   2.773   4.406   0.534 -1.9114  0.0175 -0.1412
 7244SOL    HW233366   2.790   4.348   0.407  1.0713 -0.5723  1.6894
 7245SOL     OW33367   1.499   1.839   0.601 -0.3322 -0.3445  0.3197
 7245SOL    HW133368   1.425   1.872   0.651 -1.4012 -0.5507 -1.1135
 7245SOL    HW233369   1.467   1.852   0.512  0.6657  0.5089  0.1000
 7246SOL     OW33370   1.888   3.404   7.743  0.4512  0.4127  0.3045
 7246SOL    HW133371   1.912   3.478   7.799 -2.8564  2.3701 -0.8752
 7246SOL    HW233372   1.961   3.365   7.695 -0.3930  0.7387 -1.2615
 7247SOL     OW33373   1.583   2.351   9.836 -0.2932  0.4108 -0.5432
 7247SOL    HW133374   1.664   2.385   9.874  0.7546 -1.0876 -1.4696
 7247SOL    HW233375   1.537   2.428   9.802 -1.2365  0.4309  0.7819
 7248SOL     OW33376   4.147   0.852   3.833 -0.2448  0.0220 -0.4804
 7248SOL    HW133377   4.238   0.881   3.830 -0.3529  0.0424 -3.9783
 7248SOL    HW233378   4.145   0.786   3.903  2.7480 -1.5679 -1.8857
 7249SOL     OW33379   0.706   4.643  13.257 -0.0743 -0.4616 -0.1590
 7249SOL    HW133380   0.729   4.730  13.288 -0.5535 -0.2254 -0.4550
 7249SOL    HW233381   0.690   4.608  13.344 -0.6350  0.5276  0.1392
 7250SOL     OW33382   2.620   1.815   5.091 -0.0734  0.1511  0.3918
 7250SOL    HW133383   2.559   1.887   5.107  1.6437  1.4887  0.8084
 7250SOL    HW233384   2.561   1.752   5.048 -0.5590 -0.2064  1.5875
 7251SOL     OW33385   0.940   1.963  12.372  0.2410  0.1263  0.4728
 7251SOL    HW133386   0.878   1.980  12.300 -0.1302  1.2710  1.0631
 7251SOL    HW233387   1.014   2.011  12.335  0.9630 -1.3617 -0.0195
 7252SOL     OW33388   4.238   2.893  13.550  0.5822 -0.5170  0.1655
 7252SOL    HW133389   4.258   2.870  13.641  2.1573  0.6630  0.1225
 7252SOL    HW233390   4.215   2.986  13.547 -2.6013 -1.2786  1.3121
 7253SOL     OW33391   2.365   0.929  15.531 -0.7140  0.0636  0.1854
 7253SOL    HW133392   2.302   0.878  15.480  0.9464  1.3494 -3.1720
 7253SOL    HW233393   2.312   0.967  15.600 -1.4553  0.2830 -0.5053
 7254SOL     OW33394   1.014   2.878   2.592 -0.0746 -0.7404 -0.1782
 7254SOL    HW133395   0.985   2.798   2.549 -1.4631 -1.0133  1.2897
 7254SOL    HW233396   1.052   2.846   2.674  1.1706 -0.6278 -0.7075
 7255SOL     OW33397   0.259   1.501   9.170 -0.1072  0.1227  0.4675
 7255SOL    HW133398   0.274   1.537   9.258 -1.8556  0.5392  0.5907
 7255SOL    HW233399   0.325   1.432   9.172 -0.1236  0.1082  0.5099
 7256SOL     OW33400   0.623   4.403  16.541 -0.1807 -0.4777 -0.4407
 7256SOL    HW133401   0.603   4.405  16.447  2.7731 -1.0635 -1.0710
 7256SOL    HW233402   0.691   4.336  16.537  0.3943  0.1107 -0.3270
 7257SOL     OW33403   0.380   0.208   5.219 -0.2992  0.0553 -0.0902
 7257SOL    HW133404   0.300   0.249   5.254 -0.6457 -0.6664 -0.0402
 7257SOL    HW233405   0.362   0.226   5.127  0.3553 -1.0436 -0.4265
 7258SOL     OW33406   0.471   4.143   0.667 -0.3624  0.5944  0.7307
 7258SOL    HW133407   0.466   4.112   0.576 -1.3237 -2.3379  1.8090
 7258SOL    HW233408   0.377   4.154   0.674 -0.7357 -1.8169 -0.5044
 7259SOL     OW33409   1.803   4.499   8.362  0.0400  0.0448 -0.5974
 7259SOL    HW133410   1.707   4.494   8.364  0.0015  0.9617 -0.0130
 7259SOL    HW233411   1.807   4.585   8.320 -3.2419  0.8951  0.7892
 7260SOL     OW33412   1.777   1.353   0.982 -0.0696 -0.1360  0.5005
 7260SOL    HW133413   1.794   1.338   0.889 -1.1036  0.1051  0.2686
 7260SOL    HW233414   1.683   1.371   0.981 -0.1057 -0.3647  0.0170
 7261SOL     OW33415   1.326   2.723   4.312  0.0303  0.0922  0.4365
 7261SOL    HW133416   1.249   2.668   4.303  0.1448 -0.1496  0.9388
 7261SOL    HW233417   1.375   2.676   4.380  1.6563 -1.0328 -1.5053
 7262SOL     OW33418   1.797   1.124   1.189 -0.2675  0.1050 -0.0148
 7262SOL    HW133419   1.870   1.158   1.242 -0.5028 -0.5801  0.7403
 7262SOL    HW233420   1.777   1.203   1.140  1.4262  1.2094  1.0473
 7263SOL     OW33421   1.963   0.256   2.183 -0.1003 -0.1303  0.9534
 7263SOL    HW133422   1.974   0.334   2.128 -0.0557 -1.2342 -0.5771
 7263SOL    HW233423   1.870   0.265   2.203 -0.3672 -0.3258 -0.1901
 7264SOL     OW33424   0.578   2.905   1.602 -0.0716 -0.1281  0.0105
 7264SOL    HW133425   0.568   2.842   1.531 -0.7470  1.5748 -1.3854
 7264SOL    HW233426   0.514   2.971   1.578 -1.7396 -1.7661 -0.0570
 7265SOL     OW33427   2.875   2.868   6.027 -0.3572  0.7243  0.3349
 7265SOL    HW133428   2.877   2.912   5.941  1.5530  0.9496  0.5137
 7265SOL    HW233429   2.916   2.934   6.083  0.0940  1.9452 -1.4155
 7266SOL     OW33430   3.438   0.498  15.059 -0.2979  0.0096 -0.2904
 7266SOL    HW133431   3.370   0.447  15.103  0.1011 -1.5726 -1.5022
 7266SOL    HW233432   3.414   0.590  15.071 -0.8524 -0.2296  0.4084
 7267SOL     OW33433   3.200   3.701  16.519  0.3066  0.0604 -0.0355
 7267SOL    HW133434   3.295   3.689  16.526 -0.0598 -2.0000  1.1217
 7267SOL    HW233435   3.197   3.705  16.423 -0.4021 -1.0448 -0.0502
 7268SOL     OW33436   1.771   0.435   3.432  0.6449 -0.2175  1.1186
 7268SOL    HW133437   1.826   0.357   3.436  0.0239 -0.5941  2.4992
 7268SOL    HW233438   1.691   0.406   3.477 -0.5955  0.1733 -0.8641
 7269SOL     OW33439   2.912   3.660   1.380  0.1431  0.2438  0.3488
 7269SOL    HW133440   2.858   3.591   1.342  1.4285 -0.5441 -0.0316
 7269SOL    HW233441   2.983   3.598   1.397 -0.7276 -0.9269 -0.2325
 7270SOL     OW33442   3.691   0.867   5.463 -0.5431 -0.1678  0.3177
 7270SOL    HW133443   3.660   0.953   5.493  3.0218  1.2718 -0.0387
 7270SOL    HW233444   3.762   0.894   5.404 -0.9424  3.1861  1.3743
 7271SOL     OW33445   2.005   0.662   6.783  0.0588 -0.0369  0.2600
 7271SOL    HW133446   2.090   0.638   6.747 -0.3020 -1.4910  0.3782
 7271SOL    HW233447   2.040   0.744   6.818  0.3326 -0.2820  0.5678
 7272SOL     OW33448   1.322   2.090  15.353 -0.6191 -0.2192  0.4758
 7272SOL    HW133449   1.378   2.065  15.280 -0.4209 -2.3314  1.3615
 7272SOL    HW233450   1.238   2.100  15.308  0.7503 -0.0248 -2.0244
 7273SOL     OW33451   1.461   4.171   2.857  0.0492  0.2507 -0.2950
 7273SOL    HW133452   1.461   4.081   2.890  0.7755 -0.2718 -1.7138
 7273SOL    HW233453   1.412   4.212   2.928 -2.9286  0.4268 -2.4165
 7274SOL     OW33454   1.226   1.244   4.097  0.1315  0.1987  0.1198
 7274SOL    HW133455   1.244   1.207   4.183  1.2721 -2.0010 -1.0536
 7274SOL    HW233456   1.311   1.240   4.053 -0.8975  0.6230 -1.9574
 7275SOL     OW33457   1.289   2.318   6.593 -0.6983 -0.2240 -0.0315
 7275SOL    HW133458   1.267   2.289   6.504 -1.8593 -0.6359  0.3851
 7275SOL    HW233459   1.382   2.307   6.577 -0.3642  0.0014  1.8160
 7276SOL     OW33460   2.497   0.510   3.881 -0.2534  0.4183  0.3438
 7276SOL    HW133461   2.580   0.470   3.910  0.3230  1.0752 -0.4146
 7276SOL    HW233462   2.543   0.572   3.825 -1.3492  0.8782 -0.0327
 7277SOL     OW33463   1.459   2.611   3.954  0.3944  0.2007  0.2486
 7277SOL    HW133464   1.534   2.629   4.011  2.0705 -0.9589 -1.5970
 7277SOL    HW233465   1.424   2.700   3.950 -4.5838 -1.6635  2.1247
 7278SOL     OW33466   1.577   3.212   8.835 -0.1094 -0.4069 -0.4309
 7278SOL    HW133467   1.510   3.225   8.902 -0.7849  0.6362 -1.2998
 7278SOL    HW233468   1.651   3.174   8.882  0.2989 -0.6739 -1.2851
 7279SOL     OW33469   2.593   1.155   7.820  0.4922 -0.3547  0.0171
 7279SOL    HW133470   2.610   1.081   7.878  0.5156 -1.2322 -1.1075
 7279SOL    HW233471   2.528   1.117   7.762 -0.9575  1.2583  0.5941
 7280SOL     OW33472   0.294   2.843   7.382  0.0154 -0.4622 -0.2362
 7280SOL    HW133473   0.282   2.754   7.416 -0.5550 -0.6309 -0.8966
 7280SOL    HW233474   0.289   2.898   7.460  1.8223 -0.9012  0.2057
 7281SOL     OW33475   2.693   0.282   3.337 -0.7733  0.2242 -0.0215
 7281SOL    HW133476   2.607   0.244   3.320 -1.1634  0.5305  1.2719
 7281SOL    HW233477   2.686   0.337   3.415  2.7937  1.4250 -0.5782
 7282SOL     OW33478   2.192   3.274  14.001 -0.2419  0.2257  0.7841
 7282SOL    HW133479   2.170   3.312  13.916 -3.2528 -1.3469  0.8397
 7282SOL    HW233480   2.271   3.224  13.978  0.3146  1.4731 -0.0110
 7283SOL     OW33481   4.436   4.469   3.338 -0.0829  1.1334 -0.1329
 7283SOL    HW133482   4.418   4.426   3.422 -1.6127 -2.2042 -2.1927
 7283SOL    HW233483   4.504   4.406   3.313 -0.8061 -0.5227  2.0492
 7284SOL     OW33484   1.036   2.521   1.452  0.1595 -0.4564 -0.3151
 7284SOL    HW133485   0.999   2.438   1.485 -1.1541  0.8972  1.6845
 7284SOL    HW233486   0.979   2.541   1.378  0.3675  2.5431  0.3303
 7285SOL     OW33487   0.368   0.616   7.818  0.4489 -0.2887  0.5482
 7285SOL    HW133488   0.420   0.591   7.741 -1.4227 -1.1207 -0.4584
 7285SOL    HW233489   0.314   0.690   7.789 -1.6425 -1.6109  1.0095
 7286SOL     OW33490   2.006   3.104   1.958 -0.1689 -0.6209 -0.0960
 7286SOL    HW133491   1.940   3.147   2.012 -0.6525 -1.1380 -0.2643
 7286SOL    HW233492   1.992   3.165   1.885  0.4329 -1.2462 -0.7364
 7287SOL     OW33493   0.267   2.738   3.447 -0.5719 -0.6711  0.0985
 7287SOL    HW133494   0.346   2.685   3.458  0.8123  0.6011 -3.7337
 7287SOL    HW233495   0.218   2.665   3.408  0.1393 -1.4379  0.6479
 7288SOL     OW33496   3.126   1.749   1.257  0.6753 -0.5372 -0.0968
 7288SOL    HW133497   3.151   1.705   1.339  0.2315 -1.4533 -0.4505
 7288SOL    HW233498   3.102   1.838   1.280 -1.9422 -0.3510 -3.5441
 7289SOL     OW33499   1.977   1.688   3.339 -0.1998  0.9134  0.2009
 7289SOL    HW133500   1.885   1.665   3.329 -0.1784 -0.1592  2.3542
 7289SOL    HW233501   2.012   1.668   3.253  0.1206 -0.1139  0.5755
 7290SOL     OW33502   1.190   0.459   4.370 -0.2575 -0.3983  0.1036
 7290SOL    HW133503   1.194   0.469   4.465  1.9402 -0.7535  0.0639
 7290SOL    HW233504   1.160   0.371   4.348  0.3932 -0.8359  0.9526
 7291SOL     OW33505   2.531   1.892   8.985 -0.0280 -0.8155 -0.1472
 7291SOL    HW133506   2.599   1.946   8.944  0.0587 -0.5152  0.3844
 7291SOL    HW233507   2.578   1.824   9.033  0.4697 -2.6648 -3.3137
 7292SOL     OW33508   2.661   4.503   9.269  0.4625  0.2167  0.5919
 7292SOL    HW133509   2.680   4.586   9.227  1.4533 -0.2339  0.1408
 7292SOL    HW233510   2.618   4.523   9.353 -2.0790  1.9383 -1.1166
 7293SOL     OW33511   0.198   1.796   7.534  0.1684 -0.5412 -0.0126
 7293SOL    HW133512   0.231   1.711   7.564 -1.8281 -1.5705 -0.7634
 7293SOL    HW233513   0.114   1.766   7.501 -0.5111  1.3590 -0.0267
 7294SOL     OW33514   0.309   2.788   2.040  0.9472 -0.4538  0.1049
 7294SOL    HW133515   0.228   2.837   2.056  0.9743  0.0953 -1.4039
 7294SOL    HW233516   0.377   2.855   2.044  1.0244 -0.5956  1.2106
 7295SOL     OW33517   2.770   2.139   4.416  1.0014 -0.5059 -0.5468
 7295SOL    HW133518   2.799   2.133   4.507  0.0783  0.8057 -0.1553
 7295SOL    HW233519   2.681   2.164   4.439  1.1783  2.0262 -2.6783
 7296SOL     OW33520   1.726   1.954   5.871 -0.0384 -0.0776 -0.1630
 7296SOL    HW133521   1.820   1.972   5.867  0.1665 -0.5898  2.3701
 7296SOL    HW233522   1.701   1.974   5.781 -2.3600 -0.0951  0.4622
 7297SOL     OW33523   0.274   2.187   4.856  0.3125 -0.1275 -0.3073
 7297SOL    HW133524   0.341   2.236   4.809  0.1593 -0.2510 -0.6621
 7297SOL    HW233525   0.319   2.103   4.867  0.2722  0.1144  1.6295
 7298SOL     OW33526   0.502   0.277   4.771 -0.1822 -0.0478 -0.5659
 7298SOL    HW133527   0.590   0.238   4.772  0.4676  1.3949 -0.7833
 7298SOL    HW233528   0.512   0.342   4.700  0.2954  0.9251  0.3919
 7299SOL     OW33529   4.609   1.702   3.286  0.5124  0.9062  0.2805
 7299SOL    HW133530   4.529   1.691   3.336  0.2100  1.6013 -0.0577
 7299SOL    HW233531   4.581   1.678   3.197  1.9927 -0.6623  0.2198
 7300SOL     OW33532   3.437   3.494   1.576 -0.2391 -0.1195 -0.0907
 7300SOL    HW133533   3.348   3.506   1.541 -0.4900 -0.4002  0.4338
 7300SOL    HW233534   3.425   3.422   1.638 -3.5012 -1.6338 -2.4440
 7301SOL     OW33535   3.275   1.350  10.829 -0.1000 -0.3493 -0.5475
 7301SOL    HW133536   3.287   1.258  10.850  1.0284  0.2430  1.4168
 7301SOL    HW233537   3.358   1.378  10.868 -0.6853 -0.3965  0.7455
 7302SOL     OW33538   0.462   0.678   6.471 -0.5008 -0.0984  0.6053
 7302SOL    HW133539   0.487   0.686   6.563 -0.9208  0.1584  0.7010
 7302SOL    HW233540   0.427   0.590   6.459  0.8463 -0.5289 -0.2532
 7303SOL     OW33541   3.713   4.123  17.230  0.4843 -0.1175 -0.3059
 7303SOL    HW133542   3.671   4.134  17.316  0.3841 -1.8450 -0.1285
 7303SOL    HW233543   3.645   4.145  17.167  0.1237  0.3826  0.2611
 7304SOL     OW33544   0.410   3.806   5.072 -0.8215 -1.0072 -0.0807
 7304SOL    HW133545   0.445   3.882   5.026  1.8744 -1.3027  1.4632
 7304SOL    HW233546   0.484   3.779   5.127 -0.8442 -0.7354  0.0844
 7305SOL     OW33547   1.891   4.041   5.466  0.1790 -0.0207  0.4315
 7305SOL    HW133548   1.933   4.113   5.513  3.4352 -1.1868 -0.6562
 7305SOL    HW233549   1.809   4.088   5.451 -0.8484 -2.4176 -1.6129
 7306SOL     OW33550   4.611   0.869  16.465  0.2732  0.7314 -0.2337
 7306SOL    HW133551   4.684   0.829  16.418 -1.1579 -1.0419 -0.9659
 7306SOL    HW233552   4.543   0.802  16.476  1.0537 -0.4428 -2.4325
 7307SOL     OW33553   2.791   0.617   1.564 -0.5883 -0.3201  0.6314
 7307SOL    HW133554   2.712   0.653   1.525 -0.5812  1.7308  2.5189
 7307SOL    HW233555   2.777   0.522   1.563 -0.7365 -0.2430 -2.7015
 7308SOL     OW33556   1.597   4.703   2.232  0.2549 -0.3765  0.2396
 7308SOL    HW133557   1.669   0.011   2.189  0.8528 -0.5238  1.0701
 7308SOL    HW233558   1.633   4.670   2.315  0.8334  0.3095  0.2617
 7309SOL     OW33559   3.189   3.839   3.258  0.2189 -0.4119 -0.1477
 7309SOL    HW133560   3.127   3.768   3.242  0.8473 -1.4168  1.9059
 7309SOL    HW233561   3.271   3.800   3.228  0.3462  0.2219 -0.6459
 7310SOL     OW33562   1.915   3.614   4.033 -0.1912 -0.1464  0.0826
 7310SOL    HW133563   1.982   3.651   3.975  0.1728 -0.3057  0.3956
 7310SOL    HW233564   1.927   3.668   4.112 -0.2139  1.6526 -1.1343
 7311SOL     OW33565   1.896   0.239   4.539 -0.3392 -0.1460  0.0810
 7311SOL    HW133566   1.974   0.260   4.487 -0.0470  1.4370  1.1474
 7311SOL    HW233567   1.912   0.154   4.581 -1.5267 -0.0988  0.6301
 7312SOL     OW33568   2.459   0.021   4.753  0.1499 -0.7326 -0.2995
 7312SOL    HW133569   2.413   0.061   4.827  1.2015  0.2284 -0.1727
 7312SOL    HW233570   2.394   0.040   4.685 -0.2472 -0.9214  0.0273
 7313SOL     OW33571   2.335   0.072   2.171 -0.1322  0.0928  0.1381
 7313SOL    HW133572   2.259   0.015   2.170 -1.2441  1.5868  0.1543
 7313SOL    HW233573   2.324   0.105   2.082 -1.9426 -1.4628 -0.2033
 7314SOL     OW33574   4.552   1.282   6.812  0.5995 -0.2985 -0.0853
 7314SOL    HW133575   4.639   1.261   6.777 -0.8110 -2.0141 -2.6032
 7314SOL    HW233576   4.489   1.213   6.790 -0.7663  1.3990 -1.5136
 7315SOL     OW33577   0.695   2.368   6.930  0.1443  0.0625  0.3036
 7315SOL    HW133578   0.692   2.444   6.988 -1.0532 -1.2161  1.9091
 7315SOL    HW233579   0.717   2.410   6.847 -1.2500 -0.2865 -0.2418
 7316SOL     OW33580   2.322   0.431   1.830 -0.0082  0.1763  0.2755
 7316SOL    HW133581   2.373   0.452   1.751 -0.1119  1.1114  0.4480
 7316SOL    HW233582   2.233   0.442   1.796  0.1417  1.2488  0.2131
 7317SOL     OW33583   3.325   4.533   4.814 -0.3918 -0.4919  0.5684
 7317SOL    HW133584   3.368   4.574   4.889  0.3044  0.4872 -0.3671
 7317SOL    HW233585   3.235   4.566   4.824 -0.4344  0.0731 -1.7242
 7318SOL     OW33586   0.734   0.988   7.582  0.3576  0.1017  0.6104
 7318SOL    HW133587   0.814   0.941   7.603  0.9579  0.6294 -0.4876
 7318SOL    HW233588   0.676   0.932   7.634 -0.7993 -0.3066 -1.1219
 7319SOL     OW33589   1.331   0.370   7.169 -0.1265 -0.3314  0.0746
 7319SOL    HW133590   1.411   0.318   7.161  0.4742  0.5034  0.6989
 7319SOL    HW233591   1.317   0.368   7.263  0.0995 -1.2232  0.0881
 7320SOL     OW33592   4.142   3.436   3.811 -0.5779 -0.2921 -0.3755
 7320SOL    HW133593   4.165   3.501   3.745  2.6059  1.5882  2.5826
 7320SOL    HW233594   4.229   3.401   3.831  0.0127  2.0690  1.2823
 7321SOL     OW33595   1.954   1.767   7.922 -0.1355  0.5424  0.4457
 7321SOL    HW133596   1.887   1.745   7.987 -2.7587  1.8706 -1.7710
 7321SOL    HW233597   2.026   1.738   7.978  0.7975  2.0953  0.0466
 7322SOL     OW33598   1.966   0.037   5.885 -0.2998  0.2143 -0.1553
 7322SOL    HW133599   1.968   4.682   5.908  1.7489  0.5987  1.1480
 7322SOL    HW233600   1.872   0.056   5.882 -0.1361  1.3445  1.2790
 7323SOL     OW33601   0.983   4.184   6.845  0.1375 -0.2235  0.0519
 7323SOL    HW133602   0.916   4.115   6.840  0.3374 -0.4136  0.0007
 7323SOL    HW233603   1.025   4.155   6.925  2.1550 -0.1090 -0.9639
 7324SOL     OW33604   2.209   3.199   8.491 -0.0502  0.4705  0.1759
 7324SOL    HW133605   2.167   3.282   8.469 -0.8172 -0.5086 -2.0876
 7324SOL    HW233606   2.209   3.146   8.411  3.3780  0.6570  0.0334
 7325SOL     OW33607   0.952   3.224   9.279  0.4548  0.1448 -0.6890
 7325SOL    HW133608   0.900   3.292   9.323  0.3011  0.4965 -1.4061
 7325SOL    HW233609   0.925   3.148   9.330 -0.0057  0.0839 -1.0173
 7326SOL     OW33610   3.187   2.628   6.429 -0.2705 -0.0744 -0.4429
 7326SOL    HW133611   3.175   2.692   6.499  0.5313  0.4924 -0.8221
 7326SOL    HW233612   3.164   2.548   6.478  1.2894  0.3819  1.0350
 7327SOL     OW33613   4.614   3.938   4.608  0.3166 -0.0440 -0.3122
 7327SOL    HW133614   4.524   3.943   4.641  0.6998  1.0506  0.5837
 7327SOL    HW233615   4.603   3.975   4.520  1.4399 -1.9758 -1.2591
 7328SOL     OW33616   1.301   4.576   7.348 -0.5137  0.6529  0.9337
 7328SOL    HW133617   1.287   4.530   7.266  0.9082  1.1532  0.4027
 7328SOL    HW233618   1.284   4.503   7.409 -0.4124 -1.0826 -1.1367
 7329SOL     OW33619   4.639   1.414   3.108 -0.5929  0.7818  0.6216
 7329SOL    HW133620   4.613   1.396   3.198  0.5671 -0.4109  0.7137
 7329SOL    HW233621   4.734   1.406   3.108 -0.7452 -1.0532 -0.3775
 7330SOL     OW33622   3.468   1.698   7.288  0.0314  0.1372  0.0950
 7330SOL    HW133623   3.487   1.792   7.279 -0.4932  0.1807 -0.5638
 7330SOL    HW233624   3.379   1.681   7.257  0.3685 -0.5646 -0.4732
 7331SOL     OW33625   0.299   1.803   2.100 -0.1254 -0.3898 -0.4200
 7331SOL    HW133626   0.382   1.765   2.130  1.4052  0.3174 -3.7254
 7331SOL    HW233627   0.331   1.893   2.090 -2.4293  0.3488 -1.2700
 7332SOL     OW33628   3.147   0.389   7.595  0.1961  0.1670  0.5384
 7332SOL    HW133629   3.117   0.415   7.508  1.3276 -0.4115 -0.0235
 7332SOL    HW233630   3.238   0.367   7.577 -0.2516  0.0913 -1.6203
 7333SOL     OW33631   4.448   1.101   1.406 -0.1216  0.2010  0.8454
 7333SOL    HW133632   4.433   1.148   1.488  1.0566  0.0827  1.1283
 7333SOL    HW233633   4.389   1.152   1.350  0.9477  2.4834  1.7748
 7334SOL     OW33634   1.736   3.756   7.189  0.6360 -0.4334 -0.1828
 7334SOL    HW133635   1.789   3.737   7.112 -1.0676 -1.2783 -1.1302
 7334SOL    HW233636   1.669   3.813   7.152  1.1307  0.2653 -0.0118
 7335SOL     OW33637   3.519   4.001  14.325 -0.3573  0.2189  0.9599
 7335SOL    HW133638   3.473   3.928  14.283 -1.2941  0.4132  1.6403
 7335SOL    HW233639   3.592   4.002  14.264 -1.2358  0.8198 -0.0795
 7336SOL     OW33640   0.933   3.709   8.203 -0.2866 -0.0541 -0.1051
 7336SOL    HW133641   0.917   3.787   8.149  3.0967  0.8478  0.1839
 7336SOL    HW233642   0.850   3.695   8.250  0.1668 -1.0003  0.4098
 7337SOL     OW33643   4.619   1.309  15.521  0.0217  0.3482  0.2536
 7337SOL    HW133644   4.649   1.339  15.435 -1.0223 -0.6412 -0.4701
 7337SOL    HW233645   4.628   1.388  15.573  0.7198  0.2270  0.3180
 7338SOL     OW33646   3.875   4.403   4.014 -0.2363 -0.4237 -0.0829
 7338SOL    HW133647   3.842   4.492   4.013 -0.4005 -0.4727  1.2600
 7338SOL    HW233648   3.848   4.375   3.926  0.4770 -2.3641  0.2983
 7339SOL     OW33649   1.843   4.005  16.997  0.1905 -0.1805  0.0669
 7339SOL    HW133650   1.856   3.914  16.970 -0.6680 -0.6220  1.1838
 7339SOL    HW233651   1.929   4.042  16.978 -0.8652  2.7369  1.0614
 7340SOL     OW33652   4.599   1.237  16.580  0.0995  0.3538  0.1140
 7340SOL    HW133653   4.521   1.285  16.609  0.8670  1.3630  0.4563
 7340SOL    HW233654   4.627   1.197  16.662  0.1689 -0.3488 -0.2471
 7341SOL     OW33655   3.815   3.375   7.039 -0.1542 -0.1964 -0.5632
 7341SOL    HW133656   3.824   3.311   6.969 -1.4079 -1.4668  0.4318
 7341SOL    HW233657   3.849   3.321   7.110 -1.7023  0.4764  0.6907
 7342SOL     OW33658   0.536   1.070   8.487  0.2000 -0.5053 -0.2711
 7342SOL    HW133659   0.530   1.040   8.578  0.2257  0.0576 -0.0850
 7342SOL    HW233660   0.547   1.165   8.491  0.3502 -0.5487  0.3613
 7343SOL     OW33661   1.436   1.457   2.888  0.3427  0.1136 -0.2776
 7343SOL    HW133662   1.381   1.508   2.947 -0.0619  0.1461 -0.6846
 7343SOL    HW233663   1.408   1.369   2.914 -0.2826 -0.3176 -2.4234
 7344SOL     OW33664   2.105   2.720   3.627  0.4194 -0.6888  0.1985
 7344SOL    HW133665   2.094   2.746   3.535 -0.6682  1.6438  0.9971
 7344SOL    HW233666   2.117   2.627   3.608 -0.0642 -0.9853  1.3125
 7345SOL     OW33667   4.685   1.081   7.405 -0.2933  0.1801  0.3201
 7345SOL    HW133668   4.619   1.087   7.336 -1.8813  0.9002  1.8998
 7345SOL    HW233669   4.729   1.002   7.375  1.1269  2.4501 -3.4906
 7346SOL     OW33670   4.145   4.281   4.181 -0.3102 -0.1895  0.5097
 7346SOL    HW133671   4.183   4.212   4.236 -1.2031 -0.8918  0.2485
 7346SOL    HW233672   4.092   4.237   4.115  0.3443 -0.4659  0.1670
 7347SOL     OW33673   0.702   4.639   4.113 -0.4126 -0.1773 -0.4240
 7347SOL    HW133674   0.708   4.723   4.068 -0.7073 -0.5818 -1.2315
 7347SOL    HW233675   0.610   4.616   4.122 -0.4690  0.2468  0.0584
 7348SOL     OW33676   3.941   1.199   1.504 -0.3486 -0.1145 -0.6156
 7348SOL    HW133677   3.946   1.175   1.597  0.9383 -0.7486 -0.8472
 7348SOL    HW233678   3.977   1.288   1.500 -0.2464 -0.1887 -1.2373
 7349SOL     OW33679   2.621   0.018   0.033 -0.6525 -0.1990  0.1139
 7349SOL    HW133680   2.690   4.716   0.086 -0.2224 -0.8495 -0.9459
 7349SOL    HW233681   2.669   0.003  17.700 -2.7713 -0.2482 -1.1456
 7350SOL     OW33682   0.493   2.261   3.698 -0.1698  0.1359  0.5031
 7350SOL    HW133683   0.465   2.305   3.778 -0.1905 -1.3180  1.2859
 7350SOL    HW233684   0.510   2.335   3.639  1.4128 -1.6759 -1.3069
 7351SOL     OW33685   3.384   4.583   2.091  0.1775 -0.2647 -1.0562
 7351SOL    HW133686   3.313   4.555   2.150 -0.0867  0.6334 -0.9523
 7351SOL    HW233687   3.391   4.678   2.097  0.0605 -0.3206 -0.1413
 7352SOL     OW33688   3.032   4.115  12.462  0.2500 -0.5359  0.1451
 7352SOL    HW133689   2.954   4.167  12.442 -0.2123 -1.5887 -0.7779
 7352SOL    HW233690   3.088   4.175  12.512  2.5458 -3.7054  1.4200
 7353SOL     OW33691   2.850   3.671  10.246 -0.5889  0.2397  0.4119
 7353SOL    HW133692   2.821   3.681  10.337  0.1992  0.1674  0.6700
 7353SOL    HW233693   2.937   3.633  10.257  0.2356  2.1701  0.4011
 7354SOL     OW33694   4.339   1.398   9.975 -0.0669  0.0698  0.1603
 7354SOL    HW133695   4.434   1.408   9.982  0.1152 -1.9809  0.3878
 7354SOL    HW233696   4.307   1.482  10.009 -0.8327  0.8266 -2.3963
 7355SOL     OW33697   3.189   2.833   6.594  0.0339  0.1444  0.4123
 7355SOL    HW133698   3.273   2.842   6.638  1.0370  0.1562 -1.5301
 7355SOL    HW233699   3.171   2.921   6.562  0.3883  0.3748  0.8447
 7356SOL     OW33700   0.811   3.760   5.920 -0.4342 -0.2805 -0.2186
 7356SOL    HW133701   0.881   3.811   5.963  1.0399 -1.9900 -0.6023
 7356SOL    HW233702   0.843   3.675   5.949  0.3600 -0.6056 -2.0560
 7357SOL     OW33703   4.140   2.296   3.706  0.4487  0.6761 -0.3049
 7357SOL    HW133704   4.118   2.230   3.640  1.7487 -0.0403 -0.0311
 7357SOL    HW233705   4.138   2.375   3.652 -2.8316  0.6892 -0.1576
 7358SOL     OW33706   1.371   1.470   0.739  0.1251 -0.0021 -0.1625
 7358SOL    HW133707   1.346   1.550   0.692 -0.1042  0.4808  0.7722
 7358SOL    HW233708   1.419   1.425   0.669 -1.4176 -0.0433 -1.2004
 7359SOL     OW33709   3.845   3.968   6.727 -0.4449 -0.1707 -0.1938
 7359SOL    HW133710   3.754   3.993   6.707 -0.1014  1.9772  0.9560
 7359SOL    HW233711   3.841   3.955   6.822  1.5685  1.5367  0.1112
 7360SOL     OW33712   0.436   4.138   5.210 -0.3636 -0.0937  0.2643
 7360SOL    HW133713   0.416   4.126   5.303  0.0394 -0.3101  0.3240
 7360SOL    HW233714   0.471   4.227   5.209 -0.5409 -0.0535 -1.7661
 7361SOL     OW33715   0.068   2.251   6.903  0.5252 -0.2176  0.4030
 7361SOL    HW133716   4.725   2.200   6.912  0.1382  0.5755  1.4543
 7361SOL    HW233717   0.033   2.330   6.862  0.9933  0.6073  1.6039
 7362SOL     OW33718   0.523   3.083   5.501 -0.2847 -0.2160 -0.0834
 7362SOL    HW133719   0.616   3.066   5.484 -0.1585  0.1109  0.2759
 7362SOL    HW233720   0.482   2.999   5.478  1.3875 -1.1016  0.1650
 7363SOL     OW33721   3.329   2.668  17.632  0.8561 -0.1263  0.2414
 7363SOL    HW133722   3.344   2.742  17.691  2.4615 -0.4210  0.2013
 7363SOL    HW233723   3.405   2.675  17.575 -1.0754  0.3488 -2.2413
 7364SOL     OW33724   3.116   1.702  13.166 -1.0215 -0.0359  0.2713
 7364SOL    HW133725   3.112   1.797  13.178  2.4413  0.1504 -0.0356
 7364SOL    HW233726   3.031   1.678  13.130 -0.1010 -0.6830 -1.4801
 7365SOL     OW33727   0.362   0.627   2.386  0.3549  0.0868  0.5830
 7365SOL    HW133728   0.267   0.640   2.383  0.5010  1.0247  0.1682
 7365SOL    HW233729   0.387   0.695   2.449 -0.9650 -0.1399  1.3611
 7366SOL     OW33730   2.183   2.318   5.327 -0.0810 -0.2361 -0.3124
 7366SOL    HW133731   2.213   2.298   5.238  1.3959 -0.0882  0.1454
 7366SOL    HW233732   2.200   2.411   5.341  0.5298 -0.5913  1.3784
 7367SOL     OW33733   2.266   0.875   4.004 -0.2117  0.4491  0.2058
 7367SOL    HW133734   2.261   0.784   4.034 -0.4498  0.8174  1.2615
 7367SOL    HW233735   2.359   0.886   3.985 -0.5741 -2.1456 -3.2742
 7368SOL     OW33736   3.541   2.995   7.492  0.2214  0.2999  0.8608
 7368SOL    HW133737   3.497   2.916   7.461  0.2838 -0.6932  3.3494
 7368SOL    HW233738   3.467   3.042   7.531 -1.5045 -0.5914 -1.3642
 7369SOL     OW33739   3.240   4.320  15.920  0.5039 -0.3827 -0.0043
 7369SOL    HW133740   3.323   4.366  15.916  1.4442 -2.1955 -1.3311
 7369SOL    HW233741   3.206   4.348  16.005  2.5276 -1.9694  1.3296
 7370SOL     OW33742   0.547   3.694   9.125  0.2369 -0.3509  0.5379
 7370SOL    HW133743   0.533   3.643   9.045  0.5922 -1.2213  1.0284
 7370SOL    HW233744   0.477   3.661   9.182 -0.7427  1.2511  0.2642
 7371SOL     OW33745   4.570   3.233   8.207  0.3248 -0.4027  0.2059
 7371SOL    HW133746   4.662   3.208   8.201  0.2577 -0.6580  0.2301
 7371SOL    HW233747   4.530   3.185   8.135 -0.4387 -0.5446  0.7188
 7372SOL     OW33748   1.159   4.522   9.446 -0.3678  0.4190  0.5546
 7372SOL    HW133749   1.092   4.517   9.515  0.3847 -0.4665  1.2279
 7372SOL    HW233750   1.214   4.446   9.463 -0.4929  0.4611  1.1419
 7373SOL     OW33751   0.068   3.573   7.618  0.0516 -0.1115  0.4656
 7373SOL    HW133752   0.138   3.513   7.645 -0.0034 -0.4917 -0.2307
 7373SOL    HW233753   4.737   3.516   7.653 -1.7518  0.5126 -2.0219
 7374SOL     OW33754   0.728   3.106  16.606 -0.0662 -0.6475 -0.2845
 7374SOL    HW133755   0.690   3.184  16.565  2.9825  0.2921 -1.3132
 7374SOL    HW233756   0.684   3.115  16.691  2.2945 -1.0882  0.9990
 7375SOL     OW33757   3.068   0.064  13.506 -0.8660  0.3771  0.3857
 7375SOL    HW133758   2.994   0.040  13.451 -0.7146  0.1604  0.2746
 7375SOL    HW233759   3.053   0.157  13.521  0.3676  0.5732  0.3990
 7376SOL     OW33760   4.253   1.672   6.172 -0.0332 -0.2553  0.3569
 7376SOL    HW133761   4.282   1.582   6.161  5.0918  1.2975  0.8671
 7376SOL    HW233762   4.211   1.695   6.090  0.1597  1.4058  0.7187
 7377SOL     OW33763   1.611   1.064   7.575  0.2172 -0.4791 -0.0517
 7377SOL    HW133764   1.686   1.006   7.585  1.4896  1.6088  2.4254
 7377SOL    HW233765   1.547   0.994   7.571 -0.6513  0.3693 -1.1339
 7378SOL     OW33766   2.815   0.769  13.959  0.0884 -0.0305 -0.2964
 7378SOL    HW133767   2.766   0.757  14.041 -0.4231 -1.7632 -0.8531
 7378SOL    HW233768   2.894   0.811  13.994 -0.3814  0.3851  0.2729
 7379SOL     OW33769   3.075   4.650   5.777  0.2153  0.2803  0.5514
 7379SOL    HW133770   3.094   0.004   5.760 -2.2788  0.9692  1.4685
 7379SOL    HW233771   3.063   4.651   5.872  0.0425  0.1942  0.5305
 7380SOL     OW33772   2.788   0.162  12.428 -0.4161 -0.0015  0.2107
 7380SOL    HW133773   2.866   0.137  12.477 -1.0302 -0.4559  0.9520
 7380SOL    HW233774   2.817   0.243  12.385  1.2310 -0.1096  1.1224
 7381SOL     OW33775   3.549   2.234   3.147 -0.2472  0.3235 -0.2773
 7381SOL    HW133776   3.528   2.309   3.203  0.5713 -0.6464  1.3233
 7381SOL    HW233777   3.480   2.175   3.179  0.6285  0.3724  1.7182
 7382SOL     OW33778   4.297   0.883   1.778 -0.1371  0.1585 -0.5201
 7382SOL    HW133779   4.342   0.920   1.855 -1.4139 -0.9359  0.7505
 7382SOL    HW233780   4.375   0.884   1.722  0.4476 -1.9157  0.2462
 7383SOL     OW33781   4.080   0.684   7.567 -0.1848  0.4494  0.0856
 7383SOL    HW133782   4.171   0.702   7.544  0.0586 -0.4862  0.2951
 7383SOL    HW233783   4.050   0.612   7.511 -0.6179  0.8670 -0.2149
 7384SOL     OW33784   0.014   3.160   7.013  0.3480 -0.0487 -0.0109
 7384SOL    HW133785   0.094   3.109   7.023  0.2170 -0.2340  0.0894
 7384SOL    HW233786   0.059   3.245   7.015  0.0281  0.0933  1.6176
 7385SOL     OW33787   4.567   1.600   4.240 -0.1867  0.0101  0.2551
 7385SOL    HW133788   4.550   1.505   4.245 -1.7796  0.4270  3.1721
 7385SOL    HW233789   4.630   1.623   4.309 -0.2333 -2.0851  1.0023
 7386SOL     OW33790   3.338   1.520   4.764 -0.7278 -0.2747 -0.0924
 7386SOL    HW133791   3.267   1.582   4.745  0.1444  0.2203 -1.7188
 7386SOL    HW233792   3.286   1.441   4.749 -0.3369 -0.2214 -1.7715
 7387SOL     OW33793   3.523   3.620   9.833  0.9371  0.1872 -0.4680
 7387SOL    HW133794   3.522   3.574   9.749 -0.9196 -2.3278  0.9612
 7387SOL    HW233795   3.577   3.696   9.810  0.0847  0.5339 -1.3527
 7388SOL     OW33796   2.664   1.653   6.119  0.5441  0.0420 -0.5611
 7388SOL    HW133797   2.618   1.714   6.177 -0.4446 -1.8621  0.6183
 7388SOL    HW233798   2.589   1.635   6.061  0.2688 -1.3767  0.2551
 7389SOL     OW33799   0.727   3.061   9.377 -0.3440  0.2158 -0.2471
 7389SOL    HW133800   0.635   3.080   9.395  0.0113  1.3593  0.3715
 7389SOL    HW233801   0.736   2.981   9.325 -0.3697  0.1824 -0.2003
 7390SOL     OW33802   4.118   3.133  13.649 -0.2076 -0.3273  0.1381
 7390SOL    HW133803   4.032   3.169  13.674 -0.7384 -1.0032 -0.6962
 7390SOL    HW233804   4.172   3.201  13.688 -1.0463  0.4347 -0.0054
 7391SOL     OW33805   0.361   0.487   2.764 -0.0238 -0.0510 -0.2698
 7391SOL    HW133806   0.269   0.504   2.742 -0.5971 -2.6423  0.0618
 7391SOL    HW233807   0.384   0.571   2.804  1.2245 -1.2387  1.5060
 7392SOL     OW33808   1.163   1.002   7.298 -0.5044  1.0715  0.0664
 7392SOL    HW133809   1.101   0.997   7.371 -1.3753  0.6353 -0.7140
 7392SOL    HW233810   1.224   0.931   7.316 -1.3646 -0.2325 -2.1598
 7393SOL     OW33811   3.199   3.582  16.106 -0.4421  0.1625 -0.8422
 7393SOL    HW133812   3.234   3.664  16.071 -0.8460  0.4324 -0.6076
 7393SOL    HW233813   3.281   3.533  16.110 -1.6698 -1.5153  3.0947
 7394SOL     OW33814   1.581   3.377   7.126  0.2584 -0.0393  0.0722
 7394SOL    HW133815   1.585   3.441   7.197  0.6855  0.2065 -0.1731
 7394SOL    HW233816   1.494   3.387   7.089  0.5122 -1.3788 -0.9191
 7395SOL     OW33817   3.633   3.914   8.923  0.1970 -0.0615 -0.1166
 7395SOL    HW133818   3.728   3.919   8.915  0.3843 -2.5499  0.5965
 7395SOL    HW233819   3.606   3.907   8.832 -0.9761  0.3668  0.1962
 7396SOL     OW33820   4.025   4.083   6.977 -0.3009  0.5238  0.0954
 7396SOL    HW133821   4.048   4.175   6.964 -0.0947  0.4110 -0.3434
 7396SOL    HW233822   3.930   4.088   6.963 -0.5141 -2.5562  0.3359
 7397SOL     OW33823   3.646   0.713  16.967  0.4308  0.0831 -0.0645
 7397SOL    HW133824   3.616   0.646  16.906  1.0534  0.8183 -1.1734
 7397SOL    HW233825   3.687   0.652  17.029 -1.6462  2.3318  3.4936
 7398SOL     OW33826   4.548   0.196   6.228  0.1575  0.3489 -0.0992
 7398SOL    HW133827   4.637   0.217   6.201 -0.1778 -1.0551 -2.3042
 7398SOL    HW233828   4.536   0.263   6.295 -1.4523 -1.2312  1.2097
 7399SOL     OW33829   2.828   4.691   9.407  0.3740 -0.5246  0.0363
 7399SOL    HW133830   2.815   4.724   9.496 -3.8770 -0.8192 -0.4462
 7399SOL    HW233831   2.829   4.597   9.423 -0.7944 -0.2834  1.5240
 7400SOL     OW33832   3.719   2.478   5.981  0.6638 -0.0851  0.1149
 7400SOL    HW133833   3.643   2.529   6.008  0.9256  0.8701 -0.9592
 7400SOL    HW233834   3.797   2.534   5.982  1.1639 -0.7619 -1.0757
 7401SOL     OW33835   2.728   0.545   3.003 -0.5342  0.3641  0.3792
 7401SOL    HW133836   2.734   0.450   2.992  2.5864  0.5620  0.2460
 7401SOL    HW233837   2.821   0.561   3.021  0.1140  1.3552 -3.7836
 7402SOL     OW33838   0.356   1.292  17.624 -0.0742  0.4084  0.0055
 7402SOL    HW133839   0.413   1.319  17.696 -0.8295 -0.5565  0.9637
 7402SOL    HW233840   0.283   1.252  17.670 -0.3998  0.8400 -0.1421
 7403SOL     OW33841   3.201   3.871   8.689 -0.3024  0.4948  0.0709
 7403SOL    HW133842   3.139   3.822   8.635  0.3122 -1.0629  0.7804
 7403SOL    HW233843   3.260   3.909   8.625 -0.1959 -0.5120 -0.4254
 7404SOL     OW33844   4.025   2.845   0.369 -0.1061  0.0926  0.1651
 7404SOL    HW133845   4.065   2.783   0.308  0.0393  0.2198  0.1309
 7404SOL    HW233846   4.063   2.928   0.339  0.1484 -0.2354 -0.4099
 7405SOL     OW33847   2.581   4.661  13.326  0.2780  0.7699  0.0229
 7405SOL    HW133848   2.555   4.634  13.414  2.1637  2.5315  1.0985
 7405SOL    HW233849   2.615   4.581  13.284 -0.4593  0.4341  0.0717
 7406SOL     OW33850   2.365   3.234   8.046  0.3231  0.1135  0.0616
 7406SOL    HW133851   2.304   3.279   7.988 -0.0145 -1.2873 -0.6618
 7406SOL    HW233852   2.414   3.313   8.067  0.1260  0.0385  0.8058
 7407SOL     OW33853   1.262   2.837   6.661  0.0410 -0.3885 -0.1205
 7407SOL    HW133854   1.170   2.857   6.649 -0.0480  0.2271  1.5355
 7407SOL    HW233855   1.265   2.815   6.754 -1.5909 -1.8129 -0.3979
 7408SOL     OW33856   0.958   1.118   9.341  0.3848 -0.0399 -0.1254
 7408SOL    HW133857   0.951   1.026   9.317 -0.8473  0.2024 -0.6717
 7408SOL    HW233858   0.976   1.174   9.265  0.1881  1.2925  0.8081
 7409SOL     OW33859   0.757   2.697   3.900 -0.1569 -0.1880  0.5267
 7409SOL    HW133860   0.776   2.629   3.965  0.0240 -1.1807 -0.5514
 7409SOL    HW233861   0.845   2.719   3.870  0.3951 -3.3359 -0.1305
 7410SOL     OW33862   1.662   1.313   2.745  0.6436  0.1747  0.4884
 7410SOL    HW133863   1.647   1.258   2.822  1.3732  0.8855  1.1464
 7410SOL    HW233864   1.660   1.244   2.679 -2.3468 -0.1626  0.9421
 7411SOL     OW33865   3.116   4.295   9.818 -0.0723 -0.4229 -0.2147
 7411SOL    HW133866   3.088   4.338   9.737  3.8154  3.5727  0.5577
 7411SOL    HW233867   3.032   4.283   9.861 -0.7354 -1.8625 -1.9285
 7412SOL     OW33868   3.133   2.976   7.364  0.1541  0.2143  0.0536
 7412SOL    HW133869   3.044   2.942   7.355 -0.4165  1.9798 -0.9610
 7412SOL    HW233870   3.127   3.003   7.455  0.3683 -1.8495  0.6801
 7413SOL     OW33871   0.247   3.653   5.445 -1.2244  0.3876 -0.2509
 7413SOL    HW133872   0.207   3.701   5.372 -0.6053  1.4058  0.0859
 7413SOL    HW233873   0.327   3.700   5.465 -0.8932 -0.3468  0.1246
 7414SOL     OW33874   4.338   4.186   2.405  0.5706  0.7418  0.4596
 7414SOL    HW133875   4.309   4.154   2.319 -0.3381  0.0255  1.0302
 7414SOL    HW233876   4.259   4.223   2.444 -0.6170 -2.0535  0.7080
 7415SOL     OW33877   0.013   4.065   1.583 -1.0182 -0.0040  0.1132
 7415SOL    HW133878   0.045   4.092   1.669  0.8184  0.3308 -0.6899
 7415SOL    HW233879   4.735   4.145   1.534 -1.9156 -0.4222 -0.2867
 7416SOL     OW33880   4.190   2.038   4.825 -0.3902 -0.2531 -0.5685
 7416SOL    HW133881   4.128   2.067   4.758 -0.5561 -2.0201 -1.1680
 7416SOL    HW233882   4.218   2.127   4.847  2.3057 -0.8127 -1.8330
 7417SOL     OW33883   4.722   3.505   2.391  0.3637 -0.0809 -0.0000
 7417SOL    HW133884   4.631   3.479   2.377  0.5744 -0.4681 -0.6436
 7417SOL    HW233885   0.015   3.471   2.307  0.3278  0.8662 -0.3888
 7418SOL     OW33886   1.771   1.618   8.062  0.6311  0.0874 -0.1026
 7418SOL    HW133887   1.843   1.556   8.079  0.7315  0.2630  0.1186
 7418SOL    HW233888   1.710   1.555   8.023 -0.8609 -0.4703  3.1618
 7419SOL     OW33889   0.907   0.476   6.903  0.0372 -0.3120 -0.2646
 7419SOL    HW133890   0.939   0.424   6.977 -2.4318  2.2000  2.5698
 7419SOL    HW233891   0.893   0.559   6.947 -1.0712 -0.7349  0.1782
 7420SOL     OW33892   0.077   2.469   6.667 -0.1634 -0.1820  0.1192
 7420SOL    HW133893   4.734   2.518   6.682 -0.3227  0.0187 -1.4016
 7420SOL    HW233894   0.138   2.538   6.644  1.0173 -1.1053  0.4621
 7421SOL     OW33895   2.954   3.364   5.931  0.2835  0.1450  0.5712
 7421SOL    HW133896   2.939   3.447   5.976  0.3050  1.0077 -1.0315
 7421SOL    HW233897   2.947   3.308   6.008 -0.4628 -1.2036 -0.4810
 7422SOL     OW33898   4.113   2.043   9.294 -0.4166  0.3209  0.8060
 7422SOL    HW133899   4.166   2.075   9.367  1.1627 -0.5240  0.0296
 7422SOL    HW233900   4.168   1.967   9.276 -0.1030  0.3313  1.7301
 7423SOL     OW33901   3.620   3.385   7.754 -0.2125 -0.2222  0.3131
 7423SOL    HW133902   3.685   3.407   7.687  1.9638 -1.3063  2.0930
 7423SOL    HW233903   3.634   3.460   7.812  0.6522 -1.4523  1.6780
 7424SOL     OW33904   3.160   1.579  10.661  0.0282  0.0093  0.3700
 7424SOL    HW133905   3.114   1.618  10.735 -2.5573 -0.5419 -0.9566
 7424SOL    HW233906   3.208   1.511  10.709 -1.1997 -0.8979  0.3255
 7425SOL     OW33907   3.962   4.559  10.369  0.7469  0.2075  0.3040
 7425SOL    HW133908   3.904   4.559  10.293  1.5855 -1.0050 -0.3313
 7425SOL    HW233909   3.989   4.650  10.357 -3.2359  1.3473 -0.2072
 7426SOL     OW33910   1.866   0.953   3.315  0.2952  0.2184 -0.3523
 7426SOL    HW133911   1.833   0.938   3.403  0.3442 -0.3469 -0.4322
 7426SOL    HW233912   1.816   0.887   3.267 -0.0166 -0.0234  0.3045
 7427SOL     OW33913   4.557   0.543  14.075  0.0387  0.1907 -0.0332
 7427SOL    HW133914   4.604   0.627  14.076 -0.9115  0.7267 -2.0668
 7427SOL    HW233915   4.477   0.585  14.107 -0.4025 -0.0428 -0.8463
 7428SOL     OW33916   0.139   3.762  15.468  0.3585  0.2012  0.0961
 7428SOL    HW133917   0.187   3.831  15.514  0.3048  0.0150  0.4270
 7428SOL    HW233918   0.074   3.825  15.437 -1.0678 -1.9160 -1.2390
 7429SOL     OW33919   4.032   0.678   2.422  0.6838  0.1600 -0.0581
 7429SOL    HW133920   4.017   0.688   2.328  0.1402 -1.0676 -0.0994
 7429SOL    HW233921   4.123   0.704   2.437 -0.5180  2.6389  3.0996
 7430SOL     OW33922   3.623   2.414   4.465 -0.2152  0.2211 -0.6310
 7430SOL    HW133923   3.652   2.481   4.528 -1.7098  0.5888 -0.3208
 7430SOL    HW233924   3.528   2.405   4.481 -0.2149  1.5858  0.1732
 7431SOL     OW33925   0.136   0.371   9.803  0.2556  0.5259 -0.1321
 7431SOL    HW133926   0.102   0.291   9.843 -1.6518  1.4321  0.0635
 7431SOL    HW233927   0.209   0.389   9.863  1.3911 -2.3659 -0.6743
 7432SOL     OW33928   3.150   4.541   3.310 -0.2244 -0.3358 -0.5096
 7432SOL    HW133929   3.059   4.529   3.337  0.4639 -0.8038  1.6067
 7432SOL    HW233930   3.172   4.455   3.272  1.8021 -0.0637  0.0115
 7433SOL     OW33931   3.607   2.581  16.687  0.5098 -0.0053 -0.2408
 7433SOL    HW133932   3.598   2.648  16.754  1.1241 -0.2619  0.0957
 7433SOL    HW233933   3.655   2.508  16.726 -0.2675  0.5061  1.6699
 7434SOL     OW33934   3.214   1.712   4.284  0.1520 -0.1708  0.2975
 7434SOL    HW133935   3.292   1.679   4.329 -1.4258 -4.2143  0.0543
 7434SOL    HW233936   3.150   1.669   4.339 -2.0479  2.2269 -0.4091
 7435SOL     OW33937   1.458   3.077  16.973 -0.0055  0.4783 -0.0975
 7435SOL    HW133938   1.409   3.028  17.039  0.4249  1.8464  1.2319
 7435SOL    HW233939   1.422   3.165  16.980  3.0278  1.9001 -2.1914
 7436SOL     OW33940   2.335   4.473   9.879  0.0898  0.7699  0.2330
 7436SOL    HW133941   2.421   4.467   9.921  0.7260  1.4441 -0.9479
 7436SOL    HW233942   2.329   4.566   9.858 -1.0115  1.0107  1.6242
 7437SOL     OW33943   1.868   3.570   8.570  0.0564 -0.6401 -0.1330
 7437SOL    HW133944   1.930   3.608   8.631 -1.0001  1.0788 -0.1309
 7437SOL    HW233945   1.823   3.500   8.618 -3.4187  1.1231 -0.7721
 7438SOL     OW33946   1.345   2.528   0.950  0.2293  0.0393  0.7096
 7438SOL    HW133947   1.366   2.586   0.876 -1.4145  0.3696  0.5060
 7438SOL    HW233948   1.432   2.529   0.989  0.7549 -2.7524 -0.3878
 7439SOL     OW33949   3.304   1.891   3.904  0.5309  0.1092  0.2850
 7439SOL    HW133950   3.268   1.899   3.992  0.0986  1.4222 -0.0103
 7439SOL    HW233951   3.304   1.983   3.875  0.3232  0.2944  0.8746
 7440SOL     OW33952   1.991   2.641   5.628 -0.3134 -0.6283 -0.1378
 7440SOL    HW133953   2.049   2.712   5.601 -0.2283 -0.5852  0.1535
 7440SOL    HW233954   1.910   2.687   5.608 -0.1754  0.2153  1.2124
 7441SOL     OW33955   1.417   2.630  17.063  0.1834  0.0496  0.0003
 7441SOL    HW133956   1.381   2.556  17.013 -0.9007  0.9106 -0.4859
 7441SOL    HW233957   1.446   2.587  17.143  5.0693 -2.6777 -3.2066
 7442SOL     OW33958   4.335   2.348  12.180 -0.5411  0.0308  0.0679
 7442SOL    HW133959   4.334   2.274  12.120 -0.7959 -0.7713  1.0738
 7442SOL    HW233960   4.315   2.424  12.124  0.5167  0.9605  0.9504
 7443SOL     OW33961   2.727   1.575   8.740 -0.3805 -0.6457 -0.4417
 7443SOL    HW133962   2.670   1.557   8.665 -1.7524  0.2107  0.3991
 7443SOL    HW233963   2.665   1.560   8.811 -0.8588 -1.7258 -1.0880
 7444SOL     OW33964   3.915   0.518   2.605  0.0521  0.0385 -0.2024
 7444SOL    HW133965   3.953   0.569   2.534 -0.5817 -0.1230 -0.6603
 7444SOL    HW233966   3.897   0.583   2.674  4.1491  0.0717  0.8424
 7445SOL     OW33967   2.910   2.094   1.651 -0.6093  0.4325 -0.1292
 7445SOL    HW133968   2.979   2.159   1.636 -0.0395 -0.5156 -1.7595
 7445SOL    HW233969   2.858   2.123   1.725 -0.5600 -2.4369  1.0485
 7446SOL     OW33970   1.332   4.160   1.985 -0.0704 -0.0967  0.1765
 7446SOL    HW133971   1.313   4.095   1.918 -3.2349  0.6385  0.3576
 7446SOL    HW233972   1.300   4.238   1.940 -0.3744 -0.4856 -0.2798
 7447SOL     OW33973   4.267   4.011  11.792  0.2165 -0.2156  0.3114
 7447SOL    HW133974   4.244   4.099  11.820 -1.5142 -1.0949  1.6296
 7447SOL    HW233975   4.313   3.974  11.867  0.7232 -0.3663 -0.0668
 7448SOL     OW33976   2.563   1.830   0.234 -0.7803 -0.2271 -0.6220
 7448SOL    HW133977   2.537   1.819   0.142 -1.1889 -0.4380 -0.4798
 7448SOL    HW233978   2.480   1.814   0.277  0.2734  0.6254  1.7193
 7449SOL     OW33979   3.832   3.213   9.691 -0.0103 -0.0934 -0.1766
 7449SOL    HW133980   3.797   3.175   9.610 -0.6515 -1.1011  0.5709
 7449SOL    HW233981   3.921   3.201   9.657 -0.7140 -3.0466 -0.9685
 7450SOL     OW33982   4.540   0.981   6.116  0.2442  0.1274 -0.8418
 7450SOL    HW133983   4.592   1.062   6.110  1.3687 -0.2824  3.3147
 7450SOL    HW233984   4.465   1.008   6.168  0.7426  0.0358 -0.0801
 7451SOL     OW33985   1.767   1.627  16.380 -0.3345  0.1092 -0.2430
 7451SOL    HW133986   1.686   1.606  16.333 -1.0787  1.6279  0.3483
 7451SOL    HW233987   1.829   1.616  16.308  1.7019  1.0453  1.3695
 7452SOL     OW33988   2.721   1.155   3.398  0.5137  0.2938  0.0410
 7452SOL    HW133989   2.674   1.077   3.367 -0.4258  1.4981 -1.6035
 7452SOL    HW233990   2.761   1.137   3.483 -0.5444 -3.8857 -0.3425
 7453SOL     OW33991   3.350   3.892   6.731 -0.0057 -0.4608  0.7603
 7453SOL    HW133992   3.305   3.975   6.748  0.2174 -0.1224 -0.2564
 7453SOL    HW233993   3.276   3.831   6.734 -1.3641  1.1328 -0.3014
 7454SOL     OW33994   3.042   3.622   4.492 -0.3497 -0.3111  1.2419
 7454SOL    HW133995   3.101   3.614   4.416  0.7368 -1.6347  2.2224
 7454SOL    HW233996   2.958   3.586   4.465  0.6493  0.1705 -2.5003
 7455SOL     OW33997   2.812   1.460   0.099 -0.1735 -0.6500 -0.0538
 7455SOL    HW133998   2.811   1.526   0.029  1.7704  0.7558  1.2531
 7455SOL    HW233999   2.835   1.520   0.170 -0.3753  0.4919 -0.9476
 7456SOL     OW34000   0.997   3.272   4.740 -0.2634  0.0080 -0.3341
 7456SOL    HW134001   0.996   3.359   4.699  1.7776  0.7365  1.1716
 7456SOL    HW234002   0.929   3.231   4.687 -0.6428  0.0017  0.1656
 7457SOL     OW34003   4.616   0.767   8.950  0.3693 -0.1667  0.3732
 7457SOL    HW134004   4.560   0.842   8.929  0.5948 -0.2590 -0.5777
 7457SOL    HW234005   4.572   0.741   9.030  0.0563  0.9890  0.5876
 7458SOL     OW34006   0.716   2.839  10.005  0.1626 -0.1734 -0.6295
 7458SOL    HW134007   0.704   2.762  10.062 -2.1492  1.8175  1.5818
 7458SOL    HW234008   0.807   2.867  10.019 -0.8418  1.9297  1.6982
 7459SOL     OW34009   3.651   3.397  15.227  0.2638  0.6572 -0.1426
 7459SOL    HW134010   3.732   3.348  15.214 -1.8418 -2.5358 -0.9321
 7459SOL    HW234011   3.625   3.383  15.318  0.5647 -2.7242 -0.5775
 7460SOL     OW34012   3.861   2.376   5.419 -0.4903 -0.5729 -0.1100
 7460SOL    HW134013   3.858   2.350   5.511 -3.0434  0.3661  0.0858
 7460SOL    HW234014   3.873   2.290   5.380  1.2480 -1.4094  2.2991
 7461SOL     OW34015   4.730   1.226  12.051 -0.2260  0.6551 -0.3616
 7461SOL    HW134016   0.029   1.137  12.052  0.5135  0.9620 -0.7070
 7461SOL    HW234017   0.056   1.281  12.096  0.3708  1.4801 -2.2604
 7462SOL     OW34018   3.935   1.674  16.671  0.1209 -0.0210  0.1812
 7462SOL    HW134019   3.896   1.666  16.758  0.6483 -4.5520 -0.0135
 7462SOL    HW234020   3.854   1.685  16.620 -0.1313 -0.9673  0.3808
 7463SOL     OW34021   0.085   0.880   5.863 -0.3978  1.0001  0.1480
 7463SOL    HW134022   0.165   0.902   5.909 -1.3315  0.9910  1.7778
 7463SOL    HW234023   0.103   0.941   5.791 -1.4169  0.0495 -0.9317
 7464SOL     OW34024   3.290   4.051   5.554 -0.1258  0.5985 -0.3699
 7464SOL    HW134025   3.262   3.970   5.596  0.0134 -0.2492 -1.8961
 7464SOL    HW234026   3.202   4.077   5.528 -0.3611  0.4137  0.2453
 7465SOL     OW34027   1.528   4.009   9.288 -0.0678  0.4246  0.7635
 7465SOL    HW134028   1.462   3.987   9.222  0.1801 -0.3969  0.7939
 7465SOL    HW234029   1.478   4.028   9.367  0.1591 -3.5617  1.8354
 7466SOL     OW34030   2.662   1.143   7.353 -0.2347 -0.3523 -0.2076
 7466SOL    HW134031   2.694   1.055   7.331  0.1470  0.0859 -1.3555
 7466SOL    HW234032   2.739   1.192   7.382 -2.2835  1.0177  2.9008
 7467SOL     OW34033   1.263   3.950   8.425 -0.4374  0.1568 -0.3671
 7467SOL    HW134034   1.176   3.910   8.436  0.5106 -1.5670  0.9245
 7467SOL    HW234035   1.238   4.040   8.443  1.5810  0.3199  1.5646
 7468SOL     OW34036   0.054   0.036   4.142  0.7838  0.6619 -0.3053
 7468SOL    HW134037   0.013   0.069   4.222  1.2641  0.3827  0.0559
 7468SOL    HW234038   0.081   4.688   4.175  2.0440  1.1994  0.0615
 7469SOL     OW34039   2.276   3.708   2.130 -0.0113  0.2458  0.4579
 7469SOL    HW134040   2.363   3.671   2.139 -1.7050 -4.0788 -1.1210
 7469SOL    HW234041   2.223   3.642   2.174  0.8895 -2.2872 -2.3138
 7470SOL     OW34042   1.485   3.787  10.751  0.0502  0.4767  0.0829
 7470SOL    HW134043   1.528   3.821  10.829  0.8396  0.7199 -0.4540
 7470SOL    HW234044   1.480   3.691  10.756 -2.4142  0.5521 -0.5722
 7471SOL     OW34045   2.211   4.631   9.052  0.2958 -0.1373 -0.2187
 7471SOL    HW134046   2.247   4.571   8.987  0.9372 -1.4181  1.3068
 7471SOL    HW234047   2.178   4.701   8.996  3.8895  1.4097 -0.4609
 7472SOL     OW34048   3.383   2.855   6.775 -0.6727  0.3635  0.9102
 7472SOL    HW134049   3.350   2.789   6.836 -0.6926 -1.4524 -1.0781
 7472SOL    HW234050   3.424   2.907   6.844  2.1281 -1.8958  0.9353
 7473SOL     OW34051   1.694   1.451   0.204 -0.2184  0.9958 -0.4009
 7473SOL    HW134052   1.664   1.380   0.147 -0.4866 -1.0413  2.2610
 7473SOL    HW234053   1.647   1.522   0.161 -0.7780  1.0958  0.3632
 7474SOL     OW34054   0.934   2.683   3.511 -0.3679  0.3540 -0.1100
 7474SOL    HW134055   0.951   2.733   3.432  0.4527  1.9965  1.1159
 7474SOL    HW234056   0.863   2.740   3.541 -1.2802 -1.2255  0.7478
 7475SOL     OW34057   0.675   1.567  11.312  0.0315  0.2627 -0.2071
 7475SOL    HW134058   0.702   1.657  11.291 -1.9190  0.7679 -0.5483
 7475SOL    HW234059   0.680   1.573  11.408  0.2795  1.2719 -0.2804
 7476SOL     OW34060   0.806   2.517  10.151  0.3161  0.1561 -0.3125
 7476SOL    HW134061   0.808   2.601  10.198 -1.0735 -0.3091  0.5749
 7476SOL    HW234062   0.720   2.490  10.183 -0.7807  0.8811 -2.6178
 7477SOL     OW34063   2.119   4.362  11.179 -0.2230 -0.2328  0.1215
 7477SOL    HW134064   2.191   4.324  11.231 -0.2326 -0.6151 -0.1447
 7477SOL    HW234065   2.157   4.430  11.123 -1.3876  0.5692  0.3219
 7478SOL     OW34066   0.973   3.089   9.021 -0.1218 -0.6802  0.4332
 7478SOL    HW134067   0.980   3.174   8.976  1.9633 -0.5184  1.0387
 7478SOL    HW234068   0.934   3.111   9.106 -1.7782  0.8550 -0.7183
 7479SOL     OW34069   3.542   2.102   7.931 -0.0436  0.3105  0.4036
 7479SOL    HW134070   3.637   2.115   7.932  0.2771 -1.7686 -2.8806
 7479SOL    HW234071   3.527   2.132   7.842 -1.4909 -0.2564  0.4449
 7480SOL     OW34072   0.746   4.682   2.011  0.4821 -0.3878 -0.8358
 7480SOL    HW134073   0.783   0.016   1.960  1.3632 -1.3910 -1.6219
 7480SOL    HW234074   0.824   4.627   2.010 -0.3555 -1.6076  0.3758
 7481SOL     OW34075   4.587   2.265  11.651 -0.0575 -0.4779  0.2995
 7481SOL    HW134076   4.664   2.210  11.638 -0.9821 -1.6680 -0.1827
 7481SOL    HW234077   4.562   2.305  11.567 -0.3134  0.2142  0.7000
 7482SOL     OW34078   3.556   1.826  12.325 -0.4763 -0.7759  0.2794
 7482SOL    HW134079   3.516   1.853  12.242  1.6536  0.6359 -0.2756
 7482SOL    HW234080   3.479   1.834  12.381  0.0671 -3.7172  1.4268
 7483SOL     OW34081   1.543   3.333   2.207  0.1760 -0.0536  0.0772
 7483SOL    HW134082   1.473   3.273   2.232  0.0197  0.8910  1.8583
 7483SOL    HW234083   1.499   3.365   2.128  0.8272 -0.2067 -0.3571
 7484SOL     OW34084   1.173   3.917  10.360  0.1816  0.3217 -0.0862
 7484SOL    HW134085   1.136   3.837  10.396  1.7722 -1.0092 -1.4002
 7484SOL    HW234086   1.225   3.885  10.286  0.3661 -0.7015  0.4865
 7485SOL     OW34087   0.086   4.374   1.934  0.4695  0.5278  0.4027
 7485SOL    HW134088   0.173   4.399   1.902  1.4960 -0.8935  2.1164
 7485SOL    HW234089   0.020   4.434   1.899 -1.1727 -0.9014  1.0377
 7486SOL     OW34090   3.953   2.197   2.998 -0.0177  0.0347  0.3307
 7486SOL    HW134091   3.941   2.245   3.080  1.1375  0.1648  0.4316
 7486SOL    HW234092   3.871   2.225   2.958 -0.8386 -0.8932  1.3837
 7487SOL     OW34093   3.562   3.240   3.308  0.2302  0.2595 -0.1351
 7487SOL    HW134094   3.468   3.223   3.321  0.4156 -1.4664 -1.0718
 7487SOL    HW234095   3.555   3.290   3.228 -0.1620  0.1217 -0.1884
 7488SOL     OW34096   3.652   4.524   7.382  0.7115 -0.3373  0.0525
 7488SOL    HW134097   3.587   4.561   7.442  0.6819 -1.4975  0.7327
 7488SOL    HW234098   3.671   4.595   7.320 -0.5782  0.8550  0.9942
 7489SOL     OW34099   2.226   1.818   6.583  0.2447 -0.0102  0.2385
 7489SOL    HW134100   2.252   1.760   6.655  2.2860 -0.9762 -1.2655
 7489SOL    HW234101   2.220   1.905   6.622  1.3475  1.0131 -1.8750
 7490SOL     OW34102   2.671   2.145   1.515 -0.2917 -0.2058 -0.6910
 7490SOL    HW134103   2.741   2.115   1.574 -0.6064 -1.8204 -1.1501
 7490SOL    HW234104   2.628   2.214   1.566 -2.0124 -0.6713 -1.5305
 7491SOL     OW34105   0.486   3.706  13.811 -0.0587 -0.5464 -0.1513
 7491SOL    HW134106   0.474   3.742  13.723  1.3887 -0.1659 -0.2017
 7491SOL    HW234107   0.396   3.693  13.840 -0.2828 -0.5087 -0.8409
 7492SOL     OW34108   2.815   4.487  16.578 -0.1910 -0.0764  0.3011
 7492SOL    HW134109   2.798   4.394  16.583 -3.6426  0.5304 -0.2943
 7492SOL    HW234110   2.857   4.497  16.664 -1.1340 -0.0841  0.7588
 7493SOL     OW34111   2.549   3.718   5.864  0.5060  0.5827  0.1348
 7493SOL    HW134112   2.514   3.657   5.800 -4.0337 -0.5254  3.6457
 7493SOL    HW234113   2.540   3.802   5.818 -0.9268  0.4688  0.2103
 7494SOL     OW34114   3.453   0.355   8.703 -0.3765 -1.1444 -0.0581
 7494SOL    HW134115   3.469   0.388   8.791 -2.0379 -2.3517  0.6898
 7494SOL    HW234116   3.534   0.383   8.659 -0.6756 -1.9760 -1.1371
 7495SOL     OW34117   1.300   2.672   6.449  0.1977  0.8200  0.0465
 7495SOL    HW134118   1.311   2.726   6.527  1.6710  1.7762 -0.8258
 7495SOL    HW234119   1.233   2.716   6.396 -0.6392 -0.0051  0.4234
 7496SOL     OW34120   4.456   0.582   5.370  0.4993  0.6975 -0.0214
 7496SOL    HW134121   4.519   0.550   5.306  0.7645 -1.3741  1.2897
 7496SOL    HW234122   4.383   0.527   5.341 -1.5453  2.4999  1.7520
 7497SOL     OW34123   3.666   1.678  17.671 -0.0855 -0.1191  0.1189
 7497SOL    HW134124   3.596   1.615  17.686 -1.7810  1.5339 -0.7769
 7497SOL    HW234125   3.714   1.642  17.597  1.8933 -1.0006  1.8287
 7498SOL     OW34126   3.228   3.420  10.102 -0.1725 -0.1439  0.3183
 7498SOL    HW134127   3.195   3.337  10.067 -1.9133  0.7027 -0.0418
 7498SOL    HW234128   3.231   3.400  10.196 -0.7581  0.0742  0.3871
 7499SOL     OW34129   3.619   4.402   5.302 -0.0150  0.6856  0.2453
 7499SOL    HW134130   3.687   4.380   5.366  1.6012  0.0272 -1.6882
 7499SOL    HW234131   3.667   4.414   5.220 -0.1093  0.1710  0.1188
 7500SOL     OW34132   4.164   1.396   3.218 -0.0332  0.2063 -0.4254
 7500SOL    HW134133   4.182   1.435   3.304 -1.0394 -1.3012  0.4690
 7500SOL    HW234134   4.077   1.360   3.237  1.0869 -1.1750  2.1774
 7501SOL     OW34135   1.268   3.500   9.964  0.1948 -0.0550 -0.1785
 7501SOL    HW134136   1.339   3.547  10.007  0.9408 -1.3621  0.0043
 7501SOL    HW234137   1.288   3.414  10.000 -0.1707 -0.5850 -1.2641
 7502SOL     OW34138   1.840   1.224   6.306  0.2844 -0.4601 -0.0167
 7502SOL    HW134139   1.924   1.180   6.317  1.5683  1.5321 -1.6877
 7502SOL    HW234140   1.826   1.209   6.212 -1.1515  2.9428 -0.3676
 7503SOL     OW34141   0.570   4.112   0.919 -0.0711 -0.1259 -0.0731
 7503SOL    HW134142   0.531   4.114   0.832  1.1166 -0.2733 -0.6171
 7503SOL    HW234143   0.663   4.132   0.904 -0.1012  0.4189  0.4612
 7504SOL     OW34144   1.839   0.594   4.214  0.3074  0.0979 -0.1371
 7504SOL    HW134145   1.750   0.624   4.196 -1.0220 -3.0645  1.1706
 7504SOL    HW234146   1.826   0.514   4.265  0.2554  0.8452  1.0430
 7505SOL     OW34147   2.481   2.578   9.570 -0.1862 -0.0571  0.2892
 7505SOL    HW134148   2.553   2.568   9.507  0.1891  1.2931  0.5008
 7505SOL    HW234149   2.488   2.673   9.579 -2.3685  0.0083  1.1443
 7506SOL     OW34150   4.351   0.316   4.171  0.7463 -0.6658 -0.3287
 7506SOL    HW134151   4.392   0.230   4.162 -0.3232 -1.1570 -0.5243
 7506SOL    HW234152   4.266   0.295   4.131  2.4051 -1.8573 -3.2154
 7507SOL     OW34153   1.660   0.243   4.973  0.2092  0.7737 -0.5653
 7507SOL    HW134154   1.682   0.197   4.892  0.7969  0.7032 -0.3653
 7507SOL    HW234155   1.660   0.335   4.948  2.8216  1.5540  2.2443
 7508SOL     OW34156   1.238   0.491  12.085 -0.1027 -0.2014 -0.2430
 7508SOL    HW134157   1.283   0.567  12.122  1.3495 -1.3360  0.3013
 7508SOL    HW234158   1.184   0.470  12.162  1.5789  0.9448  1.2667
 7509SOL     OW34159   3.864   2.418   0.874  0.0042  0.4415 -0.5193
 7509SOL    HW134160   3.905   2.487   0.925 -1.4096 -0.5944  2.0333
 7509SOL    HW234161   3.944   2.387   0.831 -0.2119 -0.2998 -0.3888
 7510SOL     OW34162   0.079   3.441   3.217 -0.0758 -0.2428  0.3877
 7510SOL    HW134163   0.163   3.397   3.209 -0.0708  0.3771 -3.0749
 7510SOL    HW234164   0.053   3.459   3.126 -0.3662 -0.9776  0.3215
 7511SOL     OW34165   3.451   3.371   9.952 -0.0756 -0.0367 -0.6606
 7511SOL    HW134166   3.468   3.459   9.918 -2.8864  0.6847 -0.1704
 7511SOL    HW234167   3.364   3.388   9.987 -0.9915 -0.2290 -2.8376
 7512SOL     OW34168   1.089   1.339  17.236 -0.0723  0.5751 -0.2358
 7512SOL    HW134169   1.010   1.296  17.269 -0.3295 -0.2694 -1.9159
 7512SOL    HW234170   1.058   1.371  17.151  1.1755  0.3759 -0.7595
 7513SOL     OW34171   0.285   1.654   1.894  0.3548 -0.2630  0.3361
 7513SOL    HW134172   0.280   1.704   1.975 -0.3591  0.4956 -0.1755
 7513SOL    HW234173   0.209   1.688   1.846 -1.1025  0.2345  3.0447
 7514SOL     OW34174   2.002   4.140   5.781 -0.1342 -0.4463 -0.1530
 7514SOL    HW134175   2.014   4.234   5.792  1.6380 -0.7607  0.5647
 7514SOL    HW234176   2.083   4.112   5.739  1.4383 -0.2787  2.8076
 7515SOL     OW34177   4.172   3.015   0.569  0.3967  0.2662 -0.2050
 7515SOL    HW134178   4.257   2.987   0.602 -0.5608  0.3379  2.3765
 7515SOL    HW234179   4.166   2.952   0.497  0.7758  0.1424 -0.1276
 7516SOL     OW34180   3.421   2.758  10.749  0.1748 -0.1763 -0.5808
 7516SOL    HW134181   3.390   2.669  10.731 -1.7160  0.7213 -1.7162
 7516SOL    HW234182   3.467   2.771  10.666 -1.2586  3.1250 -0.8188
 7517SOL     OW34183   0.507   0.924   1.671  0.3570 -0.6311  1.4198
 7517SOL    HW134184   0.492   0.976   1.750  1.7561 -0.1861  1.3849
 7517SOL    HW234185   0.441   0.855   1.681 -2.2526  1.8224  0.9344
 7518SOL     OW34186   4.160   2.218  14.063  0.2682 -0.0636 -0.0053
 7518SOL    HW134187   4.194   2.139  14.021  0.9315  0.9473 -1.3482
 7518SOL    HW234188   4.072   2.186  14.084 -0.6615  0.9116 -2.4242
 7519SOL     OW34189   3.373   1.933  11.317  0.2630 -0.2902  0.5021
 7519SOL    HW134190   3.362   1.840  11.300  1.0435  0.3508 -3.5032
 7519SOL    HW234191   3.393   1.945  11.410  0.3050  1.5574  0.2566
 7520SOL     OW34192   3.335   2.370   6.018 -0.2573  0.7890  0.2538
 7520SOL    HW134193   3.281   2.340   5.946 -1.1733 -0.6702  1.5455
 7520SOL    HW234194   3.281   2.393   6.094  1.3106 -0.6360  1.7978
 7521SOL     OW34195   0.869   0.517  17.609 -0.3337 -0.3084  0.0650
 7521SOL    HW134196   0.914   0.598  17.634 -1.3408  0.1652  0.3481
 7521SOL    HW234197   0.943   0.467  17.575  0.7286 -0.8610  3.1596
 7522SOL     OW34198   2.329   0.658   3.107 -0.8872  0.6058  0.1928
 7522SOL    HW134199   2.294   0.610   3.032 -1.0362  1.3499 -0.2124
 7522SOL    HW234200   2.253   0.709   3.134 -1.1932 -0.0078  0.5121
 7523SOL     OW34201   3.437   3.168   7.707  0.2616  0.3083 -0.1888
 7523SOL    HW134202   3.509   3.224   7.734 -0.9039  1.5738  0.2512
 7523SOL    HW234203   3.359   3.222   7.718 -0.1614 -0.4889  0.7492
 7524SOL     OW34204   2.499   4.615   2.342  0.5179 -0.3050  0.8576
 7524SOL    HW134205   2.509   4.694   2.290 -0.9790 -1.5023 -1.2617
 7524SOL    HW234206   2.409   4.586   2.322  1.6435 -1.3136 -2.7189
 7525SOL     OW34207   0.514   1.836   8.884  0.0989  0.2105  0.3434
 7525SOL    HW134208   0.449   1.779   8.844  1.0076  0.4584 -1.5098
 7525SOL    HW234209   0.578   1.820   8.814 -1.1417  1.4768 -1.0788
 7526SOL     OW34210   0.674   4.172   5.509  0.1080  0.1616  0.2062
 7526SOL    HW134211   0.700   4.097   5.455  2.3845 -1.4136  3.4681
 7526SOL    HW234212   0.734   4.177   5.583  1.3994 -1.7521 -0.7035
 7527SOL     OW34213   0.249   2.591   7.513  0.3129 -0.5673 -0.2313
 7527SOL    HW134214   0.255   2.510   7.462  2.3785 -1.0713  0.8066
 7527SOL    HW234215   0.216   2.553   7.595 -1.8281 -0.4326 -1.0250
 7528SOL     OW34216   0.673   3.592   4.149  0.2330 -0.2445  0.1483
 7528SOL    HW134217   0.695   3.647   4.225  1.5991 -0.0617 -0.3714
 7528SOL    HW234218   0.647   3.661   4.088  3.5714 -0.0758 -1.0989
 7529SOL     OW34219   1.038   1.991  10.036  0.1320  0.0357  0.0316
 7529SOL    HW134220   0.956   1.990   9.987 -0.1576  1.2266  0.4736
 7529SOL    HW234221   1.078   1.907  10.013 -0.9421 -0.4582 -0.0238
 7530SOL     OW34222   1.497   1.554   4.382 -0.2155  0.2155 -0.3982
 7530SOL    HW134223   1.464   1.557   4.471 -0.8381 -0.8937 -0.5861
 7530SOL    HW234224   1.428   1.587   4.326 -0.9882 -0.8895 -0.1027
 7531SOL     OW34225   0.922   1.437  16.076  0.1345  0.2074 -0.0846
 7531SOL    HW134226   0.919   1.525  16.114  2.5950 -0.3065  1.3062
 7531SOL    HW234227   1.009   1.408  16.105 -0.6653  0.1702  2.2597
 7532SOL     OW34228   2.532   1.036  13.174 -0.3054 -0.1549  0.3219
 7532SOL    HW134229   2.514   1.028  13.267 -0.2134 -0.5119  0.3064
 7532SOL    HW234230   2.446   1.017  13.137 -0.1057 -0.4704  0.0248
 7533SOL     OW34231   0.084   3.994  14.141  0.1263  0.1657 -0.1401
 7533SOL    HW134232   0.085   4.073  14.194  0.7200  0.8043 -1.0991
 7533SOL    HW234233   0.006   3.999  14.086 -0.2936  1.1474  0.5554
 7534SOL     OW34234   1.924   4.726   3.992  0.1015 -0.1213 -0.1276
 7534SOL    HW134235   1.909   0.068   4.043 -0.0078  0.6878 -1.4176
 7534SOL    HW234236   1.835   4.694   4.010 -0.7344  2.5016  0.4499
 7535SOL     OW34237   1.591   4.083  14.214  0.0329  0.0194  0.6552
 7535SOL    HW134238   1.548   4.166  14.234 -2.6215 -1.6965  1.9628
 7535SOL    HW234239   1.517   4.048  14.164  0.7812  0.3640 -0.7009
 7536SOL     OW34240   2.986   1.659   2.232  0.4539 -0.2321 -0.1995
 7536SOL    HW134241   3.062   1.642   2.175  0.6034  1.2673 -0.4518
 7536SOL    HW234242   3.025   1.648   2.319  0.7937 -1.3103 -0.4950
 7537SOL     OW34243   4.506   2.495   2.404  0.6037  0.4462 -0.0052
 7537SOL    HW134244   4.592   2.537   2.404  0.5251  0.5991  1.4747
 7537SOL    HW234245   4.526   2.426   2.467  1.1879  1.1849  0.6157
 7538SOL     OW34246   1.307   2.681   5.290  0.0393 -0.1247  0.2441
 7538SOL    HW134247   1.281   2.709   5.378  1.3786 -1.6089  1.1266
 7538SOL    HW234248   1.394   2.722   5.286 -0.7784  1.4859 -0.8314
 7539SOL     OW34249   0.058   2.120  14.910  0.1234  0.2426 -0.1490
 7539SOL    HW134250   0.084   2.159  14.826  0.9131  0.5657  0.2556
 7539SOL    HW234251   0.001   2.053  14.873 -0.0645 -0.2348  1.0109
 7540SOL     OW34252   1.951   3.972  14.832  0.4267 -0.5092 -0.0581
 7540SOL    HW134253   1.901   3.898  14.865 -0.0469 -0.4214 -0.5800
 7540SOL    HW234254   2.024   3.932  14.785  0.8385  0.3421 -0.1592
 7541SOL     OW34255   0.516   3.519   8.573  0.0998 -0.1676 -0.1407
 7541SOL    HW134256   0.598   3.546   8.532  0.2925 -2.1147 -1.0586
 7541SOL    HW234257   0.455   3.584   8.538 -3.4740 -2.3164  2.0143
 7542SOL     OW34258   0.443   3.427  16.312  0.7635  0.4113 -0.0965
 7542SOL    HW134259   0.378   3.408  16.244  1.1730 -0.4556 -0.2437
 7542SOL    HW234260   0.393   3.427  16.393 -0.4599 -0.5459 -0.8553
 7543SOL     OW34261   0.026   3.676  13.400 -0.2080  0.5406  0.0839
 7543SOL    HW134262   0.090   3.703  13.334  0.3830 -1.5858 -0.2078
 7543SOL    HW234263   0.069   3.601  13.441  3.0732  1.3456 -1.9053
 7544SOL     OW34264   0.554   3.299  11.374 -0.0307  0.2520 -0.4293
 7544SOL    HW134265   0.552   3.319  11.467  1.2174 -2.3626  0.1581
 7544SOL    HW234266   0.575   3.381  11.329  0.4489  0.4967  0.2547
 7545SOL     OW34267   2.991   3.275   1.215  0.1126 -0.0963  0.2456
 7545SOL    HW134268   3.034   3.284   1.130  1.8805  2.0041  1.3363
 7545SOL    HW234269   2.957   3.186   1.214 -0.8087  0.2597 -0.0077
 7546SOL     OW34270   3.610   2.689   0.445 -0.7545  0.0983 -0.2206
 7546SOL    HW134271   3.547   2.723   0.383 -1.3103  0.7348  0.6872
 7546SOL    HW234272   3.631   2.608   0.398 -1.0565 -0.5973  0.8336
 7547SOL     OW34273   0.891   1.839   9.373  1.4058 -0.2270 -0.1729
 7547SOL    HW134274   0.871   1.911   9.433 -2.5099 -0.1501 -1.5826
 7547SOL    HW234275   0.818   1.833   9.311  1.2005  0.9112 -0.0567
 7548SOL     OW34276   1.778   2.493   3.368  0.1726 -0.4270 -0.4755
 7548SOL    HW134277   1.823   2.548   3.304 -0.8846  3.3720  2.0035
 7548SOL    HW234278   1.700   2.547   3.382 -0.8260 -1.7088 -1.0755
 7549SOL     OW34279   1.960   0.206   0.206  0.1805  0.0930  0.3139
 7549SOL    HW134280   2.054   0.193   0.201 -0.0989 -1.3342 -0.9504
 7549SOL    HW234281   1.940   0.247   0.122  0.4585 -1.0407 -0.2940
 7550SOL     OW34282   4.471   2.945   3.619  0.6919 -0.0592  0.8724
 7550SOL    HW134283   4.410   2.990   3.561 -0.0130 -1.8344  0.2058
 7550SOL    HW234284   4.511   2.879   3.562 -0.3802 -0.5607  0.7010
 7551SOL     OW34285   3.536   1.840   0.527  0.3490  0.4551  0.1900
 7551SOL    HW134286   3.445   1.812   0.517 -0.0294  2.0864 -0.9967
 7551SOL    HW234287   3.542   1.916   0.469 -0.7918  1.4232  1.3234
 7552SOL     OW34288   3.799   0.287  12.270  0.0847  0.3945 -0.3130
 7552SOL    HW134289   3.776   0.379  12.257  0.0246  0.8111  2.8491
 7552SOL    HW234290   3.796   0.265  12.177  0.9475  1.9856 -0.7308
 7553SOL     OW34291   4.582   4.246   3.248 -0.4515 -0.1115 -0.0403
 7553SOL    HW134292   4.639   4.228   3.323 -0.3265  1.0746  0.1422
 7553SOL    HW234293   4.566   4.158   3.212  0.5455 -0.4641  0.3821
 7554SOL     OW34294   1.844   3.437   6.437 -0.0751 -0.0220 -0.4365
 7554SOL    HW134295   1.780   3.480   6.493  0.3092 -0.6546  0.4933
 7554SOL    HW234296   1.796   3.372   6.386 -1.7391  0.4416  0.5456
 7555SOL     OW34297   0.773   2.771   1.337 -0.4578 -0.0968  0.3360
 7555SOL    HW134298   0.820   2.690   1.316  0.3611  1.2663 -3.0158
 7555SOL    HW234299   0.846   2.829   1.357 -0.8021  0.8016 -0.9594
 7556SOL     OW34300   3.963   0.892   9.821  0.5257  0.5072  0.9744
 7556SOL    HW134301   4.040   0.844   9.854  0.6221  0.9223  1.3633
 7556SOL    HW234302   3.989   0.894   9.729 -1.3099 -1.2303  0.4143
 7557SOL     OW34303   3.244   3.041   2.829  0.1066  0.2481 -0.4283
 7557SOL    HW134304   3.306   2.970   2.809  0.6454 -0.0491  2.3213
 7557SOL    HW234305   3.198   3.066   2.749 -0.8048 -0.5394 -0.1533
 7558SOL     OW34306   2.578   0.283  14.997 -0.1657  0.5112 -0.2076
 7558SOL    HW134307   2.545   0.195  14.979 -2.8681  2.1224 -3.0804
 7558SOL    HW234308   2.663   0.291  14.953  0.7959 -3.0844  0.9999
 7559SOL     OW34309   4.470   4.403   3.038 -0.3897 -0.2377 -0.1014
 7559SOL    HW134310   4.515   4.345   3.099 -2.2133 -1.3029  0.2549
 7559SOL    HW234311   4.517   4.383   2.958  0.4859 -1.8418  0.8247
 7560SOL     OW34312   2.207   3.050  13.632  0.6192  0.2958 -0.0303
 7560SOL    HW134313   2.195   2.957  13.649  1.8170 -0.0088 -0.8972
 7560SOL    HW234314   2.162   3.090  13.707  0.2443 -0.9597  0.4075
 7561SOL     OW34315   1.662   2.793  15.709 -0.3707  0.3850 -0.4327
 7561SOL    HW134316   1.715   2.783  15.788 -1.9418 -1.9648  0.3256
 7561SOL    HW234317   1.713   2.753  15.638  0.6210 -0.6871  0.8880
 7562SOL     OW34318   2.666   3.841  10.935  0.0524 -0.2561 -0.1007
 7562SOL    HW134319   2.746   3.889  10.913  0.1196  1.3013  3.5465
 7562SOL    HW234320   2.697   3.776  10.999  1.2697 -0.4159 -0.8554
 7563SOL     OW34321   1.334   2.262   3.283  0.7552  0.1083  0.4480
 7563SOL    HW134322   1.410   2.318   3.274  2.1778 -1.9706 -0.4848
 7563SOL    HW234323   1.315   2.258   3.189 -2.3703 -0.4792  1.0795
 7564SOL     OW34324   3.720   2.616   5.110 -0.0663 -0.2306 -0.5138
 7564SOL    HW134325   3.776   2.553   5.155  0.4112  0.4934 -0.0862
 7564SOL    HW234326   3.781   2.690   5.107  0.3518 -0.4610  1.9003
 7565SOL     OW34327   1.502   3.046   5.154 -0.5853  0.3214 -0.3697
 7565SOL    HW134328   1.538   2.992   5.083 -1.5384  3.2073 -3.0712
 7565SOL    HW234329   1.408   3.036   5.141 -0.5457  0.2023 -0.5681
 7566SOL     OW34330   2.956   0.830  14.703 -0.0341  0.3625 -0.3237
 7566SOL    HW134331   2.880   0.823  14.645 -0.8164  0.5554  0.6754
 7566SOL    HW234332   2.910   0.813  14.785  1.1883  0.8035  0.4481
 7567SOL     OW34333   1.170   1.889   9.195  0.1377 -0.1350  0.1208
 7567SOL    HW134334   1.158   1.812   9.249  1.7417  0.7270  1.7123
 7567SOL    HW234335   1.098   1.885   9.132  1.1984  0.7004 -1.1672
 7568SOL     OW34336   1.010   3.712   3.046 -0.3294  0.4606 -0.0132
 7568SOL    HW134337   0.965   3.698   2.963 -1.5724  1.1983  0.5290
 7568SOL    HW234338   0.999   3.627   3.088  0.7199  0.5010  0.3514
 7569SOL     OW34339   3.971   3.326   7.752  0.1969  0.2389 -0.4536
 7569SOL    HW134340   4.014   3.245   7.780  0.0022 -0.6112 -2.5558
 7569SOL    HW234341   3.960   3.309   7.658 -0.1611  2.4273 -0.8058
 7570SOL     OW34342   2.394   1.682   4.976  0.1736  0.7791 -0.8285
 7570SOL    HW134343   2.374   1.725   4.893 -1.0003  4.5555  1.4493
 7570SOL    HW234344   2.304   1.679   5.010  0.4310  1.2549 -0.1268
 7571SOL     OW34345   3.688   1.371   8.833  0.0629 -0.1208  0.1488
 7571SOL    HW134346   3.597   1.398   8.842  0.2329  0.0987  1.1865
 7571SOL    HW234347   3.728   1.451   8.800  2.8052 -0.8051  1.7424
 7572SOL     OW34348   0.075   4.735   8.980 -0.1825  0.0741  0.8272
 7572SOL    HW134349   0.143   4.674   9.010  1.8585  1.2290 -1.4782
 7572SOL    HW234350   0.079   0.076   9.034  1.0131  1.1122 -0.7910
 7573SOL     OW34351   3.270   4.178   6.088  0.5546  0.2782 -0.4419
 7573SOL    HW134352   3.221   4.240   6.034 -0.6496  1.1892  1.6695
 7573SOL    HW234353   3.319   4.133   6.020  3.3439  2.0965  0.3672
 7574SOL     OW34354   1.228   2.832   9.678 -0.0543 -0.5245  0.0633
 7574SOL    HW134355   1.272   2.769   9.620 -0.4078 -0.9747  0.2860
 7574SOL    HW234356   1.290   2.904   9.691 -0.0989 -0.6806  1.1598
 7575SOL     OW34357   4.729   2.888   8.977  0.2006  0.6275  0.3090
 7575SOL    HW134358   0.045   2.941   9.036  0.0876  1.6089 -0.4808
 7575SOL    HW234359   0.043   2.838   8.914 -1.5308  0.1897 -0.7569
 7576SOL     OW34360   4.061   4.723   2.815  0.3355 -0.3947 -0.5190
 7576SOL    HW134361   3.991   4.705   2.877 -0.9309  1.1605 -1.4816
 7576SOL    HW234362   4.142   4.720   2.865 -0.1386 -0.3330  0.2444
 7577SOL     OW34363   4.070   1.734   6.533  0.3382  0.0057  0.1073
 7577SOL    HW134364   4.006   1.752   6.463 -2.1070  0.7953  2.5380
 7577SOL    HW234365   4.040   1.650   6.568  0.2383  0.0556  0.1421
 7578SOL     OW34366   3.805   2.107   6.618 -0.2538  0.4294 -0.2719
 7578SOL    HW134367   3.732   2.129   6.560  0.3803  0.8185 -0.9207
 7578SOL    HW234368   3.783   2.157   6.697 -1.2623 -0.6185  0.1063
 7579SOL     OW34369   0.935   0.825   8.494 -0.0583  0.0928  0.4654
 7579SOL    HW134370   1.025   0.857   8.503  0.5639 -1.3039 -0.8599
 7579SOL    HW234371   0.904   0.865   8.575  1.9037  0.1624  1.1663
 7580SOL     OW34372   3.417   1.108   7.382  0.6221 -0.2048 -0.0155
 7580SOL    HW134373   3.472   1.108   7.461  2.1560 -1.7054 -1.0946
 7580SOL    HW234374   3.473   1.107   7.305  0.4799  0.3234 -0.1279
 7581SOL     OW34375   4.260   4.383   9.825 -0.1879  0.7697 -0.5576
 7581SOL    HW134376   4.294   4.402   9.737  1.3246  1.5364  0.1883
 7581SOL    HW234377   4.308   4.303   9.848 -0.1274  0.1838 -2.6592
 7582SOL     OW34378   2.584   1.101   1.571  0.4006 -0.7857  0.5653
 7582SOL    HW134379   2.666   1.148   1.557 -0.0291  0.3070  1.6941
 7582SOL    HW234380   2.613   1.011   1.588 -0.8492 -1.3996 -0.5704
 7583SOL     OW34381   4.320   4.727  10.271  0.4832  0.2468  0.1249
 7583SOL    HW134382   4.314   4.671  10.349 -2.0691  0.2360 -0.0789
 7583SOL    HW234383   4.343   4.665  10.202  1.2726  0.5132  0.1395
 7584SOL     OW34384   2.860   0.443  12.393 -0.0167  0.1122 -0.6167
 7584SOL    HW134385   2.901   0.523  12.360  1.9214 -0.0923  1.3164
 7584SOL    HW234386   2.768   0.469  12.401 -0.0001 -0.6569  2.1692
 7585SOL     OW34387   3.621   2.808   4.306 -0.0702  0.4335  0.4026
 7585SOL    HW134388   3.574   2.864   4.243 -1.9007 -1.3489  0.1661
 7585SOL    HW234389   3.544   2.766   4.345  0.2962 -1.5795 -0.9997
 7586SOL     OW34390   2.860   0.313   9.484 -0.1683 -0.0098 -0.2526
 7586SOL    HW134391   2.819   0.293   9.401 -1.9414 -0.3299  0.6998
 7586SOL    HW234392   2.949   0.291   9.457 -0.6681 -0.9936 -1.0944
 7587SOL     OW34393   4.232   4.728  17.732  0.2063 -0.0092  0.7093
 7587SOL    HW134394   4.237   4.710  17.638 -1.7404  1.0057  0.4254
 7587SOL    HW234395   4.321   4.697   0.005  0.1582 -0.1940  0.6385
 7588SOL     OW34396   0.356   2.043   8.938  0.5441  0.0177 -0.2340
 7588SOL    HW134397   0.282   1.983   8.928  0.8756 -0.6407  1.2064
 7588SOL    HW234398   0.421   1.979   8.909  1.3072  1.4587 -1.6899
 7589SOL     OW34399   2.057   1.248  14.591  0.3326 -0.0516  0.6263
 7589SOL    HW134400   2.018   1.167  14.559 -1.7895  2.1564 -2.2988
 7589SOL    HW234401   2.017   1.249  14.678  2.4115 -0.9348  1.6153
 7590SOL     OW34402   4.701   0.163  13.345  0.6743  0.1207  0.5529
 7590SOL    HW134403   4.694   0.069  13.361 -2.2488  0.6851  2.7243
 7590SOL    HW234404   4.634   0.178  13.279  0.7942 -2.4450 -0.1463
 7591SOL     OW34405   1.115   3.061   7.554  0.9263 -0.2082  0.1426
 7591SOL    HW134406   1.034   3.105   7.580  0.2993 -0.4690 -1.3913
 7591SOL    HW234407   1.135   3.006   7.630  0.7277 -0.0222  0.3275
 7592SOL     OW34408   1.704   3.794   8.542 -0.0778  0.4335  0.7250
 7592SOL    HW134409   1.617   3.755   8.556 -0.3216  0.8181  0.2941
 7592SOL    HW234410   1.765   3.722   8.555 -0.0015  0.5055  0.7636
 7593SOL     OW34411   3.996   4.591   9.653  0.2458  0.0328 -0.3211
 7593SOL    HW134412   4.058   4.550   9.592 -0.4994  1.2490 -1.8674
 7593SOL    HW234413   4.056   4.634   9.714  2.0372 -2.0341 -0.5869
 7594SOL     OW34414   4.216   2.849   6.671  0.2286  0.3830 -0.1341
 7594SOL    HW134415   4.266   2.918   6.627 -0.2822  1.0791  0.3905
 7594SOL    HW234416   4.286   2.784   6.681  0.8450  1.3721  2.0252
 7595SOL     OW34417   4.161   1.210   1.085  0.0842 -0.2240  0.0583
 7595SOL    HW134418   4.171   1.139   1.149 -0.7241  0.0755  0.5146
 7595SOL    HW234419   4.192   1.157   1.011 -2.0406 -0.8649 -0.3712
 7596SOL     OW34420   3.021   3.328   3.271  0.2332 -0.4468 -0.2789
 7596SOL    HW134421   3.068   3.284   3.342 -1.4008  0.3452  1.3074
 7596SOL    HW234422   2.931   3.296   3.285  0.6317 -0.5886  2.0402
 7597SOL     OW34423   2.745   1.506   5.817  0.5244  0.1303 -0.4417
 7597SOL    HW134424   2.821   1.564   5.806  0.2500  0.7651  1.0195
 7597SOL    HW234425   2.747   1.465   5.903 -2.1420  0.4506 -0.2329
 7598SOL     OW34426   0.617   3.845  17.093  0.1374 -0.2174 -0.0558
 7598SOL    HW134427   0.649   3.810  17.176  1.1985 -1.1509 -0.8504
 7598SOL    HW234428   0.671   3.794  17.032 -0.3763  0.5009 -1.1186
 7599SOL     OW34429   1.585   0.127   8.966  0.5114 -0.7032 -0.0939
 7599SOL    HW134430   1.559   0.218   8.953  3.1631  0.3580  1.9923
 7599SOL    HW234431   1.507   0.076   8.989 -0.9818  1.2649 -0.8584
 7600SOL     OW34432   2.658   1.059  14.806 -0.2394 -1.0620  0.5486
 7600SOL    HW134433   2.582   1.004  14.785 -0.7882  0.3209 -1.0765
 7600SOL    HW234434   2.717   1.028  14.737 -0.1146  0.9755 -0.2602
 7601SOL     OW34435   4.103   1.740   2.405 -0.1947 -0.2691 -0.4260
 7601SOL    HW134436   4.086   1.772   2.493 -0.6714 -0.6584 -0.3752
 7601SOL    HW234437   4.195   1.760   2.385  0.3904 -0.1876  2.3748
 7602SOL     OW34438   4.282   0.848  17.590 -0.1094  0.3540  0.0079
 7602SOL    HW134439   4.289   0.857  17.685 -1.9284  1.6576  0.0239
 7602SOL    HW234440   4.375   0.857  17.570 -0.4804  2.5118 -0.6854
 7603SOL     OW34441   3.538   2.759   5.744  0.1746  0.2873  0.0774
 7603SOL    HW134442   3.594   2.821   5.791  0.0493 -0.9479  1.8592
 7603SOL    HW234443   3.507   2.708   5.819 -2.2725  1.7786  0.1048
 7604SOL     OW34444   0.156   1.743   5.300 -0.3460 -0.0118 -0.1521
 7604SOL    HW134445   0.079   1.722   5.247  0.6902 -1.5998 -1.0345
 7604SOL    HW234446   0.121   1.783   5.379  1.5697  0.1317  0.6138
 7605SOL     OW34447   2.107   3.713   9.874 -0.0285  0.4176 -0.3446
 7605SOL    HW134448   2.015   3.691   9.889 -0.9700  3.5925 -1.3423
 7605SOL    HW234449   2.104   3.772   9.799 -0.8555  0.4637 -0.2739
 7606SOL     OW34450   4.030   3.363  12.392  0.6541  0.4067 -0.0081
 7606SOL    HW134451   4.052   3.278  12.430 -0.8816 -0.0486 -0.1426
 7606SOL    HW234452   3.940   3.346  12.364  1.4088 -2.2333 -0.7682
 7607SOL     OW34453   1.385   3.934   1.314 -0.1989  0.4413 -0.1865
 7607SOL    HW134454   1.437   3.889   1.380 -1.6079 -0.3216  0.4067
 7607SOL    HW234455   1.312   3.873   1.299 -0.9722  1.2771  0.1830
 7608SOL     OW34456   0.290   3.377   6.268 -0.1893 -0.1711  0.0897
 7608SOL    HW134457   0.295   3.471   6.289  1.3971 -0.2000 -0.2009
 7608SOL    HW234458   0.196   3.375   6.250 -0.1825 -1.5535  0.2348
 7609SOL     OW34459   0.851   1.430  15.796 -0.1414  0.1762  0.0815
 7609SOL    HW134460   0.886   1.421  15.885 -0.5596 -2.7965 -0.0454
 7609SOL    HW234461   0.821   1.521  15.802 -0.3193  0.1400 -0.2904
 7610SOL     OW34462   3.718   1.593   5.063 -0.1228  0.3061 -0.1259
 7610SOL    HW134463   3.624   1.609   5.059 -0.0450  1.2256  1.5549
 7610SOL    HW234464   3.753   1.667   5.113  2.5612 -1.8610  1.1939
 7611SOL     OW34465   2.052   2.306  11.745  0.0764  0.0095  0.5350
 7611SOL    HW134466   2.101   2.225  11.726 -0.0760  0.1966 -0.6510
 7611SOL    HW234467   2.018   2.284  11.832 -0.7493 -0.6925  0.0284
 7612SOL     OW34468   4.421   3.766  16.428 -0.5883 -0.0092 -0.0049
 7612SOL    HW134469   4.423   3.804  16.339  1.1168  1.1807  0.5498
 7612SOL    HW234470   4.372   3.827  16.483 -0.7621 -0.4601  0.3388
 7613SOL     OW34471   2.426   3.681   7.221  0.6913  0.3979  0.1787
 7613SOL    HW134472   2.392   3.760   7.262  1.0080  0.1145  1.0001
 7613SOL    HW234473   2.516   3.669   7.251  0.2742 -1.5720  0.6203
 7614SOL     OW34474   2.992   0.154   1.601  0.1877  0.3121  0.1529
 7614SOL    HW134475   2.999   0.240   1.558 -0.8658 -0.4487 -1.5294
 7614SOL    HW234476   2.992   0.175   1.694 -0.3513  0.3396  0.1477
 7615SOL     OW34477   1.254   2.733   4.989  0.5212 -0.2895 -0.1398
 7615SOL    HW134478   1.245   2.805   4.927 -0.7050  0.9833  1.5203
 7615SOL    HW234479   1.231   2.770   5.074 -1.7775 -0.9276 -0.4766
 7616SOL     OW34480   2.880   4.559   3.350  0.2735  0.2770 -0.3537
 7616SOL    HW134481   2.834   4.481   3.383 -1.8933  1.5424 -0.4190
 7616SOL    HW234482   2.830   4.626   3.396 -0.3834 -0.1000 -0.5145
 7617SOL     OW34483   3.408   0.518   5.734  0.5081 -0.3177  0.0291
 7617SOL    HW134484   3.379   0.433   5.700 -1.0930 -0.2644  1.2987
 7617SOL    HW234485   3.453   0.556   5.659 -1.2747  1.8259  0.0745
 7618SOL     OW34486   2.636   0.211   7.042 -0.2644  0.1085 -0.3840
 7618SOL    HW134487   2.709   0.153   7.017 -0.1951 -0.2453  0.6202
 7618SOL    HW234488   2.673   0.292   7.007  1.8077 -0.2619  0.9319
 7619SOL     OW34489   4.489   1.038   0.630 -0.2563 -0.5030 -0.3456
 7619SOL    HW134490   4.418   1.021   0.692 -0.2627  2.0944  0.3591
 7619SOL    HW234491   4.568   1.022   0.681 -0.3524  0.6393  0.1586
 7620SOL     OW34492   0.890   2.336   8.502  0.4177  0.2167  0.1752
 7620SOL    HW134493   0.815   2.334   8.562  1.7895  1.7181  1.9617
 7620SOL    HW234494   0.946   2.273   8.546 -0.8783 -2.2555 -1.7286
 7621SOL     OW34495   2.873   0.851   0.465 -0.1364  0.0143  0.0488
 7621SOL    HW134496   2.912   0.924   0.514 -0.2074  1.1091 -1.5325
 7621SOL    HW234497   2.809   0.898   0.412 -0.4252 -1.2966 -0.7428
 7622SOL     OW34498   4.336   3.240   8.953  0.6369 -0.4720  0.0803
 7622SOL    HW134499   4.391   3.319   8.950 -1.1827  0.8202  0.2916
 7622SOL    HW234500   4.381   3.179   8.895  0.7508  0.4806 -0.8283
 7623SOL     OW34501   0.607   1.027   8.785 -0.0088  0.2100 -0.2019
 7623SOL    HW134502   0.669   0.984   8.845 -0.2113 -0.6866 -0.6370
 7623SOL    HW234503   0.547   0.954   8.773 -0.2872 -0.1053  3.0927
 7624SOL     OW34504   3.950   4.575   5.211  0.0632  0.4098 -0.1516
 7624SOL    HW134505   3.985   4.491   5.239 -2.4526 -0.4492  0.4313
 7624SOL    HW234506   3.891   4.589   5.285 -0.4664  1.7314 -0.8176
 7625SOL     OW34507   3.857   1.122   2.167 -0.0259  0.2427  0.4969
 7625SOL    HW134508   3.766   1.101   2.149 -0.3405  1.3339  0.8116
 7625SOL    HW234509   3.897   1.076   2.093 -2.1063 -0.8165  0.0204
 7626SOL     OW34510   0.759   1.644   6.742 -0.0006  0.0002 -0.4454
 7626SOL    HW134511   0.853   1.658   6.759 -0.4541 -1.2014  3.1307
 7626SOL    HW234512   0.773   1.569   6.685 -1.9619 -1.1709  0.6393
 7627SOL     OW34513   0.970   1.699   9.069  0.6332  0.0466  0.7008
 7627SOL    HW134514   0.889   1.724   9.113  0.3863  0.8020 -0.1806
 7627SOL    HW234515   0.944   1.626   9.013 -0.7345  1.2140 -0.1734
 7628SOL     OW34516   4.141   2.225  11.158 -0.3695  0.1742 -0.2538
 7628SOL    HW134517   4.160   2.319  11.156 -0.8159  0.2892  0.8488
 7628SOL    HW234518   4.206   2.205  11.226  0.8383  2.0853 -0.8466
 7629SOL     OW34519   4.380   2.134   3.083 -0.2971  0.8161  0.2590
 7629SOL    HW134520   4.397   2.077   3.008  0.6108  1.4472 -0.0091
 7629SOL    HW234521   4.300   2.175   3.052 -1.0344 -0.9627 -0.2086
 7630SOL     OW34522   3.553   0.854   3.124 -0.0926  0.3339  0.9959
 7630SOL    HW134523   3.639   0.890   3.146  0.3158  0.0642 -0.1915
 7630SOL    HW234524   3.565   0.778   3.182 -1.0170  0.1537  0.9521
 7631SOL     OW34525   2.418   2.321   2.903 -0.3064 -0.0767  0.2853
 7631SOL    HW134526   2.469   2.241   2.889  0.1207  0.6403 -2.3644
 7631SOL    HW234527   2.349   2.280   2.955 -1.5067  0.6588 -0.7028
 7632SOL     OW34528   4.653   0.538   2.164  0.5815  0.2724  0.0288
 7632SOL    HW134529   4.706   0.555   2.242 -0.8038 -1.5238  1.3437
 7632SOL    HW234530   4.695   0.463   2.122  0.6215 -0.1933  0.8883
 7633SOL     OW34531   4.073   2.564  14.573 -0.0536 -0.4019  0.2462
 7633SOL    HW134532   4.108   2.620  14.503  3.1859 -1.7963  0.7476
 7633SOL    HW234533   4.027   2.631  14.623  0.0318 -0.3117  0.2041
 7634SOL     OW34534   0.288   2.940   3.247  0.4632 -0.6223 -0.1111
 7634SOL    HW134535   0.363   2.969   3.196 -0.7508  1.7726 -0.5250
 7634SOL    HW234536   0.311   2.851   3.274  1.6278  0.5726  2.9640
 7635SOL     OW34537   2.463   4.350   5.111 -0.3526  0.3888 -0.4006
 7635SOL    HW134538   2.437   4.426   5.059  0.6693  1.3534  0.4940
 7635SOL    HW234539   2.374   4.321   5.130  0.1908 -1.4873 -0.7183
 7636SOL     OW34540   4.304   0.946   6.321 -0.0889 -0.1140 -0.0962
 7636SOL    HW134541   4.291   1.036   6.291  2.3675 -0.8487 -3.3556
 7636SOL    HW234542   4.366   0.952   6.394 -1.6070 -0.8266  1.2408
 7637SOL     OW34543   4.696   0.221   2.081 -0.6458  0.0901 -0.3823
 7637SOL    HW134544   0.046   0.236   2.117 -0.3587 -0.4177 -0.8511
 7637SOL    HW234545   4.683   0.141   2.133  0.1885 -0.7438 -1.4433
 7638SOL     OW34546   0.976   0.265   1.661  0.3242  0.4412  0.1491
 7638SOL    HW134547   0.996   0.174   1.642  0.7453 -0.2747  4.0691
 7638SOL    HW234548   1.056   0.290   1.707  0.1792  0.0462  0.6145
 7639SOL     OW34549   3.473   1.083  13.590 -0.7222  0.0347  0.3743
 7639SOL    HW134550   3.390   1.064  13.546 -0.7382 -1.5138  1.0893
 7639SOL    HW234551   3.494   0.998  13.630  1.1209  0.1204 -0.3877
 7640SOL     OW34552   3.622   0.583   2.592 -0.6479  0.2597 -0.1190
 7640SOL    HW134553   3.664   0.521   2.532  0.5327  1.5176 -0.5770
 7640SOL    HW234554   3.690   0.650   2.593 -1.4155  1.0191  0.2017
 7641SOL     OW34555   0.914   1.600   5.806 -0.0057  0.1631  0.0899
 7641SOL    HW134556   0.943   1.642   5.725 -1.5823  0.7880 -0.1435
 7641SOL    HW234557   0.831   1.557   5.784 -0.4937  0.6091  1.0307
 7642SOL     OW34558   2.320   2.309   4.622  0.2639 -0.6335 -0.5735
 7642SOL    HW134559   2.237   2.284   4.663  1.1612  0.8350  2.1164
 7642SOL    HW234560   2.316   2.404   4.629  0.1439 -0.6894  0.1221
 7643SOL     OW34561   3.963   3.259   3.049 -0.1016 -0.2459  0.9861
 7643SOL    HW134562   3.921   3.250   3.134  0.7992  1.4087  1.6029
 7643SOL    HW234563   3.949   3.351   3.028  2.0452  0.4255  2.4846
 7644SOL     OW34564   1.107   4.274   3.814  0.4659  1.1547 -0.4700
 7644SOL    HW134565   1.168   4.200   3.816 -3.5484 -2.1890 -2.1672
 7644SOL    HW234566   1.155   4.327   3.751  0.7260  1.7362  0.2255
 7645SOL     OW34567   1.909   2.894   6.854 -0.3363  0.6652  0.3065
 7645SOL    HW134568   1.971   2.955   6.813  1.8691 -1.6014  0.2570
 7645SOL    HW234569   1.959   2.813   6.866 -1.2614  0.2198  1.2038
 7646SOL     OW34570   2.036   0.966  14.486  0.4112  0.4039  0.8945
 7646SOL    HW134571   1.996   1.011  14.412  3.5421  1.3953 -0.1971
 7646SOL    HW234572   2.053   0.883  14.442  0.3088  0.6556  0.3760
 7647SOL     OW34573   3.149   0.115  10.010  0.0064  0.1907 -0.1548
 7647SOL    HW134574   3.204   0.044   9.980  2.6093  1.5912  1.3337
 7647SOL    HW234575   3.204   0.165  10.071 -1.1939  0.0829  1.0395
 7648SOL     OW34576   4.330   2.999   2.873 -0.1594  0.3339 -0.0441
 7648SOL    HW134577   4.351   3.034   2.960  1.6410 -1.0188  0.0807
 7648SOL    HW234578   4.274   2.924   2.892  2.4879 -0.9085  2.9285
 7649SOL     OW34579   4.124   3.957   2.574  0.2066 -0.1639 -1.2742
 7649SOL    HW134580   4.054   3.990   2.629  0.7651 -0.6691 -0.2632
 7649SOL    HW234581   4.061   3.901   2.530 -1.7204 -0.0552  1.3941
 7650SOL     OW34582   1.843   2.221  17.065  0.7091  0.1317  0.3486
 7650SOL    HW134583   1.935   2.243  17.082  0.4709  0.9389  0.6191
 7650SOL    HW234584   1.818   2.293  17.007 -0.9463 -0.7115  0.0071
 7651SOL     OW34585   4.302   1.820   7.538  0.0459 -0.4931  0.0030
 7651SOL    HW134586   4.240   1.748   7.529  1.7721 -2.0933  0.8122
 7651SOL    HW234587   4.295   1.863   7.453 -2.6553  0.0762  0.5008
 7652SOL     OW34588   1.490   2.383   7.472  0.0644  0.2545 -0.4276
 7652SOL    HW134589   1.521   2.474   7.470 -1.0873  0.6481 -0.5652
 7652SOL    HW234590   1.567   2.336   7.440  1.2785  0.8570  1.5909
 7653SOL     OW34591   3.304   1.635  16.093 -0.6443  0.2192  0.2308
 7653SOL    HW134592   3.279   1.581  16.169 -0.8236  0.1838  0.1471
 7653SOL    HW234593   3.343   1.717  16.124 -2.0202  0.9826 -0.0549
 7654SOL     OW34594   2.276   0.302  16.901  0.1781 -0.0692  0.2020
 7654SOL    HW134595   2.367   0.331  16.905  0.3088 -0.2856 -1.2943
 7654SOL    HW234596   2.244   0.362  16.834 -2.1210 -0.3419  1.0516
 7655SOL     OW34597   2.889   2.981   6.415 -0.3458  0.0030  0.3901
 7655SOL    HW134598   2.867   2.943   6.501  2.2531  1.2487  1.6168
 7655SOL    HW234599   2.984   2.990   6.425 -0.4102 -1.2981  2.3159
 7656SOL     OW34600   0.310   1.484  16.502 -0.2721 -0.5986 -0.4793
 7656SOL    HW134601   0.281   1.575  16.495 -0.8244 -0.6783  0.8580
 7656SOL    HW234602   0.221   1.452  16.507 -0.6889  0.6037 -0.1243
 7657SOL     OW34603   0.348   2.168   5.668  0.0245 -0.6489 -1.0611
 7657SOL    HW134604   0.433   2.194   5.701 -1.8305  1.3165  2.1966
 7657SOL    HW234605   0.325   2.240   5.609  1.5654  0.4691 -0.2749
 7658SOL     OW34606   4.499   1.303   0.703 -0.4004  0.7685  0.6383
 7658SOL    HW134607   4.586   1.284   0.666 -1.1904 -2.4893  0.4993
 7658SOL    HW234608   4.451   1.233   0.660  0.3532  1.8644 -2.0183
 7659SOL     OW34609   4.476   2.409   6.268  0.1676  0.5140 -0.1594
 7659SOL    HW134610   4.471   2.418   6.172 -3.2061 -1.4675 -0.1761
 7659SOL    HW234611   4.568   2.429   6.280 -0.0499 -0.0072  2.2385
 7660SOL     OW34612   4.708   2.621  11.154 -0.0084  0.7929  0.1149
 7660SOL    HW134613   4.706   2.526  11.141  1.4105  0.7408  0.2618
 7660SOL    HW234614   0.011   2.619  11.241  2.5612 -1.5907 -1.1514
 7661SOL     OW34615   1.261   3.600   0.910 -0.3882 -0.7389 -0.0549
 7661SOL    HW134616   1.297   3.629   0.994  1.9693 -1.9933 -0.6289
 7661SOL    HW234617   1.213   3.680   0.889 -2.4017 -2.1847 -1.0044
 7662SOL     OW34618   1.553   0.126   3.297  0.0982  0.4010 -0.2693
 7662SOL    HW134619   1.648   0.133   3.305  0.1255 -1.2572  0.8642
 7662SOL    HW234620   1.545   0.033   3.277  0.7213  0.7583 -2.2024
 7663SOL     OW34621   2.824   4.539   1.978  0.0881  0.5866 -0.1725
 7663SOL    HW134622   2.796   4.564   1.890  1.4438 -1.8206 -1.2923
 7663SOL    HW234623   2.913   4.568   1.958  0.8322 -2.8924 -1.8692
 7664SOL     OW34624   4.173   4.365   6.201  0.1597 -0.1503  0.7355
 7664SOL    HW134625   4.257   4.409   6.188  0.2065 -0.3381  0.3995
 7664SOL    HW234626   4.201   4.273   6.198 -2.2882 -0.8753 -0.2429
 7665SOL     OW34627   2.208   2.226   1.080 -0.3925  0.8529  0.1739
 7665SOL    HW134628   2.113   2.242   1.076 -0.1535  2.3270  0.4173
 7665SOL    HW234629   2.225   2.232   0.986 -1.8804 -0.6256 -0.2037
 7666SOL     OW34630   3.689   0.274   8.043  0.2688 -0.3345  0.2993
 7666SOL    HW134631   3.619   0.309   7.988  1.0976  2.0031  0.7365
 7666SOL    HW234632   3.668   0.313   8.128 -2.1863  1.8536 -1.2905
 7667SOL     OW34633   3.861   0.330   5.047  0.8571  0.0510 -0.1355
 7667SOL    HW134634   3.900   0.319   4.961 -1.3331 -2.6744 -0.7451
 7667SOL    HW234635   3.893   0.257   5.100  1.9469  0.6297  0.0187
 7668SOL     OW34636   2.708   1.527   6.883  0.8810  0.0705  0.6007
 7668SOL    HW134637   2.717   1.610   6.836 -0.8389  0.2065  0.4991
 7668SOL    HW234638   2.676   1.473   6.811 -0.4282  0.5935  0.7749
 7669SOL     OW34639   2.334   3.282   3.887  0.1799  0.4726 -0.2115
 7669SOL    HW134640   2.288   3.366   3.883 -2.0225 -0.6136  2.2142
 7669SOL    HW234641   2.370   3.272   3.799  0.0133 -1.5173 -0.0546
 7670SOL     OW34642   4.735   1.023   3.979 -0.4719 -0.3121  0.4256
 7670SOL    HW134643   4.671   1.055   3.916 -0.6335  0.1043  0.8068
 7670SOL    HW234644   0.066   0.997   3.917 -2.6271 -2.4159 -1.0753
 7671SOL     OW34645   4.456   1.192  12.072 -0.8887  0.1239  0.3783
 7671SOL    HW134646   4.551   1.188  12.076 -0.9211  0.5390  1.6728
 7671SOL    HW234647   4.438   1.193  11.978  1.7210  0.6516 -0.0969
 7672SOL     OW34648   2.756   1.379  11.239  0.3735  0.2926 -0.0251
 7672SOL    HW134649   2.738   1.292  11.203 -0.7832  0.4261  0.2432
 7672SOL    HW234650   2.722   1.433  11.168 -2.4213 -0.9483  0.3535
 7673SOL     OW34651   3.831   2.459  16.852  0.2876  0.2249  0.2832
 7673SOL    HW134652   3.822   2.368  16.824 -2.1897  0.6706 -0.3917
 7673SOL    HW234653   3.783   2.465  16.934 -1.9510  1.0194 -1.0943
 7674SOL     OW34654   4.382   2.467  12.401  0.6065  0.1592 -0.1077
 7674SOL    HW134655   4.341   2.408  12.338  0.2253  1.6853 -1.2857
 7674SOL    HW234656   4.300   2.490  12.445 -0.6737  0.6344 -2.8106
 7675SOL     OW34657   0.452   0.756  10.254 -0.2721  0.8517  0.3363
 7675SOL    HW134658   0.384   0.785  10.314  0.6164  1.6069  0.9710
 7675SOL    HW234659   0.404   0.753  10.171  1.5246  0.1153 -0.6944
 7676SOL     OW34660   1.758   1.689   4.022 -0.0033 -0.3769  0.4098
 7676SOL    HW134661   1.689   1.664   3.960  1.7356 -3.9319 -0.1192
 7676SOL    HW234662   1.724   1.775   4.045  1.0196  0.4948 -1.3272
 7677SOL     OW34663   2.855   4.734   7.239 -0.2882 -0.4523 -0.9338
 7677SOL    HW134664   2.869   4.715   7.332  0.0381  1.9556 -0.4883
 7677SOL    HW234665   2.936   0.038   7.209 -0.2048  0.3244  0.3593
 7678SOL     OW34666   1.961   1.622  15.685 -0.5404  0.4139 -0.2680
 7678SOL    HW134667   2.030   1.629  15.751 -1.8560  0.9239  1.0586
 7678SOL    HW234668   1.934   1.714  15.681 -1.3212  0.1722 -0.3958
 7679SOL     OW34669   0.628   0.941   9.723 -0.2062  0.5638 -0.5115
 7679SOL    HW134670   0.674   0.973   9.801  0.4743  1.1398 -1.1442
 7679SOL    HW234671   0.673   0.993   9.657 -0.2563  1.6751  0.3197
 7680SOL     OW34672   1.195   0.279  11.799 -0.0532 -0.3041  0.3504
 7680SOL    HW134673   1.119   0.259  11.852 -0.3947  0.5615  0.1850
 7680SOL    HW234674   1.219   0.190  11.772 -0.8247  0.0532 -1.4943
 7681SOL     OW34675   4.192   0.833   9.215 -0.2133  0.2517 -0.1012
 7681SOL    HW134676   4.121   0.876   9.264 -2.0329 -0.0530 -2.4676
 7681SOL    HW234677   4.242   0.788   9.283  0.0021  0.5051 -0.0924
 7682SOL     OW34678   2.779   2.252   5.257  0.1002 -0.3546  0.3279
 7682SOL    HW134679   2.765   2.200   5.178  3.0629 -0.6115 -0.0158
 7682SOL    HW234680   2.789   2.181   5.319  0.0007  0.0479  0.8082
 7683SOL     OW34681   3.869   3.183   6.828  0.2276  0.2544  0.2979
 7683SOL    HW134682   3.878   3.154   6.738 -0.5983 -0.1183  0.3328
 7683SOL    HW234683   3.849   3.099   6.868 -0.1261  0.6474  0.9530
 7684SOL     OW34684   3.853   0.504  14.785 -0.1909 -0.3252 -0.5272
 7684SOL    HW134685   3.825   0.585  14.742  1.2519  0.1108 -0.6534
 7684SOL    HW234686   3.805   0.513  14.867  0.1356 -4.6952  0.1481
 7685SOL     OW34687   2.919   1.075   7.633  0.1096  0.5351  0.1156
 7685SOL    HW134688   2.949   1.066   7.543  0.5584  3.6196 -0.0394
 7685SOL    HW234689   2.945   0.989   7.667  0.9531  1.1933  1.1234
 7686SOL     OW34690   1.835   0.859   2.138 -0.3383  0.3712 -0.1223
 7686SOL    HW134691   1.826   0.930   2.074 -1.5175  0.3897  0.0666
 7686SOL    HW234692   1.921   0.870   2.178  0.2728  1.5145 -1.7370
 7687SOL     OW34693   2.863   2.081   5.446  0.4877  0.3435 -0.4316
 7687SOL    HW134694   2.788   2.065   5.503  0.8730  3.6265  1.0419
 7687SOL    HW234695   2.937   2.070   5.506 -0.9064  0.8938  1.4109
 7688SOL     OW34696   3.458   2.380   4.801  0.0768 -0.0175  0.2429
 7688SOL    HW134697   3.522   2.451   4.807  0.1740 -0.0295 -0.6769
 7688SOL    HW234698   3.488   2.328   4.876  0.1136 -0.2174  0.0898
 7689SOL     OW34699   1.963   4.254  13.967  0.2467 -0.0657  0.9863
 7689SOL    HW134700   1.917   4.184  14.013 -1.5881  1.3334  1.2472
 7689SOL    HW234701   1.902   4.268  13.895  2.1701  0.4741 -0.5222
 7690SOL     OW34702   2.301   1.358   1.836 -0.8019  0.2578 -0.1003
 7690SOL    HW134703   2.394   1.378   1.845 -0.6740 -0.8926  1.2290
 7690SOL    HW234704   2.304   1.263   1.829  2.1047  0.1298  2.8758
 7691SOL     OW34705   1.044   4.650  16.839 -0.2775  0.2345  0.0818
 7691SOL    HW134706   1.087   4.582  16.890 -0.1765 -0.1906 -0.5636
 7691SOL    HW234707   0.992   4.700  16.902  0.7626 -2.1496  2.8309
 7692SOL     OW34708   1.594   2.954   3.534  0.0485  0.1800 -0.2579
 7692SOL    HW134709   1.627   2.944   3.623  2.4054  1.5827 -0.9776
 7692SOL    HW234710   1.595   3.045   3.505 -2.7893  0.9803  2.1127
 7693SOL     OW34711   1.646   4.015   7.930 -0.2596 -0.1554  0.2908
 7693SOL    HW134712   1.619   4.081   7.994  0.1799  1.2905 -1.0198
 7693SOL    HW234713   1.714   4.051   7.874  0.0366  0.8887  1.3309
 7694SOL     OW34714   4.355   3.932   4.689 -0.0237  0.8018  0.1069
 7694SOL    HW134715   4.278   3.986   4.706 -1.3906 -2.0887  3.1078
 7694SOL    HW234716   4.322   3.848   4.659 -0.6309  0.9404  0.3789
 7695SOL     OW34717   4.306   3.829   5.857  0.4717  0.1632  0.0807
 7695SOL    HW134718   4.371   3.771   5.896  1.0728 -0.0867 -1.2731
 7695SOL    HW234719   4.277   3.879   5.933  0.2086  1.2535 -0.7379
 7696SOL     OW34720   2.689   4.546   1.411  0.0842 -0.2623  0.3532
 7696SOL    HW134721   2.730   4.610   1.353 -0.8298 -1.2882 -1.3955
 7696SOL    HW234722   2.769   4.520   1.456 -0.9326  1.7501  3.3378
 7697SOL     OW34723   0.176   1.450   3.354  0.6503 -0.3848 -0.5234
 7697SOL    HW134724   0.269   1.464   3.367  0.7444 -0.1306 -1.4360
 7697SOL    HW234725   0.178   1.400   3.272 -0.9650  0.9502 -1.3876
 7698SOL     OW34726   1.191   3.146   6.535  0.0405  0.4206 -0.7616
 7698SOL    HW134727   1.167   3.233   6.566  0.8949 -0.2102  1.6886
 7698SOL    HW234728   1.123   3.123   6.472 -0.2689 -1.0994  0.1411
 7699SOL     OW34729   1.070   4.421   6.942 -0.2483  0.4380 -0.1877
 7699SOL    HW134730   1.067   4.477   6.865 -1.9987 -0.7003 -0.9513
 7699SOL    HW234731   1.049   4.339   6.897 -0.8180  1.2245 -1.3686
 7700SOL     OW34732   1.715   0.569  11.528 -0.1438 -0.4180  0.4255
 7700SOL    HW134733   1.655   0.495  11.527 -0.1898 -0.3738  0.1237
 7700SOL    HW234734   1.654   0.641  11.513  1.2461  1.2247  2.5365
 7701SOL     OW34735   1.359   1.384   0.241  0.1095  0.6055 -0.0455
 7701SOL    HW134736   1.351   1.458   0.180 -0.8984  1.1154  0.7130
 7701SOL    HW234737   1.435   1.340   0.203  0.9424  0.7206  1.5035
 7702SOL     OW34738   0.445   1.462   0.944  0.3610  0.6575 -0.5763
 7702SOL    HW134739   0.413   1.472   1.033  2.4970  1.7750  0.0706
 7702SOL    HW234740   0.493   1.379   0.949 -0.9428 -0.0513  0.1843
 7703SOL     OW34741   2.620   4.304  15.092 -0.0747  0.2772 -0.9428
 7703SOL    HW134742   2.617   4.324  15.185  1.3126  0.8473 -1.0213
 7703SOL    HW234743   2.533   4.270  15.071 -0.9501  1.6166  0.5347
 7704SOL     OW34744   1.520   2.176  17.343 -0.2139 -0.3647 -0.2912
 7704SOL    HW134745   1.601   2.171  17.392  0.7331 -1.5778 -1.9656
 7704SOL    HW234746   1.546   2.129  17.263 -0.4748  0.1035 -0.6545
 7705SOL     OW34747   4.548   3.357  14.110  0.2336  0.3967 -0.3706
 7705SOL    HW134748   4.628   3.305  14.101 -2.2824 -3.9506  2.2062
 7705SOL    HW234749   4.492   3.326  14.039  2.2545 -2.5101 -0.6947
 7706SOL     OW34750   1.444   4.104   5.440  0.1714 -0.3910 -0.2451
 7706SOL    HW134751   1.512   4.168   5.418 -0.1534  0.1719  0.3743
 7706SOL    HW234752   1.455   4.102   5.535  0.7748 -1.7586 -0.3412
 7707SOL     OW34753   0.235   2.796   6.783 -0.0199  0.5663  0.0005
 7707SOL    HW134754   0.194   2.777   6.699  3.1692  0.8451 -1.6411
 7707SOL    HW234755   0.328   2.779   6.767 -0.0727  2.5511 -2.4155
 7708SOL     OW34756   1.803   1.854   8.941 -0.3182  0.6779  0.3004
 7708SOL    HW134757   1.762   1.867   9.026  2.1106  0.0388  1.5610
 7708SOL    HW234758   1.739   1.789   8.911  1.1003  0.1402 -1.6304
 7709SOL     OW34759   4.155   3.678   3.694 -0.3303 -0.2178  0.2298
 7709SOL    HW134760   4.209   3.720   3.628  0.7163  0.4220  1.4862
 7709SOL    HW234761   4.073   3.727   3.687  0.0449  0.3028 -0.5220
 7710SOL     OW34762   2.669   1.037   6.198 -0.3980  0.0507  0.5206
 7710SOL    HW134763   2.665   0.942   6.187  1.2114  0.1222 -0.7507
 7710SOL    HW234764   2.764   1.050   6.208 -0.1475 -0.3067 -1.5586
 7711SOL     OW34765   1.127   2.688  11.249  0.1836 -0.2254  0.4744
 7711SOL    HW134766   1.177   2.617  11.288  0.8767  0.0026 -0.0069
 7711SOL    HW234767   1.041   2.646  11.235 -1.2439  3.6666 -2.5739
 7712SOL     OW34768   0.287   0.582   9.690 -0.1969 -0.6206  0.5452
 7712SOL    HW134769   0.382   0.588   9.689 -0.2678  0.4296  0.4156
 7712SOL    HW234770   0.261   0.506   9.743  1.5317 -1.0427  0.7907
 7713SOL     OW34771   4.234   3.741   8.079  0.3937  0.1187 -0.4059
 7713SOL    HW134772   4.262   3.829   8.104 -0.2754  0.7745 -1.9603
 7713SOL    HW234773   4.139   3.738   8.087  0.2656  2.4003 -1.2702
 7714SOL     OW34774   2.542   4.637  15.283 -0.0431 -0.0422 -0.0136
 7714SOL    HW134775   2.556   4.725  15.317  0.1828 -0.2179  0.3503
 7714SOL    HW234776   2.621   4.627  15.230  1.1035  1.1493  1.4834
 7715SOL     OW34777   1.664   2.468   0.450  0.7269  0.5438 -0.6514
 7715SOL    HW134778   1.728   2.416   0.497 -1.6375  0.1045  2.1080
 7715SOL    HW234779   1.684   2.553   0.490 -0.6944 -0.2269  1.7551
 7716SOL     OW34780   3.063   2.318  11.394 -0.4056  0.1301  0.1329
 7716SOL    HW134781   3.050   2.224  11.408 -1.5616 -0.0066 -1.9072
 7716SOL    HW234782   2.981   2.358  11.424  0.9426  3.2343 -0.3309
 7717SOL     OW34783   4.674   1.140   9.888 -0.2220  0.1809 -0.1072
 7717SOL    HW134784   4.637   1.174   9.970  0.0059  2.1395 -0.7978
 7717SOL    HW234785   4.647   1.050   9.906  1.3958 -0.7586 -2.3988
 7718SOL     OW34786   4.710   2.608   2.087  0.5861 -0.3897 -0.1339
 7718SOL    HW134787   0.053   2.573   2.050  0.7470 -2.3927  2.1368
 7718SOL    HW234788   4.722   2.602   2.182 -1.1483  0.4010  0.1346
 7719SOL     OW34789   0.114   2.034   7.640  0.8543  0.4286  0.1234
 7719SOL    HW134790   0.099   1.961   7.700  1.4535  0.9757  0.9387
 7719SOL    HW234791   0.142   1.987   7.561 -0.6118 -0.6588  0.2663
 7720SOL     OW34792   1.063   0.208  13.564  0.0843 -0.1977 -0.0188
 7720SOL    HW134793   1.031   0.298  13.574 -0.7809 -0.3799 -1.2586
 7720SOL    HW234794   0.984   0.154  13.570  0.5642 -0.8439  0.5242
 7721SOL     OW34795   4.385   2.596  11.083 -0.0043 -0.2516  0.3315
 7721SOL    HW134796   4.350   2.537  11.150 -4.4149  1.8656 -0.1089
 7721SOL    HW234797   4.402   2.529  11.017  4.2553  1.4418 -0.2893
 7722SOL     OW34798   2.238   3.912   8.816 -0.0366  0.0172  0.7853
 7722SOL    HW134799   2.254   3.944   8.727 -0.0653  0.1300  0.8211
 7722SOL    HW234800   2.157   3.861   8.815  0.1052 -0.1885 -2.8953
 7723SOL     OW34801   0.502   1.164  14.924  0.4219 -0.2305 -0.3985
 7723SOL    HW134802   0.566   1.101  14.958  0.7455  0.4350  0.2481
 7723SOL    HW234803   0.438   1.105  14.886 -0.4407 -1.1499  2.4971
 7724SOL     OW34804   1.835   1.809  11.384  0.5132  0.2748  0.1525
 7724SOL    HW134805   1.878   1.860  11.316  0.5541 -1.6381 -1.2784
 7724SOL    HW234806   1.852   1.863  11.461  3.8563 -1.0511  0.3492
 7725SOL     OW34807   2.035   2.673   0.000  0.3105 -0.2076 -0.1560
 7725SOL    HW134808   1.991   2.702  17.669  1.8521 -0.2856 -1.0425
 7725SOL    HW234809   2.127   2.666  17.724  0.2562  1.2277 -0.7670
 7726SOL     OW34810   0.492   0.997   1.187 -0.0426 -0.0354  0.4723
 7726SOL    HW134811   0.507   1.068   1.125  0.0342 -0.9036 -0.5206
 7726SOL    HW234812   0.396   1.000   1.186 -0.1729 -3.3139  0.9189
 7727SOL     OW34813   0.225   0.312   0.810 -0.3244  0.3181 -1.0410
 7727SOL    HW134814   0.176   0.330   0.890 -0.4657  3.3825 -1.8250
 7727SOL    HW234815   0.278   0.248   0.857 -1.3051  0.6180  0.4432
 7728SOL     OW34816   3.590   1.589   2.546 -0.4078 -0.2498 -0.3272
 7728SOL    HW134817   3.526   1.518   2.542  1.1646 -1.7685  1.7743
 7728SOL    HW234818   3.637   1.567   2.465  0.7068  2.2037 -0.3420
 7729SOL     OW34819   1.036   3.441   8.104 -0.0188 -0.3238  0.6056
 7729SOL    HW134820   0.985   3.516   8.135  1.0206 -0.0961  1.7427
 7729SOL    HW234821   1.009   3.373   8.166 -0.4716  0.8745  1.7133
 7730SOL     OW34822   0.066   0.947  10.159 -0.1256 -0.1075  0.4419
 7730SOL    HW134823   0.133   1.014  10.168 -2.8635  2.6715  0.1626
 7730SOL    HW234824   4.730   1.009  10.152 -0.5036 -0.6175 -0.1778
 7731SOL     OW34825   4.054   3.478   5.365 -0.1734 -0.4344 -0.0250
 7731SOL    HW134826   4.134   3.529   5.357 -0.5012  0.1047  0.0845
 7731SOL    HW234827   4.045   3.441   5.277  1.3828  1.0113 -0.7795
 7732SOL     OW34828   0.722   0.537  13.744 -0.5382  0.0765 -0.4991
 7732SOL    HW134829   0.714   0.578  13.831 -1.4073 -1.2150  0.0283
 7732SOL    HW234830   0.643   0.483  13.751 -1.4011  1.1047 -2.5515
 7733SOL     OW34831   0.514   0.328   9.663  0.2985 -0.4494 -0.1113
 7733SOL    HW134832   0.525   0.313   9.569  0.4653 -0.9247 -0.0218
 7733SOL    HW234833   0.602   0.302   9.692  0.3648 -0.1652 -0.0567
 7734SOL     OW34834   2.279   3.053   2.011 -0.8495  1.0822  0.0422
 7734SOL    HW134835   2.189   3.068   1.982 -0.5715  2.7591  0.0922
 7734SOL    HW234836   2.269   3.042   2.106  0.8606 -2.7483 -0.1926
 7735SOL     OW34837   2.623   1.281  16.004 -0.0981  0.0128  0.3175
 7735SOL    HW134838   2.542   1.333  16.010 -0.0193  0.1679  0.0450
 7735SOL    HW234839   2.664   1.294  15.919 -0.6939  1.8593  0.3234
 7736SOL     OW34840   1.947   3.774  16.938  0.7264  0.0317  0.0437
 7736SOL    HW134841   1.967   3.701  16.997  0.2796 -0.7627 -0.7778
 7736SOL    HW234842   1.996   3.750  16.859 -0.1596  1.6970 -1.0182
 7737SOL     OW34843   2.803   0.756   5.094 -0.4241 -0.0017 -0.0443
 7737SOL    HW134844   2.850   0.735   5.174  0.9470  0.7235 -0.6481
 7737SOL    HW234845   2.779   0.847   5.113  0.6859  1.3149 -4.9219
 7738SOL     OW34846   0.281   1.467   7.208 -0.4442 -0.2261 -0.4995
 7738SOL    HW134847   0.362   1.436   7.250 -1.1412 -0.8317  0.3867
 7738SOL    HW234848   0.265   1.404   7.138 -0.8855 -1.6996  0.9201
 7739SOL     OW34849   3.853   0.409   3.196  0.2224  0.1941 -0.2481
 7739SOL    HW134850   3.811   0.464   3.129  1.9076  0.2701 -1.2411
 7739SOL    HW234851   3.934   0.458   3.211  0.3056  0.2641 -0.9353
 7740SOL     OW34852   2.303   4.463   1.875  0.0756  0.0168  0.4504
 7740SOL    HW134853   2.318   4.448   1.782 -1.7247  1.5055 -0.0899
 7740SOL    HW234854   2.379   4.422   1.915  1.1668 -0.8116 -2.4970
 7741SOL     OW34855   1.755   3.117  15.881 -0.2551  0.3558 -0.2875
 7741SOL    HW134856   1.714   3.063  15.948  1.4832  0.0151  0.5109
 7741SOL    HW234857   1.835   3.065  15.888 -1.5776 -1.7227 -0.7145
 7742SOL     OW34858   0.525   3.566   7.758  0.6233  0.5624 -0.1550
 7742SOL    HW134859   0.534   3.624   7.682  1.0417  0.4636 -0.1805
 7742SOL    HW234860   0.618   3.561   7.783  0.6712  1.7361 -0.0712
 7743SOL     OW34861   3.008   1.642   8.883 -0.4506  0.2142 -0.0083
 7743SOL    HW134862   2.957   1.699   8.825 -0.4935 -0.6041 -0.7816
 7743SOL    HW234863   2.937   1.598   8.930  0.6072 -0.3390  1.0567
 7744SOL     OW34864   0.134   0.117   4.901  0.1509 -0.2200 -0.0486
 7744SOL    HW134865   0.134   0.022   4.911 -0.1997  0.0479  2.4942
 7744SOL    HW234866   0.067   0.147   4.963 -0.2064  1.0235 -1.0351
 7745SOL     OW34867   1.973   4.472   7.423 -0.1094 -0.3258 -0.1301
 7745SOL    HW134868   1.907   4.406   7.444  0.9622 -1.2679  0.2534
 7745SOL    HW234869   1.919   4.551   7.418  0.3311  0.2067  3.7495
 7746SOL     OW34870   0.553   3.377   9.477 -0.5579 -0.1861  0.4183
 7746SOL    HW134871   0.565   3.326   9.557 -1.2101 -0.5453  0.2870
 7746SOL    HW234872   0.523   3.303   9.424 -0.9459  0.8994 -0.8699
 7747SOL     OW34873   1.608   3.820  11.005  0.4604  0.0387 -0.3610
 7747SOL    HW134874   1.665   3.897  11.009 -0.2421  0.4350  2.1193
 7747SOL    HW234875   1.673   3.753  11.025 -1.8853 -2.4740 -1.0921
 7748SOL     OW34876   4.004   2.742  15.233 -0.6319  0.1028 -0.6136
 7748SOL    HW134877   4.020   2.673  15.297  0.2957 -0.4163 -1.3904
 7748SOL    HW234878   4.085   2.790  15.250 -3.2535  2.5127  4.6746
 7749SOL     OW34879   1.041   3.070   3.425 -0.2096  0.3527  0.2545
 7749SOL    HW134880   1.073   3.053   3.514  0.6124  1.6971  0.2191
 7749SOL    HW234881   1.082   3.153   3.402  2.4738 -0.9350  0.3895
 7750SOL     OW34882   4.459   0.560   9.600  0.2535  0.0381 -0.4926
 7750SOL    HW134883   4.412   0.481   9.575  2.1488 -1.3060  0.2259
 7750SOL    HW234884   4.441   0.560   9.694 -0.4574 -3.0722 -0.6244
 7751SOL     OW34885   0.553   0.644   7.136  0.2467  0.1589 -0.2811
 7751SOL    HW134886   0.637   0.681   7.109  0.7358 -1.0168 -0.3611
 7751SOL    HW234887   0.588   0.606   7.217  1.6083 -0.7244 -1.2808
 7752SOL     OW34888   1.832   4.334   8.093  0.3365 -0.0979  0.0803
 7752SOL    HW134889   1.881   4.368   8.018  1.9684  2.5613  2.3823
 7752SOL    HW234890   1.825   4.409   8.152 -0.9426  0.1172 -0.3478
 7753SOL     OW34891   4.541   3.418   7.464 -0.1088 -0.5622 -0.0030
 7753SOL    HW134892   4.460   3.369   7.470  0.2249 -1.2887 -1.4871
 7753SOL    HW234893   4.587   3.355   7.519 -0.7290 -0.1253  1.0069
 7754SOL     OW34894   2.538   3.190  12.559  0.3033  0.2642  0.2046
 7754SOL    HW134895   2.614   3.234  12.599  0.7939  1.2027 -1.7736
 7754SOL    HW234896   2.527   3.228  12.472  0.1428  0.4161  0.2882
 7755SOL     OW34897   1.918   2.600  10.143 -0.2531  0.1258 -0.0729
 7755SOL    HW134898   1.988   2.618  10.205 -0.7996  3.5918 -0.4260
 7755SOL    HW234899   1.915   2.682  10.094  2.3894 -1.0456 -2.2079
 7756SOL     OW34900   3.444   2.473  16.502 -0.0691 -0.7727  0.3338
 7756SOL    HW134901   3.431   2.379  16.516 -0.9094 -1.1422 -2.8232
 7756SOL    HW234902   3.479   2.497  16.588 -0.2307 -2.1097  0.7863
 7757SOL     OW34903   1.004   0.628  14.037  0.2214  0.1975 -0.5095
 7757SOL    HW134904   0.938   0.697  14.042  0.6377  0.5729 -0.2031
 7757SOL    HW234905   1.045   0.643  14.123 -0.2126 -0.2451 -0.2221
 7758SOL     OW34906   3.742   1.444   6.519 -0.0408 -0.0428 -0.2019
 7758SOL    HW134907   3.733   1.461   6.613  1.4874  0.0296 -0.0615
 7758SOL    HW234908   3.753   1.349   6.515 -0.8800 -0.2345  1.7831
 7759SOL     OW34909   0.259   1.792  12.434  0.3643  0.2953 -0.4246
 7759SOL    HW134910   0.226   1.806  12.346  0.3898  2.2572 -0.1340
 7759SOL    HW234911   0.324   1.723  12.422 -0.5406 -0.6203 -0.1029
 7760SOL     OW34912   1.529   1.014   0.569 -0.5342 -0.0204  0.0178
 7760SOL    HW134913   1.465   1.026   0.498 -0.7641  1.5003  0.4781
 7760SOL    HW234914   1.526   0.923   0.596  0.7796  0.0582  0.4331
 7761SOL     OW34915   1.557   0.414   0.709  0.4059 -0.2494  0.7811
 7761SOL    HW134916   1.502   0.487   0.679  0.0203 -0.1611  1.6842
 7761SOL    HW234917   1.511   0.371   0.782 -1.0771 -1.6160 -0.9610
 7762SOL     OW34918   4.729   1.591   9.056  0.2111 -0.1175  0.6334
 7762SOL    HW134919   0.062   1.542   9.099  1.5260 -0.4327 -1.9259
 7762SOL    HW234920   0.012   1.584   8.963 -1.5966  1.9680  0.0775
 7763SOL     OW34921   3.234   3.650  15.708 -0.7471  0.7777 -0.2945
 7763SOL    HW134922   3.154   3.615  15.748 -2.2650  3.2495 -1.1315
 7763SOL    HW234923   3.200   3.728  15.664 -1.1412  0.9597  0.3195
 7764SOL     OW34924   0.274   4.256   8.000 -0.8736 -0.4228 -0.1142
 7764SOL    HW134925   0.272   4.192   8.072 -2.0924 -0.9500 -0.6057
 7764SOL    HW234926   0.290   4.337   8.048  3.0333 -1.8201  0.9431
 7765SOL     OW34927   2.947   4.653  16.385  0.4620 -0.9109  0.4707
 7765SOL    HW134928   2.925   4.587  16.319 -1.9241 -1.7813  2.1339
 7765SOL    HW234929   2.902   4.611  16.458 -0.7656  2.8457  1.8544
 7766SOL     OW34930   1.953   2.277   5.013  0.0906 -0.3074 -0.4108
 7766SOL    HW134931   1.859   2.271   5.033  0.4780 -0.0725  1.4855
 7766SOL    HW234932   1.966   2.371   5.020  1.2268 -0.4162 -1.1249
 7767SOL     OW34933   1.160   2.724   1.115 -0.2907 -0.1952 -0.1071
 7767SOL    HW134934   1.194   2.725   1.204  0.4833 -1.3337 -0.3931
 7767SOL    HW234935   1.198   2.646   1.075  0.7993  0.1740  0.2133
 7768SOL     OW34936   1.846   3.998   4.368  0.7253  0.1598  0.0207
 7768SOL    HW134937   1.774   3.935   4.360  1.0758 -0.2051 -0.2414
 7768SOL    HW234938   1.915   3.941   4.402 -0.7977 -2.2238 -0.8912
 7769SOL     OW34939   0.534   0.536  10.782  0.4090 -0.9584  0.0826
 7769SOL    HW134940   0.506   0.507  10.695 -1.3591 -1.5282  0.8422
 7769SOL    HW234941   0.448   0.564  10.813 -0.3049  0.3340 -2.9702
 7770SOL     OW34942   3.954   2.297   9.561 -0.1857 -0.1300 -0.1085
 7770SOL    HW134943   4.014   2.356   9.516  1.0114 -1.7977 -0.7072
 7770SOL    HW234944   3.902   2.253   9.494  0.5367  0.7919 -1.2638
 7771SOL     OW34945   0.711   3.034   6.228  0.4858 -0.4348 -0.1049
 7771SOL    HW134946   0.637   3.079   6.187 -1.0526 -1.6334  1.3965
 7771SOL    HW234947   0.748   3.107   6.278  0.6459  0.1536 -1.0939
 7772SOL     OW34948   0.172   0.949   8.613  0.1965 -0.5234  0.5308
 7772SOL    HW134949   0.131   0.865   8.631  1.0980 -1.1226 -0.1835
 7772SOL    HW234950   0.168   0.951   8.517  0.6879 -1.0976  0.4997
 7773SOL     OW34951   0.240   1.848   4.081 -0.0265 -0.3233  0.9891
 7773SOL    HW134952   0.203   1.895   4.156 -0.6034 -1.3346  1.3295
 7773SOL    HW234953   0.325   1.891   4.068 -0.2323 -0.8516 -2.0458
 7774SOL     OW34954   2.356   4.010   3.256  0.2614 -0.5966  0.8198
 7774SOL    HW134955   2.304   4.008   3.337 -1.1074  1.1157 -0.0119
 7774SOL    HW234956   2.304   3.952   3.200 -0.7903  0.3946  0.7646
 7775SOL     OW34957   4.712   0.939   4.852 -0.5126 -0.0907 -0.0661
 7775SOL    HW134958   0.051   0.953   4.906  1.0821  0.5905 -2.4996
 7775SOL    HW234959   4.678   0.860   4.894 -0.5644 -0.3295 -0.5472
 7776SOL     OW34960   2.074   3.776   2.667 -0.6235 -0.3926 -1.0259
 7776SOL    HW134961   2.069   3.786   2.572 -0.8900 -0.5460 -1.0276
 7776SOL    HW234962   2.014   3.702   2.674 -1.1597  0.2561  1.3294
 7777SOL     OW34963   2.753   3.157   4.907 -0.0395 -0.5444 -0.2828
 7777SOL    HW134964   2.669   3.200   4.893 -0.2000 -0.4572  0.9343
 7777SOL    HW234965   2.783   3.189   4.992  1.4746 -1.1265 -0.5990
 7778SOL     OW34966   2.646   3.364   5.635  0.0033  0.0040  0.3276
 7778SOL    HW134967   2.579   3.413   5.588  0.8030  1.9522  1.2125
 7778SOL    HW234968   2.689   3.432   5.688 -1.6811  1.0385  0.3453
 7779SOL     OW34969   2.056   2.708   3.344  0.7543 -0.1970  0.2092
 7779SOL    HW134970   2.103   2.634   3.307 -1.6681 -1.8924  0.4844
 7779SOL    HW234971   1.979   2.704   3.287  1.4727 -0.2698 -0.7544
 7780SOL     OW34972   3.654   2.547   3.771  0.3801 -0.2861 -1.0072
 7780SOL    HW134973   3.736   2.596   3.764  0.4402 -0.1473  0.7704
 7780SOL    HW234974   3.640   2.547   3.865  0.0669 -0.3097 -1.0550
 7781SOL     OW34975   0.002   0.130   0.120  0.2198  0.2932 -0.7750
 7781SOL    HW134976   0.097   0.128   0.135  0.2068 -2.7037 -0.9711
 7781SOL    HW234977   0.004   0.223   0.100 -1.8729  1.2102  3.3436
 7782SOL     OW34978   1.378   0.415   9.293 -0.3382  0.0573 -0.1788
 7782SOL    HW134979   1.381   0.320   9.291  1.2464  0.0829  1.0439
 7782SOL    HW234980   1.331   0.429   9.375  2.9010 -2.2590  2.0484
 7783SOL     OW34981   1.841   1.063   1.964  0.5465 -0.7484  0.1189
 7783SOL    HW134982   1.795   1.080   1.882 -1.3849  1.3014  1.6427
 7783SOL    HW234983   1.912   1.125   1.955 -0.8720  0.6797 -1.1920
 7784SOL     OW34984   1.163   1.476   2.103  0.1326  0.4075 -0.1521
 7784SOL    HW134985   1.102   1.490   2.030  0.3883 -0.5936 -0.5558
 7784SOL    HW234986   1.211   1.398   2.076 -0.3018 -1.2313  3.7867
 7785SOL     OW34987   0.182   3.656  16.628  0.2463 -0.5033  0.0727
 7785SOL    HW134988   0.250   3.723  16.625  0.3443 -0.6197 -0.3181
 7785SOL    HW234989   0.099   3.703  16.625  0.6413  0.2040  0.3067
 7786SOL     OW34990   0.038   4.586   7.654 -0.3834  0.3870  0.1937
 7786SOL    HW134991   4.715   4.531   7.604 -1.5240  2.0469 -0.2365
 7786SOL    HW234992   4.723   4.635   7.717 -0.4890  0.8461 -0.2508
 7787SOL     OW34993   3.381   2.391   4.265 -0.0449  0.9151 -0.1891
 7787SOL    HW134994   3.443   2.318   4.261 -0.1313  0.8664 -0.6038
 7787SOL    HW234995   3.354   2.411   4.176 -0.1536 -1.5020 -0.7123
 7788SOL     OW34996   0.857   1.100   2.388 -0.1726  0.1529 -0.0886
 7788SOL    HW134997   0.913   1.035   2.346  0.5406  1.3487 -1.0145
 7788SOL    HW234998   0.889   1.176   2.339 -3.0430  0.8275 -0.8595
 7789SOL     OW34999   0.793   1.929   5.452  0.2243 -0.1405  0.5004
 7789SOL    HW135000   0.698   1.918   5.455  0.1071  1.8483  3.7648
 7789SOL    HW235001   0.818   1.883   5.372 -3.3729  0.7384 -1.1474
 7790SOL     OW35002   1.519   1.367   5.270 -0.8582 -0.2448 -0.6405
 7790SOL    HW135003   1.424   1.356   5.262 -1.2122  1.9140  0.5485
 7790SOL    HW235004   1.532   1.312   5.348 -0.9699 -1.0445 -1.1847
 7791SOL     OW35005   0.200   1.962   5.133  0.1644 -0.6840  0.0222
 7791SOL    HW135006   0.254   2.015   5.191  1.6198 -2.4453  0.2782
 7791SOL    HW235007   0.194   1.878   5.178 -0.2395  0.1437  1.5204
 7792SOL     OW35008   2.082   2.371  13.274 -0.6183 -0.2704  0.7474
 7792SOL    HW135009   2.127   2.286  13.280  0.2433  0.1903  0.8047
 7792SOL    HW235010   1.996   2.347  13.239 -0.7653  0.4482  0.6117
 7793SOL     OW35011   2.980   1.246   2.376 -0.0216 -0.0960 -0.2915
 7793SOL    HW135012   3.052   1.238   2.438 -0.6910  0.9805  0.6322
 7793SOL    HW235013   3.030   1.267   2.297  1.5169  2.6210  1.4378
 7794SOL     OW35014   2.202   3.383   2.608  0.3401  0.0233  0.1474
 7794SOL    HW135015   2.215   3.463   2.558  1.8468  0.0596  0.5914
 7794SOL    HW235016   2.247   3.318   2.554 -0.6124  0.1626 -0.8010
 7795SOL     OW35017   4.196   1.078   9.055 -0.1289  0.3091 -0.0468
 7795SOL    HW135018   4.285   1.070   9.018  0.1323  3.0866 -0.0204
 7795SOL    HW235019   4.176   0.992   9.093 -2.3723  0.6323 -0.4977
 7796SOL     OW35020   0.128   2.735  16.982  0.3475  0.1487 -0.0414
 7796SOL    HW135021   0.073   2.701  17.052  1.4487 -1.0840  0.2227
 7796SOL    HW235022   0.138   2.655  16.929  2.3118 -0.0443  0.6243
 7797SOL     OW35023   2.789   0.504   6.285 -0.0175 -0.3810  0.3906
 7797SOL    HW135024   2.875   0.506   6.243 -0.1712  0.7460  0.1093
 7797SOL    HW235025   2.788   0.580   6.343 -1.6557  0.7885 -1.1504
 7798SOL     OW35026   0.856   2.865   2.001  0.3763  0.1778 -0.5755
 7798SOL    HW135027   0.872   2.874   1.907  2.0164 -0.1933 -0.3217
 7798SOL    HW235028   0.848   2.770   2.008 -0.0080  0.2913  0.5502
 7799SOL     OW35029   3.898   3.725   5.188  0.7344 -0.2205  0.3181
 7799SOL    HW135030   3.987   3.756   5.170 -0.4759  1.6123 -2.5435
 7799SOL    HW235031   3.877   3.784   5.260  0.5324 -0.2395  0.2739
 7800SOL     OW35032   2.820   1.424   5.111 -0.0483 -0.1899 -0.3519
 7800SOL    HW135033   2.854   1.348   5.063  0.0119 -1.1008  1.1229
 7800SOL    HW235034   2.726   1.420   5.097  0.0740 -1.3403 -0.8936
 7801SOL     OW35035   1.344   4.309   9.485 -0.2561  0.1270  0.3881
 7801SOL    HW135036   1.409   4.331   9.418  2.4793 -1.0730  2.6144
 7801SOL    HW235037   1.332   4.217   9.460 -1.5189  0.6297 -0.8335
 7802SOL     OW35038   3.624   1.846   3.775  0.6807 -0.4761 -0.5698
 7802SOL    HW135039   3.657   1.859   3.864 -0.6446  0.5001 -0.2219
 7802SOL    HW235040   3.636   1.932   3.734  3.2789 -0.0033  1.1581
 7803SOL     OW35041   1.874   1.263   2.527  0.5491  0.2074 -0.2390
 7803SOL    HW135042   1.798   1.221   2.568 -0.0160 -0.5291 -2.0429
 7803SOL    HW235043   1.850   1.279   2.436 -0.5624  4.5415  0.8505
 7804SOL     OW35044   3.909   1.381   2.207  0.6541  0.5343 -0.0349
 7804SOL    HW135045   4.004   1.378   2.209  0.6876  0.9345 -1.5131
 7804SOL    HW235046   3.890   1.287   2.207  3.2218 -0.0039  4.4590
 7805SOL     OW35047   4.387   4.101   8.613 -0.1400 -0.3218  0.1623
 7805SOL    HW135048   4.331   4.165   8.569 -2.1807 -1.3283  1.3136
 7805SOL    HW235049   4.468   4.152   8.609  0.5886 -1.4764  0.1316
 7806SOL     OW35050   2.358   2.009   0.674  0.2134  0.1370  0.5274
 7806SOL    HW135051   2.334   2.031   0.584  1.9747 -1.5447 -0.3471
 7806SOL    HW235052   2.375   1.916   0.660  0.0194 -0.0973  1.8231
 7807SOL     OW35053   3.641   3.971   7.600 -0.3685  0.0747  0.3678
 7807SOL    HW135054   3.651   4.035   7.530 -2.9179  0.4498  0.3223
 7807SOL    HW235055   3.562   3.924   7.571 -0.8959  1.3505 -0.2885
 7808SOL     OW35056   0.375   4.327  16.638  0.0334  0.6797  0.2080
 7808SOL    HW135057   0.456   4.367  16.670  1.6235 -2.2155 -0.2569
 7808SOL    HW235058   0.331   4.394  16.585  2.3915  0.3397 -2.1764
 7809SOL     OW35059   4.163   0.755  10.575  0.0814 -0.6033 -0.4312
 7809SOL    HW135060   4.070   0.731  10.567 -0.3388  0.8168  0.2423
 7809SOL    HW235061   4.192   0.721  10.660 -3.5939  0.8757  1.4261
 7810SOL     OW35062   1.558   0.513   2.139 -0.0770  0.3978  0.5765
 7810SOL    HW135063   1.586   0.537   2.051  0.2536 -1.8532  0.0713
 7810SOL    HW235064   1.579   0.593   2.187  2.8732 -0.6231  1.0381
 7811SOL     OW35065   1.322   0.921   7.504  0.3423 -0.1283  0.3146
 7811SOL    HW135066   1.333   0.958   7.592 -0.7842  0.9967 -0.0296
 7811SOL    HW235067   1.345   0.828   7.512 -1.1271 -0.4122  1.3184
 7812SOL     OW35068   0.271   4.289   8.421 -0.4869 -0.5426 -0.1268
 7812SOL    HW135069   0.271   4.277   8.516  0.0739  2.1360  0.2028
 7812SOL    HW235070   0.182   4.257   8.403 -0.9906  0.3851  0.7066
 7813SOL     OW35071   2.192   0.905  12.907  0.0836 -0.0069 -1.0696
 7813SOL    HW135072   2.178   0.882  12.999 -1.5858 -0.5491 -1.4641
 7813SOL    HW235073   2.281   0.941  12.914 -0.2196  0.4859  0.2531
 7814SOL     OW35074   4.140   4.448   3.241 -0.2621 -0.2206  0.0415
 7814SOL    HW135075   4.145   4.503   3.163  1.4110 -0.8836 -0.3198
 7814SOL    HW235076   4.167   4.363   3.205  0.7635  0.5419 -0.9857
 7815SOL     OW35077   0.792   1.711   7.737  0.4773  0.0350 -0.3905
 7815SOL    HW135078   0.777   1.621   7.708  1.1953 -0.2333  0.0578
 7815SOL    HW235079   0.705   1.748   7.727  0.6428  0.3911 -0.4933
 7816SOL     OW35080   1.250   2.022   7.707 -0.1768 -0.0497  0.1098
 7816SOL    HW135081   1.337   2.011   7.745 -0.4118 -0.7615  0.4498
 7816SOL    HW235082   1.264   2.113   7.681 -3.2835  0.3967  0.0191
 7817SOL     OW35083   1.306   3.909   2.941  0.0601  0.3738 -0.1711
 7817SOL    HW135084   1.305   3.902   2.845  0.9139  0.1908 -0.1664
 7817SOL    HW235085   1.400   3.893   2.949  0.2206  0.1121 -2.5267
 7818SOL     OW35086   4.119   2.069   6.842 -0.0130 -0.0605  0.0020
 7818SOL    HW135087   4.087   2.159   6.831  0.7652  0.2472  0.2800
 7818SOL    HW235088   4.104   2.031   6.755  3.3004 -2.0990  0.3387
 7819SOL     OW35089   4.649   1.550  15.689 -0.2832 -0.3308 -0.3379
 7819SOL    HW135090   4.621   1.589  15.772  1.6819  0.7873 -0.1790
 7819SOL    HW235091   4.578   1.580  15.632  0.2819  1.1531 -0.2601
 7820SOL     OW35092   1.650   4.612   4.006  0.6224 -0.3343  0.0937
 7820SOL    HW135093   1.718   4.552   3.978  0.4007 -1.0364  1.0572
 7820SOL    HW235094   1.583   4.583   3.944  0.2934  0.7780 -0.0777
 7821SOL     OW35095   0.403   2.992   8.499  0.0183  0.3947 -0.1284
 7821SOL    HW135096   0.352   2.911   8.504  0.2722  0.3100  1.1416
 7821SOL    HW235097   0.331   3.054   8.502 -0.3782 -0.0176 -1.2549
 7822SOL     OW35098   4.634   2.951   7.204  0.2468 -0.2365 -0.1252
 7822SOL    HW135099   4.628   2.929   7.111 -0.7456  0.4645 -0.2354
 7822SOL    HW235100   4.553   2.918   7.244 -1.5040  1.9305 -1.8474
 7823SOL     OW35101   2.634   1.384   8.063  0.1440  0.4389  0.2036
 7823SOL    HW135102   2.693   1.373   8.138 -1.3084 -1.0637  1.1294
 7823SOL    HW235103   2.603   1.297   8.040  2.1126 -0.0580 -0.5478
 7824SOL     OW35104   1.214   1.439   5.649  0.0889 -0.0776 -0.4748
 7824SOL    HW135105   1.157   1.384   5.595 -0.3194  2.0613 -2.2259
 7824SOL    HW235106   1.163   1.518   5.660 -1.5634 -1.6158  2.7341
 7825SOL     OW35107   1.929   2.450  11.537 -0.2007  0.1502  1.1615
 7825SOL    HW135108   1.991   2.439  11.466  1.7173  0.7373  2.7526
 7825SOL    HW235109   1.971   2.421  11.618  1.6548 -1.9116 -0.5536
 7826SOL     OW35110   3.705   2.492   8.528  0.1082  0.2038 -0.5650
 7826SOL    HW135111   3.756   2.413   8.509 -0.1409  0.0200 -0.4697
 7826SOL    HW235112   3.615   2.458   8.527  0.9834 -2.0738 -1.7528
 7827SOL     OW35113   4.555   1.390  13.226  0.4196 -0.3998 -0.0265
 7827SOL    HW135114   4.517   1.437  13.300  3.8489  2.7371 -0.2745
 7827SOL    HW235115   4.546   1.300  13.259 -2.6799 -0.0992  0.0014
 7828SOL     OW35116   0.549   3.782   2.683  0.3438 -0.1088 -0.2514
 7828SOL    HW135117   0.584   3.809   2.598  0.8146 -0.3875 -0.1468
 7828SOL    HW235118   0.603   3.831   2.745 -0.4885 -0.1663  0.5307
 7829SOL     OW35119   4.051   0.932   7.232  0.0671  0.3442  0.3016
 7829SOL    HW135120   4.092   0.994   7.172  2.7211 -2.1028 -0.4160
 7829SOL    HW235121   4.118   0.935   7.300  0.3904  0.2557 -0.0161
 7830SOL     OW35122   3.690   4.081  10.967 -0.2355  0.1767  0.3500
 7830SOL    HW135123   3.766   4.105  10.914 -2.1251  1.4446 -1.8097
 7830SOL    HW235124   3.732   4.014  11.020 -2.1927 -1.7230 -0.5437
 7831SOL     OW35125   4.721   1.749   6.426  0.2841 -0.3153 -0.3696
 7831SOL    HW135126   4.721   1.843   6.442 -1.7225 -0.5595  1.1602
 7831SOL    HW235127   4.626   1.737   6.424 -0.0094  2.0492 -0.8933
 7832SOL     OW35128   2.417   4.212   8.617 -1.0109  0.1122 -0.4848
 7832SOL    HW135129   2.358   4.140   8.597 -0.6176 -0.2173 -0.4509
 7832SOL    HW235130   2.507   4.180   8.616 -1.6352 -1.6736  1.0820
 7833SOL     OW35131   4.147   3.220   6.907 -0.2827  0.1593 -0.4175
 7833SOL    HW135132   4.169   3.161   6.979  1.1779  0.7096 -0.4164
 7833SOL    HW235133   4.053   3.210   6.892 -0.1195  0.2102 -1.4699
 7834SOL     OW35134   4.024   3.237  13.347  0.4791  0.1630  0.2631
 7834SOL    HW135135   4.102   3.293  13.345  2.1372 -2.1213  1.0092
 7834SOL    HW235136   4.059   3.148  13.359 -2.0340 -0.5686  2.0972
 7835SOL     OW35137   3.864   3.758   7.148 -0.2136 -0.6355  0.0125
 7835SOL    HW135138   3.897   3.749   7.238  0.1160 -2.3612 -0.2943
 7835SOL    HW235139   3.938   3.723   7.100  2.4969  3.0482  1.4869
 7836SOL     OW35140   0.328   4.599   9.113  0.3363 -0.1719 -0.5521
 7836SOL    HW135141   0.306   4.507   9.098  1.9152 -0.7808  0.8613
 7836SOL    HW235142   0.370   4.601   9.199  3.9020  1.7599 -2.3224
 7837SOL     OW35143   3.787   2.791   8.836 -0.0853  0.1557 -0.1439
 7837SOL    HW135144   3.768   2.880   8.805  1.9602 -0.2430 -2.5408
 7837SOL    HW235145   3.806   2.757   8.749 -2.1198 -1.5294  0.0904
 7838SOL     OW35146   0.654   1.987  13.795  0.6733  0.4692  0.2332
 7838SOL    HW135147   0.716   2.030  13.854  2.8461  0.3760 -2.0044
 7838SOL    HW235148   0.570   2.032  13.791  0.4212  0.1448  2.0037
 7839SOL     OW35149   2.357   0.012   8.517 -0.2697 -0.0884  0.5536
 7839SOL    HW135150   2.311   0.066   8.581  2.3748  0.8533  1.6523
 7839SOL    HW235151   2.362   4.664   8.560  0.2136 -0.2453  0.1900
 7840SOL     OW35152   0.361   0.991   9.683 -0.3731 -0.4750 -0.0898
 7840SOL    HW135153   0.445   0.956   9.711  0.4641 -0.5072 -2.5906
 7840SOL    HW235154   0.323   1.016   9.767 -1.2667 -2.0762 -0.0204
 7841SOL     OW35155   2.765   2.939  11.299 -0.0499 -0.2742  0.1224
 7841SOL    HW135156   2.852   2.905  11.316  0.4750  1.2393  0.4367
 7841SOL    HW235157   2.784   3.033  11.299 -0.8971 -0.1114  1.1459
 7842SOL     OW35158   1.486   2.471  17.290 -0.1817  0.7489  0.4925
 7842SOL    HW135159   1.506   2.379  17.308 -1.0699 -0.4434 -4.4942
 7842SOL    HW235160   1.436   2.496  17.367 -0.6846  3.6681 -0.7709
 7843SOL     OW35161   3.739   3.407   9.880 -0.3361  0.0505 -0.4351
 7843SOL    HW135162   3.644   3.394   9.870 -0.4355  1.3341 -1.2333
 7843SOL    HW235163   3.769   3.341   9.818  0.5777  1.7204 -1.7894
 7844SOL     OW35164   3.967   0.599   5.443 -0.1324 -0.3509 -0.4106
 7844SOL    HW135165   3.882   0.619   5.405  0.4393 -0.2507 -1.6454
 7844SOL    HW235166   4.018   0.633   5.369 -2.1805 -1.0793 -2.1689
 7845SOL     OW35167   2.838   2.754  15.405  0.1167  0.0094  0.2299
 7845SOL    HW135168   2.871   2.775  15.317 -3.2306 -2.0540 -1.5354
 7845SOL    HW235169   2.744   2.764  15.389  0.2663 -0.3075 -0.8709
 7846SOL     OW35170   1.599   1.581   7.259  0.4315  0.5906  0.0638
 7846SOL    HW135171   1.546   1.597   7.337 -2.5612  3.1448 -2.4925
 7846SOL    HW235172   1.667   1.525   7.298 -1.4108 -0.5663  1.5649
 7847SOL     OW35173   0.228   4.592  10.165 -0.4350 -0.6610  0.0961
 7847SOL    HW135174   0.300   4.563  10.221  0.3232 -1.9851 -1.5729
 7847SOL    HW235175   0.272   4.665  10.122  0.5312 -0.1019  2.0357
 7848SOL     OW35176   2.647   4.300   3.861 -0.0764  0.3320  0.1616
 7848SOL    HW135177   2.597   4.380   3.842 -0.6098  0.0509  0.3633
 7848SOL    HW235178   2.665   4.321   3.952 -0.7863  1.0208  0.1470
 7849SOL     OW35179   3.379   2.054  13.360 -0.1540 -0.2267 -0.0103
 7849SOL    HW135180   3.354   2.099  13.441  0.6548  0.8020 -0.3301
 7849SOL    HW235181   3.310   1.989  13.350 -0.1400 -0.2123 -0.2021
 7850SOL     OW35182   1.418   1.509   6.896  0.3967  0.2829  0.6848
 7850SOL    HW135183   1.433   1.473   6.808 -4.0038  2.2894 -0.9150
 7850SOL    HW235184   1.423   1.604   6.887  1.3000  0.1727  0.0473
 7851SOL     OW35185   3.959   3.509   2.047  0.0073  0.8350 -0.7283
 7851SOL    HW135186   3.871   3.536   2.021 -1.0524 -3.1030 -1.2317
 7851SOL    HW235187   4.012   3.571   1.995  1.7369  0.7713  0.9668
 7852SOL     OW35188   3.042   0.582  15.041  0.1766  0.0653  0.2172
 7852SOL    HW135189   3.128   0.617  15.019 -1.0581  1.0097 -3.0989
 7852SOL    HW235190   3.031   0.539  14.957 -1.8377 -1.1717  1.0904
 7853SOL     OW35191   2.629   2.470   3.204  0.0887  0.2907  0.0532
 7853SOL    HW135192   2.596   2.380   3.196 -0.8115  0.6809 -0.5746
 7853SOL    HW235193   2.694   2.475   3.133  1.0069  0.6797  0.9148
 7854SOL     OW35194   1.218   1.572   3.054  0.5308  0.2748  0.1503
 7854SOL    HW135195   1.141   1.612   3.094 -0.4785 -0.5348 -0.9665
 7854SOL    HW235196   1.189   1.483   3.032  2.1508 -0.2087 -0.0323
 7855SOL     OW35197   1.053   4.070   1.955 -0.1163 -0.1667  0.3950
 7855SOL    HW135198   0.969   4.073   1.909 -0.9464  2.1239  2.0337
 7855SOL    HW235199   1.102   4.008   1.902  1.9701  0.9308  1.0393
 7856SOL     OW35200   0.353   4.676   9.770  0.2620  0.3059  0.1386
 7856SOL    HW135201   0.367   4.734   9.696  1.7947 -1.7921 -1.2251
 7856SOL    HW235202   0.382   4.592   9.734 -1.7779 -0.5036  0.4037
 7857SOL     OW35203   1.638   3.582   2.287 -0.1162 -0.3038  0.3416
 7857SOL    HW135204   1.630   3.496   2.248  1.2610 -0.4684  0.4348
 7857SOL    HW235205   1.555   3.618   2.257  0.2302 -0.1397 -0.4181
 7858SOL     OW35206   4.302   4.482   2.084 -0.3406 -0.1680 -0.7956
 7858SOL    HW135207   4.353   4.559   2.059 -2.0287  1.3233  0.4269
 7858SOL    HW235208   4.296   4.444   1.996  1.6151 -0.6333 -0.7287
 7859SOL     OW35209   4.385   3.222  14.305  0.6674  0.7852 -0.2184
 7859SOL    HW135210   4.464   3.169  14.292 -0.2662 -0.3323 -1.3598
 7859SOL    HW235211   4.418   3.308  14.281  1.5066 -0.3292 -3.0715
 7860SOL     OW35212   4.427   1.305   5.468 -0.5434  0.2646  0.8286
 7860SOL    HW135213   4.382   1.350   5.397  0.8885  0.2796 -0.0595
 7860SOL    HW235214   4.355   1.246   5.492 -0.9952  0.4851 -0.0075
 7861SOL     OW35215   3.844   3.826   3.371  0.3108 -1.0881  0.3217
 7861SOL    HW135216   3.886   3.818   3.457 -0.0887  0.8639  0.7080
 7861SOL    HW235217   3.772   3.890   3.373  1.7735  0.5803 -0.8669
 7862SOL     OW35218   2.809   2.174  16.926 -0.1467 -0.1499  0.0844
 7862SOL    HW135219   2.727   2.223  16.937 -0.1891 -0.4496  1.0890
 7862SOL    HW235220   2.787   2.089  16.964  0.8684 -0.0434  0.8966
 7863SOL     OW35221   3.773   2.658  14.057  0.2012 -0.5087  0.3189
 7863SOL    HW135222   3.713   2.587  14.035  0.0881  0.7628 -3.4423
 7863SOL    HW235223   3.857   2.614  14.075  0.6364  0.6949  1.2604
 7864SOL     OW35224   3.645   3.910   3.989 -0.3992 -0.2991  0.1116
 7864SOL    HW135225   3.672   3.979   3.928 -1.1109  0.9715  1.2382
 7864SOL    HW235226   3.719   3.849   3.986 -0.2141 -0.0764  0.1290
 7865SOL     OW35227   0.557   3.803  10.023 -0.2520 -0.4781 -0.3643
 7865SOL    HW135228   0.550   3.727  10.081  0.6147 -0.1520  0.1615
 7865SOL    HW235229   0.633   3.775   9.972 -0.2937  0.6098 -1.0174
 7866SOL     OW35230   4.683   3.508   4.792 -0.5225  0.0089 -0.9199
 7866SOL    HW135231   0.021   3.456   4.820 -0.5976 -1.5387 -3.5886
 7866SOL    HW235232   4.736   3.581   4.761 -0.3375  0.2013 -0.1340
 7867SOL     OW35233   0.872   2.066   6.469  0.2998  0.3855  0.0572
 7867SOL    HW135234   0.957   2.032   6.442 -0.4143 -0.6170 -0.9370
 7867SOL    HW235235   0.845   2.072   6.378  0.1713  0.3580  0.0934
 7868SOL     OW35236   3.385   3.833  12.994  0.4944  0.1458  0.0178
 7868SOL    HW135237   3.378   3.922  12.957 -2.9593  0.1621  0.6308
 7868SOL    HW235238   3.334   3.792  12.923 -0.3457  1.7814 -0.3549
 7869SOL     OW35239   0.259   4.480   5.804 -0.1813 -0.6674 -0.1778
 7869SOL    HW135240   0.193   4.546   5.825  1.7126  0.7028  1.4687
 7869SOL    HW235241   0.332   4.523   5.761  0.2396 -1.3761 -0.1782
 7870SOL     OW35242   1.402   1.657   5.729  0.1429 -0.0263  0.2821
 7870SOL    HW135243   1.331   1.595   5.712  0.0011 -0.3985  2.2066
 7870SOL    HW235244   1.480   1.611   5.697 -1.0266 -0.4469 -1.9675
 7871SOL     OW35245   1.386   1.464   2.632 -0.1922  0.5422 -0.4608
 7871SOL    HW135246   1.405   1.447   2.724 -0.1586  0.0260 -0.5635
 7871SOL    HW235247   1.306   1.516   2.630  0.2046  1.2771  2.3527
 7872SOL     OW35248   4.360   3.845   8.616 -0.1386 -0.0205 -0.1829
 7872SOL    HW135249   4.391   3.814   8.531 -1.7160 -0.7588 -0.4841
 7872SOL    HW235250   4.360   3.941   8.611 -0.3325 -0.0412 -0.6038
 7873SOL     OW35251   3.983   2.268   5.062  0.0119  0.0393  0.0025
 7873SOL    HW135252   3.962   2.355   5.030 -0.0777  0.3373  0.8552
 7873SOL    HW235253   3.943   2.214   4.994  0.0945  0.7745 -0.6227
 7874SOL     OW35254   2.706   3.764   8.296  0.0388  0.3325 -1.4016
 7874SOL    HW135255   2.744   3.680   8.321  2.5189  1.3490 -1.7702
 7874SOL    HW235256   2.770   3.799   8.234 -0.6450  2.3539 -0.9643
 7875SOL     OW35257   3.293   1.153   5.493  0.1769 -0.4502  0.1062
 7875SOL    HW135258   3.203   1.167   5.520  0.2483  0.7146 -0.2717
 7875SOL    HW235259   3.281   1.059   5.479  1.3396  0.0312 -4.1218
 7876SOL     OW35260   1.707   0.493   4.903  0.1994  0.5339 -0.0962
 7876SOL    HW135261   1.731   0.549   4.977 -0.0162  1.0923 -0.4488
 7876SOL    HW235262   1.650   0.548   4.849  1.8923  2.3654  0.0049
 7877SOL     OW35263   0.630   0.418   6.783  0.2768  0.1184  0.0044
 7877SOL    HW135264   0.639   0.354   6.713  0.1704  3.3896 -2.9753
 7877SOL    HW235265   0.714   0.428   6.827  0.4390  1.9476 -0.7212
 7878SOL     OW35266   1.501   3.599  10.126  0.5600 -0.4699  0.4774
 7878SOL    HW135267   1.577   3.655  10.115  1.2317 -1.7284 -1.2309
 7878SOL    HW235268   1.547   3.528  10.169 -0.4045 -1.2241  0.2531
 7879SOL     OW35269   4.557   2.503   5.153 -1.0663 -0.0702  0.3150
 7879SOL    HW135270   4.539   2.412   5.131  1.5113 -0.4716 -0.0665
 7879SOL    HW235271   4.470   2.540   5.172 -0.2124  0.7924  2.4657
 7880SOL     OW35272   0.521   4.308   5.802 -0.2045 -0.4655  0.3503
 7880SOL    HW135273   0.596   4.367   5.813  0.5360 -0.8781 -2.7298
 7880SOL    HW235274   0.448   4.369   5.792  0.4448  0.3297  0.4168
 7881SOL     OW35275   1.931   1.622   0.807 -0.1485 -0.3160  0.9985
 7881SOL    HW135276   1.901   1.713   0.799 -0.6348 -0.7107 -1.6343
 7881SOL    HW235277   1.849   1.575   0.791  0.6336 -0.9176 -1.2479
 7882SOL     OW35278   0.511   4.447   7.284  0.2909 -0.1243  0.4443
 7882SOL    HW135279   0.505   4.538   7.314  0.8273  0.4798 -1.2681
 7882SOL    HW235280   0.417   4.439   7.297  0.3239  1.6305  1.8157
 7883SOL     OW35281   0.546   2.697   1.415  0.1800 -0.8652 -0.0337
 7883SOL    HW135282   0.631   2.697   1.372  0.6621  1.2035  0.9701
 7883SOL    HW235283   0.484   2.660   1.351  0.9097  0.1678 -1.3511
 7884SOL     OW35284   3.369   3.704   8.885  0.4513  0.4722  0.0063
 7884SOL    HW135285   3.311   3.753   8.828  1.0640 -0.1789 -1.1622
 7884SOL    HW235286   3.422   3.778   8.913  1.4489 -1.5172  3.3885
 7885SOL     OW35287   3.712   3.517  13.706 -0.0686 -0.3963  0.6975
 7885SOL    HW135288   3.738   3.454  13.640  0.2560 -0.9613  1.3680
 7885SOL    HW235289   3.747   3.493  13.792  1.1154 -1.4985 -0.1093
 7886SOL     OW35290   0.774   2.275   5.977 -0.2153 -0.2429 -0.1338
 7886SOL    HW135291   0.706   2.328   6.018 -0.4723 -0.8240  0.1822
 7886SOL    HW235292   0.762   2.284   5.882 -1.3920  1.4225  0.1709
 7887SOL     OW35293   0.708   4.044   7.653  0.5803 -0.2773 -0.7457
 7887SOL    HW135294   0.678   4.049   7.562  3.1920  0.6490 -1.5461
 7887SOL    HW235295   0.799   4.072   7.647 -0.3578  2.7773 -0.6518
 7888SOL     OW35296   1.643   4.398   1.760  0.1771  0.5938  0.1132
 7888SOL    HW135297   1.681   4.339   1.696 -2.7360 -2.1527  0.9300
 7888SOL    HW235298   1.616   4.335   1.827 -0.5916 -1.6740 -2.3747
 7889SOL     OW35299   1.954   0.122   2.737 -0.6428 -0.3843  0.4194
 7889SOL    HW135300   1.921   0.035   2.715  0.0329 -1.0575  2.0916
 7889SOL    HW235301   1.929   0.140   2.828  1.8550 -3.2892  1.6496
 7890SOL     OW35302   0.058   1.261  14.346 -0.4388  0.1942 -0.2790
 7890SOL    HW135303   0.049   1.312  14.427  4.4133  0.4124  0.1002
 7890SOL    HW235304   0.153   1.264  14.339 -0.2977  0.4849  1.7213
 7891SOL     OW35305   4.712   4.478  17.656 -0.1330 -0.1209  0.4255
 7891SOL    HW135306   4.657   4.542  17.701 -0.1932  0.4861 -0.5117
 7891SOL    HW235307   4.662   4.401  17.681 -2.5127  0.7077 -1.7939
 7892SOL     OW35308   4.118   2.998   3.297 -0.1549 -0.4763  0.2281
 7892SOL    HW135309   4.029   3.032   3.287  0.0406  0.0324  0.2272
 7892SOL    HW235310   4.146   3.044   3.376 -0.4690 -2.5677  1.5483
 7893SOL     OW35311   3.498   0.699  14.654 -0.1155 -0.3607  0.0679
 7893SOL    HW135312   3.574   0.746  14.620 -0.5347  0.2207 -0.0783
 7893SOL    HW235313   3.500   0.724  14.747 -2.4897  1.0063 -0.2258
 7894SOL     OW35314   1.583   4.651   0.334 -0.0445 -0.2902  0.9342
 7894SOL    HW135315   1.626   4.647   0.419  0.1539 -1.4835  0.7738
 7894SOL    HW235316   1.619   4.737   0.310  0.1875 -0.3247  1.1626
 7895SOL     OW35317   2.249   1.733   5.254  0.0184 -0.5714 -0.1140
 7895SOL    HW135318   2.273   1.812   5.302  0.0573  0.2431 -1.5099
 7895SOL    HW235319   2.330   1.683   5.267  1.3030  1.7361  0.7111
 7896SOL     OW35320   2.259   4.219  10.479 -0.3023 -0.3017 -0.5043
 7896SOL    HW135321   2.273   4.124  10.486 -1.4437 -0.2758  2.2043
 7896SOL    HW235322   2.303   4.228  10.394 -0.2688 -1.4345 -0.6047
 7897SOL     OW35323   1.104   1.957   4.343  0.4153  0.7106  0.3327
 7897SOL    HW135324   1.105   1.937   4.250  0.4131  1.5897  0.1437
 7897SOL    HW235325   1.179   2.016   4.356  1.9030 -0.8666 -1.1058
 7898SOL     OW35326   2.779   2.480  17.625 -0.3437  0.2657  0.3484
 7898SOL    HW135327   2.779   2.575  17.625 -0.8829  0.2601  1.1141
 7898SOL    HW235328   2.875   2.473  17.625 -0.5705 -2.8692  1.1620
 7899SOL     OW35329   2.226   3.348   7.792 -0.1214 -0.1698 -0.0948
 7899SOL    HW135330   2.173   3.418   7.832 -0.7717 -0.6432 -0.1313
 7899SOL    HW235331   2.178   3.333   7.711 -1.2134 -3.5390  1.1926
 7900SOL     OW35332   4.003   2.094   4.654  0.6209 -0.0410  0.1070
 7900SOL    HW135333   3.975   2.015   4.609 -1.3487  1.0531 -0.6222
 7900SOL    HW235334   3.989   2.164   4.589  2.1219 -1.7350 -2.0622
 7901SOL     OW35335   0.740   4.725   7.479  0.6478 -0.2286  0.0470
 7901SOL    HW135336   0.647   0.011   7.478  1.2452  2.0530 -3.0498
 7901SOL    HW235337   0.749   4.733   7.384  0.7391 -0.6481  0.0203
 7902SOL     OW35338   2.512   1.449   5.662  0.6932  0.1769  0.3002
 7902SOL    HW135339   2.528   1.355   5.656 -1.2547 -0.0555 -0.9153
 7902SOL    HW235340   2.604   1.475   5.673  0.8885 -0.6341  0.5999
 7903SOL     OW35341   3.298   2.379   7.879 -0.3797 -0.1253 -0.5013
 7903SOL    HW135342   3.249   2.319   7.823  2.3214 -0.6072 -2.3680
 7903SOL    HW235343   3.234   2.393   7.949  0.1948 -1.0681  0.2007
 7904SOL     OW35344   0.277   3.879   7.140  0.1591  0.9742  0.3210
 7904SOL    HW135345   0.267   3.972   7.118  0.1819  1.4850  2.4539
 7904SOL    HW235346   0.331   3.840   7.071  0.4431  1.1766  0.4272
 7905SOL     OW35347   0.860   1.655  16.971 -0.1214 -0.1574  0.3819
 7905SOL    HW135348   0.778   1.704  16.968  0.0635  0.0874 -0.7369
 7905SOL    HW235349   0.885   1.674  17.061  1.1352  5.2782 -1.1513
 7906SOL     OW35350   3.644   2.357  10.305  0.1566 -0.1181 -0.2121
 7906SOL    HW135351   3.555   2.334  10.278  0.2666 -1.6048  0.6774
 7906SOL    HW235352   3.679   2.280  10.349  1.2238  0.4753 -0.0264
 7907SOL     OW35353   2.994   0.110  15.211  0.0789 -0.0944  0.2742
 7907SOL    HW135354   2.987   0.129  15.305 -1.2725  1.3031 -0.1097
 7907SOL    HW235355   2.909   0.146  15.184 -0.6431 -1.6260  0.4526
 7908SOL     OW35356   0.801   1.309   9.864  0.0973  0.0435  0.6121
 7908SOL    HW135357   0.828   1.235   9.919  0.9993 -1.0797 -1.3418
 7908SOL    HW235358   0.875   1.369   9.871 -0.4720  0.7434  0.5999
 7909SOL     OW35359   3.305   3.296  13.890 -0.0255  0.1087 -0.0483
 7909SOL    HW135360   3.351   3.217  13.918  0.6195  1.4194  2.5972
 7909SOL    HW235361   3.367   3.359  13.928 -0.8597  0.7750  0.2167
 7910SOL     OW35362   0.684   4.260  13.495 -0.1461  0.0394 -0.4203
 7910SOL    HW135363   0.679   4.166  13.512 -1.7323  0.1742 -0.1248
 7910SOL    HW235364   0.770   4.273  13.456 -0.3198 -0.2471 -0.9036
 7911SOL     OW35365   3.312   3.487   6.234  0.3625 -0.3248 -0.0616
 7911SOL    HW135366   3.267   3.533   6.163 -1.2230 -0.7326  0.6780
 7911SOL    HW235367   3.362   3.428   6.177  2.1954  1.4390 -0.2901
 7912SOL     OW35368   1.046   2.097   0.641 -0.3741 -0.0746  0.1403
 7912SOL    HW135369   1.099   2.054   0.708 -1.4457 -2.1000 -0.3000
 7912SOL    HW235370   0.969   2.114   0.694  1.7229  0.5941  2.9817
 7913SOL     OW35371   1.111   1.726  16.844  0.2933  0.3508 -0.0113
 7913SOL    HW135372   1.086   1.652  16.788  0.2356 -0.0656  0.5636
 7913SOL    HW235373   1.032   1.716  16.897  0.3421  0.4683  0.0855
 7914SOL     OW35374   1.246   3.353   7.372  0.0121 -0.4120  0.5039
 7914SOL    HW135375   1.232   3.385   7.283  0.2481  1.2895  1.0863
 7914SOL    HW235376   1.291   3.419   7.424 -0.2649 -1.2431  1.7995
 7915SOL     OW35377   0.068   0.538   2.945  0.0306  0.5579  0.7684
 7915SOL    HW135378   0.095   0.570   2.858 -0.6157  0.8090  0.6608
 7915SOL    HW235379   0.018   0.462   2.916  1.0960 -0.1033  0.6623
 7916SOL     OW35380   0.093   1.322   4.906  0.0679 -0.1048 -0.6843
 7916SOL    HW135381   0.149   1.277   4.843  0.4535 -1.1900  0.4327
 7916SOL    HW235382   0.125   1.412   4.917 -0.1135 -0.0958 -0.2369
 7917SOL     OW35383   1.200   0.859   8.525  0.4598 -0.3329  0.1299
 7917SOL    HW135384   1.274   0.798   8.519 -0.3499 -1.4707  1.7048
 7917SOL    HW235385   1.239   0.946   8.513  0.6789  0.2313  4.8139
 7918SOL     OW35386   3.471   1.915   2.918 -0.0587  0.5948 -0.2336
 7918SOL    HW135387   3.554   1.910   2.966  0.3423  0.6376 -0.9234
 7918SOL    HW235388   3.501   1.901   2.828 -2.9898 -2.6459 -0.7475
 7919SOL     OW35389   0.992   2.768   3.252 -0.4890 -0.3254  0.6049
 7919SOL    HW135390   0.993   2.858   3.220 -0.8875 -0.2398  0.8374
 7919SOL    HW235391   0.917   2.736   3.201 -1.5340  0.6019  1.5664
 7920SOL     OW35392   0.073   2.926   9.933 -0.4311  0.9266  0.3298
 7920SOL    HW135393   0.055   3.020   9.927 -1.4367  0.7475  0.6064
 7920SOL    HW235394   0.044   2.900  10.020  0.0588 -0.1370  0.1747
 7921SOL     OW35395   2.787   2.559  13.493 -0.1911  0.0123  0.5671
 7921SOL    HW135396   2.736   2.618  13.437  0.6111  0.2984  0.1468
 7921SOL    HW235397   2.731   2.539  13.568 -2.5961  0.7336 -1.0254
 7922SOL     OW35398   0.982   1.228   0.048  0.2024 -0.2322 -0.4125
 7922SOL    HW135399   0.966   1.211   0.141 -0.0014  0.0087 -0.4038
 7922SOL    HW235400   1.028   1.145   0.034 -1.2719 -1.1020 -0.0721
 7923SOL     OW35401   3.347   2.070   3.257 -0.0656 -0.2470  0.1394
 7923SOL    HW135402   3.294   2.065   3.178 -0.6977 -1.9134  0.6509
 7923SOL    HW235403   3.278   2.068   3.323 -0.5118  0.0542 -0.3163
 7924SOL     OW35404   3.922   3.520  15.563  0.0607  0.8011 -0.5969
 7924SOL    HW135405   3.982   3.527  15.488 -0.2282 -1.9529 -1.0992
 7924SOL    HW235406   3.977   3.532  15.640  0.4044 -0.2941 -0.6632
 7925SOL     OW35407   1.224   4.287   2.701  0.1617  0.4484  0.1228
 7925SOL    HW135408   1.148   4.291   2.758  1.8685  2.1515  2.2778
 7925SOL    HW235409   1.290   4.278   2.770 -0.4263  0.0003  0.6164
 7926SOL     OW35410   0.390   3.609   3.345 -0.2369  0.0768 -0.2138
 7926SOL    HW135411   0.314   3.632   3.291 -1.1834 -0.7002  0.7931
 7926SOL    HW235412   0.345   3.543   3.397  0.0406 -2.0507 -2.6755
 7927SOL     OW35413   2.533   1.459   5.051 -0.3889  0.2592 -0.2445
 7927SOL    HW135414   2.486   1.541   5.033 -0.6550  0.0816 -0.3592
 7927SOL    HW235415   2.539   1.420   4.964  2.2367  2.3719 -1.0002
 7928SOL     OW35416   4.488   4.279   3.563 -0.5453  0.4334  0.0734
 7928SOL    HW135417   4.559   4.222   3.593 -0.2766  0.6898 -0.0758
 7928SOL    HW235418   4.513   4.355   3.617  0.1996  1.3550 -1.5823
 7929SOL     OW35419   1.346   1.941  12.340  0.4795  0.0204 -0.5379
 7929SOL    HW135420   1.421   1.973  12.391  0.3432  0.0837 -0.3773
 7929SOL    HW235421   1.371   1.849  12.329  0.6647  0.2473 -1.9542
 7930SOL     OW35422   3.767   4.149   6.087 -0.7282 -0.2473 -0.1190
 7930SOL    HW135423   3.794   4.217   6.025 -0.1416 -0.8990 -0.5795
 7930SOL    HW235424   3.849   4.115   6.124  0.1912  2.5380  0.4245
 7931SOL     OW35425   4.081   4.197  13.510  0.0190  0.0454 -0.2420
 7931SOL    HW135426   4.043   4.232  13.590 -0.9816 -0.8603 -0.3213
 7931SOL    HW235427   4.156   4.148  13.545  0.5372  0.9717 -0.0683
 7932SOL     OW35428   3.719   4.336  10.690  0.1752 -0.9924 -0.5444
 7932SOL    HW135429   3.801   4.323  10.643  0.8324 -1.7111  0.8275
 7932SOL    HW235430   3.666   4.273  10.640  1.3282 -2.3245 -0.0949
 7933SOL     OW35431   0.663   2.082   4.739 -0.1818  0.1744 -0.2902
 7933SOL    HW135432   0.744   2.133   4.737  0.5763 -1.1433 -2.8562
 7933SOL    HW235433   0.690   2.016   4.803 -1.0617 -1.1537 -1.2835
 7934SOL     OW35434   1.470   0.523   8.601 -0.3523  0.3793 -0.4141
 7934SOL    HW135435   1.513   0.609   8.598  0.3539  0.0969  2.1365
 7934SOL    HW235436   1.544   0.462   8.599  0.3195  1.3124 -4.2568
 7935SOL     OW35437   0.112   4.364   3.419 -0.5469 -0.4425 -0.2448
 7935SOL    HW135438   0.161   4.321   3.349 -1.2070 -2.1987  0.3835
 7935SOL    HW235439   0.086   4.447   3.379 -1.6108  0.1941  1.8068
 7936SOL     OW35440   3.245   1.880   4.830  0.0187  0.9368 -0.0150
 7936SOL    HW135441   3.272   1.959   4.878 -0.5490 -0.8512  3.2321
 7936SOL    HW235442   3.329   1.840   4.807 -0.0300 -0.0034  1.4421
 7937SOL     OW35443   2.787   3.247   3.566 -0.0212 -0.0184  0.2227
 7937SOL    HW135444   2.761   3.267   3.476 -1.6420 -0.6258  0.5624
 7937SOL    HW235445   2.827   3.161   3.553 -0.6798 -0.6486  2.3639
 7938SOL     OW35446   0.306   2.786   5.829 -0.2604  0.0628  0.1110
 7938SOL    HW135447   0.213   2.770   5.817 -0.1918  0.3492 -0.7758
 7938SOL    HW235448   0.306   2.842   5.907 -2.4212  0.3782 -0.1158
 7939SOL     OW35449   3.884   1.921   5.957 -0.0884 -0.1243 -0.2385
 7939SOL    HW135450   3.897   2.005   5.914  0.1658 -0.0957 -0.1071
 7939SOL    HW235451   3.847   1.961   6.035 -1.3118  1.2943 -1.5502
 7940SOL     OW35452   0.875   4.188   8.075 -0.2159  0.1605  0.0588
 7940SOL    HW135453   0.873   4.120   8.008  1.6642 -0.0982  0.2517
 7940SOL    HW235454   0.903   4.135   8.150 -2.2561  0.1703  0.8160
 7941SOL     OW35455   0.106   4.011   5.441 -0.5820 -0.1585 -0.2865
 7941SOL    HW135456   0.115   3.984   5.350  0.4115 -0.4583 -0.0995
 7941SOL    HW235457   0.132   4.102   5.431  4.1265 -1.7820 -3.1678
 7942SOL     OW35458   3.238   3.390   8.830 -0.2854  0.1310 -0.1449
 7942SOL    HW135459   3.290   3.311   8.823  0.2662  0.7541 -3.0289
 7942SOL    HW235460   3.279   3.453   8.770 -1.2370 -1.4530 -2.4419
 7943SOL     OW35461   4.263   3.404   5.752 -0.2013 -0.1707 -0.1426
 7943SOL    HW135462   4.306   3.484   5.723 -1.2384  0.5745  0.3576
 7943SOL    HW235463   4.317   3.386   5.829  0.0133 -2.0672 -0.7335
 7944SOL     OW35464   3.742   1.772   8.158  0.3260  0.7331  0.3155
 7944SOL    HW135465   3.688   1.696   8.133 -1.2025  1.2966  1.8814
 7944SOL    HW235466   3.694   1.807   8.233 -0.1565  1.1144 -0.1784
 7945SOL     OW35467   2.419   3.951   6.664  0.6187 -0.1878 -0.0063
 7945SOL    HW135468   2.355   3.977   6.598 -0.8684 -2.8936  0.3446
 7945SOL    HW235469   2.369   3.893   6.723  1.4258 -0.2981  0.5637
 7946SOL     OW35470   3.019   3.565   2.580 -0.4993 -0.1840 -0.0078
 7946SOL    HW135471   3.043   3.514   2.502 -0.8778 -0.5186  0.0979
 7946SOL    HW235472   2.983   3.489   2.626  1.2562 -2.5078 -2.3837
 7947SOL     OW35473   4.601   1.224   4.803 -0.4547  0.1533  0.2807
 7947SOL    HW135474   4.626   1.131   4.796  1.1212  0.7757 -2.0316
 7947SOL    HW235475   4.685   1.265   4.824  0.8565 -1.8921 -0.9527
 7948SOL     OW35476   0.351   3.532  15.172 -0.1813  0.1146 -0.6239
 7948SOL    HW135477   0.304   3.455  15.140  2.5270 -1.6996 -0.2132
 7948SOL    HW235478   0.385   3.497  15.254  0.4304  0.9169 -0.5350
 7949SOL     OW35479   3.901   2.632  17.516 -0.3071  0.5466 -0.5030
 7949SOL    HW135480   3.965   2.696  17.484  0.8058  0.4461  1.5044
 7949SOL    HW235481   3.872   2.684  17.591  1.7136 -1.9904  2.0612
 7950SOL     OW35482   0.471   3.480   5.293 -0.2886 -0.3306  0.4586
 7950SOL    HW135483   0.508   3.423   5.360  0.1096  0.5857  1.0267
 7950SOL    HW235484   0.400   3.531   5.333 -0.6839 -0.6587  0.1706
 7951SOL     OW35485   0.463   0.783   7.492  0.5116 -0.3641  0.2261
 7951SOL    HW135486   0.422   0.816   7.572 -1.7781 -2.4635 -0.0875
 7951SOL    HW235487   0.475   0.691   7.518  1.1504  0.3684  2.4995
 7952SOL     OW35488   1.936   1.488   1.133  0.5105 -0.8511 -0.2848
 7952SOL    HW135489   1.906   1.574   1.160  0.5184 -0.8327 -0.3346
 7952SOL    HW235490   1.859   1.459   1.084 -0.4157 -0.8142  1.1541
 7953SOL     OW35491   1.110   3.736   5.334  0.1893  0.7294  0.6974
 7953SOL    HW135492   1.046   3.776   5.393  0.5789  0.1672  1.4892
 7953SOL    HW235493   1.157   3.817   5.313 -0.0291  0.6931  0.0597
 7954SOL     OW35494   0.381   2.264   2.598 -0.6299  0.5939 -0.2916
 7954SOL    HW135495   0.352   2.336   2.543  0.0854 -0.6073 -2.2446
 7954SOL    HW235496   0.313   2.198   2.582  0.6764 -0.8644  0.0784
 7955SOL     OW35497   0.069   1.201   5.187 -0.2982 -0.4192  0.5161
 7955SOL    HW135498   0.078   1.113   5.149  0.2536 -0.0625 -0.1812
 7955SOL    HW235499   0.047   1.252   5.109 -0.1931 -0.6540  0.3337
 7956SOL     OW35500   4.259   1.687  10.198 -0.1474  0.4855  0.1996
 7956SOL    HW135501   4.207   1.638  10.262  0.7985  0.2508  0.7870
 7956SOL    HW235502   4.212   1.769  10.206 -0.0432  0.6621 -0.9935
 7957SOL     OW35503   0.714   3.196  15.209 -0.1912 -0.0926 -0.1237
 7957SOL    HW135504   0.805   3.208  15.237 -0.2791 -1.2350  0.6697
 7957SOL    HW235505   0.728   3.192  15.115 -1.7988 -0.6016 -0.3406
 7958SOL     OW35506   2.477   0.979   3.016 -0.8728  0.2222 -0.2345
 7958SOL    HW135507   2.515   0.891   3.012  2.6656  1.6587  1.4970
 7958SOL    HW235508   2.473   0.993   2.922  0.6115  1.3375 -0.1440
 7959SOL     OW35509   0.682   1.688   1.884 -0.0986 -0.3264 -0.6738
 7959SOL    HW135510   0.619   1.668   1.814  0.2547 -0.9390 -0.8193
 7959SOL    HW235511   0.652   1.774   1.912  0.2442  0.0211 -1.3862
 7960SOL     OW35512   4.327   0.975   0.862 -0.1895 -0.7199 -0.0049
 7960SOL    HW135513   4.340   0.908   0.929  0.1263  0.6293  1.2860
 7960SOL    HW235514   4.246   0.946   0.820 -2.2427  2.9267  1.3954
 7961SOL     OW35515   0.933   4.422   8.633 -0.2338  0.5024  0.6717
 7961SOL    HW135516   0.843   4.396   8.653  0.0332 -0.6532  0.3919
 7961SOL    HW235517   0.966   4.458   8.715 -1.4421 -0.2928  1.5042
 7962SOL     OW35518   1.373   3.120   7.433  0.3260 -0.1051 -0.1377
 7962SOL    HW135519   1.326   3.105   7.514  0.2529 -0.0854 -0.1759
 7962SOL    HW235520   1.338   3.208   7.416 -1.4833 -0.3917  2.1425
 7963SOL     OW35521   1.950   2.668   9.002 -0.0773  0.2205 -0.0933
 7963SOL    HW135522   1.968   2.608   9.074 -1.2506 -0.5941 -0.4758
 7963SOL    HW235523   1.902   2.743   9.037 -1.1896 -0.2235 -0.6525
 7964SOL     OW35524   3.070   4.002  15.319 -0.3481 -0.1224 -0.3806
 7964SOL    HW135525   3.021   3.921  15.329 -1.9117  0.8975  0.4189
 7964SOL    HW235526   3.134   3.982  15.251 -0.4320 -1.3659 -0.0916
 7965SOL     OW35527   4.006   1.593  12.135  0.4739 -0.0233  0.4244
 7965SOL    HW135528   4.018   1.499  12.148 -1.1217 -0.0078  1.8914
 7965SOL    HW235529   3.970   1.626  12.217 -1.5938  1.4788 -1.1094
 7966SOL     OW35530   1.942   3.798  15.092 -0.2596 -0.1477  0.1594
 7966SOL    HW135531   2.002   3.734  15.054  1.0208  0.5782  0.9519
 7966SOL    HW235532   2.002   3.865  15.124 -1.5642  0.3409  1.5916
 7967SOL     OW35533   0.491   2.975   2.032 -0.1545 -0.0792  0.0573
 7967SOL    HW135534   0.501   3.035   2.106 -1.5378  1.0183 -0.6402
 7967SOL    HW235535   0.450   3.043   1.978 -0.7922  0.7275  1.5548
 7968SOL     OW35536   4.154   3.341  11.666 -0.0010  0.4564  0.3880
 7968SOL    HW135537   4.181   3.257  11.629  1.3186  0.0431  2.2705
 7968SOL    HW235538   4.124   3.316  11.754  3.1936 -1.0305  1.0661
 7969SOL     OW35539   1.162   2.918   8.103  0.2232  0.4302  0.5114
 7969SOL    HW135540   1.225   2.983   8.133  1.5739 -0.0220 -1.3889
 7969SOL    HW235541   1.089   2.975   8.079 -0.2427  0.3297  1.6721
 7970SOL     OW35542   2.715   4.008   5.204  0.2590  0.3822 -0.1098
 7970SOL    HW135543   2.781   4.075   5.184  0.1376  0.3915 -0.4845
 7970SOL    HW235544   2.767   3.929   5.216  0.4279  0.5842  0.4676
 7971SOL     OW35545   3.734   0.066   4.660  0.1064  0.0240 -0.3824
 7971SOL    HW135546   3.783   0.002   4.608 -2.1719 -3.1859  1.4319
 7971SOL    HW235547   3.649   0.022   4.663 -0.9606  2.0118 -1.0057
 7972SOL     OW35548   0.638   3.354  11.638  0.5468 -0.8563  0.1980
 7972SOL    HW135549   0.656   3.338  11.731  0.4432  0.7881  0.5101
 7972SOL    HW235550   0.701   3.421  11.610  1.0415 -1.5101 -0.2321
 7973SOL     OW35551   2.265   0.437   9.224  0.1045 -0.0708 -0.2785
 7973SOL    HW135552   2.311   0.368   9.272 -0.0514  1.0006  1.3994
 7973SOL    HW235553   2.198   0.387   9.176  0.4192  0.2603 -1.0617
 7974SOL     OW35554   4.328   3.597   3.168 -0.0481  0.1198  0.5430
 7974SOL    HW135555   4.321   3.693   3.164 -1.2692  0.1216  3.1786
 7974SOL    HW235556   4.264   3.591   3.097 -0.1255  0.9518  0.5382
 7975SOL     OW35557   3.212   2.870   4.270 -0.8691  0.3526 -0.1118
 7975SOL    HW135558   3.243   2.780   4.269  0.2956  0.7512  1.5002
 7975SOL    HW235559   3.231   2.893   4.179  1.3716  0.1186  0.3001
 7976SOL     OW35560   1.565   2.626  13.511  0.5924 -0.5200  0.7658
 7976SOL    HW135561   1.585   2.703  13.457 -1.2142 -2.1845 -2.3030
 7976SOL    HW235562   1.605   2.650  13.594 -0.1253  0.9539  0.6887
 7977SOL     OW35563   4.256   0.267   8.322 -0.2680  0.0218  0.2372
 7977SOL    HW135564   4.269   0.283   8.229 -0.4878  3.6688  0.8111
 7977SOL    HW235565   4.198   0.338   8.350  0.4568  1.1201 -1.0595
 7978SOL     OW35566   3.571   4.544   8.888 -0.0032  0.5154  0.3969
 7978SOL    HW135567   3.606   4.455   8.889 -3.5388 -0.8552  0.6834
 7978SOL    HW235568   3.484   4.531   8.850 -0.6461  0.3843  1.8799
 7979SOL     OW35569   3.038   2.315   5.463  0.5018 -0.3014  0.2751
 7979SOL    HW135570   2.993   2.253   5.405  0.3402 -1.3170  1.4930
 7979SOL    HW235571   3.064   2.267   5.541 -0.5510  1.6830  1.8586
 7980SOL     OW35572   0.436   1.782  13.888  0.0735  0.0190 -0.8482
 7980SOL    HW135573   0.444   1.869  13.849  2.7968  0.2605  0.2331
 7980SOL    HW235574   0.515   1.775  13.942 -1.6720  1.8085  1.9393
 7981SOL     OW35575   2.742   0.412   3.578 -0.3283 -0.5931  0.2835
 7981SOL    HW135576   2.820   0.363   3.603 -1.0561 -1.5104  0.7519
 7981SOL    HW235577   2.771   0.502   3.591  2.5064 -1.3363 -0.8685
 7982SOL     OW35578   4.341   2.738   2.324  1.0581  0.0188  0.3967
 7982SOL    HW135579   4.413   2.778   2.276  1.7128  0.2840  1.6188
 7982SOL    HW235580   4.387   2.680   2.384 -0.7064  0.0464  1.8014
 7983SOL     OW35581   4.016   2.568   7.476 -0.2157 -0.5482  0.4302
 7983SOL    HW135582   3.931   2.544   7.514 -0.2657  3.4893  2.8495
 7983SOL    HW235583   4.016   2.509   7.401  0.2866 -0.4799  0.3785
 7984SOL     OW35584   1.641   1.980   1.823  0.0688  0.2090  0.6313
 7984SOL    HW135585   1.706   2.031   1.774  1.2157  0.4249  2.3633
 7984SOL    HW235586   1.586   1.954   1.750 -0.7064 -0.7377  1.5451
 7985SOL     OW35587   2.633   0.038  10.843 -0.3921 -0.3383  0.0053
 7985SOL    HW135588   2.588   0.066  10.763  0.5126 -2.4305 -1.2399
 7985SOL    HW235589   2.591   0.092  10.909 -0.7641  0.6457 -1.0365
 7986SOL     OW35590   1.535   1.337  13.245  0.1212  0.2061  0.6682
 7986SOL    HW135591   1.479   1.345  13.322 -0.4326 -0.0909  0.2920
 7986SOL    HW235592   1.626   1.334  13.274  0.1455 -0.3150  0.5318
 7987SOL     OW35593   1.648   0.663   6.847 -0.3736 -0.4400 -0.3536
 7987SOL    HW135594   1.618   0.750   6.820  0.1184 -0.0674  0.3116
 7987SOL    HW235595   1.576   0.633   6.902 -0.8047 -0.2592 -0.8242
 7988SOL     OW35596   3.789   1.044   4.912  0.2307  0.5229 -0.5680
 7988SOL    HW135597   3.740   1.125   4.921  0.0162  0.2509  0.7940
 7988SOL    HW235598   3.853   1.070   4.846  0.3116  0.4913 -0.5028
 7989SOL     OW35599   1.683   0.118  13.963  0.2677  0.0739 -0.5337
 7989SOL    HW135600   1.601   0.097  13.919 -0.7390 -2.3094  2.4598
 7989SOL    HW235601   1.667   0.209  13.988  0.6143  0.2630 -0.9859
 7990SOL     OW35602   2.945   1.490  11.667  0.3903 -0.2200  0.3825
 7990SOL    HW135603   2.871   1.500  11.608  0.9088  2.8174  0.2380
 7990SOL    HW235604   2.926   1.529  11.752  0.0886 -1.1073  0.7288
 7991SOL     OW35605   3.513   2.364   3.620  0.8767  0.4975 -0.1389
 7991SOL    HW135606   3.551   2.431   3.678 -2.8692  0.6866  2.0854
 7991SOL    HW235607   3.596   2.342   3.577  0.6211  0.9103 -0.8583
 7992SOL     OW35608   0.486   1.132   0.937 -0.0376 -0.6634 -0.1040
 7992SOL    HW135609   0.501   1.095   0.850  0.3065  2.3010 -1.3023
 7992SOL    HW235610   0.392   1.151   0.933  0.2112  0.6446  0.1449
 7993SOL     OW35611   3.475   3.215   4.258 -0.0953 -0.0033  0.2795
 7993SOL    HW135612   3.495   3.271   4.333 -1.2509  0.7819  0.0225
 7993SOL    HW235613   3.554   3.195   4.209  0.0619  0.3413  0.3889
 7994SOL     OW35614   4.420   3.426   1.985 -0.4889  0.4951  0.2014
 7994SOL    HW135615   4.332   3.388   1.978 -0.1536 -0.5374  1.7504
 7994SOL    HW235616   4.391   3.483   2.057  0.1632  0.1341  0.7493
 7995SOL     OW35617   3.278   0.281  14.823  0.0614 -0.1744 -0.1947
 7995SOL    HW135618   3.369   0.302  14.843 -0.4804 -0.3842  2.5113
 7995SOL    HW235619   3.276   0.255  14.731  0.0592 -2.1643  0.3666
 7996SOL     OW35620   3.392   3.004   8.955 -0.0229 -0.2591  0.1945
 7996SOL    HW135621   3.394   2.912   8.930  3.7231  0.1307 -0.8900
 7996SOL    HW235622   3.319   3.010   9.017 -1.3329 -1.9122 -1.1788
 7997SOL     OW35623   4.388   1.404  12.226 -0.8217  0.2132 -0.1950
 7997SOL    HW135624   4.376   1.331  12.164  1.1003 -0.0301 -0.2621
 7997SOL    HW235625   4.471   1.382  12.267 -0.3602  0.2070 -1.1280
 7998SOL     OW35626   3.628   2.538  17.448  0.3255  0.3827 -0.1495
 7998SOL    HW135627   3.718   2.568  17.455  0.7070  0.0710 -3.7576
 7998SOL    HW235628   3.614   2.593  17.371 -2.7219  1.5899  1.2675
 7999SOL     OW35629   4.316   1.117   6.816 -0.2804  0.5608 -0.3604
 7999SOL    HW135630   4.287   1.027   6.807  2.1982 -0.2276 -0.5030
 7999SOL    HW235631   4.235   1.162   6.792 -0.1530  0.8155 -0.3156
 8000SOL     OW35632   4.015   0.127   6.259  0.3015 -0.0999  0.2387
 8000SOL    HW135633   4.108   0.107   6.248  0.5479  1.3863 -0.3163
 8000SOL    HW235634   4.024   0.213   6.299  0.7094  0.4819 -1.1094
 8001SOL     OW35635   3.125   2.577   5.440  0.0185  0.1513  0.2448
 8001SOL    HW135636   3.104   2.488   5.411  2.5158 -0.4011  0.1521
 8001SOL    HW235637   3.137   2.620   5.356  1.6258  1.2755  1.0507
 8002SOL     OW35638   0.998   0.258   9.724 -0.2889  0.5866  0.4442
 8002SOL    HW135639   0.993   0.302   9.639  0.9956  0.8527  0.5049
 8002SOL    HW235640   1.027   0.171   9.696  0.0780  0.4303  1.3265
 8003SOL     OW35641   1.823   1.912   3.124 -0.1908 -0.1719  0.2163
 8003SOL    HW135642   1.737   1.933   3.162 -0.3582  0.2885 -0.4111
 8003SOL    HW235643   1.796   1.830   3.083 -1.8823  0.8316 -0.7225
 8004SOL     OW35644   1.586   3.171   4.051 -0.3780 -0.0383 -0.3453
 8004SOL    HW135645   1.567   3.077   4.048  2.1314 -0.5014 -2.0418
 8004SOL    HW235646   1.636   3.182   3.970 -1.2413 -0.0117 -0.8754
 8005SOL     OW35647   1.862   3.839   6.630  0.1081  0.5835 -0.1722
 8005SOL    HW135648   1.939   3.792   6.662 -1.5325 -1.6957  0.4422
 8005SOL    HW235649   1.821   3.863   6.712  0.6276  0.4411  0.1311
 8006SOL     OW35650   2.594   3.292   9.669 -0.5944  0.5017  0.2865
 8006SOL    HW135651   2.550   3.345   9.735 -0.8316  1.7218 -0.8514
 8006SOL    HW235652   2.594   3.209   9.718  2.0925  1.0791  1.2674
 8007SOL     OW35653   0.421   1.696  15.030 -0.6264  0.1669 -0.7572
 8007SOL    HW135654   0.418   1.623  14.968 -0.6728 -0.2927 -0.2214
 8007SOL    HW235655   0.506   1.738  15.015  0.3427 -1.5033 -0.0296
 8008SOL     OW35656   0.177   1.810   9.119 -0.3181  0.3552 -0.2948
 8008SOL    HW135657   0.228   1.792   9.040  0.5585  0.5397  0.2271
 8008SOL    HW235658   0.094   1.766   9.102  0.3558 -0.6220 -1.0413
 8009SOL     OW35659   4.593   2.520   1.765  0.9249  0.2191  0.3117
 8009SOL    HW135660   4.684   2.548   1.773  0.2254  2.2728  1.0729
 8009SOL    HW235661   4.569   2.576   1.691  1.1855 -0.0497  0.0208
 8010SOL     OW35662   2.475   3.330   1.860 -0.7185  0.1849 -0.7932
 8010SOL    HW135663   2.417   3.354   1.932  0.4956  0.8377 -0.0168
 8010SOL    HW235664   2.519   3.415   1.849 -1.1242  0.3064 -1.4740
 8011SOL     OW35665   0.077   1.802   2.698  0.6129  0.4068  0.1458
 8011SOL    HW135666   4.725   1.775   2.674 -0.3272  0.9643  2.9846
 8011SOL    HW235667   0.104   1.839   2.614 -0.0022  0.6374  0.0473
 8012SOL     OW35668   1.884   1.449   1.911  0.0828 -0.3825  0.1987
 8012SOL    HW135669   1.956   1.490   1.863  0.2795 -1.2598 -0.2565
 8012SOL    HW235670   1.933   1.390   1.968 -0.9827  1.0539  2.6090
 8013SOL     OW35671   1.823   1.088  11.127 -0.0486  0.8207  0.5075
 8013SOL    HW135672   1.859   1.000  11.133  1.5458  1.3175 -1.5865
 8013SOL    HW235673   1.869   1.128  11.201  1.1854 -1.4052  0.9548
 8014SOL     OW35674   3.555   1.046  12.028 -0.5228  0.2541  0.4422
 8014SOL    HW135675   3.528   1.038  11.936  1.9519 -1.9970 -0.1110
 8014SOL    HW235676   3.483   0.992  12.059  0.2292 -1.1531 -0.2418
 8015SOL     OW35677   1.644   2.108  15.458 -0.1973  0.7970 -0.1115
 8015SOL    HW135678   1.713   2.145  15.513  2.7047 -1.3487 -2.2615
 8015SOL    HW235679   1.650   2.178  15.393 -0.6369  3.3722  2.6552
 8016SOL     OW35680   0.584   3.727   3.094 -0.5451  0.0769 -0.3116
 8016SOL    HW135681   0.637   3.651   3.117 -0.9326  0.4953  1.9926
 8016SOL    HW235682   0.519   3.685   3.038  1.3511 -2.0229 -0.9487
 8017SOL     OW35683   3.243   0.225   8.375 -0.1482  0.1977  0.1134
 8017SOL    HW135684   3.175   0.209   8.440  0.4395  0.5328  0.8003
 8017SOL    HW235685   3.191   0.206   8.296 -1.4522  0.4180  0.9245
 8018SOL     OW35686   0.396   3.368  10.806  0.0342  0.0048 -0.2768
 8018SOL    HW135687   0.393   3.464  10.805  0.1053 -0.0022 -1.4085
 8018SOL    HW235688   0.467   3.371  10.870 -1.5181  4.7647  1.1552
 8019SOL     OW35689   3.323   4.382  10.914  0.5618  0.2154  0.4047
 8019SOL    HW135690   3.285   4.297  10.892  3.0151 -1.2769  1.9986
 8019SOL    HW235691   3.413   4.365  10.886  0.5851 -0.0451  0.6327
 8020SOL     OW35692   3.568   4.162   4.488 -0.5930  0.4157 -0.9508
 8020SOL    HW135693   3.497   4.106   4.456 -0.8339 -0.5228  1.2306
 8020SOL    HW235694   3.523   4.219   4.549  0.2328 -1.2227  1.1901
 8021SOL     OW35695   3.180   3.594   4.248 -0.4153 -0.3285  0.1884
 8021SOL    HW135696   3.272   3.619   4.255 -0.3068 -0.4175 -0.9657
 8021SOL    HW235697   3.196   3.508   4.207  0.6059  0.2440 -0.6161
 8022SOL     OW35698   3.792   4.389   7.574 -0.1712 -0.1078  0.1005
 8022SOL    HW135699   3.847   4.458   7.611  1.1617 -0.5783 -1.0014
 8022SOL    HW235700   3.746   4.429   7.500 -1.4998  1.0439  1.5360
 8023SOL     OW35701   3.400   2.552   5.493  0.0760 -0.5780  0.3043
 8023SOL    HW135702   3.307   2.575   5.485 -0.0375 -0.6188  1.4090
 8023SOL    HW235703   3.433   2.638   5.467 -0.3307 -0.3179  0.6379
 8024SOL     OW35704   0.381   3.296   5.109  0.0355 -0.3104 -0.0633
 8024SOL    HW135705   0.469   3.256   5.107  0.0897 -0.3152  2.2986
 8024SOL    HW235706   0.393   3.363   5.176 -1.8021  1.7868 -1.8395
 8025SOL     OW35707   2.807   2.079   7.849 -0.0384  0.4343 -0.5781
 8025SOL    HW135708   2.748   2.150   7.825 -0.0465 -0.1761 -2.4056
 8025SOL    HW235709   2.784   2.061   7.940  1.5076 -0.7517 -0.4265
 8026SOL     OW35710   2.259   4.434   5.678 -0.0428  0.1261 -0.1414
 8026SOL    HW135711   2.334   4.416   5.734  1.7368  0.0977 -2.5611
 8026SOL    HW235712   2.248   4.529   5.677  3.8093  0.5637  1.7695
 8027SOL     OW35713   3.824   3.097   9.449 -0.3128 -0.3235  0.2284
 8027SOL    HW135714   3.802   3.017   9.402 -0.0519 -0.5134  0.4291
 8027SOL    HW235715   3.781   3.161   9.393 -0.0394 -1.2329 -1.0149
 8028SOL     OW35716   3.878   2.563   6.527  0.0448  0.6696  0.4795
 8028SOL    HW135717   3.832   2.571   6.443  2.3309  1.9270 -0.6550
 8028SOL    HW235718   3.853   2.645   6.571 -1.2567 -0.6876  2.2529
 8029SOL     OW35719   0.117   3.392  11.855  0.2309 -0.1366  0.2160
 8029SOL    HW135720   0.197   3.365  11.809  1.6643  1.0482  2.0222
 8029SOL    HW235721   0.057   3.324  11.826 -2.1325  1.9608  0.2373
 8030SOL     OW35722   3.737   2.421   1.307  0.7727 -0.2300  0.0946
 8030SOL    HW135723   3.816   2.473   1.291  0.6433  0.4108  1.5641
 8030SOL    HW235724   3.736   2.349   1.244 -2.5627 -1.4127  1.5167
 8031SOL     OW35725   0.139   4.355   2.664 -0.2463 -0.4039 -0.1670
 8031SOL    HW135726   0.139   4.264   2.636 -0.0397 -0.1454 -1.0050
 8031SOL    HW235727   0.228   4.387   2.648 -0.5133 -0.2545 -1.3793
 8032SOL     OW35728   1.036   3.768  14.702  0.2495  0.1428  0.2183
 8032SOL    HW135729   1.009   3.853  14.665  1.5632  0.5280  0.1533
 8032SOL    HW235730   1.067   3.721  14.625  0.4795  1.0205 -0.2329
 8033SOL     OW35731   2.488   3.770  14.468  0.1626 -0.0026 -0.2733
 8033SOL    HW135732   2.552   3.841  14.461 -0.1326  0.0808 -2.2222
 8033SOL    HW235733   2.418   3.803  14.412  0.6499  1.7807  0.1591
 8034SOL     OW35734   3.871   2.868   5.336 -0.0246  0.2693 -0.6202
 8034SOL    HW135735   3.953   2.860   5.384  0.7183 -1.2582 -2.1630
 8034SOL    HW235736   3.834   2.942   5.384 -2.0560 -1.5416  0.6193
 8035SOL     OW35737   2.279   4.233   8.197  0.6641  0.1395 -0.4216
 8035SOL    HW135738   2.191   4.241   8.235  0.5765 -1.5808 -0.2616
 8035SOL    HW235739   2.253   4.252   8.107 -1.3901 -2.3246 -0.3528
 8036SOL     OW35740   1.333   2.474   1.415  0.1468  0.1730 -0.0443
 8036SOL    HW135741   1.351   2.380   1.413 -1.6911 -0.1646 -0.5738
 8036SOL    HW235742   1.238   2.471   1.429  0.1650  2.0114  0.3753
 8037SOL     OW35743   1.039   2.615   4.262  0.1575 -0.4063  0.4308
 8037SOL    HW135744   1.029   2.643   4.171 -3.4138 -0.7773  0.7154
 8037SOL    HW235745   1.011   2.694   4.307 -0.4708 -0.3118 -0.1331
 8038SOL     OW35746   4.659   3.389   9.520  0.2271  0.6334 -0.4000
 8038SOL    HW135747   4.683   3.375   9.612 -1.7431  0.1142  0.0374
 8038SOL    HW235748   0.009   3.378   9.481 -0.2342 -1.8439 -0.7289
 8039SOL     OW35749   3.720   1.969   8.386 -0.4292  0.2396  0.4497
 8039SOL    HW135750   3.750   1.993   8.473 -2.1686  0.3378  1.0149
 8039SOL    HW235751   3.628   1.995   8.390  0.3041  2.9780 -0.6209
 8040SOL     OW35752   2.314   0.180  10.530 -1.4244  0.2252 -0.0327
 8040SOL    HW135753   2.354   0.260  10.565 -0.8500  0.0105 -0.2123
 8040SOL    HW235754   2.229   0.202  10.568 -1.7613 -1.6278  0.2766
 8041SOL     OW35755   1.726   4.735   8.681  0.4376  0.5710  0.1097
 8041SOL    HW135756   1.653   4.707   8.627 -0.3649  1.9772  0.4841
 8041SOL    HW235757   1.720   0.090   8.657  1.8458  0.0478 -2.2357
 8042SOL     OW35758   3.373   4.280   3.491 -0.1139  0.2881 -0.0573
 8042SOL    HW135759   3.281   4.305   3.481  0.6198  2.4091 -1.7134
 8042SOL    HW235760   3.411   4.361   3.525 -0.9621  1.0996 -1.0227
 8043SOL     OW35761   1.981   3.011   3.591 -0.9547 -0.1637  0.0619
 8043SOL    HW135762   2.004   3.083   3.650  0.2262  0.4163 -1.1014
 8043SOL    HW235763   1.963   2.946   3.658  0.9117 -0.1086  0.6326
 8044SOL     OW35764   3.297   4.356   8.586  0.6149  0.0492 -0.2683
 8044SOL    HW135765   3.353   4.380   8.660  0.6769 -0.4141 -0.1620
 8044SOL    HW235766   3.357   4.378   8.514  1.9129  0.6864  1.0148
 8045SOL     OW35767   4.579   0.341   9.414  0.3007 -0.4411  0.0434
 8045SOL    HW135768   4.579   0.435   9.399 -1.5221 -0.3904  0.4438
 8045SOL    HW235769   4.486   0.325   9.432  0.6766 -1.4859  1.0867
 8046SOL     OW35770   0.482   1.709   7.365  0.1565  0.0003  0.0982
 8046SOL    HW135771   0.473   1.621   7.328 -0.7823 -0.5886  1.7265
 8046SOL    HW235772   0.566   1.739   7.330  0.1170 -0.6864 -0.6064
 8047SOL     OW35773   2.136   2.575   4.652  1.0784 -0.3179  0.4324
 8047SOL    HW135774   2.143   2.603   4.561 -1.4912  1.0384  0.6728
 8047SOL    HW235775   2.084   2.641   4.697  0.0944 -0.1472 -0.9779
 8048SOL     OW35776   4.701   3.123   2.732  0.1206  0.5768  0.2536
 8048SOL    HW135777   4.621   3.174   2.748  0.1026  0.5738  0.1736
 8048SOL    HW235778   4.673   3.046   2.781  1.2553  0.1488  0.2189
 8049SOL     OW35779   2.731   2.876   4.877  0.2175  0.1859 -0.5852
 8049SOL    HW135780   2.731   2.968   4.904  0.1365 -0.5865  1.9896
 8049SOL    HW235781   2.795   2.841   4.939  0.7598 -2.3322 -2.5903
 8050SOL     OW35782   1.418   3.941   8.678 -0.2498 -0.3258 -0.4255
 8050SOL    HW135783   1.386   3.897   8.599  2.1551  0.3332 -1.7799
 8050SOL    HW235784   1.360   4.016   8.693 -0.0939 -0.2155 -0.3662
 8051SOL     OW35785   0.378   2.140  14.312 -0.2118 -0.8852 -0.6894
 8051SOL    HW135786   0.416   2.221  14.280 -1.6799 -0.0533 -0.3730
 8051SOL    HW235787   0.414   2.120  14.398  1.6452 -0.9742 -1.4984
 8052SOL     OW35788   1.533   0.298   2.584  0.1904  0.3513 -0.1312
 8052SOL    HW135789   1.564   0.210   2.601  0.8845 -0.1122 -3.6778
 8052SOL    HW235790   1.535   0.321   2.677  0.1532  0.4576 -0.1566
 8053SOL     OW35791   1.242   3.202   4.948  0.5319 -0.4072 -0.1244
 8053SOL    HW135792   1.174   3.185   4.883 -0.6362  0.4055  0.8896
 8053SOL    HW235793   1.199   3.208   5.033 -0.0076  1.6257 -0.5373
 8054SOL     OW35794   4.390   2.108   6.757  0.1698 -0.1062 -0.4513
 8054SOL    HW135795   4.297   2.087   6.760  0.2269 -0.0934  1.7435
 8054SOL    HW235796   4.418   2.023   6.722  1.1924 -0.2642  0.7134
 8055SOL     OW35797   0.668   4.270   1.905 -0.7642 -0.0567  0.4858
 8055SOL    HW135798   0.647   4.178   1.921 -0.1140 -0.5866 -1.8041
 8055SOL    HW235799   0.744   4.289   1.960 -0.7730  0.0499  0.4624
 8056SOL     OW35800   3.473   3.713   3.718 -0.3285  0.5520 -0.2901
 8056SOL    HW135801   3.475   3.643   3.784 -1.6776 -0.9454 -1.8237
 8056SOL    HW235802   3.550   3.682   3.670  0.5929  2.0286  0.2357
 8057SOL     OW35803   0.081   0.632   6.751  0.2950  0.0361 -0.1743
 8057SOL    HW135804   0.021   0.660   6.682  0.0558  0.6799  0.2902
 8057SOL    HW235805   0.130   0.714   6.756 -2.0388  1.4724 -0.8742
 8058SOL     OW35806   3.441   3.528   9.566  0.4936 -0.3525 -1.0244
 8058SOL    HW135807   3.426   3.433   9.567  2.6053 -0.6853 -0.4147
 8058SOL    HW235808   3.525   3.544   9.524  1.7203  0.8177  1.8876
 8059SOL     OW35809   2.509   2.852   8.201  0.2674 -0.5780 -0.3053
 8059SOL    HW135810   2.598   2.847   8.236 -0.7506  3.5859  2.8399
 8059SOL    HW235811   2.543   2.868   8.113  0.6298  1.3792  0.1873
 8060SOL     OW35812   2.542   4.476   3.134  0.0435 -0.4266  0.4328
 8060SOL    HW135813   2.502   4.393   3.160  0.3276 -0.3129  1.2362
 8060SOL    HW235814   2.475   4.506   3.073 -0.9714 -0.6671  1.4289
 8061SOL     OW35815   0.105   1.757  13.606  0.5675  0.6686  0.1672
 8061SOL    HW135816   0.112   1.766  13.701  0.2337 -0.6666  0.3275
 8061SOL    HW235817   0.092   1.846  13.574  2.5664  1.6280  2.0093
 8062SOL     OW35818   0.379   3.823   4.452 -0.6292  0.1984 -0.1586
 8062SOL    HW135819   0.313   3.888   4.427 -1.1066 -0.7264 -1.3039
 8062SOL    HW235820   0.319   3.749   4.458  0.1761 -0.5954 -1.8371
 8063SOL     OW35821   3.548   2.247   9.325  0.4538 -0.7613  0.0163
 8063SOL    HW135822   3.601   2.325   9.338 -1.9602  0.7642  0.7024
 8063SOL    HW235823   3.609   2.196   9.271  0.2714 -1.6268  0.6220
 8064SOL     OW35824   3.788   4.592  10.145 -0.1080 -0.0256  0.1167
 8064SOL    HW135825   3.792   4.614  10.052  1.1855 -0.2300  0.1276
 8064SOL    HW235826   3.696   4.566  10.154  0.3463 -1.5886  0.1846
 8065SOL     OW35827   1.019   2.306   4.013  0.3953  0.3486  0.1290
 8065SOL    HW135828   1.104   2.349   4.027 -0.1101  0.9765  1.2964
 8065SOL    HW235829   0.964   2.384   4.010 -0.0548 -0.0421 -1.2895
 8066SOL     OW35830   3.772   4.727   8.045  0.0787  0.1635  0.1487
 8066SOL    HW135831   3.695   0.005   8.100 -0.1495  1.5160 -0.5398
 8066SOL    HW235832   3.805   0.079   8.055 -0.5994  0.2224  1.8945
 8067SOL     OW35833   2.120   3.946  11.036  0.5667 -1.0435 -0.0426
 8067SOL    HW135834   2.092   3.926  11.126 -0.8491  0.0326 -0.2420
 8067SOL    HW235835   2.151   4.035  11.053  0.7101 -0.9158 -0.9990
 8068SOL     OW35836   3.969   0.551  13.636 -0.2688  0.7027 -0.1414
 8068SOL    HW135837   4.012   0.501  13.566  1.2979  0.0978  1.2691
 8068SOL    HW235838   4.039   0.549  13.700 -1.4880 -1.4838  1.1126
 8069SOL     OW35839   2.003   0.305   3.716 -0.1182 -0.4256  0.0048
 8069SOL    HW135840   1.933   0.362   3.748  0.8160 -0.2167  1.6628
 8069SOL    HW235841   1.954   0.257   3.650 -2.6893 -0.2106  1.7733
 8070SOL     OW35842   4.545   3.014   5.515 -0.2698  0.3726 -0.3454
 8070SOL    HW135843   4.535   2.989   5.607  0.1279  2.6985  0.3263
 8070SOL    HW235844   4.510   3.103   5.514  0.3668  0.6292  0.0157
 8071SOL     OW35845   0.447   1.862   9.191  0.2231 -1.2171 -0.0202
 8071SOL    HW135846   0.358   1.837   9.167 -0.7694  0.6134  1.7381
 8071SOL    HW235847   0.437   1.955   9.170  0.2287 -1.4240 -0.9104
 8072SOL     OW35848   0.950   3.910   2.654  0.0248 -0.4339  0.2334
 8072SOL    HW135849   0.960   3.930   2.747  1.6325 -1.7635  0.3469
 8072SOL    HW235850   0.935   3.816   2.666 -0.4208 -0.3616  0.2327
 8073SOL     OW35851   0.945   4.360   0.530 -0.9941 -0.6291  0.3430
 8073SOL    HW135852   1.038   4.368   0.506 -0.6490  0.4168  2.0050
 8073SOL    HW235853   0.959   4.344   0.623 -1.0629  4.9091  1.3234
 8074SOL     OW35854   2.007   4.179   8.266  0.1274  0.5381  0.1178
 8074SOL    HW135855   1.931   4.166   8.323 -0.6837  0.2548 -1.0267
 8074SOL    HW235856   1.986   4.116   8.197 -0.8811  2.6031 -1.4852
 8075SOL     OW35857   0.523   4.010  15.729  0.0763  0.4244  0.6880
 8075SOL    HW135858   0.533   3.971  15.816 -2.4748  0.8288  1.1733
 8075SOL    HW235859   0.612   3.996  15.697 -0.8715 -0.5518 -1.5334
 8076SOL     OW35860   0.941   0.452  13.604  0.2183  0.6424 -0.2699
 8076SOL    HW135861   0.870   0.449  13.668 -1.2062  0.2908 -1.8510
 8076SOL    HW235862   0.881   0.461  13.530 -0.6948 -2.8159  0.0434
 8077SOL     OW35863   0.977   1.646   3.131  0.0270  0.1599 -0.5800
 8077SOL    HW135864   0.911   1.591   3.089  1.2475 -1.7290  0.0173
 8077SOL    HW235865   0.927   1.728   3.121  1.1844  0.7353 -1.6184
 8078SOL     OW35866   4.564   0.821   5.904 -0.4101  0.3332 -0.2917
 8078SOL    HW135867   4.543   0.886   5.971  0.4892 -0.2416  0.5565
 8078SOL    HW235868   4.653   0.852   5.884 -0.2182 -0.3754 -0.5454
 8079SOL     OW35869   0.857   3.644  15.231 -0.5314  0.1860 -0.1880
 8079SOL    HW135870   0.808   3.572  15.191 -0.7662 -0.6240  1.5407
 8079SOL    HW235871   0.849   3.621  15.323  0.2243  0.7787  0.0289
 8080SOL     OW35872   0.889   1.364  11.326 -0.6070  0.0345 -0.2152
 8080SOL    HW135873   0.812   1.421  11.319 -2.2840 -2.2996 -0.5133
 8080SOL    HW235874   0.850   1.305  11.390 -0.0371  0.5884  0.6388
 8081SOL     OW35875   2.289   3.929   7.683 -0.0296 -0.3947  0.0203
 8081SOL    HW135876   2.363   3.882   7.646  0.3698  1.0022 -0.9430
 8081SOL    HW235877   2.220   3.898   7.624 -1.0145  0.7007  0.5880
 8082SOL     OW35878   0.144   0.521   7.179 -0.4812  0.0165  0.2492
 8082SOL    HW135879   0.228   0.541   7.136 -1.0831  0.1035 -0.8846
 8082SOL    HW235880   0.120   0.429   7.167  0.4084 -0.3812  1.5206
 8083SOL     OW35881   0.692   1.291   5.018 -0.6329 -0.4587  0.5177
 8083SOL    HW135882   0.717   1.331   4.935  3.0010 -0.6220  1.5413
 8083SOL    HW235883   0.706   1.199   4.997 -0.9847 -0.9180  2.2655
 8084SOL     OW35884   3.702   3.436   6.184  0.4696 -0.3374  0.0543
 8084SOL    HW135885   3.751   3.378   6.125  1.6777 -0.4463  1.1450
 8084SOL    HW235886   3.690   3.375   6.257 -3.8321  0.6478  0.1475
 8085SOL     OW35887   1.115   0.738   9.005  0.1429  0.0004  0.4750
 8085SOL    HW135888   1.157   0.717   8.922 -1.4092  0.1018 -0.3317
 8085SOL    HW235889   1.109   0.651   9.046 -0.6066 -0.3031 -0.2774
 8086SOL     OW35890   1.692   3.948   6.322 -0.2295  0.0146 -0.2515
 8086SOL    HW135891   1.641   4.010   6.270  1.0594  0.0613 -1.4360
 8086SOL    HW235892   1.628   3.934   6.392 -0.5131  0.1073 -0.4916
 8087SOL     OW35893   4.488   0.872   3.713 -0.3431  0.3659 -0.4854
 8087SOL    HW135894   4.516   0.785   3.686  1.3516  0.3437  1.3442
 8087SOL    HW235895   4.458   0.848   3.801 -0.4249 -0.1830 -0.6645
 8088SOL     OW35896   3.558   2.885   5.148 -0.2040  0.6099  0.0843
 8088SOL    HW135897   3.588   2.809   5.198  0.0147  1.7107  1.6478
 8088SOL    HW235898   3.507   2.843   5.080  1.8256  0.5116 -1.3818
 8089SOL     OW35899   2.694   1.278  17.571  1.1154  0.2356 -0.1716
 8089SOL    HW135900   2.642   1.221  17.515  0.3935 -0.1082  0.8462
 8089SOL    HW235901   2.756   1.308  17.505  2.3154 -0.9227  0.4252
 8090SOL     OW35902   0.247   1.141  10.187 -0.5300 -0.4998 -0.0119
 8090SOL    HW135903   0.277   1.223  10.150 -3.3478  0.5785  0.1569
 8090SOL    HW235904   0.263   1.152  10.281  0.4954 -1.2408 -0.1000
 8091SOL     OW35905   2.058   1.751  17.294  0.4249  0.2889 -0.5115
 8091SOL    HW135906   2.003   1.677  17.268 -0.4851  0.1804  1.7494
 8091SOL    HW235907   2.005   1.827  17.273  1.6409  1.5512  0.9727
 8092SOL     OW35908   1.810   3.776   7.446  0.1610  0.2470  0.2680
 8092SOL    HW135909   1.765   3.853   7.479 -0.9641 -0.7286  0.9911
 8092SOL    HW235910   1.771   3.771   7.359  0.8909  3.4727 -0.2635
 8093SOL     OW35911   1.637   1.503  14.220  0.3491 -0.3265  0.0092
 8093SOL    HW135912   1.543   1.490  14.209  0.7510 -1.6406 -1.9453
 8093SOL    HW235913   1.672   1.424  14.177 -0.1713 -0.5552  0.0035
 8094SOL     OW35914   0.934   0.378   2.204  0.4866 -0.2295  0.0582
 8094SOL    HW135915   0.948   0.295   2.250  2.1228  0.4543  0.7917
 8094SOL    HW235916   1.028   0.386   2.186  0.0329 -0.2566 -2.3048
 8095SOL     OW35917   2.953   3.744  12.034 -0.4698 -0.3450 -0.0961
 8095SOL    HW135918   3.042   3.722  12.064 -0.4635  1.2342  1.0672
 8095SOL    HW235919   2.942   3.667  11.978  0.1996 -0.9387  0.5769
 8096SOL     OW35920   4.650   0.642   8.705 -0.0755 -0.5151 -0.3402
 8096SOL    HW135921   4.706   0.564   8.700 -0.3506 -0.6019 -2.0200
 8096SOL    HW235922   4.655   0.673   8.795 -0.5676  0.1510 -0.5472
 8097SOL     OW35923   2.369   2.926   8.726 -0.0707 -0.8597  0.1733
 8097SOL    HW135924   2.286   2.888   8.755 -0.0562 -1.0667 -0.0560
 8097SOL    HW235925   2.371   3.007   8.777 -0.7208  0.0539 -1.2221
 8098SOL     OW35926   1.656   1.690   1.883 -0.6075  0.0536 -0.1729
 8098SOL    HW135927   1.660   1.671   1.790  2.8241 -1.3441  0.2385
 8098SOL    HW235928   1.646   1.785   1.880  0.0888  0.1902  1.6238
 8099SOL     OW35929   3.136   0.924   5.920  0.0737 -0.0851 -0.4741
 8099SOL    HW135930   3.165   1.005   5.879  0.5107  0.8782  1.7537
 8099SOL    HW235931   3.154   0.864   5.848 -1.8197  0.3546 -1.3283
 8100SOL     OW35932   0.690   2.684   4.686  0.1646 -0.2658  0.4247
 8100SOL    HW135933   0.747   2.696   4.763  1.2377 -0.7714 -0.2899
 8100SOL    HW235934   0.737   2.742   4.627  0.6419 -0.4926  0.5802
 8101SOL     OW35935   1.322   4.621   4.960 -0.4756  0.0342 -0.4394
 8101SOL    HW135936   1.256   4.561   4.927 -1.0258 -0.4800  1.5620
 8101SOL    HW235937   1.385   4.624   4.888  0.9858  1.5259  0.9018
 8102SOL     OW35938   3.960   1.391   8.056 -0.3098 -0.3810  0.3250
 8102SOL    HW135939   3.989   1.451   7.986  1.4380  0.7374  2.0037
 8102SOL    HW235940   3.924   1.441   8.129  0.2078  1.2127 -0.4876
 8103SOL     OW35941   2.853   0.602   4.390  0.1314 -0.0156 -0.1835
 8103SOL    HW135942   2.781   0.639   4.339 -0.2087  1.3575  1.2820
 8103SOL    HW235943   2.810   0.573   4.470  0.8988 -1.7392 -0.4091
 8104SOL     OW35944   1.974   0.485   8.041  0.3138  0.2280  0.6009
 8104SOL    HW135945   1.993   0.443   7.957  1.8794  2.1707 -0.0214
 8104SOL    HW235946   2.037   0.557   8.046  2.3289 -1.4046 -1.6972
 8105SOL     OW35947   4.127   1.994   3.855  0.1292  0.3552  0.8237
 8105SOL    HW135948   4.033   2.005   3.871  0.0334 -0.1645  0.6435
 8105SOL    HW235949   4.137   1.907   3.895 -2.0307 -0.1753  0.2189
 8106SOL     OW35950   3.911   1.087   2.440  0.3208 -0.4972 -0.0907
 8106SOL    HW135951   4.001   1.070   2.415  0.1468 -4.0075  1.6454
 8106SOL    HW235952   3.866   1.086   2.355 -0.7581 -0.1342  0.4686
 8107SOL     OW35953   2.146   3.496   2.244  0.1102  0.3797  0.3595
 8107SOL    HW135954   2.066   3.451   2.219 -0.5191  1.2143  0.8822
 8107SOL    HW235955   2.143   3.479   2.339 -3.2564 -0.8197  0.0119
 8108SOL     OW35956   1.518   1.614   3.922 -0.0216  0.0900  0.2098
 8108SOL    HW135957   1.447   1.555   3.947  1.0847 -0.5285  1.8855
 8108SOL    HW235958   1.477   1.640   3.839 -1.2434  0.0156  0.7789
 8109SOL     OW35959   1.986   3.726   6.372  0.1071 -0.0079  0.2571
 8109SOL    HW135960   1.922   3.756   6.308  2.0951 -0.1380 -1.7910
 8109SOL    HW235961   2.020   3.642   6.339  0.9849  0.1497  0.7421
 8110SOL     OW35962   2.319   3.655   6.738 -0.3934  0.6490 -0.5523
 8110SOL    HW135963   2.331   3.590   6.807 -0.5436 -1.2006 -2.2407
 8110SOL    HW235964   2.396   3.628   6.688 -1.0077 -0.5837 -0.8203
 8111SOL     OW35965   3.351   1.540   2.879  0.1397 -0.2338  0.1125
 8111SOL    HW135966   3.291   1.612   2.900  2.1234  1.7010 -0.8497
 8111SOL    HW235967   3.321   1.518   2.791 -0.3905  1.8553 -0.2460
 8112SOL     OW35968   3.097   0.275  14.597  0.0651  1.0701  0.2710
 8112SOL    HW135969   3.068   0.301  14.510 -0.2397 -0.5220 -0.0961
 8112SOL    HW235970   3.106   0.180  14.586  2.1216  1.3492 -0.4837
 8113SOL     OW35971   4.470   1.223  14.337 -0.1251 -0.1922 -0.3895
 8113SOL    HW135972   4.533   1.281  14.294 -0.8217  0.0162 -1.1196
 8113SOL    HW235973   4.399   1.263  14.288  0.2888  0.5120 -0.4227
 8114SOL     OW35974   4.166   0.923   2.296 -0.2317 -0.0414  0.4797
 8114SOL    HW135975   4.235   0.867   2.259 -0.5204  1.0113 -1.6417
 8114SOL    HW235976   4.121   0.940   2.214 -0.2446 -2.0112  0.0622
 8115SOL     OW35977   3.841   3.569   5.535  0.1488 -0.4677  0.4147
 8115SOL    HW135978   3.771   3.629   5.508  1.0555 -0.2259 -1.4120
 8115SOL    HW235979   3.906   3.576   5.466 -0.2437  0.2013  0.1018
 8116SOL     OW35980   0.010   0.389   8.700 -0.3651  0.5258 -0.2156
 8116SOL    HW135981   0.071   0.393   8.774  0.4712  1.0511 -0.9311
 8116SOL    HW235982   0.065   0.339   8.639  1.9418 -1.6679  3.5731
 8117SOL     OW35983   3.249   0.863   5.531 -0.1134  0.3478 -0.0934
 8117SOL    HW135984   3.290   0.821   5.607 -1.3267  0.4298  0.5989
 8117SOL    HW235985   3.170   0.809   5.524 -1.0127  1.2649  2.7430
 8118SOL     OW35986   3.297   0.746   5.775 -0.9362  0.6797  0.2042
 8118SOL    HW135987   3.318   0.741   5.868  0.7224 -0.3475 -0.2281
 8118SOL    HW235988   3.330   0.661   5.747 -0.6258  0.8601  0.0123
 8119SOL     OW35989   3.655   4.598  11.029  0.2382 -0.3645 -0.0734
 8119SOL    HW135990   3.727   4.643  10.986 -0.2839  1.2975  0.7741
 8119SOL    HW235991   3.659   4.507  11.001 -0.7860 -0.4506  0.0406
 8120SOL     OW35992   4.704   4.717   2.911 -0.0640 -0.1279  0.0408
 8120SOL    HW135993   0.014   4.680   2.837  1.1827 -1.7570  1.6652
 8120SOL    HW235994   4.621   0.002   2.869 -0.0508 -3.2681 -1.6132
 8121SOL     OW35995   0.356   2.483   2.433 -0.7047 -0.5531  0.5589
 8121SOL    HW135996   0.378   2.574   2.451 -1.1914 -0.8228  2.4937
 8121SOL    HW235997   0.339   2.478   2.339 -0.6395  0.3096  0.5036
 8122SOL     OW35998   2.239   4.704   5.704 -0.4539  0.0775 -0.2684
 8122SOL    HW135999   2.165   4.711   5.764  0.0630  1.8738  0.1623
 8122SOL    HW236000   2.219   0.033   5.638 -1.3298  0.0630 -0.0071
 8123SOL     OW36001   1.318   2.045  16.389 -0.0731  0.3048 -0.2598
 8123SOL    HW136002   1.387   2.044  16.323 -1.0191  1.7549 -1.2887
 8123SOL    HW236003   1.252   2.088  16.333  0.6816 -0.3959 -1.6874
 8124SOL     OW36004   4.364   4.025   6.859  0.3366 -0.4698 -0.1280
 8124SOL    HW136005   4.341   4.086   6.930 -2.0282 -1.3221 -0.1895
 8124SOL    HW236006   4.434   3.980   6.907  0.4245  1.8108  1.9234
 8125SOL     OW36007   4.682   2.809   2.585  0.3205  0.1374 -0.2542
 8125SOL    HW136008   4.713   2.722   2.608  2.3564  1.1155  0.6525
 8125SOL    HW236009   4.634   2.830   2.665  0.4460  0.4394 -0.2604
 8126SOL     OW36010   3.109   3.477   3.816 -0.0548 -0.4912 -0.2356
 8126SOL    HW136011   3.126   3.567   3.843  0.5440 -0.8427  0.5705
 8126SOL    HW236012   3.035   3.493   3.758 -1.1434  1.8690  1.8409
 8127SOL     OW36013   0.405   0.554  11.670 -0.1793 -0.0070  0.2066
 8127SOL    HW136014   0.438   0.472  11.634  1.2932  1.6639 -2.2484
 8127SOL    HW236015   0.314   0.560  11.640 -0.2785 -0.7698  0.3481
 8128SOL     OW36016   1.101   2.583  15.852  0.5029 -0.4620  0.4669
 8128SOL    HW136017   1.072   2.492  15.854  3.1721 -1.3508 -1.6750
 8128SOL    HW236018   1.160   2.578  15.778 -0.0284  0.0872  0.0029
 8129SOL     OW36019   3.261   0.548   3.723  0.1882 -0.2097 -0.3007
 8129SOL    HW136020   3.191   0.608   3.748  0.7509  0.7479 -1.0402
 8129SOL    HW236021   3.319   0.617   3.691  0.3015 -0.4535 -0.6186
 8130SOL     OW36022   3.786   3.961   7.010 -0.2072 -0.5104 -0.1817
 8130SOL    HW136023   3.694   3.977   7.032 -0.6242  0.1408 -2.4523
 8130SOL    HW236024   3.816   3.882   7.055  1.1733 -0.0415 -0.2850
 8131SOL     OW36025   0.427   1.414  14.885  0.1742 -0.1375  0.1461
 8131SOL    HW136026   0.358   1.390  14.823  0.3620  1.1088 -0.5411
 8131SOL    HW236027   0.457   1.325  14.901  0.2936  0.0482  0.9402
 8132SOL     OW36028   1.936   3.263   4.310  0.1813 -0.1970  0.0273
 8132SOL    HW136029   1.985   3.285   4.390  1.3395 -0.6886 -0.5528
 8132SOL    HW236030   1.991   3.291   4.238  0.4402  0.1236  0.3481
 8133SOL     OW36031   2.141   0.958   6.808 -0.2441  0.6388  0.1826
 8133SOL    HW136032   2.205   0.933   6.741 -0.9841  0.5395 -0.4933
 8133SOL    HW236033   2.123   1.049   6.781 -0.1341  0.3859 -0.7535
 8134SOL     OW36034   2.513   2.928  12.312 -0.0900  0.0873  0.3239
 8134SOL    HW136035   2.499   2.851  12.366 -0.1046 -0.5737 -0.6249
 8134SOL    HW236036   2.477   2.992  12.374 -0.0149 -0.3818  0.8436
 8135SOL     OW36037   4.123   3.992   1.306 -0.4740  0.6637  0.0881
 8135SOL    HW136038   4.195   4.046   1.274  1.4433 -1.2073  1.3078
 8135SOL    HW236039   4.085   4.056   1.367  0.6353  2.7584 -1.4150
 8136SOL     OW36040   3.080   3.009   7.643  0.0469 -0.2425  0.2125
 8136SOL    HW136041   3.027   3.032   7.719  1.1398  0.1735  0.8515
 8136SOL    HW236042   3.155   2.965   7.683  0.2072 -1.0170 -0.9591
 8137SOL     OW36043   0.834   0.232   8.622 -0.5824 -0.5009 -0.3147
 8137SOL    HW136044   0.925   0.231   8.652 -0.7893  0.5180  0.3323
 8137SOL    HW236045   0.817   0.312   8.671  1.4537  0.0260 -0.4649
 8138SOL     OW36046   1.019   4.348   5.803  0.0246  0.4878  0.1958
 8138SOL    HW136047   1.041   4.438   5.783 -1.4769  0.5501 -1.2237
 8138SOL    HW236048   1.092   4.293   5.774  0.4843  1.7674 -1.0609
 8139SOL     OW36049   0.311   3.752   9.861 -0.1999  0.0300 -0.1593
 8139SOL    HW136050   0.386   3.760   9.920 -0.7040  1.4093  0.3093
 8139SOL    HW236051   0.312   3.838   9.818 -2.1281 -1.1777 -2.6401
 8140SOL     OW36052   3.022   2.495   3.445 -0.2770 -0.0819 -0.3659
 8140SOL    HW136053   3.063   2.422   3.398 -1.3273  0.5033 -2.1685
 8140SOL    HW236054   2.957   2.452   3.501  0.2567 -2.3077 -1.4360
 8141SOL     OW36055   2.371   3.876   2.355  0.1182 -0.3433 -0.2249
 8141SOL    HW136056   2.322   3.949   2.317  0.6047  0.1218  0.0293
 8141SOL    HW236057   2.358   3.825   2.276 -1.8510 -0.3204  0.0752
 8142SOL     OW36058   3.593   0.906   5.758  0.1329 -0.6043  0.6388
 8142SOL    HW136059   3.593   0.863   5.843 -1.4565 -2.8660 -0.4706
 8142SOL    HW236060   3.516   0.963   5.757  1.5016  1.2039  0.3726
 8143SOL     OW36061   4.675   1.211   6.152 -0.1400 -0.9254  0.3525
 8143SOL    HW136062   4.678   1.303   6.128 -0.6335 -0.8655  0.5154
 8143SOL    HW236063   0.015   1.209   6.208 -0.6493 -0.6463  1.0543
 8144SOL     OW36064   2.392   0.363   4.700 -0.0720 -0.3353  0.0775
 8144SOL    HW136065   2.311   0.359   4.649 -0.0311  1.5379 -0.1084
 8144SOL    HW236066   2.445   0.428   4.653 -0.4858  1.4574  2.0978
 8145SOL     OW36067   4.071   3.462  17.147  0.3070  0.1523  0.1367
 8145SOL    HW136068   4.044   3.499  17.231 -0.8665 -0.1653 -0.1009
 8145SOL    HW236069   4.098   3.373  17.168  0.7956 -0.3085 -2.4562
 8146SOL     OW36070   0.682   0.358  12.548 -0.4125  0.2059 -0.1631
 8146SOL    HW136071   0.742   0.391  12.481  0.9908 -0.9607  0.5215
 8146SOL    HW236072   0.636   0.283  12.510 -0.8934  0.1455  0.5352
 8147SOL     OW36073   2.133   2.745   4.070  0.0690  0.1704 -0.1400
 8147SOL    HW136074   2.110   2.652   4.068 -1.0961  0.4446  0.2231
 8147SOL    HW236075   2.225   2.745   4.095 -0.4971 -0.4776  1.9367
 8148SOL     OW36076   2.056   1.626  16.452  0.2575  0.9621  0.0241
 8148SOL    HW136077   2.072   1.649  16.544 -1.3409 -0.3992  0.6373
 8148SOL    HW236078   1.961   1.619  16.448  0.3681 -0.4842 -0.1492
 8149SOL     OW36079   2.563   2.616   0.044 -0.4930 -0.2422 -0.1112
 8149SOL    HW136080   2.648   2.592   0.082 -0.4232  0.4769  0.1890
 8149SOL    HW236081   2.566   2.706   0.075 -0.3641  0.0331 -0.9497
 8150SOL     OW36082   0.123   1.008  12.138  0.3801 -0.0521 -0.5989
 8150SOL    HW136083   0.208   1.003  12.095  0.2203 -1.9820 -0.6551
 8150SOL    HW236084   0.070   0.970  12.068 -0.0113 -0.1041 -0.2727
 8151SOL     OW36085   1.480   4.189  17.242  0.1042  0.0371 -0.4567
 8151SOL    HW136086   1.492   4.094  17.243  4.3118  0.5764  1.5536
 8151SOL    HW236087   1.475   4.213  17.335  0.5130 -0.5654 -0.2766
 8152SOL     OW36088   4.249   2.552  13.457 -0.2370 -0.3565  0.4567
 8152SOL    HW136089   4.255   2.489  13.530 -1.0560 -2.4093 -1.2472
 8152SOL    HW236090   4.202   2.626  13.495  2.3068  0.7534  1.4753
 8153SOL     OW36091   4.720   0.110   3.875  0.4277  0.0877  0.2025
 8153SOL    HW136092   0.067   0.082   3.911  0.6863 -1.0109 -1.2432
 8153SOL    HW236093   4.673   0.131   3.956 -0.5823  0.9917 -0.6218
 8154SOL     OW36094   1.106   0.912   2.429  0.1290 -0.3544 -0.1301
 8154SOL    HW136095   1.077   0.822   2.439 -1.6936  0.0843 -1.3395
 8154SOL    HW236096   1.144   0.937   2.513  0.0998 -1.0654  0.0894
 8155SOL     OW36097   2.738   2.386   7.616  0.1234  0.4017  0.0463
 8155SOL    HW136098   2.674   2.450   7.587 -0.6742 -0.3275  0.2034
 8155SOL    HW236099   2.691   2.333   7.680 -0.2946  1.3875  0.5571
 8156SOL     OW36100   2.675   4.556  17.203  0.0447 -0.1391 -0.0924
 8156SOL    HW136101   2.671   4.482  17.263 -2.9389 -0.3430 -0.5450
 8156SOL    HW236102   2.754   4.599  17.235  0.0798 -0.0005 -0.3696
 8157SOL     OW36103   4.335   0.313   2.793 -0.2988 -0.0529 -0.3677
 8157SOL    HW136104   4.242   0.328   2.775 -0.8600 -1.8438  1.0526
 8157SOL    HW236105   4.358   0.341   2.704 -1.3411  0.0511 -0.6101
 8158SOL     OW36106   1.330   1.304   9.397 -0.4022 -0.2506 -0.1272
 8158SOL    HW136107   1.350   1.230   9.341  0.5185 -1.1562  1.3956
 8158SOL    HW236108   1.365   1.286   9.485 -2.5098  0.3260  0.8364
 8159SOL     OW36109   3.906   0.151   0.979 -0.3458  0.2655  0.0028
 8159SOL    HW136110   3.820   0.123   1.012  0.2771 -1.8355 -0.1546
 8159SOL    HW236111   3.914   0.229   1.034  1.0670  0.7117 -0.8533
 8160SOL     OW36112   4.233   3.390   2.926  0.5053 -0.4469 -0.4258
 8160SOL    HW136113   4.192   3.477   2.926  2.2864  0.3964 -0.5888
 8160SOL    HW236114   4.180   3.354   2.996  1.6574  0.7020  1.0447
 8161SOL     OW36115   3.409   1.282   1.548 -0.6159 -0.4874  0.7120
 8161SOL    HW136116   3.342   1.350   1.544  1.3922  1.4948  1.2465
 8161SOL    HW236117   3.366   1.216   1.494  1.9605 -1.3760 -0.2644
 8162SOL     OW36118   2.336   2.064   1.312  0.0165 -0.2463  0.0750
 8162SOL    HW136119   2.407   2.000   1.305  0.2740  0.1677 -1.0086
 8162SOL    HW236120   2.278   1.994   1.341 -0.5930  0.3741  0.3728
 8163SOL     OW36121   2.423   1.585   2.570 -0.2934 -0.1519  0.1649
 8163SOL    HW136122   2.339   1.618   2.540  0.5980 -1.5541 -3.8386
 8163SOL    HW236123   2.391   1.524   2.637 -1.7098  0.7163  0.2668
 8164SOL     OW36124   2.983   1.986   4.883 -0.1534 -0.3127  0.2100
 8164SOL    HW136125   3.048   1.931   4.837  1.0455  1.4441 -0.2174
 8164SOL    HW236126   2.919   1.926   4.922  0.2590 -1.2823 -0.5788
 8165SOL     OW36127   1.436   0.489   4.611 -0.4524 -0.2255 -0.0414
 8165SOL    HW136128   1.347   0.520   4.630  0.6977  0.8305  3.5798
 8165SOL    HW236129   1.480   0.553   4.667 -0.0724 -0.3575 -0.1950
 8166SOL     OW36130   2.520   3.972   5.026 -0.2469 -0.1300  0.6736
 8166SOL    HW136131   2.576   3.983   5.104  1.4257  0.0322 -0.5507
 8166SOL    HW236132   2.574   3.904   4.984  1.5132  0.6249  1.6790
 8167SOL     OW36133   0.424   1.675   5.273  0.6050  0.3284  0.2088
 8167SOL    HW136134   0.331   1.696   5.282  0.5964  0.3428  0.0902
 8167SOL    HW236135   0.466   1.723   5.344  1.4402 -0.1796  0.0588
 8168SOL     OW36136   1.681   3.162   4.331  0.2888  0.4403  0.6416
 8168SOL    HW136137   1.638   3.204   4.256  0.0327 -1.0971 -0.0857
 8168SOL    HW236138   1.766   3.206   4.332  0.1813  0.6529  0.5604
 8169SOL     OW36139   4.214   2.464   0.140  0.1233  0.4833  0.1228
 8169SOL    HW136140   4.216   2.480   0.235  1.3612  0.7251  0.0515
 8169SOL    HW236141   4.305   2.458   0.111 -0.0323 -3.5913  0.4497
 8170SOL     OW36142   3.464   0.814  12.613 -0.0758 -0.0017  0.4293
 8170SOL    HW136143   3.430   0.805  12.702 -3.8909 -1.6986 -1.1812
 8170SOL    HW236144   3.447   0.907  12.603 -0.9792  0.1155  3.2700
 8171SOL     OW36145   0.670   2.995   8.493 -0.1311  0.2946 -0.0598
 8171SOL    HW136146   0.641   2.905   8.504 -2.4521  0.9425 -0.9015
 8171SOL    HW236147   0.594   3.040   8.531  2.0871  1.4428  3.0085
 8172SOL     OW36148   3.404   3.422   8.150  0.2176  0.1167  0.0528
 8172SOL    HW136149   3.399   3.515   8.173  2.3279  0.5661 -1.2928
 8172SOL    HW236150   3.493   3.423   8.113  0.8333  2.4547  1.5345
 8173SOL     OW36151   1.598   0.165   3.862  0.1223  0.0057 -0.4633
 8173SOL    HW136152   1.510   0.185   3.828 -0.1300 -0.7252 -0.2518
 8173SOL    HW236153   1.586   0.158   3.957 -1.2888  1.6259 -0.5125
 8174SOL     OW36154   3.645   1.576   7.431  0.3482 -0.5358 -0.8143
 8174SOL    HW136155   3.588   1.624   7.371  3.0498  0.9466 -2.1525
 8174SOL    HW236156   3.671   1.646   7.491 -0.9239 -0.0826 -0.7883
 8175SOL     OW36157   1.503   2.556   6.303 -0.7212 -0.4412  0.2328
 8175SOL    HW136158   1.577   2.573   6.361 -2.2107  2.9854  1.1509
 8175SOL    HW236159   1.443   2.606   6.359 -0.0959 -0.4311  0.9025
 8176SOL     OW36160   3.916   2.342   4.810 -0.3976  0.1561 -0.3112
 8176SOL    HW136161   3.986   2.296   4.764 -0.0056  0.3139  0.1129
 8176SOL    HW236162   3.926   2.427   4.766 -1.4964 -0.1083 -1.0528
 8177SOL     OW36163   0.266   0.435   5.941  0.1919 -0.1009 -0.3212
 8177SOL    HW136164   0.174   0.434   5.915 -0.3078  2.6542  1.3724
 8177SOL    HW236165   0.265   0.505   6.007 -0.1123 -0.8686  0.4967
 8178SOL     OW36166   0.285   3.482   4.691  0.2930  0.2767 -0.3954
 8178SOL    HW136167   0.211   3.446   4.741 -1.8380  2.5558 -1.8829
 8178SOL    HW236168   0.339   3.516   4.762 -0.6383  0.2392  0.3410
 8179SOL     OW36169   0.937   1.164  15.703  0.6427  0.3767  0.3028
 8179SOL    HW136170   1.019   1.212  15.711  0.5486  0.6725 -0.4717
 8179SOL    HW236171   0.890   1.229  15.755 -3.3426 -2.5110  0.3591
 8180SOL     OW36172   2.400   0.035  12.127  0.0180 -0.0277  0.3200
 8180SOL    HW136173   2.463   0.013  12.196 -1.1029  2.6420  2.1902
 8180SOL    HW236174   2.457   0.072  12.060 -0.1683 -0.8477 -0.2990
 8181SOL     OW36175   1.667   1.278  15.662 -0.0717 -0.3397  0.1279
 8181SOL    HW136176   1.753   1.252  15.695  0.9573 -0.6329 -2.8608
 8181SOL    HW236177   1.647   1.360  15.706  0.7351 -0.8701  1.4927
 8182SOL     OW36178   4.634   3.501   3.005 -0.2468 -0.0416 -0.0933
 8182SOL    HW136179   4.656   3.492   2.912  0.4847  1.5791 -0.0949
 8182SOL    HW236180   4.597   3.415   3.022 -2.1578  1.3409  2.7489
 8183SOL     OW36181   2.762   1.043   5.600  0.0947  0.2606  0.6174
 8183SOL    HW136182   2.689   1.071   5.655 -1.5917 -0.9217 -1.0213
 8183SOL    HW236183   2.757   1.122   5.547 -1.6288 -0.4990 -0.3305
 8184SOL     OW36184   4.308   1.219   7.813 -0.2084  0.1237  0.3816
 8184SOL    HW136185   4.313   1.271   7.893 -0.1279  0.7143 -0.0075
 8184SOL    HW236186   4.224   1.178   7.834 -0.8415  0.7197 -0.9944
 8185SOL     OW36187   4.097   2.391   6.588  0.7393  0.2606 -0.7906
 8185SOL    HW136188   4.174   2.419   6.538  0.7154  0.4528 -0.7202
 8185SOL    HW236189   4.029   2.454   6.564  1.2146  1.5363  1.2804
 8186SOL     OW36190   4.678   1.326  10.120 -0.4444  0.4340 -0.0061
 8186SOL    HW136191   0.006   1.359  10.181  0.6871  0.0854 -1.0177
 8186SOL    HW236192   4.649   1.411  10.086 -1.1818  0.4947  0.7877
 8187SOL     OW36193   0.960   1.536   1.660  0.1521 -0.2152  0.2994
 8187SOL    HW136194   0.930   1.455   1.617  0.3598 -1.3110  2.2055
 8187SOL    HW236195   1.037   1.557   1.607 -1.7393  0.6299 -2.1425
 8188SOL     OW36196   2.052   1.798  10.832  0.1240  0.6105 -0.3910
 8188SOL    HW136197   1.988   1.859  10.795  0.0963  0.2656 -0.9146
 8188SOL    HW236198   2.127   1.855  10.817  0.2100  0.1039 -1.9728
 8189SOL     OW36199   0.026   4.090   8.864  0.2058 -0.2605  0.1730
 8189SOL    HW136200   4.729   4.153   8.800  0.3953  1.7206  2.0185
 8189SOL    HW236201   0.089   4.149   8.905 -0.9439  1.4093 -0.4257
 8190SOL     OW36202   2.056   1.630   2.196 -0.9938  0.3887 -0.1620
 8190SOL    HW136203   1.987   1.680   2.152 -0.5667  0.3738 -0.8465
 8190SOL    HW236204   2.132   1.634   2.138 -1.1424  0.6700 -0.3414
 8191SOL     OW36205   0.101   3.482   5.262  0.1985  0.3590  0.5330
 8191SOL    HW136206   0.110   3.560   5.207  2.3627 -1.2158 -1.3268
 8191SOL    HW236207   0.105   3.524   5.348 -0.3072 -0.5207  0.9762
 8192SOL     OW36208   2.409   4.249  13.482 -0.1606  0.2675  0.4004
 8192SOL    HW136209   2.370   4.280  13.401  2.8103 -0.6312 -1.3881
 8192SOL    HW236210   2.344   4.190  13.520  0.6536 -0.4674  0.6564
 8193SOL     OW36211   1.419   0.760  12.856 -0.0310  0.2164 -0.1891
 8193SOL    HW136212   1.457   0.847  12.867 -0.7991  0.8093 -2.0717
 8193SOL    HW236213   1.379   0.738  12.940  2.9692  1.0342  1.4236
 8194SOL     OW36214   3.419   1.860  17.567  0.7500 -0.0220  0.0285
 8194SOL    HW136215   3.505   1.868  17.526  0.7058  0.6629  0.0602
 8194SOL    HW236216   3.411   1.770  17.597  0.7285  0.1415  0.5173
 8195SOL     OW36217   0.476   3.981  14.191 -0.3198 -0.0628  0.4119
 8195SOL    HW136218   0.549   4.040  14.213 -1.6012  1.0692  1.6106
 8195SOL    HW236219   0.430   3.973  14.274  0.0035  0.9665  0.6933
 8196SOL     OW36220   1.449   1.884   2.221 -0.0595 -0.2019  0.1987
 8196SOL    HW136221   1.542   1.892   2.240  0.1623 -0.6926 -0.6712
 8196SOL    HW236222   1.459   1.802   2.173 -0.8753  0.7416 -1.5815
 8197SOL     OW36223   2.264   4.139   8.997 -0.5172 -0.0235  0.5127
 8197SOL    HW136224   2.348   4.132   9.044 -1.1419 -5.0971  0.9106
 8197SOL    HW236225   2.255   4.060   8.944 -0.7973  0.6433 -0.4306
 8198SOL     OW36226   0.942   2.028  13.413  0.2483  0.3837 -0.6307
 8198SOL    HW136227   0.996   1.950  13.424  0.2873  0.6862  1.2746
 8198SOL    HW236228   0.870   1.996  13.466 -0.8254  0.2208 -2.1833
 8199SOL     OW36229   3.305   2.691  16.842 -0.4306  0.3882  0.0180
 8199SOL    HW136230   3.382   2.639  16.866 -0.3811  0.4815  0.0650
 8199SOL    HW236231   3.262   2.694  16.928 -0.2157 -0.9086  0.1702
 8200SOL     OW36232   1.918   3.184   8.877 -0.3984  0.2798 -0.2259
 8200SOL    HW136233   2.010   3.173   8.856 -0.0889 -0.3721  1.5125
 8200SOL    HW236234   1.917   3.279   8.888  3.4098  0.3411 -0.4921
 8201SOL     OW36235   1.755   2.905   4.234 -0.2237 -0.1310  0.0070
 8201SOL    HW136236   1.838   2.930   4.275  0.0415 -0.9402 -0.0383
 8201SOL    HW236237   1.693   2.968   4.272  2.9149  3.1163 -0.1893
 8202SOL     OW36238   2.975   3.900   3.741  0.3634 -0.0772  0.4887
 8202SOL    HW136239   2.914   3.959   3.786  0.6441  1.3731 -1.0249
 8202SOL    HW236240   2.998   3.939   3.657  0.2640 -1.0229  0.0191
 8203SOL     OW36241   2.118   1.489   1.694 -0.0682 -0.1466  0.2107
 8203SOL    HW136242   2.048   1.424   1.696 -1.6993  1.5823 -0.4017
 8203SOL    HW236243   2.184   1.441   1.744  0.8989  0.2523 -0.6887
 8204SOL     OW36244   0.184   1.196   1.576  0.0716  0.1755 -0.3333
 8204SOL    HW136245   0.111   1.257   1.565  1.2958  1.5191 -0.9935
 8204SOL    HW236246   0.257   1.236   1.530  0.5460 -0.4198 -0.0990
 8205SOL     OW36247   2.653   1.889   3.076 -0.3288  0.1671  0.4595
 8205SOL    HW136248   2.592   1.876   3.148  0.5462 -1.0384  0.9989
 8205SOL    HW236249   2.738   1.860   3.111  0.3871  0.7696 -0.7787
 8206SOL     OW36250   1.237   0.069   6.334 -0.1766 -0.1590  0.4279
 8206SOL    HW136251   1.265   0.160   6.332 -1.6750  0.2883  0.4538
 8206SOL    HW236252   1.261   0.042   6.245 -0.5245  0.6446  0.0963
 8207SOL     OW36253   4.309   1.628   6.863 -0.1813 -0.2755  0.6439
 8207SOL    HW136254   4.255   1.560   6.824  2.5053 -1.3986 -1.1179
 8207SOL    HW236255   4.368   1.583   6.924  0.2696 -0.4155  0.1066
 8208SOL     OW36256   2.085   0.324   1.198 -0.1966 -0.0346 -0.0437
 8208SOL    HW136257   2.007   0.270   1.210 -0.1496  0.5668  2.9925
 8208SOL    HW236258   2.153   0.258   1.194  1.0499  1.3659 -2.2561
 8209SOL     OW36259   3.126   1.943  15.284  0.6201  0.1181  0.2046
 8209SOL    HW136260   3.031   1.945  15.283  0.6107 -2.5936 -3.4744
 8209SOL    HW236261   3.142   1.858  15.326 -2.6642 -0.7303 -0.2947
 8210SOL     OW36262   4.208   0.845   2.837 -0.0462  0.5568  0.4364
 8210SOL    HW136263   4.242   0.838   2.926 -0.4228  1.9079  0.6853
 8210SOL    HW236264   4.131   0.900   2.854 -1.3800 -1.3234  0.3972
 8211SOL     OW36265   0.414   0.577   1.568  0.4835  1.1071  0.2209
 8211SOL    HW136266   0.421   0.622   1.652  0.1277 -1.1651  1.4745
 8211SOL    HW236267   0.404   0.637   1.494  2.8071  1.4424  0.1816
 8212SOL     OW36268   0.690   0.224   1.431  0.0582  0.0882 -0.0116
 8212SOL    HW136269   0.741   0.303   1.413 -0.3510  0.6639  1.3505
 8212SOL    HW236270   0.601   0.254   1.444 -0.3596 -1.4268  0.6685
 8213SOL     OW36271   3.778   0.974   3.236 -0.2980 -0.2289 -0.1633
 8213SOL    HW136272   3.835   0.924   3.295 -0.2316  1.2022  0.9852
 8213SOL    HW236273   3.735   1.033   3.299 -0.8517 -0.6343 -0.1557
 8214SOL     OW36274   4.624   3.609  14.212  0.3950 -0.1925 -0.0969
 8214SOL    HW136275   4.607   3.525  14.171 -2.6161  0.4577 -0.1900
 8214SOL    HW236276   4.654   3.569  14.294  0.0277 -2.4657 -1.0800
 8215SOL     OW36277   4.236   1.195   6.244 -0.2322  0.4656 -0.7778
 8215SOL    HW136278   4.157   1.239   6.213 -0.8248  0.3203  0.5331
 8215SOL    HW236279   4.304   1.233   6.188  0.9925  0.2745  0.5783
 8216SOL     OW36280   0.850   3.599   7.213 -0.8104 -0.2277  0.3966
 8216SOL    HW136281   0.927   3.655   7.209 -1.3371  0.5656  1.3253
 8216SOL    HW236282   0.873   3.528   7.153  1.0159  2.9856 -2.6313
 8217SOL     OW36283   4.404   4.164  17.018  0.3384 -0.2796 -0.4453
 8217SOL    HW136284   4.375   4.246  16.979 -0.4261 -0.2333  0.2244
 8217SOL    HW236285   4.435   4.191  17.104 -1.6554  1.4686 -0.2863
 8218SOL     OW36286   2.679   0.914   6.572 -0.2812 -0.0080 -0.3052
 8218SOL    HW136287   2.747   0.941   6.634 -1.0559  0.7492  0.2127
 8218SOL    HW236288   2.652   1.002   6.548  0.3499 -0.2085 -1.7174
 8219SOL     OW36289   3.389   1.268   4.145 -0.1164  0.2273  0.1730
 8219SOL    HW136290   3.355   1.298   4.061 -2.2101  0.6891  1.1846
 8219SOL    HW236291   3.457   1.206   4.119 -1.0024 -0.0327 -1.5365
 8220SOL     OW36292   3.501   4.730   9.764  0.3793 -0.6855 -0.3205
 8220SOL    HW136293   3.540   4.710   9.849  0.6996  1.7123  0.0797
 8220SOL    HW236294   3.427   4.668   9.762  0.3523 -0.6210 -1.3068
 8221SOL     OW36295   3.749   1.845   2.958  0.2063  0.0876  0.0184
 8221SOL    HW136296   3.777   1.821   3.046 -1.1428  3.8217  1.4464
 8221SOL    HW236297   3.791   1.776   2.905 -0.9353 -0.8377  0.3113
 8222SOL     OW36298   3.213   1.212   2.501 -0.2647  0.0994  0.7381
 8222SOL    HW136299   3.264   1.234   2.579  1.2437 -0.4433 -0.0916
 8222SOL    HW236300   3.278   1.227   2.431 -2.3834 -0.4003 -1.3322
 8223SOL     OW36301   2.209   3.091   4.050 -0.5790  0.3658 -0.0251
 8223SOL    HW136302   2.199   3.014   3.993 -0.8063  1.3369 -1.2928
 8223SOL    HW236303   2.243   3.154   3.987 -0.7743 -1.6919 -2.2190
 8224SOL     OW36304   4.610   2.517   5.744 -0.3578  0.1814  0.3350
 8224SOL    HW136305   4.695   2.475   5.758  1.4290  4.2416  1.6719
 8224SOL    HW236306   4.583   2.471   5.665  1.5320 -0.0469 -0.1842
 8225SOL     OW36307   2.362   4.212   6.466  0.2325 -0.1937 -0.3396
 8225SOL    HW136308   2.359   4.307   6.457 -0.9009 -0.2331 -0.4361
 8225SOL    HW236309   2.313   4.189   6.387  1.1376 -3.2378 -0.0115
 8226SOL     OW36310   4.375   3.583  10.157 -0.8537  0.6550 -0.1678
 8226SOL    HW136311   4.427   3.663  10.154 -0.9666  0.8843  3.4206
 8226SOL    HW236312   4.391   3.546  10.070  1.2079  1.0322  0.0617
 8227SOL     OW36313   4.041   0.038   5.444 -0.6642  0.5818 -0.4060
 8227SOL    HW136314   4.003   4.697   5.483 -0.7159  1.0557  0.4976
 8227SOL    HW236315   4.133   0.032   5.471 -0.6412  0.1782 -0.5662
 8228SOL     OW36316   1.739   2.973   1.766  0.2376  0.0897  0.0218
 8228SOL    HW136317   1.821   2.929   1.785  0.2285  0.8106  1.6906
 8228SOL    HW236318   1.723   2.940   1.677 -1.2399 -0.8622  0.6371
 8229SOL     OW36319   2.069   2.800   2.349 -0.8412 -0.0526 -0.2052
 8229SOL    HW136320   2.016   2.820   2.426  0.6910 -2.0354  1.3668
 8229SOL    HW236321   2.124   2.728   2.381 -0.2308  0.8533  0.7643
 8230SOL     OW36322   2.240   4.197   6.229  0.0368 -0.2131 -0.2331
 8230SOL    HW136323   2.196   4.271   6.188 -0.0742  0.2342  0.6771
 8230SOL    HW236324   2.226   4.133   6.159  3.2914 -0.8809 -0.3079
 8231SOL     OW36325   0.916   0.377   6.597  0.0261  0.1941 -0.6158
 8231SOL    HW136326   0.842   0.318   6.579 -0.6442  0.3415  1.6331
 8231SOL    HW236327   0.857   0.450   6.617 -0.1417 -0.2089  0.3908
 8232SOL     OW36328   2.235   0.934   3.506 -0.2681 -0.3744  0.0088
 8232SOL    HW136329   2.192   0.996   3.564 -0.1326 -1.5297  1.3398
 8232SOL    HW236330   2.307   0.986   3.472  0.3878 -1.3176 -0.0486
 8233SOL     OW36331   1.866   0.665   2.464  0.1772 -0.4311 -0.1033
 8233SOL    HW136332   1.863   0.570   2.458  0.1635 -0.5328  1.6485
 8233SOL    HW236333   1.809   0.680   2.539  1.1871  1.2504  0.3409
 8234SOL     OW36334   0.279   2.164   5.300 -0.2471  0.0770  0.0085
 8234SOL    HW136335   0.264   2.247   5.255 -1.3066  1.1468  2.2919
 8234SOL    HW236336   0.197   2.147   5.347 -0.9844 -1.6553 -1.9055
 8235SOL     OW36337   2.209   2.316  12.691  0.2447  0.3334 -0.2931
 8235SOL    HW136338   2.228   2.406  12.719 -0.9408  1.2648 -2.4866
 8235SOL    HW236339   2.114   2.310  12.697  0.1087  0.9942 -1.6337
 8236SOL     OW36340   1.046   3.805   8.477 -0.2443  0.1073  0.4608
 8236SOL    HW136341   0.997   3.772   8.552 -0.5747 -3.2180 -1.1956
 8236SOL    HW236342   1.099   3.727   8.459 -0.7218  0.2714 -1.6654
 8237SOL     OW36343   4.456   2.000   8.526 -0.3387  0.1538  0.7609
 8237SOL    HW136344   4.366   2.021   8.549 -0.3680 -0.4900  1.2447
 8237SOL    HW236345   4.510   2.078   8.513  0.6334 -0.7307 -0.5978
 8238SOL     OW36346   0.196   0.340   5.612 -0.0573  0.4046 -0.1934
 8238SOL    HW136347   0.281   0.307   5.641  0.5596 -0.9585 -3.5120
 8238SOL    HW236348   0.189   0.425   5.655 -0.3162 -0.0941  0.7452
 8239SOL     OW36349   2.299   4.031  14.589 -0.0440 -0.2248  0.0982
 8239SOL    HW136350   2.223   3.983  14.624  1.0773 -1.3973  0.9186
 8239SOL    HW236351   2.312   3.996  14.501  1.9845  1.5849 -0.3055
 8240SOL     OW36352   0.089   1.490   7.393 -0.2457 -0.1160  0.7641
 8240SOL    HW136353   0.152   1.451   7.333 -1.4233  1.9759 -1.8495
 8240SOL    HW236354   0.093   1.428   7.466 -0.3944 -1.4932 -0.4040
 8241SOL     OW36355   0.518   2.813   4.364  0.1591 -0.1051 -0.4286
 8241SOL    HW136356   0.459   2.886   4.344 -2.1659 -2.0139 -0.4757
 8241SOL    HW236357   0.554   2.804   4.276  2.3828  0.4277  0.4129
 8242SOL     OW36358   2.827   0.497   5.960 -0.4186  0.3170 -0.2438
 8242SOL    HW136359   2.755   0.494   6.023 -0.8391 -2.0588 -0.8085
 8242SOL    HW236360   2.896   0.527   6.019 -1.1024  0.8400  0.2830
 8243SOL     OW36361   2.933   0.212   3.667 -0.0322  0.6831 -0.4381
 8243SOL    HW136362   2.961   0.121   3.683 -1.2179  0.0705 -1.7993
 8243SOL    HW236363   3.017   0.243   3.633  0.9977 -2.2258 -0.5985
 8244SOL     OW36364   4.185   4.458   7.587 -0.1992 -0.1110 -0.0029
 8244SOL    HW136365   4.245   4.456   7.513  2.8055 -2.9548  2.4979
 8244SOL    HW236366   4.249   4.466   7.659 -0.3057  4.4769 -0.3919
 8245SOL     OW36367   0.241   2.169   3.586  0.0511  0.1782  0.6170
 8245SOL    HW136368   0.327   2.191   3.621  0.2607 -2.0003  1.4598
 8245SOL    HW236369   0.216   2.091   3.635 -0.9824  1.3787  2.0327
 8246SOL     OW36370   2.437   0.225   8.730  0.0186 -0.0977 -0.6499
 8246SOL    HW136371   2.473   0.261   8.811 -1.0209  1.2838 -0.8044
 8246SOL    HW236372   2.422   0.300   8.673  0.7104  0.1690 -0.4801
 8247SOL     OW36373   0.052   3.739   4.090  0.1994  0.1427 -0.0853
 8247SOL    HW136374   4.702   3.722   4.055  0.0925 -1.9098  1.1611
 8247SOL    HW236375   0.030   3.794   4.165  0.1307 -3.6489  2.6642
 8248SOL     OW36376   3.503   0.254   6.044  0.4662  0.2427  0.4150
 8248SOL    HW136377   3.505   0.299   6.129 -4.4055  0.7149  0.2775
 8248SOL    HW236378   3.517   0.334   5.994 -0.0830  0.0429 -0.0522
 8249SOL     OW36379   3.079   3.017   3.780 -0.3548 -0.1198  0.1396
 8249SOL    HW136380   3.140   3.064   3.723  1.0180 -1.6683  0.3165
 8249SOL    HW236381   3.078   2.932   3.735  1.2777 -0.0778  0.0108
 8250SOL     OW36382   3.823   2.019   8.628  0.4647 -0.6306 -0.4208
 8250SOL    HW136383   3.818   2.060   8.714  0.4827 -0.2357 -0.6110
 8250SOL    HW236384   3.915   2.037   8.609  0.7330 -2.9306 -1.3193
 8251SOL     OW36385   1.412   0.565   5.096 -0.1569 -0.1613  0.0183
 8251SOL    HW136386   1.491   0.581   5.147  0.4830  1.3334 -1.4491
 8251SOL    HW236387   1.399   0.473   5.119  1.0456  0.1383  1.9140
 8252SOL     OW36388   2.519   2.832   9.794  0.3502  0.6855 -0.3360
 8252SOL    HW136389   2.579   2.757   9.791 -1.7964 -1.0008 -0.6541
 8252SOL    HW236390   2.548   2.860   9.707  0.6494 -1.0343 -0.7827
 8253SOL     OW36391   1.711   0.202  15.874  0.1100 -0.0913 -0.0609
 8253SOL    HW136392   1.715   0.139  15.947  0.1300 -0.1010 -0.0703
 8253SOL    HW236393   1.633   0.257  15.879 -0.4442 -0.8968  0.1332
 8254SOL     OW36394   3.719   2.543   2.578 -0.9844  0.5110  0.3890
 8254SOL    HW136395   3.750   2.453   2.591  0.9808  0.9290 -1.3114
 8254SOL    HW236396   3.799   2.593   2.563 -0.5519  0.8363  3.7702
 8255SOL     OW36397   1.396   0.459   5.691  0.0237  0.3378 -0.3195
 8255SOL    HW136398   1.333   0.531   5.696 -1.5510 -0.9455 -1.8862
 8255SOL    HW236399   1.471   0.504   5.651 -1.5006  1.7977 -1.5398
 8256SOL     OW36400   2.204   0.775  15.749  0.5582  0.1396 -0.9658
 8256SOL    HW136401   2.258   0.721  15.806 -0.2784 -0.0892 -0.3930
 8256SOL    HW236402   2.219   0.729  15.666  2.9491 -1.5643  0.4139
 8257SOL     OW36403   0.617   3.745   7.546  0.4151  0.4198 -0.0615
 8257SOL    HW136404   0.624   3.830   7.503  2.8330 -0.5382 -1.5227
 8257SOL    HW236405   0.705   3.711   7.531  0.5239  0.4656  0.4668
 8258SOL     OW36406   4.377   4.052  16.690 -0.0670 -0.2293 -0.3843
 8258SOL    HW136407   4.467   4.073  16.716  0.3050 -0.1950 -1.6920
 8258SOL    HW236408   4.359   3.973  16.741  1.3788 -1.4621 -1.7666
 8259SOL     OW36409   4.611   4.197  12.487  0.4396  0.4874 -0.1369
 8259SOL    HW136410   4.604   4.292  12.501  0.6308  0.1633  2.0835
 8259SOL    HW236411   4.707   4.192  12.491  0.3238 -0.9035  0.8743
 8260SOL     OW36412   3.898   2.816   8.198  0.5591 -0.1433 -0.4971
 8260SOL    HW136413   3.888   2.873   8.122 -3.4195 -1.9853 -1.3658
 8260SOL    HW236414   3.822   2.831   8.254  1.6523  0.5148  0.8151
 8261SOL     OW36415   3.992   2.747   9.280  0.7820 -0.1953 -0.1815
 8261SOL    HW136416   4.053   2.794   9.224  1.7492  0.3615  1.3274
 8261SOL    HW236417   3.951   2.693   9.212 -1.3925 -1.5366  2.2020
 8262SOL     OW36418   2.589   0.155  16.874  0.5175  0.0596 -0.2770
 8262SOL    HW136419   2.627   0.114  16.951  2.1450 -0.2122 -1.2144
 8262SOL    HW236420   2.641   0.111  16.806  0.8595  1.9640 -1.2559
 8263SOL     OW36421   1.415   0.163   6.879 -0.0021  0.1085  0.3862
 8263SOL    HW136422   1.476   0.184   6.950  0.7109 -0.1067 -0.1664
 8263SOL    HW236423   1.453   0.086   6.837 -1.1974 -0.0913 -0.3041
 8264SOL     OW36424   1.597   4.116  16.192 -0.0394  0.2342  0.4308
 8264SOL    HW136425   1.639   4.089  16.273  2.3441 -1.2578 -1.3305
 8264SOL    HW236426   1.661   4.181  16.164 -2.8125  2.3647 -1.0454
 8265SOL     OW36427   2.827   3.306   4.242 -0.1461 -0.0439 -0.2722
 8265SOL    HW136428   2.856   3.305   4.151 -1.9064  0.2833 -0.8410
 8265SOL    HW236429   2.906   3.285   4.292  1.3945 -0.4647 -2.9241
 8266SOL     OW36430   3.536   3.400   8.808 -0.2883 -0.2660  1.2760
 8266SOL    HW136431   3.582   3.482   8.824  0.1895 -0.7426  2.3461
 8266SOL    HW236432   3.583   3.375   8.728  1.3200 -1.9240  2.7204
 8267SOL     OW36433   2.368   2.008   7.895 -0.5654  0.5644 -0.0740
 8267SOL    HW136434   2.363   2.075   7.963 -1.8530 -0.2839  0.6775
 8267SOL    HW236435   2.342   1.928   7.940  1.3353  0.5346  0.9215
 8268SOL     OW36436   2.938   4.131   6.114  0.2831  0.4026 -0.5233
 8268SOL    HW136437   2.998   4.191   6.069 -0.3479  1.7580  0.4419
 8268SOL    HW236438   2.894   4.192   6.174  0.8317 -1.4526  1.7808
 8269SOL     OW36439   2.728   0.813  14.572 -0.5526 -0.0453 -0.0338
 8269SOL    HW136440   2.698   0.743  14.630 -2.9006  0.8069 -0.2488
 8269SOL    HW236441   2.671   0.802  14.496  0.5093  1.0094 -0.9710
 8270SOL     OW36442   2.695   0.416   2.694  0.3209 -0.2066  0.1549
 8270SOL    HW136443   2.607   0.449   2.712 -0.4845 -1.8298 -0.8526
 8270SOL    HW236444   2.683   0.324   2.714  3.6595 -0.5090  0.7620
 8271SOL     OW36445   0.688   3.343   8.247  0.5350  0.3022  0.0464
 8271SOL    HW136446   0.633   3.266   8.234 -0.8154  0.7432  3.1028
 8271SOL    HW236447   0.707   3.328   8.340 -1.0767  4.5340  1.0261
 8272SOL     OW36448   0.240   0.992   1.273  0.5705  1.1015  0.4025
 8272SOL    HW136449   0.145   0.983   1.262  0.5387  0.7803  0.9186
 8272SOL    HW236450   0.248   1.044   1.354 -1.7796  0.7969  0.8228
 8273SOL     OW36451   4.245   0.424   5.319  0.4340 -0.1202 -0.2394
 8273SOL    HW136452   4.280   0.354   5.263  1.5129  0.6890 -0.5738
 8273SOL    HW236453   4.224   0.380   5.402  2.9403  0.5751  0.7691
 8274SOL     OW36454   0.189   4.299   2.239 -0.2872  0.2069 -0.2759
 8274SOL    HW136455   0.265   4.312   2.182  0.6195  1.3880  1.2205
 8274SOL    HW236456   0.161   4.221   2.191  0.6017 -1.5504  2.0633
 8275SOL     OW36457   1.499   4.331   1.508 -0.1076  0.2524  0.4426
 8275SOL    HW136458   1.479   4.336   1.415  1.2000  0.6699  0.1805
 8275SOL    HW236459   1.439   4.401   1.532 -0.1463  0.3343  0.1029
 8276SOL     OW36460   1.866   3.029  10.598 -0.6875  0.0245 -0.5137
 8276SOL    HW136461   1.876   2.967  10.670 -0.8899  1.2705  0.5748
 8276SOL    HW236462   1.857   2.959  10.532  0.5117 -1.0161  0.4175
 8277SOL     OW36463   0.982   2.822   9.774  0.3667  0.2959  0.0776
 8277SOL    HW136464   1.076   2.813   9.757  0.7211 -2.3609  3.3468
 8277SOL    HW236465   0.985   2.866   9.859  0.2877  1.1104 -0.3403
 8278SOL     OW36466   2.163   1.917   1.481 -0.2637  0.3512  0.2389
 8278SOL    HW136467   2.097   1.848   1.471  0.5086 -0.5000  0.9238
 8278SOL    HW236468   2.192   1.894   1.570  0.5588  0.3828 -0.0171
 8279SOL     OW36469   2.161   4.391  14.901 -0.1723 -0.2412  0.4316
 8279SOL    HW136470   2.102   4.331  14.946  0.1063 -1.5140 -0.9287
 8279SOL    HW236471   2.104   4.424  14.832  0.4752 -0.3925 -0.1768
 8280SOL     OW36472   1.187   3.525   8.906 -1.1454  0.0827  0.1616
 8280SOL    HW136473   1.131   3.453   8.935 -2.2366  0.9583  0.2302
 8280SOL    HW236474   1.132   3.599   8.931 -2.4384 -0.2979 -1.5619
 8281SOL     OW36475   0.879   1.610   7.009  0.2357 -0.3093 -0.4126
 8281SOL    HW136476   0.944   1.638   6.944  2.9421  1.7416  3.1793
 8281SOL    HW236477   0.808   1.575   6.955 -0.8733  1.5220 -0.1515
 8282SOL     OW36478   3.893   3.149   7.171 -0.0906 -0.2081 -0.6627
 8282SOL    HW136479   3.933   3.076   7.125 -0.7070  0.2536 -1.9264
 8282SOL    HW236480   3.904   3.112   7.259  1.0430 -0.8516 -1.0744
 8283SOL     OW36481   2.127   3.598   5.482 -0.3234  0.0720  0.3753
 8283SOL    HW136482   2.105   3.618   5.572 -1.2600 -0.2534  0.2140
 8283SOL    HW236483   2.091   3.679   5.445 -0.4662 -0.9760 -1.8348
 8284SOL     OW36484   3.534   2.732   2.468 -0.8081 -0.4082 -0.3302
 8284SOL    HW136485   3.591   2.680   2.524 -0.0984 -0.1745 -0.8362
 8284SOL    HW236486   3.518   2.658   2.408 -1.1714 -1.3456  0.9211
 8285SOL     OW36487   0.221   2.164  12.273  0.2506 -0.1206  0.4167
 8285SOL    HW136488   0.164   2.098  12.234  1.7503 -1.7568  1.0190
 8285SOL    HW236489   0.233   2.133  12.363  0.1422  0.8214  0.7555
 8286SOL     OW36490   3.588   1.261   3.846  0.0227  0.3959 -0.0243
 8286SOL    HW136491   3.603   1.322   3.918  1.9766  1.8975 -1.6715
 8286SOL    HW236492   3.608   1.180   3.892 -0.7436  0.4524  0.4083
 8287SOL     OW36493   2.900   1.888   8.751 -0.4059  0.1974 -0.3601
 8287SOL    HW136494   2.844   1.938   8.810  0.5857 -0.5432  1.1872
 8287SOL    HW236495   2.962   1.954   8.719  1.9165 -1.5714  0.5229
 8288SOL     OW36496   3.008   2.140   8.709  0.2808  0.1639  0.1152
 8288SOL    HW136497   2.944   2.192   8.661  0.5082  1.2260  0.9754
 8288SOL    HW236498   3.022   2.195   8.786  1.4215  1.5284 -1.0802
 8289SOL     OW36499   0.745   3.834   3.431 -0.1640  0.1149  0.7014
 8289SOL    HW136500   0.821   3.884   3.401 -0.1924  0.1364  0.6653
 8289SOL    HW236501   0.735   3.862   3.522  3.2019  1.4783  0.6446
 8290SOL     OW36502   3.756   0.830   2.564  0.6256  0.4150  0.9449
 8290SOL    HW136503   3.744   0.883   2.643 -1.5606  0.0335  0.8738
 8290SOL    HW236504   3.842   0.865   2.541  0.0431  1.7528  0.7655
 8291SOL     OW36505   2.334   3.190   2.485 -0.2156  0.0386  0.2470
 8291SOL    HW136506   2.397   3.195   2.413 -0.3560 -0.0663  0.1153
 8291SOL    HW236507   2.388   3.169   2.561  0.6123  0.3221 -0.2732
 8292SOL     OW36508   4.209   0.054   4.355 -0.2604 -0.4102  0.3263
 8292SOL    HW136509   4.300   0.026   4.365 -0.1245 -1.1868 -3.0909
 8292SOL    HW236510   4.162   4.720   4.314 -0.0327 -0.4294  0.0942
 8293SOL     OW36511   0.422   3.067   2.764  0.0970  0.0596 -0.0005
 8293SOL    HW136512   0.405   3.160   2.753 -0.8211 -0.1126  0.0253
 8293SOL    HW236513   0.374   3.031   2.689 -3.3392  1.1120  1.7188
 8294SOL     OW36514   2.216   1.226   3.621 -0.2322  0.2728 -0.1640
 8294SOL    HW136515   2.232   1.320   3.610  2.0311  0.0489  1.2553
 8294SOL    HW236516   2.305   1.194   3.605 -0.3675 -0.2279  0.0856
 8295SOL     OW36517   2.626   2.907   6.331  0.0298  0.3603  0.3211
 8295SOL    HW136518   2.707   2.955   6.349 -1.3479  2.8695 -0.1903
 8295SOL    HW236519   2.641   2.814   6.349 -0.7593  0.6807  2.5566
 8296SOL     OW36520   0.315   2.472   5.292 -0.3123  0.6010 -0.1533
 8296SOL    HW136521   0.331   2.565   5.276  0.6220  0.5064  0.1705
 8296SOL    HW236522   0.271   2.452   5.210 -0.7668  2.4020 -0.3355
 8297SOL     OW36523   2.206   3.542   6.094  0.2020  0.4363 -0.1322
 8297SOL    HW136524   2.276   3.478   6.098 -0.0448  0.2062  0.4014
 8297SOL    HW236525   2.164   3.527   6.179 -1.1750 -1.8918 -1.2196
 8298SOL     OW36526   3.997   4.294   9.794 -0.1235  0.3399  0.1401
 8298SOL    HW136527   3.968   4.287   9.885 -0.3424  0.4212  0.0763
 8298SOL    HW236528   4.085   4.332   9.801  0.9604 -1.6641 -2.8011
 8299SOL     OW36529   1.173   1.065   3.834 -0.6429 -0.5957 -0.0502
 8299SOL    HW136530   1.244   1.126   3.852 -1.4024  0.7510 -1.6130
 8299SOL    HW236531   1.101   1.083   3.894  0.8543 -1.0543  1.8556
 8300SOL     OW36532   3.704   4.579   1.265 -0.2376 -0.3473  0.8549
 8300SOL    HW136533   3.746   4.577   1.352 -2.8621  3.4523  2.1672
 8300SOL    HW236534   3.620   4.619   1.286  1.3239  3.0614  0.4741
 8301SOL     OW36535   2.552   3.308  16.276 -0.7047  0.0537  0.7146
 8301SOL    HW136536   2.611   3.308  16.200 -0.8201 -1.6405  0.6147
 8301SOL    HW236537   2.543   3.398  16.305 -1.9230 -0.1921  1.0865
 8302SOL     OW36538   2.395   2.799   2.861  0.3069 -0.1690  0.2319
 8302SOL    HW136539   2.461   2.851   2.906  0.0547  1.6081 -1.4822
 8302SOL    HW236540   2.416   2.723   2.916 -0.0305 -0.3443  0.1233
 8303SOL     OW36541   1.962   0.764   1.573  0.1022 -0.2402 -0.1304
 8303SOL    HW136542   1.941   0.676   1.543 -2.3560  0.6200 -0.8925
 8303SOL    HW236543   1.983   0.748   1.665 -1.2103  1.3859  0.4459
 8304SOL     OW36544   0.182   4.517   4.264  0.2541 -0.1420  0.4337
 8304SOL    HW136545   0.167   4.466   4.185  0.1680  1.3202 -0.4863
 8304SOL    HW236546   0.272   4.496   4.289  0.8135  0.8339 -0.8166
 8305SOL     OW36547   0.872   0.191   9.231  0.0391 -0.2932 -0.3268
 8305SOL    HW136548   0.913   0.106   9.246  0.0393 -0.4922 -1.4533
 8305SOL    HW236549   0.785   0.154   9.220  0.1158 -0.7494  0.5455
 8306SOL     OW36550   0.827   0.829   4.646 -0.1528  0.0962  0.4122
 8306SOL    HW136551   0.888   0.848   4.575 -2.0027 -1.2048 -1.5286
 8306SOL    HW236552   0.747   0.809   4.596 -0.1443  0.1235  0.3876
 8307SOL     OW36553   2.116   2.886   8.784  0.4526  0.4171  0.5017
 8307SOL    HW136554   2.027   2.891   8.818 -0.6635 -0.1670 -2.2893
 8307SOL    HW236555   2.095   2.907   8.693 -1.1993 -3.4744  0.0026
 8308SOL     OW36556   3.362   1.599  17.635 -0.5022  0.1914  0.1543
 8308SOL    HW136557   3.285   1.574  17.687  0.6839 -2.1345  0.7827
 8308SOL    HW236558   3.315   1.617  17.553 -1.0502  1.6574  0.7946
 8309SOL     OW36559   0.577   2.735   5.773  0.1720 -0.0249 -0.0612
 8309SOL    HW136560   0.484   2.749   5.786  0.2012  1.0770 -0.9953
 8309SOL    HW236561   0.591   2.677   5.847  0.5042 -1.0609 -0.9414
 8310SOL     OW36562   2.374   1.798   2.885  0.3456 -0.6173  0.6111
 8310SOL    HW136563   2.376   1.793   2.981  1.1276  1.7670  0.7084
 8310SOL    HW236564   2.357   1.708   2.859 -0.5953 -0.4674  0.6699
 8311SOL     OW36565   4.479   1.775   2.763  0.8709 -0.0589  0.4566
 8311SOL    HW136566   4.495   1.723   2.683 -1.2024  1.6104 -1.0348
 8311SOL    HW236567   4.536   1.732   2.827  1.0519  0.6711  0.7854
 8312SOL     OW36568   1.973   1.590   4.730 -0.0349  0.4064 -0.3619
 8312SOL    HW136569   2.060   1.562   4.758  0.3061  2.2549  0.3991
 8312SOL    HW236570   1.953   1.675   4.769  2.9275  2.2117 -2.7743
 8313SOL     OW36571   2.568   2.190   7.786  0.1170 -0.4903  0.2640
 8313SOL    HW136572   2.491   2.134   7.777 -1.7125  2.1501 -0.6540
 8313SOL    HW236573   2.541   2.249   7.856  2.9842  1.1994 -0.0273
 8314SOL     OW36574   4.186   2.541   6.947  0.1450  0.2397  0.6495
 8314SOL    HW136575   4.241   2.468   6.920  1.0584  0.1946  2.6790
 8314SOL    HW236576   4.246   2.613   6.926 -1.4202  1.3961  0.1548
 8315SOL     OW36577   4.001   2.602   3.090 -0.0517  0.1217 -0.0637
 8315SOL    HW136578   3.933   2.629   3.151  0.5745 -0.8068  1.0448
 8315SOL    HW236579   4.077   2.644   3.131  0.1868 -2.2551  1.9184
 8316SOL     OW36580   3.019   1.405  10.957  0.1990 -0.7573  0.0489
 8316SOL    HW136581   3.025   1.316  10.993 -0.2879 -1.5256 -1.7520
 8316SOL    HW236582   3.110   1.416  10.931  0.4844 -1.9496  0.5431
 8317SOL     OW36583   3.920   0.110  16.779  0.4262  0.2503 -0.0723
 8317SOL    HW136584   3.987   0.084  16.716 -0.8041  0.4387 -1.4535
 8317SOL    HW236585   3.876   0.025  16.780  2.8137 -1.0233 -1.9108
 8318SOL     OW36586   2.283   0.043   9.282  0.3181  0.1025  0.6792
 8318SOL    HW136587   2.206   0.027   9.337  1.7236 -2.6754  1.8538
 8318SOL    HW236588   2.265   4.736   9.199 -1.0769  2.0224 -0.0427
 8319SOL     OW36589   3.524   3.607   3.350  0.1702 -0.1462  0.4281
 8319SOL    HW136590   3.496   3.608   3.258 -2.8091  2.9154  1.3681
 8319SOL    HW236591   3.436   3.616   3.386  0.1904 -1.2250  0.7417
 8320SOL     OW36592   3.898   3.274  10.109  0.6654 -0.5170  0.3075
 8320SOL    HW136593   3.865   3.185  10.104 -0.8245  0.1097 -1.2008
 8320SOL    HW236594   3.837   3.314  10.046  0.4762 -1.0980  0.1256
 8321SOL     OW36595   3.522   2.123   9.708 -0.1739 -0.2300 -1.1474
 8321SOL    HW136596   3.536   2.173   9.789 -0.3843  0.3558 -1.4707
 8321SOL    HW236597   3.616   2.112   9.692 -0.2062  1.3094 -2.3312
 8322SOL     OW36598   1.397   3.248   6.048  0.5431 -0.2027 -0.4175
 8322SOL    HW136599   1.455   3.293   5.987  2.0215 -1.8131 -0.1860
 8322SOL    HW236600   1.401   3.159   6.014  0.9551 -1.0199  1.7792
 8323SOL     OW36601   4.069   0.337   5.902  0.0473  0.3225  0.3206
 8323SOL    HW136602   4.096   0.274   5.836 -3.0367 -0.1129 -0.5189
 8323SOL    HW236603   4.026   0.280   5.966  0.2836 -2.7035 -2.1988
 8324SOL     OW36604   4.129   3.850   4.998 -0.2173 -0.6081 -0.2928
 8324SOL    HW136605   4.169   3.797   4.929 -0.2554 -1.6414  0.4709
 8324SOL    HW236606   4.205   3.857   5.056 -1.6117  1.3109  1.2976
 8325SOL     OW36607   3.724   2.962   5.880  0.2771  0.3670  0.1917
 8325SOL    HW136608   3.683   3.047   5.896 -0.3998  0.2066 -0.6760
 8325SOL    HW236609   3.777   2.988   5.804  0.8070  0.0572  0.4537
 8326SOL     OW36610   1.522   4.119  13.895  0.5084  0.2433 -0.6736
 8326SOL    HW136611   1.464   4.092  13.966  0.9944  0.2324 -0.2770
 8326SOL    HW236612   1.531   4.032  13.856 -1.3950 -1.0927  1.8758
 8327SOL     OW36613   0.820   3.035   2.230  0.1557  0.3621 -0.5658
 8327SOL    HW136614   0.866   3.101   2.178 -0.1280 -0.1161 -1.4183
 8327SOL    HW236615   0.792   2.970   2.165 -0.6403  1.1057 -0.9591
 8328SOL     OW36616   4.159   3.843   7.792  0.6439 -0.3523 -0.2455
 8328SOL    HW136617   4.150   3.923   7.844  1.5767  0.2807 -1.0468
 8328SOL    HW236618   4.121   3.773   7.845 -1.1074  1.1701  0.5199
 8329SOL     OW36619   3.843   1.753  12.832 -0.0704  0.2060  0.2599
 8329SOL    HW136620   3.850   1.791  12.919 -0.7777  0.8286  0.0422
 8329SOL    HW236621   3.811   1.834  12.792  0.2925 -0.2350 -0.9316
 8330SOL     OW36622   2.052   2.308   7.840  0.6704 -0.1747 -0.2284
 8330SOL    HW136623   1.974   2.287   7.790 -0.4617 -0.7882  1.7862
 8330SOL    HW236624   2.125   2.274   7.789  2.8004  0.2581  2.5162
 8331SOL     OW36625   2.767   1.282   9.174  0.9579  0.6995  0.4092
 8331SOL    HW136626   2.826   1.211   9.148 -0.4879  0.2635 -1.6339
 8331SOL    HW236627   2.738   1.259   9.263 -1.6415 -2.0813 -1.1742
 8332SOL     OW36628   4.396   1.924  14.617  0.0749 -0.2917 -0.1331
 8332SOL    HW136629   4.443   1.929  14.700 -1.3684 -1.0077  0.7246
 8332SOL    HW236630   4.426   2.006  14.578  1.0277  0.0511  1.3240
 8333SOL     OW36631   2.065   1.663   5.057  0.4161 -0.4134  0.4728
 8333SOL    HW136632   2.109   1.686   5.139 -1.2314  1.0827  0.9583
 8333SOL    HW236633   2.096   1.737   5.005 -0.6013  1.1339  2.0419
 8334SOL     OW36634   0.474   4.707   7.397 -0.0184  0.3948  0.4824
 8334SOL    HW136635   0.417   0.004   7.329  0.2567 -0.6257 -0.2565
 8334SOL    HW236636   0.405   4.702   7.463  0.0996  2.1495  0.7370
 8335SOL     OW36637   0.428   1.733   8.113 -0.2417 -0.3191  0.2263
 8335SOL    HW136638   0.460   1.817   8.079 -0.4856  0.1777  1.2446
 8335SOL    HW236639   0.484   1.678   8.058 -1.0439  0.7943 -1.7257
 8336SOL     OW36640   3.181   1.015   8.070  0.2487 -0.3565 -0.4459
 8336SOL    HW136641   3.254   1.024   8.131  0.8589 -1.4841 -0.9954
 8336SOL    HW236642   3.139   1.100   8.082 -0.9419 -1.1867  1.3366
 8337SOL     OW36643   0.346   0.309   3.077  0.0294  0.7163 -0.0415
 8337SOL    HW136644   0.316   0.222   3.051 -0.3029  0.2341  1.9600
 8337SOL    HW236645   0.280   0.368   3.041  0.3553  0.0450 -1.7835
 8338SOL     OW36646   0.231   4.636   7.870  0.1616  0.6426 -0.1304
 8338SOL    HW136647   0.172   4.583   7.817 -1.6902 -0.6605  3.2666
 8338SOL    HW236648   0.190   4.722   7.858  0.5492  0.8176 -0.2209
 8339SOL     OW36649   0.553   1.411   6.728 -0.3627 -0.4782  0.1905
 8339SOL    HW136650   0.547   1.315   6.732 -1.9777 -0.4407 -1.2056
 8339SOL    HW236651   0.586   1.427   6.816 -1.3532 -0.7433  0.6083
 8340SOL     OW36652   2.598   2.324   8.224 -0.5262  0.0574  0.1096
 8340SOL    HW136653   2.509   2.293   8.208  0.4884 -1.3151 -3.0181
 8340SOL    HW236654   2.589   2.401   8.280 -2.2288  1.1486 -1.6595
 8341SOL     OW36655   2.514   0.444   2.023  0.0767 -0.0400 -0.4653
 8341SOL    HW136656   2.591   0.446   1.967  1.1799  0.6092  1.0711
 8341SOL    HW236657   2.441   0.453   1.962 -0.2572 -0.7082 -0.1658
 8342SOL     OW36658   4.692   1.536   1.443 -0.4625  0.1709  0.2466
 8342SOL    HW136659   4.699   1.461   1.502 -2.4135  0.6970  1.1403
 8342SOL    HW236660   4.656   1.603   1.501  1.0372  1.1678  0.0488
 8343SOL     OW36661   0.344   0.271  10.199  0.2848 -0.2089 -0.0894
 8343SOL    HW136662   0.404   0.342  10.223  0.5059 -0.6502  0.6770
 8343SOL    HW236663   0.381   0.203  10.255  0.1880  0.3408  0.6467
 8344SOL     OW36664   1.196   0.398   6.004  0.2843 -0.6067  0.0490
 8344SOL    HW136665   1.200   0.410   6.099 -1.7132  0.1638  0.0239
 8344SOL    HW236666   1.278   0.441   5.981 -0.8990  2.1737  1.1197
 8345SOL     OW36667   4.675   1.302   2.559  0.0457 -0.2304 -0.4968
 8345SOL    HW136668   4.680   1.230   2.622 -0.7666 -0.8897 -1.1747
 8345SOL    HW236669   4.719   1.368   2.611  1.3222 -2.5008  1.2661
 8346SOL     OW36670   0.443   0.265   8.604  0.6341 -0.2407 -0.0938
 8346SOL    HW136671   0.355   0.293   8.580  0.4981  0.8495  1.6397
 8346SOL    HW236672   0.481   0.283   8.518 -0.3709 -3.0959 -1.1578
 8347SOL     OW36673   0.886   2.894   2.942 -0.2768  0.2561 -0.2288
 8347SOL    HW136674   0.839   2.845   3.010 -1.5023  1.6506 -0.0777
 8347SOL    HW236675   0.826   2.942   2.885  2.5444  4.0946  0.0328
 8348SOL     OW36676   3.900   4.323   2.066 -0.1617 -0.7657  0.4309
 8348SOL    HW136677   3.930   4.234   2.051 -2.4714 -1.7641  1.7353
 8348SOL    HW236678   3.887   4.323   2.161  0.3467 -0.8861  0.5012
 8349SOL     OW36679   0.233   4.119   6.170  0.2708 -0.5402  0.1884
 8349SOL    HW136680   0.194   4.183   6.110 -0.0183 -0.6615  0.2490
 8349SOL    HW236681   0.264   4.054   6.106 -2.2758  0.1440 -1.7061
 8350SOL     OW36682   3.342   0.308  10.113  0.0196 -0.2024 -1.1313
 8350SOL    HW136683   3.334   0.360  10.033  0.0922 -0.2703 -1.1841
 8350SOL    HW236684   3.434   0.326  10.133  0.0863  0.1209 -1.7062
 8351SOL     OW36685   2.839   1.907   2.260 -0.3145  0.4599  0.2202
 8351SOL    HW136686   2.903   1.836   2.271 -2.8788 -1.4110  2.9926
 8351SOL    HW236687   2.763   1.876   2.308  0.3473 -0.3636  0.7501
 8352SOL     OW36688   4.228   1.912   1.827  0.0757  0.3042 -0.5067
 8352SOL    HW136689   4.284   1.957   1.891 -2.0620  0.7639  1.0626
 8352SOL    HW236690   4.177   1.984   1.790  1.8239  1.0256 -1.5058
 8353SOL     OW36691   4.368   3.634   5.667  0.3403  0.4909  0.2009
 8353SOL    HW136692   4.302   3.693   5.704 -0.1649  0.7907 -1.1731
 8353SOL    HW236693   4.399   3.683   5.591  0.0216  0.9394  0.3620
 8354SOL     OW36694   0.126   0.325   9.527 -0.0866  0.1646  0.2687
 8354SOL    HW136695   0.148   0.346   9.619 -1.1891  0.6149  0.4238
 8354SOL    HW236696   0.031   0.320   9.517  0.0758 -2.0494 -0.1270
 8355SOL     OW36697   0.523   1.662   1.678 -0.1134 -0.0105  0.1884
 8355SOL    HW136698   0.463   1.608   1.730  0.9815  0.2216  1.7081
 8355SOL    HW236699   0.483   1.668   1.592  2.9141 -0.5627 -1.2486
 8356SOL     OW36700   0.811   4.244   4.862 -0.6359  0.2830  0.1145
 8356SOL    HW136701   0.773   4.227   4.948 -0.9843  1.6386  0.2241
 8356SOL    HW236702   0.760   4.183   4.809 -0.6086  0.2923  0.0777
 8357SOL     OW36703   2.457   0.684   5.500  0.0268  0.1744 -0.2833
 8357SOL    HW136704   2.490   0.736   5.427 -1.0927  3.5716  1.6063
 8357SOL    HW236705   2.394   0.750   5.529  0.5547  0.2174  0.7871
 8358SOL     OW36706   1.818   0.574   7.544  0.1821 -0.3875 -0.3798
 8358SOL    HW136707   1.852   0.486   7.527  0.3579 -0.4446  0.2743
 8358SOL    HW236708   1.826   0.607   7.454 -1.0889 -2.6872 -1.3412
 8359SOL     OW36709   1.713   2.187   5.059 -0.4709  0.5586  0.0029
 8359SOL    HW136710   1.642   2.161   5.000 -0.7799  2.1120 -0.2997
 8359SOL    HW236711   1.657   2.196   5.136  2.5388  1.5347  2.0765
 8360SOL     OW36712   1.729   4.701   7.701 -0.3221  0.3061  0.2406
 8360SOL    HW136713   1.644   4.681   7.663 -0.5425  0.6087  0.5824
 8360SOL    HW236714   1.717   4.680   7.794  0.4339  0.9774  0.4957
 8361SOL     OW36715   0.877   2.246   3.604 -0.5478  0.7716  0.7353
 8361SOL    HW136716   0.905   2.155   3.614 -0.4081  0.6711 -0.5481
 8361SOL    HW236717   0.851   2.272   3.692 -1.9996  0.4658  0.4062
 8362SOL     OW36718   0.344   2.986   8.142 -0.5588 -0.2616 -0.0929
 8362SOL    HW136719   0.290   2.943   8.208 -1.7975  2.0269  0.4080
 8362SOL    HW236720   0.316   2.936   8.066 -0.7790 -0.3752  0.0643
 8363SOL     OW36721   2.715   3.954   6.974  0.7600 -0.0395 -0.1229
 8363SOL    HW136722   2.708   3.963   7.069 -0.0662  1.0354 -0.2855
 8363SOL    HW236723   2.669   3.872   6.955  0.2256  0.1956  0.1578
 8364SOL     OW36724   2.024   1.835   0.564 -0.4092  0.0830  0.4086
 8364SOL    HW136725   1.930   1.822   0.551 -0.8550 -1.5212  5.1575
 8364SOL    HW236726   2.041   1.882   0.482  2.0168 -1.2163  0.1633
 8365SOL     OW36727   0.375   4.464  10.343 -0.0961 -0.0759 -0.1397
 8365SOL    HW136728   0.384   4.369  10.333  0.4493 -0.0190 -0.2096
 8365SOL    HW236729   0.308   4.475  10.410  0.0598  0.6081 -0.1038
 8366SOL     OW36730   3.050   0.564   6.469 -0.1102  0.3571 -0.5084
 8366SOL    HW136731   3.029   0.647   6.427 -0.4109  2.5949  4.0148
 8366SOL    HW236732   3.138   0.583   6.501 -0.0805 -1.8668  0.7694
 8367SOL     OW36733   0.997   3.375   7.504 -0.1974 -0.4294  0.2119
 8367SOL    HW136734   1.059   3.385   7.576 -0.2335  1.0074  0.0583
 8367SOL    HW236735   1.062   3.342   7.442 -0.0527 -1.1414  0.7534
 8368SOL     OW36736   1.294   3.109   9.637  0.3646  1.0378  0.1425
 8368SOL    HW136737   1.331   3.098   9.549 -0.5571 -3.9402  0.3959
 8368SOL    HW236738   1.274   3.202   9.637 -3.5699  0.2040  0.7590
 8369SOL     OW36739   4.101   2.418   2.392  0.3392 -0.4032 -0.5314
 8369SOL    HW136740   4.094   2.508   2.358 -0.3854  0.3952  1.7136
 8369SOL    HW236741   4.073   2.376   2.310  1.6396 -1.5055 -0.4076
 8370SOL     OW36742   0.324   4.629   2.397 -0.3308 -0.0688 -0.4027
 8370SOL    HW136743   0.393   4.664   2.454 -0.5053 -1.7412  0.8339
 8370SOL    HW236744   0.382   4.586   2.334  0.0592  0.2228 -0.2445
 8371SOL     OW36745   1.715   2.777   2.171 -0.0492  0.0738 -0.1192
 8371SOL    HW136746   1.735   2.710   2.237 -0.0499  1.7477  1.5530
 8371SOL    HW236747   1.802   2.772   2.131 -0.5267 -3.5793 -0.7691
 8372SOL     OW36748   3.601   3.559   3.945 -0.4003 -0.1135 -0.1654
 8372SOL    HW136749   3.650   3.503   3.884 -0.0439 -0.3074  0.3023
 8372SOL    HW236750   3.622   3.521   4.030 -1.2157  2.0539  0.9975
 8373SOL     OW36751   1.037   2.820   6.920  0.1092  0.4735 -0.2928
 8373SOL    HW136752   1.012   2.819   6.828 -0.0484 -0.6503 -0.2390
 8373SOL    HW236753   1.133   2.816   6.923  0.0713 -0.3316 -0.0830
 8374SOL     OW36754   2.974   1.474  15.674 -0.3513  0.4387 -0.1497
 8374SOL    HW136755   2.953   1.476  15.581  2.5236  0.4363 -0.7747
 8374SOL    HW236756   2.988   1.568  15.687  0.9154  0.2979 -0.5099
 8375SOL     OW36757   0.423   2.809  16.302 -0.2950  0.1726 -0.4483
 8375SOL    HW136758   0.429   2.896  16.263  1.0345  0.2483 -0.0897
 8375SOL    HW236759   0.507   2.798  16.348 -0.5178  0.3534  0.0060
 8376SOL     OW36760   1.242   4.240   8.435 -0.0686  0.1808  0.2826
 8376SOL    HW136761   1.268   4.332   8.433 -0.4578  0.2861  0.1418
 8376SOL    HW236762   1.147   4.241   8.449 -0.2992 -0.7657 -1.2168
 8377SOL     OW36763   2.632   4.139  13.180  0.8758 -0.2650  0.0006
 8377SOL    HW136764   2.697   4.075  13.150  1.1284 -0.3526  0.7396
 8377SOL    HW236765   2.674   4.169  13.260  0.0421  1.4321 -0.2129
 8378SOL     OW36766   0.037   2.816   5.741 -0.3365  0.1638  0.1522
 8378SOL    HW136767   0.036   2.911   5.752 -0.9301  0.4758 -2.7738
 8378SOL    HW236768   4.717   2.784   5.811  0.1954  1.3451  1.1225
 8379SOL     OW36769   4.127   0.874  12.238  0.5335 -0.0233  0.6833
 8379SOL    HW136770   4.104   0.956  12.282 -1.1214  0.9017 -1.9696
 8379SOL    HW236771   4.184   0.914  12.173  1.2741  1.1147  2.0241
 8380SOL     OW36772   4.607   0.338   2.894  0.3141 -0.0954  0.9408
 8380SOL    HW136773   4.559   0.257   2.880  0.2239  0.0853  0.2126
 8380SOL    HW236774   4.531   0.396   2.891  0.0500 -0.4616  0.3804
 8381SOL     OW36775   2.951   1.720   2.540 -0.2836  0.1558  0.2446
 8381SOL    HW136776   2.956   1.814   2.520  2.9691  0.3112  1.7076
 8381SOL    HW236777   2.861   1.703   2.567 -0.5033  1.3259  0.2396
 8382SOL     OW36778   2.259   0.850  16.483  0.8484  0.6357  0.2194
 8382SOL    HW136779   2.193   0.833  16.550  0.6875 -0.4166 -0.2056
 8382SOL    HW236780   2.303   0.928  16.516 -0.0221  0.8437  0.8713
 8383SOL     OW36781   3.633   1.532   8.072  0.3048  0.0121  0.1892
 8383SOL    HW136782   3.618   1.485   7.990 -1.5355 -1.9847  1.7015
 8383SOL    HW236783   3.550   1.529   8.120  0.2771  1.1165  0.2282
 8384SOL     OW36784   2.423   2.098   0.924 -0.4953  0.7006 -0.2460
 8384SOL    HW136785   2.350   2.061   0.974 -1.0839 -0.0839 -1.6896
 8384SOL    HW236786   2.405   2.063   0.837  0.6740  1.1243 -0.6621
 8385SOL     OW36787   2.862   2.889   7.266  0.4689  0.1894 -0.1361
 8385SOL    HW136788   2.783   2.928   7.303  0.8481 -1.3391  2.3137
 8385SOL    HW236789   2.841   2.856   7.179 -0.9191  0.4856  0.0854
 8386SOL     OW36790   0.724   4.525   9.262  0.1978  0.8141 -0.0649
 8386SOL    HW136791   0.722   4.439   9.219  0.1177  1.5759 -1.5865
 8386SOL    HW236792   0.815   4.551   9.249  1.4137 -2.5687  1.5047
 8387SOL     OW36793   0.631   4.049   8.839  0.7825  0.6152  0.3190
 8387SOL    HW136794   0.621   4.143   8.856 -0.7778  0.3592  0.8299
 8387SOL    HW236795   0.605   4.017   8.925  2.4969 -1.9286 -0.1270
 8388SOL     OW36796   0.743   1.378   7.823 -0.3720 -0.7103 -0.6280
 8388SOL    HW136797   0.718   1.293   7.860 -1.3628  0.7757  2.0858
 8388SOL    HW236798   0.831   1.360   7.790  0.1966 -1.8041  1.5034
 8389SOL     OW36799   2.512   1.785  15.932  0.0471  0.0718  0.4409
 8389SOL    HW136800   2.578   1.853  15.923  0.9651 -1.1421 -1.8365
 8389SOL    HW236801   2.550   1.718  15.876 -0.3527  0.0567  0.1887
 8390SOL     OW36802   0.535   2.588   5.514  0.4283 -0.0349  0.3369
 8390SOL    HW136803   0.578   2.627   5.438  3.5839 -2.0632  1.0669
 8390SOL    HW236804   0.527   2.660   5.577 -4.1307 -0.1493 -0.1757
 8391SOL     OW36805   1.372   2.909   4.543  0.2059 -0.2113 -0.5406
 8391SOL    HW136806   1.316   2.896   4.467 -0.5996 -0.4805  0.0990
 8391SOL    HW236807   1.393   2.822   4.578  1.9360  0.3725 -0.0845
 8392SOL     OW36808   2.156   0.922   5.370  0.0004 -0.3653  0.4938
 8392SOL    HW136809   2.148   0.924   5.466  0.7357  0.7485  0.5207
 8392SOL    HW236810   2.200   0.838   5.360  0.5191 -0.1738  1.1768
 8393SOL     OW36811   2.436   0.433   1.134 -0.0617  0.1163 -0.1451
 8393SOL    HW136812   2.401   0.457   1.049 -0.9986  0.7804  0.4219
 8393SOL    HW236813   2.380   0.357   1.150  1.6837 -0.9487  0.8873
 8394SOL     OW36814   1.119   2.624  13.594 -0.0339 -0.1443 -0.0965
 8394SOL    HW136815   1.103   2.559  13.663 -0.6492  0.0440 -0.0621
 8394SOL    HW236816   1.062   2.695  13.622  0.6221  0.0254  0.8150
 8395SOL     OW36817   1.231   3.100   2.959  0.0570 -0.3595  0.0201
 8395SOL    HW136818   1.297   3.031   2.953 -0.9199 -1.2264 -0.5482
 8395SOL    HW236819   1.275   3.165   2.904 -0.9616  0.2820 -0.0413
 8396SOL     OW36820   2.061   1.679  10.576 -0.0192 -0.4734 -0.0996
 8396SOL    HW136821   2.075   1.734  10.653 -0.6006  0.0175 -0.3416
 8396SOL    HW236822   2.052   1.588  10.603 -0.0107 -0.1520  0.9539
 8397SOL     OW36823   3.222   4.716   1.576  0.7117  0.0268 -0.6392
 8397SOL    HW136824   3.220   4.632   1.531  1.0647 -0.7682  0.8524
 8397SOL    HW236825   3.140   0.025   1.559  1.4149  1.1810 -0.8600
 8398SOL     OW36826   0.396   0.026  10.031 -0.1066 -0.2601  0.3459
 8398SOL    HW136827   0.452   0.099  10.006  0.0886 -0.7426 -0.6162
 8398SOL    HW236828   0.401   4.703   9.957  0.5431 -1.5280  1.4439
 8399SOL     OW36829   4.178   0.956   8.170  0.0893  0.1457  0.3175
 8399SOL    HW136830   4.171   1.028   8.232  1.0841  0.2803  0.2824
 8399SOL    HW236831   4.194   1.016   8.098  1.2887 -0.9868 -0.3651
 8400SOL     OW36832   3.542   2.270   9.946  0.5709  0.0457 -0.1427
 8400SOL    HW136833   3.476   2.244  10.009  0.6867  2.1642  0.8780
 8400SOL    HW236834   3.541   2.364   9.967  1.2882 -0.0269  0.2127
 8401SOL     OW36835   0.145   3.740   5.157  0.3791 -0.7308 -0.8101
 8401SOL    HW136836   0.235   3.743   5.122  0.5849  2.1460  0.0001
 8401SOL    HW236837   0.099   3.814   5.117 -0.1888 -0.7782 -0.2366
 8402SOL     OW36838   2.787   2.058  16.697 -0.0355  0.2010  0.1044
 8402SOL    HW136839   2.797   2.125  16.764  0.9223  1.0977 -0.9340
 8402SOL    HW236840   2.693   2.044  16.706 -0.1165  1.3545  1.0038
 8403SOL     OW36841   2.318   3.336   2.091  0.6354 -0.7320  0.2400
 8403SOL    HW136842   2.248   3.385   2.134  0.3937 -0.5940 -0.3144
 8403SOL    HW236843   2.286   3.246   2.082 -2.0248  0.3293 -0.9313
 8404SOL     OW36844   0.270   0.672   6.096  0.2816  0.1725 -0.3442
 8404SOL    HW136845   0.211   0.747   6.104  1.1528  0.6705  1.4398
 8404SOL    HW236846   0.350   0.717   6.126  0.0230 -0.9164  1.9709
 8405SOL     OW36847   3.269   4.297  17.437 -0.0226 -0.3174 -0.3990
 8405SOL    HW136848   3.297   4.342  17.517 -1.1555 -1.4051  0.6050
 8405SOL    HW236849   3.337   4.338  17.382  0.2855 -0.1630  0.0983
 8406SOL     OW36850   2.037   0.909   7.203  0.2683 -0.1580 -0.2790
 8406SOL    HW136851   1.993   0.861   7.133  0.1316 -2.2472  1.2223
 8406SOL    HW236852   2.062   0.827   7.245 -1.7178 -1.5303 -1.7682
 8407SOL     OW36853   0.450   1.417   5.503  0.5134  0.0820  0.4095
 8407SOL    HW136854   0.517   1.423   5.436 -0.7485 -0.8906 -0.9198
 8407SOL    HW236855   0.375   1.444   5.451  1.0586 -0.2904 -0.5711
 8408SOL     OW36856   0.827   3.260  14.728 -0.2123 -0.3088  0.0832
 8408SOL    HW136857   0.824   3.240  14.634 -0.1228 -1.1351  0.2610
 8408SOL    HW236858   0.840   3.355  14.728  2.0556 -0.6104  0.7514
 8409SOL     OW36859   1.908   1.064   8.284  0.6834 -0.2496 -0.1061
 8409SOL    HW136860   1.876   1.111   8.361 -0.0030 -0.3752 -0.3203
 8409SOL    HW236861   1.991   1.112   8.275 -1.1166  2.6992 -1.0325
 8410SOL     OW36862   3.048   3.050   8.776 -0.3256 -0.5696 -0.6495
 8410SOL    HW136863   3.016   3.090   8.857  0.5454 -1.9770  0.3852
 8410SOL    HW236864   2.997   3.096   8.709 -0.4961 -0.0657 -0.1784
 8411SOL     OW36865   3.285   0.647   4.065  0.3589  0.3232  0.1135
 8411SOL    HW136866   3.213   0.650   4.002 -1.0136 -0.2239  1.6533
 8411SOL    HW236867   3.302   0.554   4.078 -0.2350  0.3353  1.0107
 8412SOL     OW36868   4.088   4.634   7.076  0.8307 -0.1066 -0.2163
 8412SOL    HW136869   4.000   4.672   7.069  0.4033 -0.6193  2.2595
 8412SOL    HW236870   4.060   4.547   7.103  2.2240 -0.8297 -1.0930
 8413SOL     OW36871   0.810   1.021   9.544 -0.0689 -0.1863  0.0848
 8413SOL    HW136872   0.851   1.060   9.466 -0.5808  0.2120  0.0113
 8413SOL    HW236873   0.882   0.985   9.595 -0.4713 -1.0356  0.0497
 8414SOL     OW36874   1.475   0.959   3.109 -1.0436  0.2402  0.5724
 8414SOL    HW136875   1.528   1.025   3.152  0.1117 -0.5923  0.4363
 8414SOL    HW236876   1.389   1.002   3.108 -0.8506  0.5993 -1.7413
 8415SOL     OW36877   4.257   2.394   2.644  0.3524 -0.4300  0.6750
 8415SOL    HW136878   4.240   2.432   2.558  1.5304 -1.1700  0.1071
 8415SOL    HW236879   4.164   2.373   2.655 -0.0033  1.7154  1.8611
 8416SOL     OW36880   1.188   3.735   5.669 -0.1055  0.1368 -0.5102
 8416SOL    HW136881   1.233   3.716   5.587 -0.6936 -0.9441 -0.5752
 8416SOL    HW236882   1.105   3.688   5.658 -0.8170  1.2420  0.0949
 8417SOL     OW36883   1.969   3.787   0.501 -0.4927 -0.9547 -0.1120
 8417SOL    HW136884   2.039   3.780   0.436  0.7776  1.6438  0.9650
 8417SOL    HW236885   1.924   3.870   0.485  1.7215  0.8162  3.0701
 8418SOL     OW36886   2.275   2.748   1.752  0.1459  0.0383 -0.0738
 8418SOL    HW136887   2.332   2.769   1.826 -1.4923  0.1540  1.1341
 8418SOL    HW236888   2.276   2.653   1.762  1.3671  0.1338  0.8306
 8419SOL     OW36889   3.750   4.723   8.786  0.0010  0.0947  0.5439
 8419SOL    HW136890   3.672   4.681   8.824 -1.0437  3.0187  1.6575
 8419SOL    HW236891   3.823   4.686   8.835 -0.2124  1.7118  2.0575
 8420SOL     OW36892   4.185   3.007  11.040 -0.1201 -0.2967  0.2738
 8420SOL    HW136893   4.098   3.015  11.001 -1.4657 -3.1249  2.6305
 8420SOL    HW236894   4.218   2.920  11.015  2.3241 -0.7409  4.8995
 8421SOL     OW36895   3.145   1.534   1.737 -0.6990  0.7215  0.1641
 8421SOL    HW136896   3.133   1.539   1.832 -0.4588 -0.6926  0.2612
 8421SOL    HW236897   3.091   1.456   1.722  2.7322 -1.4389 -0.8911
 8422SOL     OW36898   4.327   1.816   5.410  0.1438  0.5652  0.0318
 8422SOL    HW136899   4.305   1.806   5.317  0.0994  1.5693 -0.0688
 8422SOL    HW236900   4.242   1.838   5.450  0.0281 -1.1188  0.6933
 8423SOL     OW36901   1.644   3.982   8.854  0.6716 -0.0284 -0.1817
 8423SOL    HW136902   1.602   4.065   8.874  1.3178  0.1739  0.3224
 8423SOL    HW236903   1.576   3.941   8.800 -1.3464  3.0757 -0.0013
 8424SOL     OW36904   1.549   1.744   5.975 -0.2927 -0.2732  0.5117
 8424SOL    HW136905   1.610   1.817   5.986 -0.1674  0.1566 -3.2466
 8424SOL    HW236906   1.465   1.791   5.970 -0.0071  0.3418  1.4109
 8425SOL     OW36907   4.008   1.082   3.827  0.5992 -0.9937  0.3041
 8425SOL    HW136908   4.045   0.994   3.825 -0.6334 -1.5432  1.3685
 8425SOL    HW236909   3.990   1.091   3.920  0.0390  0.7551  0.0226
 8426SOL     OW36910   3.140   1.718   8.556  0.4540 -0.2320 -0.1967
 8426SOL    HW136911   3.185   1.715   8.472  1.6741  1.0514  0.4109
 8426SOL    HW236912   3.051   1.748   8.536  0.8657  3.2690  3.1025
 8427SOL     OW36913   3.004   4.452   9.529  0.4766 -0.2130 -0.3012
 8427SOL    HW136914   3.087   4.463   9.483 -0.5665  1.1682 -1.8960
 8427SOL    HW236915   2.967   4.379   9.479  0.0962  0.2708 -0.7247
 8428SOL     OW36916   1.139   0.710   9.467 -0.0304 -0.0816 -0.0401
 8428SOL    HW136917   1.061   0.744   9.512 -0.8290  1.1329 -2.3799
 8428SOL    HW236918   1.189   0.786   9.496 -0.8032  1.3642 -2.5288
 8429SOL     OW36919   4.381   2.185   2.241  0.1614 -0.0646 -0.4251
 8429SOL    HW136920   4.380   2.271   2.200 -0.6240  1.0299  1.8951
 8429SOL    HW236921   4.467   2.175   2.283  1.0287  0.2982 -2.1128
 8430SOL     OW36922   0.193   1.268   6.211 -0.2125 -0.4237 -0.3989
 8430SOL    HW136923   0.286   1.271   6.233 -0.7544  0.4669  1.7160
 8430SOL    HW236924   0.167   1.290   6.300  1.3361  1.4021 -0.4022
 8431SOL     OW36925   4.315   4.474   7.339  0.3250 -0.1218  0.2545
 8431SOL    HW136926   4.292   4.386   7.311  0.3479  0.3940 -1.3606
 8431SOL    HW236927   4.388   4.493   7.280 -0.9879  0.1764 -1.2779
 8432SOL     OW36928   2.933   3.975  10.863  0.6341  0.4153  0.1060
 8432SOL    HW136929   2.930   4.059  10.816  0.0146  0.1032 -0.4247
 8432SOL    HW236930   2.911   4.011  10.949 -2.4385  1.1878 -0.9800
 8433SOL     OW36931   3.133   1.201  17.525  0.1071  0.0068  0.2575
 8433SOL    HW136932   3.063   1.248  17.571 -0.0366  0.0769 -0.0299
 8433SOL    HW236933   3.205   1.205  17.587 -2.1327  0.7923  2.8186
 8434SOL     OW36934   3.437   0.100   7.938 -0.4477 -0.0392 -0.1127
 8434SOL    HW136935   3.352   0.059   7.920 -0.9341 -0.0365  2.2096
 8434SOL    HW236936   3.451   0.047   8.017 -2.3537  0.6242  0.6676
 8435SOL     OW36937   3.804   2.236   2.536 -0.3738  0.0160  0.7289
 8435SOL    HW136938   3.733   2.177   2.559 -1.7608  1.9320  1.3282
 8435SOL    HW236939   3.874   2.176   2.511 -0.9620  0.4211 -1.9565
 8436SOL     OW36940   1.293   2.458  11.839 -0.0008 -0.1510  0.4226
 8436SOL    HW136941   1.281   2.547  11.806  0.2992  0.7316  2.6718
 8436SOL    HW236942   1.205   2.420  11.837 -0.5829  1.2309 -0.5410
 8437SOL     OW36943   3.426   0.177   5.660  0.2245 -0.1126  0.3056
 8437SOL    HW136944   3.374   0.179   5.740  1.1719  1.3479  0.8700
 8437SOL    HW236945   3.363   0.142   5.597  2.2420 -0.2491 -1.6347
 8438SOL     OW36946   0.440   0.931   3.785  0.5572  0.2187 -0.5944
 8438SOL    HW136947   0.505   0.991   3.750  0.9837 -0.0750 -0.3113
 8438SOL    HW236948   0.415   0.887   3.704 -0.5759  1.5847 -0.9802
 8439SOL     OW36949   3.527   3.682  16.205 -0.5307  0.0486  0.2314
 8439SOL    HW136950   3.527   3.681  16.300  1.7212  0.3241  0.2412
 8439SOL    HW236951   3.527   3.773  16.175  2.2834 -0.9206 -2.6708
 8440SOL     OW36952   2.767   4.596  13.521 -0.3396  0.4738  0.0455
 8440SOL    HW136953   2.753   4.670  13.580 -2.8627  1.5590 -1.9016
 8440SOL    HW236954   2.681   4.555  13.517  0.4111 -0.9602 -1.4533
 8441SOL     OW36955   3.324   1.963   6.590 -0.0729  0.0512  0.2442
 8441SOL    HW136956   3.414   1.952   6.620 -0.0024  0.6802  0.2690
 8441SOL    HW236957   3.285   1.880   6.620 -0.8808 -0.0911 -1.1884
 8442SOL     OW36958   0.934   2.814  15.504 -0.2809 -0.4070 -0.0308
 8442SOL    HW136959   0.930   2.901  15.545 -0.4846 -0.2580 -0.3656
 8442SOL    HW236960   1.025   2.791  15.522  0.3824  1.5938 -0.8750
 8443SOL     OW36961   0.115   1.219  13.257 -0.0785  0.1513  0.3990
 8443SOL    HW136962   0.063   1.231  13.336 -0.2397  1.9867  0.0119
 8443SOL    HW236963   0.126   1.123  13.254  1.6442  0.3917 -0.9419
 8444SOL     OW36964   3.436   1.252  17.267  0.2096 -0.0708  0.6182
 8444SOL    HW136965   3.365   1.316  17.258  0.4804 -0.0495 -1.3823
 8444SOL    HW236966   3.423   1.206  17.184 -2.2284 -1.0476  1.5457
 8445SOL     OW36967   3.946   0.275   7.716  0.5639 -0.2023  0.7848
 8445SOL    HW136968   4.018   0.249   7.659 -0.6782 -0.3044 -0.7409
 8445SOL    HW236969   3.884   0.221   7.667 -0.5581  0.6868  1.2318
 8446SOL     OW36970   4.116   0.663   7.162 -0.3710 -0.0280  0.1107
 8446SOL    HW136971   4.205   0.696   7.172 -0.4244 -0.1647  1.0603
 8446SOL    HW236972   4.070   0.742   7.190  0.8999  1.4252 -1.9280
 8447SOL     OW36973   3.317   2.910   7.762 -0.5814 -0.1886 -0.2934
 8447SOL    HW136974   3.352   2.897   7.850  2.2473 -0.5606 -1.4597
 8447SOL    HW236975   3.377   2.978   7.732  0.9555 -0.9875  0.9455
 8448SOL     OW36976   3.601   1.575  12.792 -0.0001 -0.1229  0.4161
 8448SOL    HW136977   3.669   1.522  12.752 -0.0453  0.0979  0.0445
 8448SOL    HW236978   3.655   1.646  12.828 -1.4932  0.3599  1.7162
 8449SOL     OW36979   4.306   2.929  11.775  0.1243  0.5536 -0.2850
 8449SOL    HW136980   4.269   2.993  11.715 -0.5149  0.7423  0.3118
 8449SOL    HW236981   4.279   2.965  11.860 -0.6857  1.8088 -1.0839
 8450SOL     OW36982   3.845   4.243  11.832 -0.5541 -0.1332 -0.3372
 8450SOL    HW136983   3.821   4.318  11.778 -2.1063  0.8667  1.7618
 8450SOL    HW236984   3.859   4.180  11.761 -2.0286  1.2536 -1.8459
 8451SOL     OW36985   2.516   0.044  14.883  0.4763 -0.6638  0.3253
 8451SOL    HW136986   2.500   4.688  14.897  3.7112 -0.7803  3.3855
 8451SOL    HW236987   2.444   0.070  14.825 -0.7812 -0.6310  1.8919
 8452SOL     OW36988   4.440   3.160   4.733  0.0910 -0.0671 -0.1462
 8452SOL    HW136989   4.383   3.083   4.741  1.2994 -0.9916 -0.4448
 8452SOL    HW236990   4.419   3.202   4.816 -1.2799 -0.0040 -0.5325
 8453SOL     OW36991   3.623   1.549  14.524  0.2432 -0.6330  0.1760
 8453SOL    HW136992   3.651   1.562  14.615  1.0327  1.5678 -0.3895
 8453SOL    HW236993   3.699   1.509  14.482  0.4215 -0.9906  0.8360
 8454SOL     OW36994   3.852   1.076  12.899 -0.5253 -0.8664  0.3196
 8454SOL    HW136995   3.945   1.056  12.900 -0.5322 -1.0310 -1.7274
 8454SOL    HW236996   3.843   1.152  12.957  2.2760 -0.6975  0.5455
 8455SOL     OW36997   3.630   3.408   6.515 -0.2189  0.0484  0.1807
 8455SOL    HW136998   3.705   3.468   6.522 -0.0457 -0.2164  0.6153
 8455SOL    HW236999   3.562   3.475   6.508 -0.0098  0.4475  1.7550
 8456SOL     OW37000   4.052   0.597   3.589  0.0487  0.4551 -0.4652
 8456SOL    HW137001   4.074   0.512   3.627 -1.0736  0.2797 -0.2322
 8456SOL    HW237002   3.984   0.618   3.653 -1.2289 -0.9063 -1.3671
 8457SOL     OW37003   1.989   4.350  15.967  0.0656 -0.1113  0.4663
 8457SOL    HW137004   1.984   4.445  15.971  2.1501 -0.0756  2.9147
 8457SOL    HW237005   2.048   4.335  15.893  0.6664 -0.7666  1.0648
 8458SOL     OW37006   3.660   0.250   4.471  0.5800  0.3121  0.1737
 8458SOL    HW137007   3.573   0.240   4.512  0.1196 -0.9479 -1.1171
 8458SOL    HW237008   3.713   0.229   4.548 -0.1033 -0.8316  0.3358
 8459SOL     OW37009   2.275   2.612   3.869 -0.4877 -0.6941  0.0155
 8459SOL    HW137010   2.196   2.589   3.821 -0.6590 -0.7590  0.3309
 8459SOL    HW237011   2.291   2.525   3.906  0.9857  0.3178  1.7582
 8460SOL     OW37012   4.491   0.197   7.922  0.0408  0.0246  0.5405
 8460SOL    HW137013   4.531   0.280   7.950 -1.1523  0.3152  1.3951
 8460SOL    HW237014   4.400   0.216   7.946  0.7191  2.8809  0.8666
 8461SOL     OW37015   2.775   3.722  14.569  0.8055 -0.2660  0.4141
 8461SOL    HW137016   2.695   3.763  14.603 -1.6533 -1.9707 -3.2872
 8461SOL    HW237017   2.817   3.802  14.537  2.1572 -1.1747 -0.0965
 8462SOL     OW37018   2.854   4.148   6.830 -0.5092 -0.1977 -0.0660
 8462SOL    HW137019   2.810   4.079   6.879 -1.1179 -0.6600 -1.2537
 8462SOL    HW237020   2.783   4.208   6.805 -0.4438  1.1854  3.0185
 8463SOL     OW37021   1.358   1.263  14.144  0.6332  0.2680  0.4108
 8463SOL    HW137022   1.282   1.320  14.157 -0.7375 -1.6046  0.5334
 8463SOL    HW237023   1.380   1.269  14.051 -1.9829 -0.2102 -0.2421
 8464SOL     OW37024   3.070   1.486   8.279  0.0460  0.2673  0.0509
 8464SOL    HW137025   3.117   1.450   8.204  0.6511 -1.9120  1.4576
 8464SOL    HW237026   3.138   1.472   8.345  0.3300 -0.6453 -0.4390
 8465SOL     OW37027   2.111   2.437   3.610  0.9267  0.0118  0.5725
 8465SOL    HW137028   2.143   2.374   3.675 -0.8806 -0.5707  0.8801
 8465SOL    HW237029   2.137   2.395   3.528  2.0039 -0.3462  1.0845
 8466SOL     OW37030   2.463   2.542   3.400  0.0347  0.3801  0.1054
 8466SOL    HW137031   2.378   2.548   3.357  0.9670  1.4537 -1.5777
 8466SOL    HW237032   2.524   2.535   3.327 -2.8861  1.4004 -2.4210
 8467SOL     OW37033   1.673   2.901   7.187 -0.0768 -0.8404  0.2859
 8467SOL    HW137034   1.670   2.967   7.117 -2.3570  0.2286  1.3910
 8467SOL    HW237035   1.672   2.818   7.140  1.6236  0.0428 -1.3371
 8468SOL     OW37036   1.020   2.423   5.700  0.6203 -0.5228 -0.5244
 8468SOL    HW137037   1.093   2.401   5.642  1.9154 -1.3043  1.4161
 8468SOL    HW237038   1.007   2.510   5.663  0.8842 -0.0948  0.3921
 8469SOL     OW37039   2.473   2.836   7.728 -0.1167 -0.3589  0.2718
 8469SOL    HW137040   2.522   2.902   7.778 -1.7464  1.2820 -0.3139
 8469SOL    HW237041   2.390   2.847   7.774 -1.1374  2.7020 -2.3393
 8470SOL     OW37042   4.489   1.851  13.573  0.3357 -0.3530  0.1152
 8470SOL    HW137043   4.537   1.856  13.490  1.6594  0.4816  0.9317
 8470SOL    HW237044   4.407   1.890  13.540  1.7786 -0.2379 -3.3695
 8471SOL     OW37045   0.704   0.521   5.215 -0.3772  0.2497 -0.4609
 8471SOL    HW137046   0.691   0.426   5.212 -2.3391  0.5531 -1.7088
 8471SOL    HW237047   0.627   0.549   5.164 -0.5236  0.1188 -0.3112
 8472SOL     OW37048   1.117   3.960   3.547  0.2062 -0.7425  0.2418
 8472SOL    HW137049   1.171   3.995   3.475  0.1307  0.6764  0.8780
 8472SOL    HW237050   1.039   4.006   3.516 -1.8651 -3.4200  1.4712
 8473SOL     OW37051   1.813   3.242   2.120  0.0199 -0.0209  0.4068
 8473SOL    HW137052   1.862   3.251   2.202  2.3306 -2.2626 -0.7177
 8473SOL    HW237053   1.724   3.246   2.154 -0.1261  0.5887 -0.0472
 8474SOL     OW37054   4.104   0.728  14.324 -0.1228 -0.0842  0.2219
 8474SOL    HW137055   4.119   0.753  14.415 -1.5256  0.7284  0.2366
 8474SOL    HW237056   4.043   0.796  14.293 -0.3312 -0.5339 -0.3563
 8475SOL     OW37057   0.075   3.420   2.146  0.6940 -0.2190  0.4511
 8475SOL    HW137058   0.019   3.450   2.075  1.2806  0.7761  0.4095
 8475SOL    HW237059   0.146   3.482   2.127 -0.4487  1.2221  0.9154
 8476SOL     OW37060   2.267   3.819   3.028  0.0785  0.1871  0.5180
 8476SOL    HW137061   2.188   3.827   2.976  1.1889  0.7635 -1.0826
 8476SOL    HW237062   2.253   3.739   3.078  2.4578 -2.1026 -2.4634
 8477SOL     OW37063   0.203   1.283   9.785 -0.1593 -0.0172 -0.0236
 8477SOL    HW137064   0.127   1.228   9.807  0.1308  0.3553  1.9402
 8477SOL    HW237065   0.225   1.268   9.693 -0.8519  0.0223 -0.1979
 8478SOL     OW37066   1.872   2.782  15.874  0.0303  0.1063 -0.3177
 8478SOL    HW137067   1.905   2.781  15.784 -0.9495  0.6467 -0.6835
 8478SOL    HW237068   1.911   2.859  15.916 -0.6683 -1.1575  2.7062
 8479SOL     OW37069   1.600   4.273   8.948  0.3490 -0.1181  0.0055
 8479SOL    HW137070   1.515   4.246   8.982  2.1964 -3.8831  1.5753
 8479SOL    HW237071   1.658   4.271   9.025 -0.2286 -2.0271  0.3766
 8480SOL     OW37072   4.722   1.115   3.323  0.2958 -0.6570  0.4718
 8480SOL    HW137073   4.671   1.053   3.374  0.1718 -1.0570 -0.1424
 8480SOL    HW237074   4.710   1.190   3.381 -1.6181  0.0769 -0.8894
 8481SOL     OW37075   4.143   0.207   4.040 -0.0100 -0.5984 -0.0356
 8481SOL    HW137076   4.083   0.133   4.026 -2.1406  1.2127 -0.5293
 8481SOL    HW237077   4.165   0.222   3.948 -1.4285  0.0664 -0.2656
 8482SOL     OW37078   0.745   4.130   5.105  0.0423  0.8059 -0.1171
 8482SOL    HW137079   0.747   4.208   5.162 -0.5643  0.0840  0.8921
 8482SOL    HW237080   0.692   4.072   5.160  1.0044 -0.9491 -1.0513
 8483SOL     OW37081   4.506   1.014   2.073 -0.5473 -0.0018 -0.0002
 8483SOL    HW137082   4.480   1.071   2.146  0.3569  1.1838 -0.5999
 8483SOL    HW237083   4.431   0.955   2.073 -0.4991 -0.0480 -1.3465
 8484SOL     OW37084   3.374   3.832   1.760  0.4277 -0.0247 -0.6589
 8484SOL    HW137085   3.352   3.768   1.693 -0.3495  0.6220 -1.0177
 8484SOL    HW237086   3.312   3.898   1.731 -0.6781 -0.6057  0.3772
 8485SOL     OW37087   0.393   2.691   4.604  0.2714  0.0798  0.0435
 8485SOL    HW137088   0.486   2.700   4.627 -0.1154  0.4675  1.4692
 8485SOL    HW237089   0.407   2.720   4.514  0.6801  1.4414  0.5464
 8486SOL     OW37090   1.107   4.123   0.266 -0.3102  0.0167  1.0642
 8486SOL    HW137091   1.028   4.150   0.220  0.2503 -0.3812 -0.1217
 8486SOL    HW237092   1.090   4.151   0.356 -1.5396  0.4723  0.6890
 8487SOL     OW37093   3.108   0.051  14.408  0.1708  0.1761  0.2320
 8487SOL    HW137094   3.107   0.098  14.325 -2.9678  1.6392  1.0945
 8487SOL    HW237095   3.020   0.056  14.445 -0.4602  3.0440 -1.6375
 8488SOL     OW37096   0.192   2.987   7.148  0.4213 -0.1805  0.1472
 8488SOL    HW137097   0.240   2.934   7.212  1.0536  0.5628  0.2815
 8488SOL    HW237098   0.130   3.030   7.207  0.2111  2.1577 -1.8122
 8489SOL     OW37099   2.605   3.897   3.583 -0.0142  0.5813 -0.9619
 8489SOL    HW137100   2.696   3.887   3.609 -0.3872  0.0298  0.1138
 8489SOL    HW237101   2.606   3.859   3.494 -1.6655 -1.9260  0.0768
 8490SOL     OW37102   3.081   3.358   5.021  0.4769  0.3665 -0.2036
 8490SOL    HW137103   3.027   3.384   4.946 -0.2405 -2.2070 -0.5862
 8490SOL    HW237104   3.172   3.371   4.995  0.6775 -0.0555  0.2765
 8491SOL     OW37105   1.756   2.648   8.832  0.6822  0.5761  0.2595
 8491SOL    HW137106   1.750   2.744   8.826 -0.8058  0.4406 -0.3763
 8491SOL    HW237107   1.834   2.637   8.888  0.5682  0.7281  0.4505
 8492SOL     OW37108   3.123   3.613  10.315 -0.1241 -0.1427 -0.2146
 8492SOL    HW137109   3.215   3.631  10.331  0.3593 -1.8302 -1.0593
 8492SOL    HW237110   3.115   3.532  10.365 -1.8131 -0.9887 -1.8713
 8493SOL     OW37111   2.772   3.135   8.096  0.0794  0.0400 -0.3283
 8493SOL    HW137112   2.760   3.219   8.052 -1.7601 -0.5345 -0.9212
 8493SOL    HW237113   2.834   3.166   8.163 -2.3720 -0.6880  2.2874
 8494SOL     OW37114   3.907   4.128   9.072  0.5961 -0.3130 -0.1396
 8494SOL    HW137115   4.000   4.143   9.091  0.7697 -1.4406 -0.1121
 8494SOL    HW237116   3.884   4.058   9.133  1.7895 -0.5588  0.0336
 8495SOL     OW37117   0.042   3.742  11.043  0.2325 -0.3196 -0.1714
 8495SOL    HW137118   4.697   3.715  11.083  0.8725  1.0466  2.0717
 8495SOL    HW237119   0.081   3.656  11.026 -0.5848 -0.9756  1.2725
 8496SOL     OW37120   1.272   2.142   0.496  0.3182  0.0702 -0.2393
 8496SOL    HW137121   1.198   2.126   0.554  0.1275 -0.4916 -0.6394
 8496SOL    HW237122   1.322   2.211   0.541 -1.8968 -0.5811  3.2360
 8497SOL     OW37123   2.375   3.658   6.419  0.4225  0.0037  0.7269
 8497SOL    HW137124   2.334   3.743   6.405 -0.3368 -0.3478  0.7834
 8497SOL    HW237125   2.309   3.593   6.393  1.0835 -1.3665  2.4554
 8498SOL     OW37126   1.201   2.787   3.431  0.0662 -0.0878  0.4895
 8498SOL    HW137127   1.130   2.821   3.377 -1.3401 -0.8980  1.8190
 8498SOL    HW237128   1.194   2.692   3.433  0.6996 -0.1362  0.6875
 8499SOL     OW37129   4.401   1.667   3.452  0.4227  0.6657 -0.0634
 8499SOL    HW137130   4.364   1.592   3.499 -1.2876  0.8855 -1.0429
 8499SOL    HW237131   4.370   1.739   3.507  1.9733  2.8845 -2.1235
 8500SOL     OW37132   0.308   0.241   6.642  0.2927 -0.0807 -0.4475
 8500SOL    HW137133   0.330   0.164   6.693 -0.1076  0.1408  0.0629
 8500SOL    HW237134   0.250   0.295   6.696 -1.7337 -1.5978 -1.0917
 8501SOL     OW37135   0.973   0.392   5.044  0.4026  0.2381  0.1136
 8501SOL    HW137136   1.026   0.472   5.047  1.9724 -0.8658  1.4014
 8501SOL    HW237137   0.965   0.371   4.951 -1.9752 -1.9624  0.8219
 8502SOL     OW37138   1.371   2.339   0.680 -0.4301  0.1148  0.8190
 8502SOL    HW137139   1.358   2.420   0.630 -1.7533  1.0380  2.6515
 8502SOL    HW237140   1.458   2.355   0.717  0.5847  0.0439 -1.5434
 8503SOL     OW37141   4.630   4.237   8.614 -0.8652  0.4149 -0.0330
 8503SOL    HW137142   4.667   4.310   8.564  0.5986  0.7308  1.5114
 8503SOL    HW237143   4.613   4.289   8.693 -0.2676 -1.8132  1.5740
 8504SOL     OW37144   1.959   2.126  15.263 -0.8442 -0.1556  0.0324
 8504SOL    HW137145   2.049   2.094  15.252 -0.4932  0.9384 -0.3050
 8504SOL    HW237146   1.966   2.215  15.230  0.0264  0.8346  2.8934
 8505SOL     OW37147   1.087   1.890   0.452 -0.0984 -0.2749 -0.4412
 8505SOL    HW137148   1.136   1.931   0.380 -2.6897  1.0637 -1.4488
 8505SOL    HW237149   1.064   1.968   0.502 -1.3257  0.1279 -1.6286
 8506SOL     OW37150   0.980   4.410   4.011  0.1814 -0.0180  0.2805
 8506SOL    HW137151   1.036   4.487   4.020  0.2683  0.2777 -2.8041
 8506SOL    HW237152   1.027   4.355   3.948  0.4427  2.3291 -1.6175
 8507SOL     OW37153   0.843   3.955   4.940 -0.5340  0.3141 -0.3234
 8507SOL    HW137154   0.822   4.007   5.018  0.2259 -0.7013  0.5676
 8507SOL    HW237155   0.903   4.009   4.889 -0.4275  0.1015 -0.4244
 8508SOL     OW37156   3.104   1.031   1.221 -0.2243 -0.0734 -0.2033
 8508SOL    HW137157   3.080   0.946   1.184 -1.5709 -0.3336  1.2757
 8508SOL    HW237158   3.095   1.080   1.139 -1.1027  2.4492  1.4059
 8509SOL     OW37159   3.755   3.841  16.563 -0.2815  0.2487  0.1378
 8509SOL    HW137160   3.777   3.806  16.649 -0.2340  0.6277  0.2774
 8509SOL    HW237161   3.835   3.839  16.511 -0.7048  1.2023 -0.5701
 8510SOL     OW37162   3.541   0.817  14.161  0.4021  0.4405 -0.3900
 8510SOL    HW137163   3.532   0.889  14.223  0.3592 -0.2971  0.4585
 8510SOL    HW237164   3.553   0.741  14.219 -0.7057  1.3115  0.9701
 8511SOL     OW37165   3.008   0.148  16.464 -0.0194  0.2065  0.3618
 8511SOL    HW137166   2.997   0.058  16.433  1.0928  0.2912 -0.2638
 8511SOL    HW237167   2.927   0.164  16.513 -0.0684  0.2195  0.2767
 8512SOL     OW37168   1.232   3.951   6.917 -0.4530  0.0640  0.0012
 8512SOL    HW137169   1.195   3.916   6.998 -0.4976  4.0326  1.6890
 8512SOL    HW237170   1.315   3.903   6.914  0.2562  1.2500  0.6409
 8513SOL     OW37171   1.046   2.720   4.003 -0.2076  0.0438  0.0052
 8513SOL    HW137172   1.064   2.813   3.995 -1.3826  0.1813 -1.0578
 8513SOL    HW237173   1.040   2.685   3.914  1.0208 -0.6410  0.1863
 8514SOL     OW37174   2.502   4.522   9.488  0.2190 -0.3876  0.4388
 8514SOL    HW137175   2.550   4.509   9.570 -0.0624 -1.3302  0.4529
 8514SOL    HW237176   2.418   4.528   9.534  0.1312 -2.4310  0.5214
 8515SOL     OW37177   3.241   0.929   4.659 -0.0560  0.0634 -0.4189
 8515SOL    HW137178   3.276   0.875   4.730 -0.2697 -0.5180 -0.7562
 8515SOL    HW237179   3.146   0.916   4.665  0.1299 -1.6218 -1.2183
 8516SOL     OW37180   1.752   0.936   3.539  0.4922  0.3398  0.0702
 8516SOL    HW137181   1.816   0.881   3.586 -2.0318 -1.7720  1.0434
 8516SOL    HW237182   1.677   0.917   3.595 -0.3487 -2.3792 -1.9542
 8517SOL     OW37183   4.578   4.075  13.737 -0.0417  0.6485  0.3376
 8517SOL    HW137184   4.557   4.084  13.830  1.8460  1.8482  0.6426
 8517SOL    HW237185   4.584   3.979  13.737  0.3810  0.6828  1.5260
 8518SOL     OW37186   2.937   0.499  15.264  0.0331  1.0182  0.0531
 8518SOL    HW137187   2.896   0.421  15.227  2.6477 -1.1250  1.6388
 8518SOL    HW237188   2.980   0.539  15.188  0.3981 -0.7930 -0.6893
 8519SOL     OW37189   2.684   4.057   7.774  0.0444  0.1475 -0.0555
 8519SOL    HW137190   2.692   4.145   7.811  2.0557 -0.2697  0.5271
 8519SOL    HW237191   2.604   4.067   7.723  0.2651  0.5518 -0.3252
 8520SOL     OW37192   2.588   0.108  11.938  0.1645  0.1391  0.1091
 8520SOL    HW137193   2.622   0.024  11.906  0.4698  0.1341  0.4432
 8520SOL    HW237194   2.667   0.158  11.956 -1.6032  2.5590  1.0285
 8521SOL     OW37195   0.045   1.813   5.542 -0.1760 -0.3798  0.7450
 8521SOL    HW137196   4.694   1.777   5.534  0.6058 -2.1020 -0.3009
 8521SOL    HW237197   0.037   1.899   5.584 -1.0036  0.4362 -1.0688
 8522SOL     OW37198   0.175   4.070   2.569  0.3205  0.5398 -0.2069
 8522SOL    HW137199   0.189   3.991   2.620  1.6777  1.2084  0.4465
 8522SOL    HW237200   0.106   4.040   2.510  0.6738 -0.5703 -0.0409
 8523SOL     OW37201   0.071   2.600  11.419 -0.6143 -0.1005 -0.2012
 8523SOL    HW137202   0.077   2.539  11.492 -2.1148 -0.8092 -0.6617
 8523SOL    HW237203   0.134   2.664  11.453 -0.4160  1.7066 -3.8926
 8524SOL     OW37204   3.117   1.353   9.851  0.7234  0.1322 -0.9658
 8524SOL    HW137205   3.175   1.428   9.847  1.1807 -0.2938 -2.5085
 8524SOL    HW237206   3.062   1.383   9.778  1.6288  2.7470 -0.5434
 8525SOL     OW37207   2.084   2.113   9.159 -0.4853 -0.2416  0.0741
 8525SOL    HW137208   2.174   2.091   9.133 -0.5812  0.0283 -0.4981
 8525SOL    HW237209   2.047   2.165   9.088 -0.2738  4.0433  3.1097
 8526SOL     OW37210   3.189   4.022   6.306  0.4355  0.3153  1.0128
 8526SOL    HW137211   3.158   3.937   6.274 -1.2770  1.5778 -0.6259
 8526SOL    HW237212   3.229   4.058   6.227 -2.1161  0.7689 -0.0497
 8527SOL     OW37213   1.063   3.372  12.017  0.1269 -0.0646  0.8888
 8527SOL    HW137214   1.135   3.338  11.963 -0.5441  0.4050 -0.3037
 8527SOL    HW237215   1.086   3.465  12.021  0.9055 -0.3007  1.9049
 8528SOL     OW37216   1.819   1.494  15.519  0.3033 -0.2895  0.2381
 8528SOL    HW137217   1.752   1.497  15.588  1.4259 -1.3599  1.3661
 8528SOL    HW237218   1.884   1.544  15.568  0.0127  1.2065 -0.8764
 8529SOL     OW37219   3.381   1.182  16.677  0.2262  0.5030  0.2687
 8529SOL    HW137220   3.429   1.247  16.730 -0.7074  0.6040  0.9983
 8529SOL    HW237221   3.437   1.105  16.689 -0.2141  0.0569 -0.6018
 8530SOL     OW37222   0.876   3.138   5.136  0.4484 -0.3217  0.4154
 8530SOL    HW137223   0.892   3.053   5.176  1.1483 -0.6792 -0.6250
 8530SOL    HW237224   0.951   3.187   5.169  0.8424  0.2473 -1.3123
 8531SOL     OW37225   0.739   2.377   0.821 -0.3577 -0.3192 -0.0069
 8531SOL    HW137226   0.805   2.323   0.865 -2.3250 -2.9423 -0.2248
 8531SOL    HW237227   0.744   2.462   0.864 -0.7643 -0.5406  0.4839
 8532SOL     OW37228   1.556   2.669   4.478 -0.7362  0.8638 -0.4326
 8532SOL    HW137229   1.643   2.630   4.482 -0.5922  1.3594  1.2079
 8532SOL    HW237230   1.566   2.724   4.400  0.1776  0.4925 -0.5760
 8533SOL     OW37231   0.865   1.235   7.581  0.0238  0.2865 -0.1526
 8533SOL    HW137232   0.819   1.151   7.576 -1.4498  1.1191 -0.3475
 8533SOL    HW237233   0.956   1.205   7.585  0.2044  0.6797 -1.2447
 8534SOL     OW37234   1.544   2.148   3.455 -0.0390  0.7438  0.4527
 8534SOL    HW137235   1.468   2.203   3.439  0.0603  0.3081 -1.5059
 8534SOL    HW237236   1.575   2.197   3.531  1.9429 -2.5504  1.7784
 8535SOL     OW37237   0.735   4.727   6.390 -0.5115 -0.4495  0.7220
 8535SOL    HW137238   0.823   4.708   6.421  0.0020  0.0464 -0.4199
 8535SOL    HW237239   0.748   4.728   6.295 -2.1079 -1.9199  0.4957
 8536SOL     OW37240   1.694   1.107   4.122  0.2144 -0.0696 -0.4597
 8536SOL    HW137241   1.760   1.175   4.136  0.4284 -0.2581 -0.5525
 8536SOL    HW237242   1.741   1.027   4.143  1.8838  0.9856 -0.1859
 8537SOL     OW37243   2.024   3.837   4.506  0.0799  0.5586  0.1480
 8537SOL    HW137244   2.098   3.859   4.562 -0.9237  2.0334  0.8723
 8537SOL    HW237245   2.002   3.751   4.541  1.3961  1.0141  2.0712
 8538SOL     OW37246   2.125   2.498  16.386 -0.0459  0.6437  0.0321
 8538SOL    HW137247   2.137   2.593  16.393 -0.4912  0.7625 -0.8567
 8538SOL    HW237248   2.204   2.482  16.335 -0.6904 -1.1322 -0.4285
 8539SOL     OW37249   3.705   2.813   4.706 -0.0268 -0.5425  0.2140
 8539SOL    HW137250   3.612   2.804   4.684 -0.2940  1.6913  0.4451
 8539SOL    HW237251   3.694   2.882   4.771  2.5408  1.2186 -1.2204
 8540SOL     OW37252   2.382   0.549  17.638 -0.2499  0.7607 -0.1828
 8540SOL    HW137253   2.319   0.615  17.610  0.1353  1.1620 -0.1021
 8540SOL    HW237254   2.408   0.580  17.725  1.0664 -0.1554 -0.2434
 8541SOL     OW37255   2.202   2.079  16.627  0.5964  0.2641 -0.5184
 8541SOL    HW137256   2.211   2.171  16.655 -0.3285 -0.7376  3.1120
 8541SOL    HW237257   2.128   2.051  16.682  1.4431  0.7892  0.9017
 8542SOL     OW37258   0.218   0.208   2.142 -0.0644 -0.2843 -0.5891
 8542SOL    HW137259   0.281   0.274   2.114  0.7028 -1.0669 -0.6819
 8542SOL    HW237260   0.257   0.131   2.102  0.4650 -0.6205  0.5603
 8543SOL     OW37261   2.783   3.576  16.223  0.6595  0.0480 -0.1108
 8543SOL    HW137262   2.812   3.538  16.306  0.7599  1.7875  0.6619
 8543SOL    HW237263   2.703   3.623  16.249 -0.3144 -0.6738 -1.8213
 8544SOL     OW37264   4.326   4.002  10.198 -0.4967 -0.2593  0.5228
 8544SOL    HW137265   4.299   4.094  10.199  0.5979  0.0906 -0.8643
 8544SOL    HW237266   4.415   4.007  10.233 -0.1143  0.7706 -0.5838
 8545SOL     OW37267   0.867   3.334  17.145 -0.5781  0.1018 -0.0506
 8545SOL    HW137268   0.776   3.340  17.174  0.1125 -1.2739  2.3862
 8545SOL    HW237269   0.919   3.327  17.226 -0.1917 -1.0660 -0.4070
 8546SOL     OW37270   2.882   2.173   9.633  0.1956  0.1062  0.4879
 8546SOL    HW137271   2.835   2.144   9.554 -1.9324 -1.0665  2.2085
 8546SOL    HW237272   2.963   2.123   9.617  0.1151 -0.3534  1.5256
 8547SOL     OW37273   2.938   0.196   5.343  0.1575 -0.1869  0.4788
 8547SOL    HW137274   2.860   0.234   5.303  1.6806  1.4480 -0.9310
 8547SOL    HW237275   3.007   0.248   5.301 -0.7544  0.8496  0.2395
 8548SOL     OW37276   2.097   1.781   3.054  0.4184 -0.4087  0.0854
 8548SOL    HW137277   2.002   1.792   3.065 -0.0060 -2.0275 -2.0003
 8548SOL    HW237278   2.104   1.691   3.023 -2.4745 -0.6175  0.0200
 8549SOL     OW37279   0.110   3.027   3.714 -0.8207 -0.3699  0.1248
 8549SOL    HW137280   0.190   3.026   3.661  0.2393  1.0523  1.7273
 8549SOL    HW237281   0.106   2.937   3.746  0.2575 -0.3150  0.4266
 8550SOL     OW37282   0.835   3.367   4.122 -0.2041  0.1300  0.3320
 8550SOL    HW137283   0.836   3.390   4.029  2.4542 -1.8831 -0.1365
 8550SOL    HW237284   0.777   3.434   4.158 -0.3214  0.1805  0.0469
 8551SOL     OW37285   3.211   2.199   6.655 -0.5462  0.0411 -0.3032
 8551SOL    HW137286   3.290   2.246   6.629 -0.7672  0.5673 -0.0021
 8551SOL    HW237287   3.239   2.109   6.636  1.9339  0.9947 -1.2277
 8552SOL     OW37288   0.306   1.921   6.638  0.1678  0.0948  0.2241
 8552SOL    HW137289   0.326   1.827   6.643  1.8832  0.4609  0.3023
 8552SOL    HW237290   0.242   1.918   6.567 -0.5045  0.1136  0.8314
 8553SOL     OW37291   3.286   4.630   3.069  0.1359  0.2683  0.5730
 8553SOL    HW137292   3.250   4.568   3.132  0.1715  0.3030  0.6276
 8553SOL    HW237293   3.234   4.702   3.105 -1.5103 -0.0340 -1.2188
 8554SOL     OW37294   3.563   3.974   9.178 -0.0279 -0.7926  0.1295
 8554SOL    HW137295   3.607   3.972   9.093 -2.2456  2.2103 -1.0862
 8554SOL    HW237296   3.612   4.039   9.227 -2.2353 -1.2573  2.9492
 8555SOL     OW37297   0.564   4.600   4.739 -0.2535 -0.2005 -0.3209
 8555SOL    HW137298   0.605   4.514   4.745 -0.9908 -0.4321  1.5612
 8555SOL    HW237299   0.476   4.580   4.708 -1.5170  0.7809  2.6349
 8556SOL     OW37300   0.332   3.317   3.258 -0.1059  0.2539  1.0132
 8556SOL    HW137301   0.384   3.277   3.189 -0.1898  1.2200  0.3914
 8556SOL    HW237302   0.375   3.277   3.334  2.3856  3.0954  1.0708
 8557SOL     OW37303   2.622   3.333  16.699 -0.0343 -0.0869 -0.5425
 8557SOL    HW137304   2.581   3.419  16.706  1.5758  0.4468  2.6383
 8557SOL    HW237305   2.550   3.271  16.695  1.3385 -1.7353  0.5767
 8558SOL     OW37306   3.281   3.353   9.073  0.2100  0.2196 -0.5609
 8558SOL    HW137307   3.298   3.429   9.129 -2.0812 -1.1496  1.9967
 8558SOL    HW237308   3.263   3.387   8.985 -1.1366 -1.3235 -0.8808
 8559SOL     OW37309   0.024   0.391  14.615 -0.4598  0.1038  0.0306
 8559SOL    HW137310   0.103   0.346  14.588  0.8764  1.2598  1.9902
 8559SOL    HW237311   0.037   0.468  14.558  2.1499 -0.5009 -0.1969
 8560SOL     OW37312   0.213   1.322   6.764  0.0386  0.5049  0.1931
 8560SOL    HW137313   0.263   1.311   6.846  0.2165 -0.4772 -0.0545
 8560SOL    HW237314   0.273   1.299   6.693 -0.9728 -1.8262  0.1229
 8561SOL     OW37315   1.475   3.045   8.610  0.2166 -1.0681 -0.0307
 8561SOL    HW137316   1.502   3.096   8.686  1.2229 -0.6419 -0.6791
 8561SOL    HW237317   1.554   3.043   8.557  1.0434 -2.2837  1.2290
 8562SOL     OW37318   1.980   1.567   7.568  0.1413 -0.3019 -0.1040
 8562SOL    HW137319   2.007   1.648   7.610  0.2332 -0.5385  0.2889
 8562SOL    HW237320   2.036   1.558   7.491 -0.0023  0.9595 -0.3500
 8563SOL     OW37321   3.463   1.534  12.561  0.0960  0.1193  0.1245
 8563SOL    HW137322   3.441   1.624  12.536 -0.2626  0.0573  0.2249
 8563SOL    HW237323   3.493   1.555  12.649 -0.4786  1.3414  0.0316
 8564SOL     OW37324   4.305   3.615  12.773  0.2914 -0.0131 -0.2724
 8564SOL    HW137325   4.307   3.706  12.745  1.0703 -0.3184 -1.2088
 8564SOL    HW237326   4.237   3.580  12.715 -0.6511  1.3830 -0.0146
 8565SOL     OW37327   0.811   2.027   2.263  0.0963  0.0084  0.4344
 8565SOL    HW137328   0.805   2.046   2.357  1.6044 -0.1666  0.5652
 8565SOL    HW237329   0.891   2.077   2.248  1.2638 -1.8994  0.3545
 8566SOL     OW37330   2.061   2.766   6.476  0.6352 -0.1281 -0.5934
 8566SOL    HW137331   2.018   2.704   6.535  1.6477 -0.2250  0.0264
 8566SOL    HW237332   2.088   2.835   6.537  0.5276 -0.3253 -0.3202
 8567SOL     OW37333   0.873   4.311   5.275 -0.2946  0.1569 -0.4142
 8567SOL    HW137334   0.922   4.231   5.293  2.3887  2.5045  2.8066
 8567SOL    HW237335   0.948   4.365   5.299  0.3453  0.0572 -2.1852
 8568SOL     OW37336   0.471   4.179   8.294  0.1826  0.3540  1.0298
 8568SOL    HW137337   0.535   4.250   8.283  0.3092  0.4499  2.4190
 8568SOL    HW237338   0.415   4.231   8.351  1.4869  2.1177  0.7173
 8569SOL     OW37339   4.282   2.110   6.408 -0.0805 -0.0773  0.1673
 8569SOL    HW137340   4.207   2.166   6.427  0.3739  1.2780 -2.0312
 8569SOL    HW237341   4.260   2.077   6.321 -1.9711  0.4432  0.4509
 8570SOL     OW37342   2.873   0.951   5.919 -0.0720  0.3937  0.1626
 8570SOL    HW137343   2.964   0.922   5.922 -0.2924 -0.2201  1.2114
 8570SOL    HW237344   2.867   0.970   5.826  0.9895 -2.2275 -0.4430
 8571SOL     OW37345   3.245   0.685   6.602 -0.4201 -0.2629  0.1825
 8571SOL    HW137346   3.212   0.720   6.685 -0.9683  3.5967 -1.6740
 8571SOL    HW237347   3.336   0.716   6.597 -0.8566  0.9082 -0.4543
 8572SOL     OW37348   0.512   2.719   2.819 -0.3111  0.8435  0.4299
 8572SOL    HW137349   0.422   2.693   2.800  0.2674  0.6530 -1.9991
 8572SOL    HW237350   0.548   2.659   2.754 -0.6446 -1.0468  1.9781
 8573SOL     OW37351   2.124   0.162   8.660 -0.0644  0.0258 -0.1936
 8573SOL    HW137352   2.123   0.255   8.681  2.4625  0.1853 -0.8413
 8573SOL    HW237353   2.047   0.126   8.704 -0.5511 -0.1468 -1.1676
 8574SOL     OW37354   3.671   2.539   4.803 -0.0403 -0.1351 -0.3504
 8574SOL    HW137355   3.745   2.565   4.747 -0.3558 -1.9716 -1.5968
 8574SOL    HW237356   3.695   2.563   4.893 -0.5836  0.5723 -0.3908
 8575SOL     OW37357   0.362   0.078   9.541 -0.0392  0.2544 -0.4361
 8575SOL    HW137358   0.344   0.171   9.529 -0.0595  0.6712  2.7541
 8575SOL    HW237359   0.331   0.047   9.456 -0.0713  0.6308 -0.5587
 8576SOL     OW37360   2.827   0.737  16.933 -0.1335 -0.5697 -0.0043
 8576SOL    HW137361   2.769   0.737  17.008 -0.8463  3.9519 -0.5500
 8576SOL    HW237362   2.763   0.714  16.866  0.2463  2.1085 -1.2934
 8577SOL     OW37363   3.944   0.634   2.160  0.2906  0.4289  0.1805
 8577SOL    HW137364   3.868   0.674   2.203 -1.0595 -1.4182 -0.4488
 8577SOL    HW237365   3.892   0.591   2.092 -0.4898  0.2934  0.8527
 8578SOL     OW37366   0.446   3.592   2.914  0.4808  0.0704  0.2572
 8578SOL    HW137367   0.490   3.638   2.843  0.3842 -0.2125  0.0164
 8578SOL    HW237368   0.493   3.511   2.897  0.3751  0.1023 -0.1943
 8579SOL     OW37369   0.267   0.210   0.114  0.0873  0.1600 -0.0826
 8579SOL    HW137370   0.217   0.291   0.120  1.5074  0.9321  1.1263
 8579SOL    HW237371   0.331   0.227   0.184  1.7052  1.0711 -1.7873
 8580SOL     OW37372   4.415   2.691   8.368 -0.4616  0.3639 -0.0819
 8580SOL    HW137373   4.502   2.721   8.394 -0.3690  0.6028 -0.6649
 8580SOL    HW237374   4.399   2.721   8.278 -1.6808  0.1333  0.0604
 8581SOL     OW37375   1.200   3.058   5.535  0.6754  0.2903  0.0015
 8581SOL    HW137376   1.176   3.046   5.627  2.5963 -1.7472  0.2422
 8581SOL    HW237377   1.296   3.051   5.527  0.7021  1.3827 -0.6955
 8582SOL     OW37378   0.966   1.602   3.670 -0.3217  0.1029  0.0183
 8582SOL    HW137379   0.899   1.667   3.687 -1.2643 -0.6502 -0.8541
 8582SOL    HW237380   0.931   1.518   3.701  0.2301 -0.8259 -1.8714
 8583SOL     OW37381   4.482   2.297   1.448 -0.4770 -0.2180 -0.2827
 8583SOL    HW137382   4.408   2.334   1.400 -1.6688 -1.6024  0.5054
 8583SOL    HW237383   4.449   2.265   1.532  0.9056  0.3638  0.4870
 8584SOL     OW37384   4.326   3.545   5.256  0.7220  0.1030  0.1102
 8584SOL    HW137385   4.360   3.609   5.319  0.8319 -0.4638  0.6349
 8584SOL    HW237386   4.397   3.538   5.192 -0.8134  0.1179 -1.5940
 8585SOL     OW37387   2.610   3.864   4.342 -0.4060  0.0761  0.4786
 8585SOL    HW137388   2.705   3.855   4.347 -0.3886 -0.6467 -1.2346
 8585SOL    HW237389   2.586   3.936   4.283  2.1802  1.3841  1.0562
 8586SOL     OW37390   3.168   2.137   3.837  0.6902  0.2902 -0.3060
 8586SOL    HW137391   3.152   2.185   3.919  1.4344  0.4880 -0.2770
 8586SOL    HW237392   3.080   2.125   3.800  0.6150  0.3701 -0.1559
 8587SOL     OW37393   2.376   4.217  14.941 -0.4471 -0.4757  0.4702
 8587SOL    HW137394   2.313   4.288  14.932  2.1861  1.8499  0.3739
 8587SOL    HW237395   2.318   4.141  14.933 -0.4844 -0.2644 -1.2336
 8588SOL     OW37396   0.641   4.561  16.760 -0.2773 -0.2590  0.1590
 8588SOL    HW137397   0.673   4.508  16.687  1.8042  0.4811  0.5329
 8588SOL    HW237398   0.626   4.489  16.821  1.2884 -0.1226  0.7081
 8589SOL     OW37399   1.182   0.410   2.691  0.0479  0.3276 -0.1395
 8589SOL    HW137400   1.258   0.351   2.695 -1.6844 -2.1381 -3.2077
 8589SOL    HW237401   1.218   0.491   2.727  0.9247  0.4270 -1.2405
 8590SOL     OW37402   4.392   0.829   3.353  0.3474  0.2842  0.0441
 8590SOL    HW137403   4.318   0.853   3.409  0.3369  2.1374 -0.7510
 8590SOL    HW237404   4.405   0.741   3.387  2.4513  0.4151 -0.4201
 8591SOL     OW37405   2.504   4.278  10.182  0.2754  0.4055  0.3537
 8591SOL    HW137406   2.415   4.246  10.162 -0.4955  1.7474  1.6337
 8591SOL    HW237407   2.526   4.224  10.258  0.1703 -1.3335 -0.8397
 8592SOL     OW37408   4.619   2.434  15.996 -0.0054  0.7554 -0.5924
 8592SOL    HW137409   4.645   2.389  16.076 -0.5522  2.3001  0.4629
 8592SOL    HW237410   4.669   2.393  15.925 -0.8552  0.2649 -0.9036
 8593SOL     OW37411   0.318   1.618   5.810  0.0429 -0.2381  0.3901
 8593SOL    HW137412   0.359   1.556   5.871 -0.3908 -1.6219 -0.7415
 8593SOL    HW237413   0.232   1.622   5.852 -0.2094  2.1544 -0.3450
 8594SOL     OW37414   1.063   2.322   5.950 -0.1714  0.7190 -0.0989
 8594SOL    HW137415   1.057   2.392   5.884  0.3847 -0.5030 -1.4484
 8594SOL    HW237416   0.968   2.311   5.953 -0.1561  1.4002  2.9419
 8595SOL     OW37417   4.612   2.990   6.469  0.2072 -0.5597 -0.3590
 8595SOL    HW137418   4.518   2.978   6.457  0.4970 -0.2646 -2.9260
 8595SOL    HW237419   4.615   3.018   6.561 -0.4265  0.3760 -0.6206
 8596SOL     OW37420   3.353   1.726   8.076  0.3703 -0.2802  0.1682
 8596SOL    HW137421   3.384   1.678   8.152  0.5012 -1.0686 -0.3782
 8596SOL    HW237422   3.274   1.766   8.112  1.0155  0.1343  1.1152
 8597SOL     OW37423   2.667   2.265  13.337  0.0547 -0.1962 -0.4061
 8597SOL    HW137424   2.602   2.327  13.369 -0.5534  0.3925 -2.7780
 8597SOL    HW237425   2.729   2.330  13.303 -0.0334  0.0590 -0.0824
 8598SOL     OW37426   3.280   0.569   2.967 -0.5056 -0.0178  0.2425
 8598SOL    HW137427   3.296   0.513   3.043 -0.4667 -1.9972 -1.2315
 8598SOL    HW237428   3.353   0.543   2.910 -1.2506 -0.6317 -0.4261
 8599SOL     OW37429   3.026   3.094   2.657  0.6736  0.5093 -0.9696
 8599SOL    HW137430   3.084   3.108   2.582  2.0331 -0.6121 -0.1236
 8599SOL    HW237431   3.002   3.186   2.668  1.2740  0.5569 -0.0622
 8600SOL     OW37432   3.064   4.042  12.174  0.1470 -0.1790  0.4553
 8600SOL    HW137433   3.133   3.977  12.166  0.0411 -0.3608  1.0737
 8600SOL    HW237434   3.065   4.074  12.264 -0.7666  1.3804 -0.0870
 8601SOL     OW37435   0.028   3.673   8.276  0.3256 -0.9096  0.3738
 8601SOL    HW137436   4.682   3.633   8.252 -1.1199  2.1685  0.2991
 8601SOL    HW237437   0.032   3.737   8.205  0.2742 -0.5297  0.7066
 8602SOL     OW37438   4.412   4.032  12.420  0.0025  0.0809 -0.1980
 8602SOL    HW137439   4.386   4.078  12.340 -0.1949  0.4362  0.0710
 8602SOL    HW237440   4.493   4.080  12.437  0.0039 -0.1770  0.5306
 8603SOL     OW37441   4.603   1.160   3.013  0.1119 -0.1091  0.4868
 8603SOL    HW137442   4.636   1.250   3.012  1.5722 -0.6393  1.1006
 8603SOL    HW237443   4.541   1.157   3.085 -0.9717  0.8093 -0.4117
 8604SOL     OW37444   3.705   3.327   8.602  0.4143  0.2568  0.0898
 8604SOL    HW137445   3.715   3.333   8.507  1.1153  0.2358  0.1612
 8604SOL    HW237446   3.790   3.366   8.624 -0.1282  0.5644  1.6483
 8605SOL     OW37447   2.641   3.596   6.354  0.0969 -0.0446  0.4544
 8605SOL    HW137448   2.547   3.598   6.372 -0.2719 -2.4628 -1.2491
 8605SOL    HW237449   2.639   3.594   6.259 -0.9308 -0.1984  0.4775
 8606SOL     OW37450   2.713   4.106   2.800 -0.2553  0.2511 -0.3916
 8606SOL    HW137451   2.650   4.035   2.793 -0.3663  0.2904  0.2357
 8606SOL    HW237452   2.648   4.170   2.831  0.4954  1.0850 -0.5190
 8607SOL     OW37453   1.121   3.679   3.525 -0.5837 -0.5252 -0.3034
 8607SOL    HW137454   1.202   3.665   3.477 -1.2841  0.6836 -1.8279
 8607SOL    HW237455   1.114   3.774   3.532 -1.5864 -0.4215 -3.0203
 8608SOL     OW37456   3.201   0.701  14.788 -0.2262 -0.2017  0.6373
 8608SOL    HW137457   3.133   0.763  14.761  2.3413  2.1280 -0.4188
 8608SOL    HW237458   3.252   0.753  14.850  1.0711  0.2820 -0.8560
 8609SOL     OW37459   4.018   0.011   3.549 -0.3208  0.1626  0.4896
 8609SOL    HW137460   4.061   0.008   3.463  1.2962  0.9644  1.2731
 8609SOL    HW237461   4.024   4.654   3.564  0.8885  0.0360 -0.7830
 8610SOL     OW37462   3.610   0.096   6.336 -0.0533  0.4331  0.5458
 8610SOL    HW137463   3.641   0.021   6.386 -0.4059 -0.3328 -0.3714
 8610SOL    HW237464   3.662   0.170   6.365 -1.0780  1.2227  0.3563
 8611SOL     OW37465   1.881   0.016   6.551 -0.0040 -0.0938 -0.0960
 8611SOL    HW137466   1.862   0.102   6.514 -1.7876  1.2350  3.9650
 8611SOL    HW237467   1.919   0.051   6.631  0.3685 -0.7807  0.0285
 8612SOL     OW37468   3.777   0.358  17.276 -0.1042 -0.0385 -0.8566
 8612SOL    HW137469   3.802   0.266  17.291  2.7010  0.4782 -2.3679
 8612SOL    HW237470   3.815   0.407  17.350  0.2883 -0.0406 -1.0576
 8613SOL     OW37471   3.625   2.887   6.223  0.1585  0.0761  0.0316
 8613SOL    HW137472   3.564   2.839   6.279 -1.2117  0.1478 -1.4262
 8613SOL    HW237473   3.630   2.967   6.276 -3.4306  0.2882  0.0415
 8614SOL     OW37474   0.792   2.524   2.873  0.1112  0.2567  0.3140
 8614SOL    HW137475   0.883   2.553   2.883 -0.7151  2.8202  0.4482
 8614SOL    HW237476   0.775   2.565   2.788  0.8605  1.0877  0.5617
 8615SOL     OW37477   0.433   4.565  12.044 -0.2357 -0.2475  0.1049
 8615SOL    HW137478   0.483   4.504  12.098  0.6386  0.0188 -0.4155
 8615SOL    HW237479   0.472   4.648  12.069 -1.7395  0.7224 -0.7622
 8616SOL     OW37480   4.531   1.472   7.011  0.0858  0.3283 -0.3298
 8616SOL    HW137481   4.481   1.400   7.048  0.9397 -0.1591 -0.1210
 8616SOL    HW237482   4.555   1.418   6.936  0.3471  0.2616 -0.1973
 8617SOL     OW37483   3.731   0.609   6.458  0.3856 -0.1335  0.0044
 8617SOL    HW137484   3.767   0.698   6.454  1.3893 -0.6003 -1.4322
 8617SOL    HW237485   3.806   0.567   6.499 -0.7036 -2.1031 -0.0239
 8618SOL     OW37486   4.391   4.439  15.212 -0.0309  0.1879  0.2557
 8618SOL    HW137487   4.332   4.462  15.141 -0.3871 -0.0943  0.4577
 8618SOL    HW237488   4.346   4.361  15.245 -3.5422  1.1846 -2.1971
 8619SOL     OW37489   0.110   3.504  16.857  0.4349 -0.2818  0.4915
 8619SOL    HW137490   0.148   3.560  16.790  2.1781 -0.4409  1.3425
 8619SOL    HW237491   0.113   3.416  16.819 -0.5268 -0.6224  1.2069
 8620SOL     OW37492   1.665   2.115   8.234 -0.1917 -0.5746  0.5118
 8620SOL    HW137493   1.614   2.139   8.157 -2.6387 -1.2338  1.9214
 8620SOL    HW237494   1.618   2.035   8.260 -1.9842  0.4956  0.5376
 8621SOL     OW37495   0.407   4.464   4.948  0.3782 -0.1780  0.6388
 8621SOL    HW137496   0.386   4.553   4.921  3.0439  0.7064  1.4652
 8621SOL    HW237497   0.387   4.470   5.042  1.1628  1.4915  0.6972
 8622SOL     OW37498   0.821   1.273   2.601  0.0907  0.2940  0.0456
 8622SOL    HW137499   0.809   1.205   2.535 -0.5978  0.2611  0.1994
 8622SOL    HW237500   0.784   1.344   2.548  1.8259  0.7212 -0.5801
 8623SOL     OW37501   1.825   1.258   0.708 -0.0218  0.3390  0.1323
 8623SOL    HW137502   1.806   1.165   0.701 -0.5477  0.5283 -1.0308
 8623SOL    HW237503   1.919   1.250   0.692 -0.2094 -0.2978 -0.6407
 8624SOL     OW37504   2.933   1.781   7.952 -0.4624 -0.6722  0.4593
 8624SOL    HW137505   2.893   1.772   8.038 -3.2536  0.6728 -0.7174
 8624SOL    HW237506   2.891   1.718   7.895  0.8358 -1.3086  0.1944
 8625SOL     OW37507   0.356   2.727   5.165  0.5016 -0.0597 -0.2042
 8625SOL    HW137508   0.366   2.706   5.072  1.4896 -1.0265  0.1153
 8625SOL    HW237509   0.281   2.786   5.170  1.0671  0.6750 -0.2965
 8626SOL     OW37510   1.191   0.170  10.585  0.1049 -0.3375  0.3488
 8626SOL    HW137511   1.117   0.162  10.646  0.3201  0.9561  0.7931
 8626SOL    HW237512   1.158   0.126  10.507  4.2437 -2.9700  0.1032
 8627SOL     OW37513   4.356   0.825  10.354 -0.8897  0.0211 -0.3059
 8627SOL    HW137514   4.264   0.836  10.332 -1.1265  1.0449  1.2266
 8627SOL    HW237515   4.342   0.796  10.444  1.2742 -1.8556 -0.5672
 8628SOL     OW37516   1.432   1.356  13.885  0.2709  0.4354  0.3677
 8628SOL    HW137517   1.416   1.436  13.936 -1.3857  0.9998 -1.0542
 8628SOL    HW237518   1.452   1.376  13.794  1.9718 -0.2921  0.5716
 8629SOL     OW37519   4.356   1.930  17.488 -0.0082  0.3041  0.0941
 8629SOL    HW137520   4.312   1.941  17.572  0.8358 -0.4573  0.6380
 8629SOL    HW237521   4.439   1.965  17.520 -0.5911  1.7918 -0.0303
 8630SOL     OW37522   0.572   1.661  11.846  0.0310 -0.5260  0.1770
 8630SOL    HW137523   0.615   1.739  11.884  2.1672 -1.7004  0.1875
 8630SOL    HW237524   0.483   1.695  11.842  0.3784  0.2830 -0.9331
 8631SOL     OW37525   4.446   2.055   4.097 -0.2937  0.2634  0.2292
 8631SOL    HW137526   4.396   2.128   4.132  0.5384  0.9593 -0.0318
 8631SOL    HW237527   4.433   2.063   4.002  2.0465  2.9121  0.1319
 8632SOL     OW37528   0.780   1.144   5.762  0.1103  0.2967 -0.3957
 8632SOL    HW137529   0.698   1.097   5.771  1.2358 -1.4782  0.6624
 8632SOL    HW237530   0.805   1.121   5.672  2.2460 -2.3553  0.9078
 8633SOL     OW37531   2.308   1.211   4.740 -0.3794 -0.0250 -0.0556
 8633SOL    HW137532   2.248   1.256   4.680 -1.5628 -1.3017  0.1775
 8633SOL    HW237533   2.300   1.122   4.708  0.0241  0.4382 -1.4426
 8634SOL     OW37534   0.913   3.676  10.171 -0.6128 -0.3299  0.2249
 8634SOL    HW137535   0.979   3.668  10.240  0.7558 -1.6162 -1.2587
 8634SOL    HW237536   0.893   3.585  10.150 -1.1234 -0.2304  0.2788
 8635SOL     OW37537   1.497   1.679   3.462 -0.2626  0.1448 -0.7025
 8635SOL    HW137538   1.436   1.611   3.432 -2.8541  2.0593  0.1940
 8635SOL    HW237539   1.452   1.756   3.427  1.9128  2.2404  1.1435
 8636SOL     OW37540   4.207   3.251   8.110 -0.0510  0.2734 -0.4824
 8636SOL    HW137541   4.266   3.177   8.122 -2.0537 -1.0601  1.1053
 8636SOL    HW237542   4.228   3.302   8.188 -1.2435  0.2216 -0.1338
 8637SOL     OW37543   0.762   2.273   3.831 -0.1301 -0.2658 -0.6615
 8637SOL    HW137544   0.674   2.237   3.832 -1.0387  1.9472 -1.9172
 8637SOL    HW237545   0.773   2.278   3.926  4.9181  1.5877 -1.2898
 8638SOL     OW37546   2.121   0.954   5.102 -0.6095 -0.1082 -0.2081
 8638SOL    HW137547   2.103   1.039   5.063 -0.5386  0.1123  0.2360
 8638SOL    HW237548   2.127   0.981   5.194  0.6974  1.7334 -0.8497
 8639SOL     OW37549   2.584   3.325  15.310 -0.5625 -0.3523  0.1036
 8639SOL    HW137550   2.525   3.255  15.282  0.9109 -1.2482 -0.7743
 8639SOL    HW237551   2.597   3.315  15.405 -1.3046 -0.7303  0.1669
 8640SOL     OW37552   3.795   0.739  11.941 -0.0322  0.3058 -0.3112
 8640SOL    HW137553   3.848   0.684  11.999 -2.0828 -0.8567  0.4751
 8640SOL    HW237554   3.809   0.822  11.988 -2.8833 -0.3271  1.6719
 8641SOL     OW37555   2.254   2.910  15.466  0.3296 -0.1379 -0.4033
 8641SOL    HW137556   2.347   2.894  15.450  0.1044  0.0324 -1.8885
 8641SOL    HW237557   2.263   3.005  15.472 -0.6152  0.1819 -4.1981
 8642SOL     OW37558   2.658   2.592   8.732  0.4802  0.2424  0.7067
 8642SOL    HW137559   2.637   2.685   8.745 -0.3018 -0.0629  1.6644
 8642SOL    HW237560   2.565   2.567   8.731  0.8773 -1.1392 -0.3059
 8643SOL     OW37561   4.203   1.077  13.961 -0.2026  0.5042  0.0847
 8643SOL    HW137562   4.153   1.003  13.996  0.2607  0.4507  0.6207
 8643SOL    HW237563   4.163   1.091  13.875 -0.1869  0.3173  0.0483
 8644SOL     OW37564   4.159   2.780   3.861 -0.4153  0.5357 -0.4087
 8644SOL    HW137565   4.252   2.762   3.865 -0.5584 -0.5465 -1.9834
 8644SOL    HW237566   4.148   2.810   3.771  2.1881  0.8612 -0.6193
 8645SOL     OW37567   4.547   2.885   6.942  0.1718  0.7678  0.5759
 8645SOL    HW137568   4.588   2.912   6.859 -1.6154 -3.1050 -1.5858
 8645SOL    HW237569   4.597   2.805   6.957 -0.2133  0.4924  0.3950
 8646SOL     OW37570   0.137   4.561   5.184  0.5414  0.5884  0.2273
 8646SOL    HW137571   0.177   4.614   5.253  0.6258  2.7176 -1.4677
 8646SOL    HW237572   0.046   4.550   5.209  0.9456 -0.9053  1.0679
 8647SOL     OW37573   1.079   4.320   4.372 -0.3072  0.1419  0.0725
 8647SOL    HW137574   1.091   4.355   4.284  1.6355  3.3871  1.6155
 8647SOL    HW237575   1.043   4.395   4.418 -1.5776  0.0581 -0.8116
 8648SOL     OW37576   0.019   2.180   9.405  0.3343 -0.3236  0.1757
 8648SOL    HW137577   4.706   2.102   9.385  1.1595 -0.0949 -2.7956
 8648SOL    HW237578   0.087   2.156   9.468  2.0651  0.8961 -1.2435
 8649SOL     OW37579   1.754   2.317   8.469 -0.4333 -0.0823 -0.7016
 8649SOL    HW137580   1.828   2.265   8.500 -1.2687 -0.8856 -0.1004
 8649SOL    HW237581   1.708   2.261   8.406 -1.1121  1.6540 -1.7723
 8650SOL     OW37582   0.491   3.298  14.479 -0.7247 -0.2504 -0.4342
 8650SOL    HW137583   0.543   3.363  14.432 -0.6475  0.7329  1.0139
 8650SOL    HW237584   0.451   3.364  14.536  1.1479 -0.0220  0.6115
 8651SOL     OW37585   4.026   3.948   6.525  0.0012 -0.1920 -0.0018
 8651SOL    HW137586   3.963   3.969   6.594 -0.3494 -1.7730  0.1602
 8651SOL    HW237587   4.053   3.860   6.552  0.6672  0.4778  1.4707
 8652SOL     OW37588   1.366   0.857   4.149 -0.1341  0.2309 -0.2240
 8652SOL    HW137589   1.285   0.817   4.182  1.2323 -1.3624  1.1375
 8652SOL    HW237590   1.373   0.942   4.192 -2.2045  1.5372 -2.4699
 8653SOL     OW37591   0.026   2.152   3.848 -0.0286 -0.2140 -0.4614
 8653SOL    HW137592   4.713   2.160   3.767 -1.3296  0.2423  0.4014
 8653SOL    HW237593   0.103   2.105   3.816  1.3434  1.7740 -0.1178
 8654SOL     OW37594   1.244   2.264   0.911 -0.1282  0.2154  0.5344
 8654SOL    HW137595   1.286   2.257   0.826 -0.2056  0.4509  0.4767
 8654SOL    HW237596   1.258   2.358   0.926  1.0572  0.1479 -0.1531
 8655SOL     OW37597   3.267   3.940  10.205  0.5231 -0.0720 -0.3106
 8655SOL    HW137598   3.199   3.909  10.264 -0.1831  0.0522 -1.0580
 8655SOL    HW237599   3.241   3.900  10.122 -0.3397 -2.2752  1.0042
 8656SOL     OW37600   4.172   0.330   2.140 -0.1348  0.1125 -0.3116
 8656SOL    HW137601   4.119   0.302   2.215 -1.7084 -0.0215 -1.4836
 8656SOL    HW237602   4.246   0.270   2.148 -0.5661 -0.4700 -0.7560
 8657SOL     OW37603   0.740   3.704  16.745  0.4606 -0.1607  0.0015
 8657SOL    HW137604   0.763   3.774  16.684 -0.2051 -0.8562 -1.0310
 8657SOL    HW237605   0.667   3.663  16.699 -0.1838  0.3969  0.5295
 8658SOL     OW37606   2.333   1.696   9.046 -0.2073 -0.5654  0.3650
 8658SOL    HW137607   2.385   1.776   9.056  0.0839 -0.7260  0.1577
 8658SOL    HW237608   2.252   1.734   9.013 -0.4018 -0.3287  1.1237
 8659SOL     OW37609   1.471   4.339  17.527  0.2038  0.0408  0.0646
 8659SOL    HW137610   1.510   4.398  17.462 -2.4792 -0.0824 -1.6395
 8659SOL    HW237611   1.501   4.388  17.603  0.0465  1.5022 -0.8170
 8660SOL     OW37612   3.053   1.070   2.857 -0.0644  0.1470  0.1080
 8660SOL    HW137613   2.987   1.051   2.790 -0.2753  2.1852 -0.2580
 8660SOL    HW237614   3.088   0.983   2.873 -1.9694 -0.4482  1.0321
 8661SOL     OW37615   1.971   2.452   9.163 -0.0998 -0.1236  0.1545
 8661SOL    HW137616   2.041   2.464   9.228 -1.7325 -0.5654  2.0015
 8661SOL    HW237617   2.017   2.399   9.098  1.7054  1.2836  0.2987
 8662SOL     OW37618   0.535   3.992   8.087 -0.0212 -0.3689 -0.3972
 8662SOL    HW137619   0.536   4.049   8.011 -0.4047 -2.6279 -2.1118
 8662SOL    HW237620   0.529   4.050   8.163  0.2178 -0.6508 -0.1604
 8663SOL     OW37621   3.596   4.103   2.783 -0.1381  0.5777  0.0300
 8663SOL    HW137622   3.509   4.141   2.769  0.9562  3.4512  1.0438
 8663SOL    HW237623   3.642   4.176   2.824 -0.9116  0.2707  1.4372
 8664SOL     OW37624   0.166   4.580   6.991  0.0565  0.4260  0.2156
 8664SOL    HW137625   0.213   4.546   7.068  0.5680 -0.7262 -0.6037
 8664SOL    HW237626   0.148   4.500   6.941  0.4439  1.2827 -1.2836
 8665SOL     OW37627   2.084   2.466  11.294  0.1850 -0.0250 -0.0411
 8665SOL    HW137628   2.009   2.523  11.279 -0.6326 -0.9930  0.3856
 8665SOL    HW237629   2.158   2.501  11.244  1.7967 -0.3371  2.0924
 8666SOL     OW37630   2.273   1.367  17.699 -0.1657 -0.4672  0.0308
 8666SOL    HW137631   2.213   1.322  17.640  0.2466 -0.7179 -0.2013
 8666SOL    HW237632   2.333   1.297  17.725 -0.6903 -0.5012  1.1728
 8667SOL     OW37633   4.505   1.916  15.105  0.1325 -0.2445 -0.3355
 8667SOL    HW137634   4.565   1.965  15.161  0.2674 -1.8540  0.9320
 8667SOL    HW237635   4.437   1.898  15.171  2.3050 -1.5284  1.5688
 8668SOL     OW37636   2.183   3.858  17.126  0.3766 -0.6866  0.2086
 8668SOL    HW137637   2.117   3.926  17.138  1.8109  0.5036  1.2578
 8668SOL    HW237638   2.228   3.890  17.048  0.8555 -2.6102 -0.3139
 8669SOL     OW37639   0.858   2.724   8.667  0.0966 -0.2495 -0.0772
 8669SOL    HW137640   0.912   2.802   8.681 -0.0073 -0.2049  0.0772
 8669SOL    HW237641   0.837   2.713   8.760 -2.0939  2.1640 -0.3028
 8670SOL     OW37642   2.973   1.368   9.610  0.3845  0.2208  0.4704
 8670SOL    HW137643   3.033   1.434   9.577  0.5653 -0.6316 -0.8999
 8670SOL    HW237644   2.987   1.293   9.553  0.6966  1.3995 -0.9836
 8671SOL     OW37645   4.065   3.079   5.968 -0.1154 -0.7069  0.1359
 8671SOL    HW137646   4.023   3.059   5.885  1.5007  2.4419 -1.4360
 8671SOL    HW237647   4.114   2.997   5.979 -0.0043 -0.4906  1.2205
 8672SOL     OW37648   0.755   1.821   3.096  0.2576 -0.1896 -0.0499
 8672SOL    HW137649   0.723   1.877   3.025 -1.4312 -0.6640  0.3340
 8672SOL    HW237650   0.719   1.737   3.065  2.6977 -0.6869 -1.5693
 8673SOL     OW37651   1.104   2.279   7.444  0.4961 -0.1732 -0.0592
 8673SOL    HW137652   1.154   2.334   7.383  0.3300 -1.3201 -1.2437
 8673SOL    HW237653   1.168   2.264   7.514  0.8406  1.2178 -0.0690
 8674SOL     OW37654   1.211   0.364   2.192  0.7950 -0.1200  0.3568
 8674SOL    HW137655   1.257   0.418   2.128  0.3350 -0.5692 -0.3583
 8674SOL    HW237656   1.278   0.363   2.259 -0.9447  0.3976  2.1137
 8675SOL     OW37657   2.166   3.143   3.056  0.0452  0.1337 -0.0191
 8675SOL    HW137658   2.260   3.143   3.041 -0.0223 -1.4732 -0.5129
 8675SOL    HW237659   2.157   3.085   3.132 -1.1066  0.6677  0.2573
 8676SOL     OW37660   0.650   2.183   5.182 -0.1614 -0.3358 -0.0834
 8676SOL    HW137661   0.597   2.184   5.262 -0.0602 -1.4361 -0.0059
 8676SOL    HW237662   0.615   2.257   5.133 -1.6512 -1.7539 -1.1875
 8677SOL     OW37663   0.994   0.002   6.430  0.0043 -0.3881  0.0832
 8677SOL    HW137664   1.070   0.044   6.391 -0.2634  0.5687  0.5754
 8677SOL    HW237665   1.004   0.045   6.515 -0.7020  1.2434 -0.6658
 8678SOL     OW37666   4.505   0.213   3.162  0.2463 -0.5018 -0.6640
 8678SOL    HW137667   4.515   0.118   3.172 -1.1413 -0.3495  2.1639
 8678SOL    HW237668   4.436   0.232   3.226  0.4750  0.1165 -0.6035
 8679SOL     OW37669   1.500   1.831   7.139  0.1226 -0.0148  0.2051
 8679SOL    HW137670   1.525   1.743   7.168  0.9411 -0.0106 -0.4939
 8679SOL    HW237671   1.508   1.888   7.216  0.2377  0.7698 -0.3856
 8680SOL     OW37672   4.032   3.563   8.374  0.3150  0.8222 -0.3746
 8680SOL    HW137673   4.035   3.629   8.305 -1.8810 -0.1465 -1.4253
 8680SOL    HW237674   4.119   3.523   8.369  0.2502  0.4761  1.3524
 8681SOL     OW37675   1.700   2.858  16.698 -0.2379 -0.0482  0.3893
 8681SOL    HW137676   1.627   2.851  16.759 -1.0934 -0.4709 -0.6787
 8681SOL    HW237677   1.727   2.766  16.697 -1.9188 -0.5332 -3.4807
 8682SOL     OW37678   0.459   4.445   3.959  1.0836 -0.0055  0.5707
 8682SOL    HW137679   0.424   4.373   3.907  1.9249  0.4569 -0.6497
 8682SOL    HW237680   0.548   4.411   3.967  0.9352 -0.1539  1.6403
 8683SOL     OW37681   2.902   0.018   1.389 -0.5199 -0.2022  0.1328
 8683SOL    HW137682   2.932   4.671   1.422 -3.0095 -1.3349 -0.5537
 8683SOL    HW237683   2.925   0.075   1.462 -0.0469  1.0929 -1.0276
 8684SOL     OW37684   2.551   3.534   4.073  0.6745 -0.0329 -0.6464
 8684SOL    HW137685   2.550   3.440   4.092  0.8061 -0.1854 -1.3944
 8684SOL    HW237686   2.602   3.548   3.994 -2.0254 -0.7492 -2.5051
 8685SOL     OW37687   0.400   2.443  15.595 -0.3064 -0.4910  0.1752
 8685SOL    HW137688   0.360   2.499  15.529  1.2413  1.2520  0.7291
 8685SOL    HW237689   0.445   2.381  15.539  3.3008  2.1937  0.0751
 8686SOL     OW37690   2.894   4.626  15.554  0.1477 -0.0707  0.0777
 8686SOL    HW137691   2.986   4.643  15.574 -0.6095 -1.5409  4.6524
 8686SOL    HW237692   2.903   4.616  15.459  1.3575 -0.1441  0.1957
 8687SOL     OW37693   1.819   2.896   9.088 -0.2599 -0.4142  0.4209
 8687SOL    HW137694   1.805   2.929   9.000 -0.5956 -0.6389  0.3928
 8687SOL    HW237695   1.732   2.904   9.127 -0.7040  0.7589 -0.8161
 8688SOL     OW37696   0.759   3.539  16.034  0.4741  0.1838  0.6416
 8688SOL    HW137697   0.698   3.540  15.960 -0.6608  1.0327  1.5905
 8688SOL    HW237698   0.734   3.626  16.067  0.4515 -0.4079  2.1623
 8689SOL     OW37699   2.874   0.654   1.887  0.0877 -0.1267 -0.6266
 8689SOL    HW137700   2.799   0.670   1.945  0.0969 -0.7613 -0.4338
 8689SOL    HW237701   2.862   0.559   1.874  0.6445 -0.1915 -0.6811
 8690SOL     OW37702   3.373   0.457   2.511 -0.1123 -0.3941  0.0068
 8690SOL    HW137703   3.456   0.495   2.539 -0.3638 -0.0283  0.2497
 8690SOL    HW237704   3.325   0.446   2.594  0.2836 -0.3375  0.2428
 8691SOL     OW37705   3.699   0.785   2.894 -0.4098  0.0169 -0.4036
 8691SOL    HW137706   3.703   0.874   2.859  1.1059  1.3363  3.1882
 8691SOL    HW237707   3.633   0.798   2.961  0.1034 -1.3270  0.3662
 8692SOL     OW37708   0.866   2.106   6.196  0.5023  0.7762  0.2128
 8692SOL    HW137709   0.855   2.181   6.138  1.4617  0.3536 -0.5029
 8692SOL    HW237710   0.800   2.048   6.158  0.3881  0.6604  0.5907
 8693SOL     OW37711   0.346   0.688   9.998 -0.5153  0.1465 -0.4034
 8693SOL    HW137712   0.441   0.695   9.987 -0.4009 -0.5262  0.1206
 8693SOL    HW237713   0.338   0.596   9.971  1.6509  0.3609 -1.7735
 8694SOL     OW37714   2.961   1.998   2.547 -0.1501 -0.1751 -0.1664
 8694SOL    HW137715   2.919   2.057   2.609  1.2854  2.2442 -1.4603
 8694SOL    HW237716   2.993   2.065   2.486  0.7940  0.6142  1.1964
 8695SOL     OW37717   4.420   3.701   2.854  0.2193  0.3104 -0.1109
 8695SOL    HW137718   4.378   3.772   2.902  0.6957  0.0633  0.6672
 8695SOL    HW237719   4.447   3.641   2.923  2.4605  0.6708 -0.6851
 8696SOL     OW37720   1.015   4.626   5.824 -0.4774  0.6321 -0.4981
 8696SOL    HW137721   0.946   4.693   5.827  0.3765  1.5872 -2.3249
 8696SOL    HW237722   1.050   4.641   5.736 -2.6760  1.1235 -1.2951
 8697SOL     OW37723   2.619   1.105   8.681 -0.0580  0.1272 -0.2392
 8697SOL    HW137724   2.637   1.183   8.734 -0.4032 -0.3220  0.5399
 8697SOL    HW237725   2.690   1.048   8.711  0.7816  0.9044 -0.7738
 8698SOL     OW37726   1.532   2.149   1.188 -0.1075  0.2244 -0.2524
 8698SOL    HW137727   1.515   2.145   1.094  0.0772  0.0635 -0.2770
 8698SOL    HW237728   1.611   2.200   1.209 -0.7443  1.3668 -0.6271
 8699SOL     OW37729   2.400   2.169  12.800  0.2810 -0.2783 -0.3166
 8699SOL    HW137730   2.347   2.235  12.755  0.0787 -0.8882 -0.9651
 8699SOL    HW237731   2.360   2.168  12.887  0.0960 -0.1047 -0.4011
 8700SOL     OW37732   1.483   3.171   9.353  0.1755 -0.1988 -0.8744
 8700SOL    HW137733   1.402   3.216   9.329  0.4970  0.5877 -0.4686
 8700SOL    HW237734   1.545   3.205   9.289  1.6491  1.7260  1.5684
 8701SOL     OW37735   4.227   0.594   2.137  0.4277  0.2870 -0.3129
 8701SOL    HW137736   4.211   0.500   2.134  0.4571  0.1845  2.4893
 8701SOL    HW237737   4.139   0.629   2.120  0.7317  2.2746  2.0802
 8702SOL     OW37738   2.290   2.353   7.021  0.2695 -0.0031 -0.3334
 8702SOL    HW137739   2.239   2.316   7.093  0.9718  2.1052  1.2560
 8702SOL    HW237740   2.320   2.437   7.054  0.2430 -1.0416  2.2984
 8703SOL     OW37741   1.215   0.962   9.518  0.1686 -0.9277 -0.4884
 8703SOL    HW137742   1.300   0.990   9.553 -0.0639  0.5028 -1.0938
 8703SOL    HW237743   1.157   1.038   9.524  0.5390 -0.8101  1.5486
 8704SOL     OW37744   1.544   3.993   5.672 -0.5078  0.1177 -0.0727
 8704SOL    HW137745   1.613   4.057   5.689  0.0881 -1.0665  2.0551
 8704SOL    HW237746   1.521   3.961   5.759 -2.2359 -2.0014 -1.3288
 8705SOL     OW37747   4.414   3.630   4.659 -0.2647 -0.2947  0.3647
 8705SOL    HW137748   4.501   3.597   4.683  0.3059  0.5949 -0.5047
 8705SOL    HW237749   4.392   3.574   4.584  1.5688  1.2794 -1.3290
 8706SOL     OW37750   2.006   0.341   9.167  0.1624 -0.8978 -0.2560
 8706SOL    HW137751   1.964   0.265   9.126  1.3542 -0.7068 -1.8242
 8706SOL    HW237752   1.970   0.418   9.122  0.7121 -2.3744 -3.1654
 8707SOL     OW37753   1.475   1.134   3.395  0.2005  0.2216  0.6222
 8707SOL    HW137754   1.433   1.048   3.404 -0.5332  0.7562  2.3319
 8707SOL    HW237755   1.489   1.167   3.484  0.3052 -0.5328  0.8821
 8708SOL     OW37756   4.025   2.857   4.094  0.1932  0.1674  0.1842
 8708SOL    HW137757   4.075   2.827   4.019  0.6472 -2.6888  1.5862
 8708SOL    HW237758   4.079   2.930   4.123 -1.6381  1.4724  0.3049
 8709SOL     OW37759   2.767   4.038   2.521  0.2873 -0.0865 -1.0391
 8709SOL    HW137760   2.761   4.049   2.616  2.2495  1.0956 -1.0497
 8709SOL    HW237761   2.733   4.122   2.489  2.8880  1.6899  0.8793
 8710SOL     OW37762   2.503   0.086   6.228 -0.1759  0.9204  0.1767
 8710SOL    HW137763   2.477   0.058   6.316 -3.5136  1.2810 -0.6778
 8710SOL    HW237764   2.545   0.168   6.255 -0.6712  1.0011  0.7267
 8711SOL     OW37765   2.703   1.706   2.610 -0.3338 -0.0387  0.0311
 8711SOL    HW137766   2.696   1.745   2.697  0.4885  1.3311 -0.5017
 8711SOL    HW237767   2.617   1.663   2.608 -0.8606  1.1124 -2.9629
 8712SOL     OW37768   4.313   0.765  16.306  0.0108  0.6144 -0.5736
 8712SOL    HW137769   4.252   0.718  16.250  0.7372 -0.9173 -0.0716
 8712SOL    HW237770   4.394   0.776  16.256 -0.8378 -1.2706 -2.3420
 8713SOL     OW37771   1.569   0.873   1.593  0.1493 -0.3688 -0.4033
 8713SOL    HW137772   1.617   0.909   1.668  1.1991 -0.4916 -1.0094
 8713SOL    HW237773   1.514   0.811   1.641  0.4364 -0.3754 -0.0785
 8714SOL     OW37774   0.536   0.330  13.706  0.3311  0.3590 -0.2725
 8714SOL    HW137775   0.551   0.235  13.708 -0.9366  0.1011 -3.1375
 8714SOL    HW237776   0.449   0.326  13.746  0.7528  4.3698  1.0418
 8715SOL     OW37777   0.156   4.153   2.937  0.2295 -0.1576 -0.0699
 8715SOL    HW137778   0.139   4.059   2.930 -0.1307 -0.1991  1.5530
 8715SOL    HW237779   0.070   4.184   2.911  0.3180 -1.3478 -1.7933
 8716SOL     OW37780   3.865   4.139   4.780  0.2069 -0.3156  0.1927
 8716SOL    HW137781   3.811   4.217   4.765 -1.3482 -1.1096  1.7374
 8716SOL    HW237782   3.820   4.073   4.729  0.4056 -1.1902  1.1410
 8717SOL     OW37783   4.072   1.085   1.758  0.4694  0.2832 -0.3642
 8717SOL    HW137784   4.117   1.170   1.756  1.1212 -0.0395  0.6546
 8717SOL    HW237785   4.141   1.022   1.741  2.2732  1.6056  1.9704
 8718SOL     OW37786   0.323   0.262  14.923  0.3215 -0.0655 -0.3347
 8718SOL    HW137787   0.268   0.271  15.001 -1.7659 -1.4939 -1.6460
 8718SOL    HW237788   0.318   0.172  14.893 -0.1773  0.0199 -0.5158
 8719SOL     OW37789   1.638   0.130   0.605 -0.7467 -0.2356 -0.1496
 8719SOL    HW137790   1.581   0.082   0.665  0.5895 -1.1040  0.4407
 8719SOL    HW237791   1.596   0.216   0.605 -1.7906 -0.7545  0.5721
 8720SOL     OW37792   2.271   0.138   1.918 -0.0526 -0.1743  0.2255
 8720SOL    HW137793   2.227   0.149   1.834  1.0346 -1.3025 -0.4807
 8720SOL    HW237794   2.340   0.203   1.905 -0.0291  0.1301  1.8256
 8721SOL     OW37795   0.579   3.511   9.746  0.5356  0.2263 -0.2968
 8721SOL    HW137796   0.552   3.420   9.750 -1.2337  0.6928 -1.5566
 8721SOL    HW237797   0.656   3.512   9.803  1.5088  0.7771 -1.6394
 8722SOL     OW37798   1.180   3.957   8.096 -0.3109  0.0402  0.3851
 8722SOL    HW137799   1.113   3.973   8.162 -0.0496 -1.3811  1.0090
 8722SOL    HW237800   1.203   3.864   8.106  2.7762  0.5785 -1.6093
 8723SOL     OW37801   4.405   2.833   8.133  0.2660  0.3150 -0.2679
 8723SOL    HW137802   4.434   2.924   8.127  1.0127  0.1730  1.4037
 8723SOL    HW237803   4.395   2.803   8.042 -0.7759  0.7365 -0.2936
 8724SOL     OW37804   3.742   2.723   9.419  0.0604 -0.0633 -0.4017
 8724SOL    HW137805   3.796   2.743   9.342  1.5482 -1.4067  0.2676
 8724SOL    HW237806   3.746   2.627   9.411 -0.0313 -0.1968  1.2639
 8725SOL     OW37807   0.386   0.172   1.011  0.0648  0.0718 -0.3334
 8725SOL    HW137808   0.379   0.239   1.079  0.1072 -1.2329  0.9609
 8725SOL    HW237809   0.412   0.094   1.060  2.9491  0.1121 -1.8374
 8726SOL     OW37810   4.538   3.158   9.427  0.2648 -0.2811  0.3883
 8726SOL    HW137811   4.548   3.251   9.444  0.1833 -0.1517 -0.2644
 8726SOL    HW237812   4.532   3.124   9.516 -0.9949  2.5656  1.3738
 8727SOL     OW37813   2.284   3.599  12.222 -0.7041  0.2538 -0.2166
 8727SOL    HW137814   2.302   3.510  12.252 -2.1042  0.4639  1.2720
 8727SOL    HW237815   2.329   3.663  12.277 -1.2431  3.1533 -3.1806
 8728SOL     OW37816   3.169   2.579  10.259  0.1207  0.1186 -0.0896
 8728SOL    HW137817   3.246   2.579  10.201 -0.2587 -0.2139 -0.5919
 8728SOL    HW237818   3.088   2.544  10.221  1.1849 -2.1912 -0.2543
 8729SOL     OW37819   2.480   1.890  17.509 -0.2480  0.0172 -0.3158
 8729SOL    HW137820   2.467   1.985  17.502  1.7481  0.3865  1.1003
 8729SOL    HW237821   2.517   1.871  17.423  0.9179 -1.9272  0.6285
 8730SOL     OW37822   1.038   3.394   6.735  0.1850 -0.4661  0.1220
 8730SOL    HW137823   1.019   3.427   6.647  0.7686 -1.3959 -0.3489
 8730SOL    HW237824   1.122   3.437   6.752 -0.9061  2.2572 -1.2898
 8731SOL     OW37825   2.987   3.536   6.794 -0.0230  0.8177  0.6692
 8731SOL    HW137826   2.909   3.518   6.741  1.9522  2.0026 -2.6670
 8731SOL    HW237827   3.013   3.448   6.820 -1.5031  0.7649  1.9954
 8732SOL     OW37828   0.777   3.282  11.875  0.2685 -0.2679  0.6359
 8732SOL    HW137829   0.858   3.248  11.837 -0.3409 -0.3521 -0.6029
 8732SOL    HW237830   0.724   3.215  11.917  1.1674 -0.1101  1.9998
 8733SOL     OW37831   0.239   3.315  14.825  0.4362  0.0316  0.2780
 8733SOL    HW137832   0.226   3.391  14.882  1.0426  1.4432 -1.4480
 8733SOL    HW237833   0.268   3.365  14.748  0.7499 -0.1498  0.2785
 8734SOL     OW37834   3.009   4.678  10.176 -0.0586 -0.4672 -0.3611
 8734SOL    HW137835   3.018   4.704  10.268  0.0874 -1.5525 -0.0655
 8734SOL    HW237836   3.045   0.016  10.130 -1.7719  0.7984  0.3431
 8735SOL     OW37837   1.838   2.507  17.457 -0.2332 -0.3627 -0.0030
 8735SOL    HW137838   1.829   2.500  17.362  1.6253 -0.0274 -0.2182
 8735SOL    HW237839   1.775   2.438  17.477  0.2180 -0.6637  0.3957
 8736SOL     OW37840   1.947   0.237  11.983  0.2291  0.3035 -0.5761
 8736SOL    HW137841   2.027   0.227  12.035  1.4007  0.2375 -2.3922
 8736SOL    HW237842   2.002   0.222  11.906 -0.5788  0.2454 -1.1430
 8737SOL     OW37843   4.213   1.757   9.378  0.5199 -0.1407 -0.1834
 8737SOL    HW137844   4.251   1.689   9.433 -0.6151  1.2595  2.3522
 8737SOL    HW237845   4.199   1.713   9.294 -1.6897  0.1120  0.0346
 8738SOL     OW37846   0.454   1.853   4.306  0.0445  0.5533 -0.1679
 8738SOL    HW137847   0.516   1.867   4.234  0.1671 -0.2588 -0.2232
 8738SOL    HW237848   0.512   1.806   4.366 -0.8136  0.2972  0.4646
 8739SOL     OW37849   2.478   3.015   8.449 -0.1103  0.6839  0.0441
 8739SOL    HW137850   2.480   2.952   8.377  1.1875 -0.5124  1.1473
 8739SOL    HW237851   2.390   2.990   8.479  0.7056 -0.2007  1.6787
 8740SOL     OW37852   0.504   1.979   2.414  0.0227  0.1123 -0.2469
 8740SOL    HW137853   0.504   1.883   2.414 -1.4049  0.1106  0.3532
 8740SOL    HW237854   0.594   2.002   2.433 -0.2809  0.2838  0.9830
 8741SOL     OW37855   0.349   0.145   8.816 -0.4523 -0.4829 -0.6240
 8741SOL    HW137856   0.388   0.160   8.730  0.2254  2.2357  0.1435
 8741SOL    HW237857   0.275   0.089   8.793 -0.9807  0.2554 -0.7407
 8742SOL     OW37858   4.139   3.729   1.390  0.4302  0.1878  0.2472
 8742SOL    HW137859   4.101   3.724   1.477 -0.6744  0.4504 -0.2113
 8742SOL    HW237860   4.127   3.823   1.377 -0.3848  0.3662  2.3974
 8743SOL     OW37861   3.315   0.477  12.511 -0.0369 -0.0225  0.4770
 8743SOL    HW137862   3.221   0.461  12.519  0.0461  0.2186  1.9323
 8743SOL    HW237863   3.348   0.401  12.463 -0.5494 -0.7083  1.2071
 8744SOL     OW37864   3.124   4.406   7.450 -0.0215 -0.2851 -0.3413
 8744SOL    HW137865   3.161   4.484   7.492 -2.3745  0.6307  0.0133
 8744SOL    HW237866   3.030   4.418   7.461  0.5170  0.0827  4.0339
 8745SOL     OW37867   2.473   2.552   8.328 -0.3356  0.7163 -0.1519
 8745SOL    HW137868   2.441   2.524   8.414  1.0522 -1.9833 -0.5203
 8745SOL    HW237869   2.503   2.641   8.345 -0.2361  0.4640  1.0128
 8746SOL     OW37870   2.782   3.978   2.064 -0.1616 -0.1390 -0.6475
 8746SOL    HW137871   2.732   3.927   2.128  3.3028 -2.6785  0.0029
 8746SOL    HW237872   2.793   4.058   2.116  0.3149  0.5784 -1.8525
 8747SOL     OW37873   0.270   2.455  15.349 -0.1462 -0.4596  0.1294
 8747SOL    HW137874   0.199   2.519  15.359  1.5274  1.1386  1.8379
 8747SOL    HW237875   0.227   2.373  15.371 -1.2471 -0.5318 -2.3138
 8748SOL     OW37876   3.807   2.041   2.188  0.1640 -0.1849  0.2346
 8748SOL    HW137877   3.716   2.068   2.197  0.4066  0.8429 -0.4380
 8748SOL    HW237878   3.807   1.979   2.116 -0.0469 -1.8001  1.6163
 8749SOL     OW37879   0.944   4.007   8.769 -0.6841 -0.4813  0.1584
 8749SOL    HW137880   0.937   3.992   8.863  0.5955 -1.3031  0.1283
 8749SOL    HW237881   0.856   3.986   8.738 -0.4895 -0.0493 -0.7038
 8750SOL     OW37882   3.103   1.070  14.689 -0.6457  0.0614 -0.0843
 8750SOL    HW137883   3.060   0.996  14.732  1.2285 -0.1107  1.5477
 8750SOL    HW237884   3.114   1.046  14.598  0.2673 -4.6360  1.2751
 8751SOL     OW37885   4.283   1.181   2.915 -0.2228 -0.0441  0.1211
 8751SOL    HW137886   4.286   1.114   2.983 -2.1753  0.1816  0.4404
 8751SOL    HW237887   4.369   1.164   2.876  0.0164  0.4812  0.4246
 8752SOL     OW37888   3.116   0.061   9.164  0.6511  0.6155 -0.2767
 8752SOL    HW137889   3.091   0.153   9.170  2.4730  1.3320 -3.5618
 8752SOL    HW237890   3.031   0.018   9.179  0.9561  1.0210  2.6032
 8753SOL     OW37891   3.361   0.133   1.768  0.3173  0.4254  0.3236
 8753SOL    HW137892   3.304   0.075   1.718 -0.4922  3.2964 -2.0645
 8753SOL    HW237893   3.435   0.145   1.707  1.0119  0.1487  1.1073
 8754SOL     OW37894   4.200   0.137   3.784 -0.0208  0.0825 -0.2851
 8754SOL    HW137895   4.117   0.128   3.737  0.5919 -0.6061 -1.2354
 8754SOL    HW237896   4.259   0.089   3.726 -2.1014 -0.0328 -2.3031
 8755SOL     OW37897   1.146   0.527   6.760 -0.5528 -0.4905 -0.1161
 8755SOL    HW137898   1.063   0.486   6.786  0.0246 -0.6783  1.4292
 8755SOL    HW237899   1.135   0.618   6.786  0.2512 -0.9539  1.8447
 8756SOL     OW37900   1.964   0.943   8.641 -0.0440  0.2467  0.5264
 8756SOL    HW137901   2.000   1.032   8.645 -0.5553  0.4606  0.3392
 8756SOL    HW237902   1.890   0.963   8.584  0.5584 -0.9963 -0.6774
 8757SOL     OW37903   3.114   0.096   8.168 -0.0457 -0.6203 -0.7104
 8757SOL    HW137904   3.061   0.070   8.093  1.3058  0.1286 -1.9315
 8757SOL    HW237905   3.070   0.051   8.240 -0.2578 -2.4490 -1.9964
 8758SOL     OW37906   0.976   3.785   1.649  0.5277 -0.4114  0.0357
 8758SOL    HW137907   1.064   3.771   1.613 -0.0470 -0.8413 -1.1962
 8758SOL    HW237908   0.976   3.749   1.738 -1.6925 -1.0018 -0.2151
 8759SOL     OW37909   0.908   2.662   9.342 -0.3427  0.4280 -0.2003
 8759SOL    HW137910   0.997   2.651   9.309 -0.0288  0.2953  0.6796
 8759SOL    HW237911   0.907   2.641   9.435 -0.9179  2.6398  0.2872
 8760SOL     OW37912   4.585   2.445   7.782 -0.3436 -0.2002  0.0945
 8760SOL    HW137913   4.633   2.389   7.720  0.8884 -0.3612  1.1854
 8760SOL    HW237914   4.528   2.381   7.824 -0.4298 -0.3289 -0.2223
 8761SOL     OW37915   3.511   0.081   9.503 -0.4175 -0.4217 -0.0011
 8761SOL    HW137916   3.507   0.015   9.572  2.9560  1.8155  2.3234
 8761SOL    HW237917   3.597   0.066   9.464 -0.4616 -0.5966 -0.0336
 8762SOL     OW37918   1.916   3.188   8.436  0.0081  0.1270 -0.2719
 8762SOL    HW137919   1.937   3.250   8.506 -1.1750  0.4452 -0.1977
 8762SOL    HW237920   1.852   3.247   8.396  0.0566  1.1908  1.2213
 8763SOL     OW37921   1.744   3.379   8.692  0.1034 -0.0179  0.0724
 8763SOL    HW137922   1.708   3.340   8.771  2.7753  0.1002  1.3273
 8763SOL    HW237923   1.665   3.373   8.638  2.1748 -0.4764 -2.9129
 8764SOL     OW37924   3.596   1.001   6.399  0.2817  0.1828  0.8369
 8764SOL    HW137925   3.575   1.019   6.307  1.3778  0.7100  0.6917
 8764SOL    HW237926   3.536   0.931   6.423 -1.7373  1.4408 -0.5718
 8765SOL     OW37927   4.668   3.479   7.221  0.2620 -0.7840  0.2964
 8765SOL    HW137928   4.660   3.574   7.217 -1.5911 -0.9724 -0.5290
 8765SOL    HW237929   4.595   3.453   7.277  0.2257  0.0403  0.6319
 8766SOL     OW37930   0.340   4.169   4.943  0.1928  0.2734  0.4395
 8766SOL    HW137931   0.373   4.256   4.921  1.3779 -0.5253 -0.9410
 8766SOL    HW237932   0.398   4.162   5.018  1.6517  0.2807 -0.6799
 8767SOL     OW37933   2.888   0.184   6.670  0.8683 -0.0149 -0.2148
 8767SOL    HW137934   2.927   0.139   6.746  1.4330  0.7011 -0.0760
 8767SOL    HW237935   2.813   0.230   6.708  1.6270 -0.0944  1.4128
 8768SOL     OW37936   1.428   2.828   2.234  0.3189 -0.1122  0.1221
 8768SOL    HW137937   1.518   2.809   2.209  0.4370 -0.6190  0.9340
 8768SOL    HW237938   1.395   2.906   2.189  0.3428 -2.0852 -3.3290
 8769SOL     OW37939   2.699   4.346   1.680  0.2804 -0.0639  0.7643
 8769SOL    HW137940   2.612   4.349   1.640 -0.4287 -0.5560  2.2762
 8769SOL    HW237941   2.715   4.252   1.672 -3.7749 -0.8874  2.0494
 8770SOL     OW37942   1.923   3.986   3.718 -0.8894  0.3530 -0.2290
 8770SOL    HW137943   1.865   4.014   3.789 -1.1637 -0.4117 -0.1584
 8770SOL    HW237944   1.981   4.062   3.715 -1.4153  0.8312  1.6521
 8771SOL     OW37945   0.968   3.279  13.608  0.0326 -0.5040  0.1588
 8771SOL    HW137946   0.951   3.185  13.605 -0.3953 -0.4076 -0.4582
 8771SOL    HW237947   1.004   3.292  13.696 -1.0826 -0.2225  0.5709
 8772SOL     OW37948   4.615   4.422   8.800  0.4017 -0.5051 -0.0383
 8772SOL    HW137949   4.563   4.476   8.859  0.3858 -0.7607  0.1781
 8772SOL    HW237950   4.671   4.484   8.753  0.5932  0.1811  1.0927
 8773SOL     OW37951   0.083   0.369  16.161 -0.2321 -0.4332  0.2190
 8773SOL    HW137952   0.121   0.395  16.077 -0.4215  1.4116  0.7107
 8773SOL    HW237953   0.118   0.285  16.191  0.0848 -0.8689 -1.3674
 8774SOL     OW37954   0.879   1.625   4.769 -0.4178 -0.1670  0.4363
 8774SOL    HW137955   0.894   1.655   4.679  0.7891  0.0335  0.7128
 8774SOL    HW237956   0.914   1.536   4.758  0.6712  0.4327 -0.8632
 8775SOL     OW37957   2.500   3.818   7.551 -0.1511  0.0637 -0.3913
 8775SOL    HW137958   2.579   3.846   7.505  1.6153 -2.4875  1.1113
 8775SOL    HW237959   2.526   3.727   7.566  0.9985  0.2480 -1.3032
 8776SOL     OW37960   3.677   2.997   3.194  0.1394 -0.0803  0.1220
 8776SOL    HW137961   3.656   3.066   3.257 -1.7624  1.8219 -2.6053
 8776SOL    HW237962   3.647   3.044   3.116  0.3352  0.0827  0.1462
 8777SOL     OW37963   1.014   0.197  12.230  0.3049  0.0292  0.0283
 8777SOL    HW137964   1.071   0.261  12.273  0.8437 -0.1920 -0.3558
 8777SOL    HW237965   1.043   0.182  12.140 -1.5886 -0.0462 -0.5648
 8778SOL     OW37966   3.757   4.550   5.917 -0.6036  0.9256  0.0912
 8778SOL    HW137967   3.736   4.621   5.978 -0.1261 -0.6740  2.1254
 8778SOL    HW237968   3.824   4.503   5.966 -0.1524  0.3467 -1.0847
 8779SOL     OW37969   2.991   4.020   9.176  1.0842  0.1100 -0.0799
 8779SOL    HW137970   3.064   3.960   9.190  0.2314 -1.0824 -0.7614
 8779SOL    HW237971   2.973   4.012   9.082 -1.6875  0.7006  0.4031
 8780SOL     OW37972   1.130   4.065  14.368 -0.5723  0.0101 -0.4440
 8780SOL    HW137973   1.150   4.116  14.290 -2.2354  1.3318 -0.0235
 8780SOL    HW237974   1.197   3.998  14.381  0.9874  1.7713  0.5496
 8781SOL     OW37975   1.171   2.085   5.423  0.2025 -0.1437  0.2710
 8781SOL    HW137976   1.081   2.116   5.435  0.7503  1.5413 -0.0198
 8781SOL    HW237977   1.155   1.997   5.457 -2.4983  0.6686  1.0714
 8782SOL     OW37978   2.767   4.255  12.468 -0.0424 -0.0070  0.2963
 8782SOL    HW137979   2.718   4.183  12.428  1.5459 -0.0031 -1.6216
 8782SOL    HW237980   2.744   4.227  12.557 -1.0370  0.7968  0.2862
 8783SOL     OW37981   3.147   4.672   8.868  0.1476  0.5281  0.1569
 8783SOL    HW137982   3.130   4.680   8.962  2.4871  2.0999  0.4354
 8783SOL    HW237983   3.166   0.028   8.863 -1.0258  0.6468 -1.8998
 8784SOL     OW37984   2.878   4.643   6.238  0.9508  0.0029 -0.1801
 8784SOL    HW137985   2.856   4.697   6.314  1.8586  0.1809 -0.0445
 8784SOL    HW237986   2.793   4.613   6.205  1.3102  0.1990 -1.2987
 8785SOL     OW37987   0.307   0.468  14.721  0.1221  0.5057  0.0722
 8785SOL    HW137988   0.285   0.427  14.637 -1.4904  2.7437 -0.5896
 8785SOL    HW237989   0.306   0.396  14.783  0.7289 -0.7345 -1.3453
 8786SOL     OW37990   3.590   3.061   2.949 -0.3066 -0.1565 -1.1262
 8786SOL    HW137991   3.606   3.133   2.888  3.3366  0.1133  0.1371
 8786SOL    HW237992   3.551   2.987   2.903 -1.6529 -0.3661  0.3465
 8787SOL     OW37993   2.228   2.935  10.741 -0.2492 -0.0950  0.3607
 8787SOL    HW137994   2.186   3.021  10.747 -0.3305 -0.1408  0.4447
 8787SOL    HW237995   2.161   2.868  10.760  1.4226 -1.9168 -0.1371
 8788SOL     OW37996   3.102   1.999   9.564 -0.6251  0.4983  0.2043
 8788SOL    HW137997   3.092   1.916   9.609  3.2113  0.8694  1.7064
 8788SOL    HW237998   3.198   1.995   9.568 -0.5735  3.3319  2.1040
 8789SOL     OW37999   1.418   0.247   0.876  0.4292 -0.1376 -0.2100
 8789SOL    HW138000   1.376   0.162   0.860 -0.4277  0.7140 -2.5100
 8789SOL    HW238001   1.359   0.292   0.937  1.1930  1.5361 -0.7021
 8790SOL     OW38002   1.220   4.534   7.759  0.1916 -0.3337 -0.1725
 8790SOL    HW138003   1.184   4.447   7.771  0.0037 -0.2663 -0.2461
 8790SOL    HW238004   1.153   4.589   7.800  1.1965  1.6746 -1.1693
 8791SOL     OW38005   2.368   2.051  11.243 -0.4722 -0.4204 -0.3919
 8791SOL    HW138006   2.327   2.133  11.273 -0.7261 -0.4306 -0.7085
 8791SOL    HW238007   2.306   1.983  11.270  0.8135 -0.5867  2.0741
 8792SOL     OW38008   4.621   1.108  11.647 -1.0108  0.6332  0.0641
 8792SOL    HW138009   4.668   1.178  11.692 -1.5403  1.1604 -0.1974
 8792SOL    HW238010   4.686   1.103  11.576 -2.0815 -0.3187 -0.8469
 8793SOL     OW38011   1.683   2.862  10.216 -0.2490  0.0731 -0.4060
 8793SOL    HW138012   1.714   2.853  10.126  1.7671 -0.2549  0.3129
 8793SOL    HW238013   1.645   2.774  10.221 -0.4727  0.3660  2.8605
 8794SOL     OW38014   3.574   0.849   4.402 -0.1656 -0.2734  0.0011
 8794SOL    HW138015   3.490   0.869   4.362 -0.4635  0.2878  0.9057
 8794SOL    HW238016   3.544   0.827   4.490 -0.0763  0.2613  0.1683
 8795SOL     OW38017   3.364   4.233  11.704  0.3976  0.4592 -0.0893
 8795SOL    HW138018   3.429   4.241  11.634  0.4740 -0.5347 -0.1363
 8795SOL    HW238019   3.274   4.220  11.674 -0.4921  3.1720  1.3881
 8796SOL     OW38020   3.652   0.598  12.546  0.0160 -0.2456  0.1114
 8796SOL    HW138021   3.658   0.553  12.630  0.7823  0.4687  0.4231
 8796SOL    HW238022   3.591   0.667  12.572  0.2067  0.2147 -0.6639
 8797SOL     OW38023   0.467   2.504   1.221 -0.5932  0.5562  0.1200
 8797SOL    HW138024   0.499   2.433   1.167 -1.2032  2.2077 -2.4279
 8797SOL    HW238025   0.376   2.476   1.235 -0.4890 -0.4052 -1.1344
 8798SOL     OW38026   0.069   3.085   5.774 -0.2734  0.1521  0.2222
 8798SOL    HW138027   4.727   3.137   5.765 -0.5371 -0.3835 -0.5295
 8798SOL    HW238028   0.136   3.102   5.707 -0.7803  0.4750 -0.2070
 8799SOL     OW38029   3.883   2.853   5.060  0.3963 -0.9963 -0.4237
 8799SOL    HW138030   3.897   2.861   5.155 -2.0346 -2.0570  0.0147
 8799SOL    HW238031   3.888   2.943   5.026 -1.4002 -0.0027  1.8700
 8800SOL     OW38032   3.595   4.226   3.933  0.2919  0.4745  0.7615
 8800SOL    HW138033   3.654   4.198   4.003  0.7265 -0.9885 -0.2075
 8800SOL    HW238034   3.509   4.189   3.954  0.2615  0.3456  0.4021
 8801SOL     OW38035   1.032   3.455   2.583 -0.4775 -0.1119  0.5572
 8801SOL    HW138036   1.012   3.519   2.514  0.6307  1.2037  1.4598
 8801SOL    HW238037   1.063   3.380   2.531  1.3103 -0.1769  1.6892
 8802SOL     OW38038   3.713   1.749   1.356 -0.0122  0.3704 -0.1931
 8802SOL    HW138039   3.763   1.667   1.348  1.3519  1.2891 -1.1810
 8802SOL    HW238040   3.656   1.721   1.427  0.7789 -1.5503 -0.2891
 8803SOL     OW38041   2.683   3.989  12.430  0.7108  0.2845  0.2335
 8803SOL    HW138042   2.711   3.897  12.432  0.9775  0.3689  0.2901
 8803SOL    HW238043   2.590   3.985  12.451  0.1531  2.4530 -1.8727
 8804SOL     OW38044   0.736   4.438  15.663 -0.4923  0.1560  0.1607
 8804SOL    HW138045   0.697   4.488  15.591  0.8447  0.6570 -0.2260
 8804SOL    HW238046   0.791   4.506  15.702 -2.7548  1.3931  1.1717
 8805SOL     OW38047   1.748   3.267   6.760  0.3122 -0.7208  0.4275
 8805SOL    HW138048   1.835   3.307   6.764  0.1925 -0.5762  1.4708
 8805SOL    HW238049   1.743   3.217   6.841 -1.6596 -1.5753 -0.2185
 8806SOL     OW38050   1.678   3.063   3.028  0.2528 -0.2874 -0.5570
 8806SOL    HW138051   1.690   3.064   3.123 -3.0661  2.0140 -0.1531
 8806SOL    HW238052   1.599   3.010   3.012 -0.7204  0.8774  0.4351
 8807SOL     OW38053   0.276   3.104   9.708 -0.6476  0.4033 -0.5505
 8807SOL    HW138054   0.229   3.093   9.626  2.3996 -2.4886 -1.9194
 8807SOL    HW238055   0.272   3.019   9.753  0.2760  1.3983  1.4244
 8808SOL     OW38056   2.911   0.058   2.848  0.3884 -0.3002 -0.2181
 8808SOL    HW138057   2.821   0.081   2.826 -0.5246 -2.9874  0.6707
 8808SOL    HW238058   2.903   4.731   2.919 -1.5384  0.1428 -0.0378
 8809SOL     OW38059   2.948   3.864   1.575  0.2044 -0.2808  0.1636
 8809SOL    HW138060   2.935   3.822   1.489  1.4905 -2.0404  0.8151
 8809SOL    HW238061   3.012   3.804   1.613  0.4057  0.2799  0.6980
 8810SOL     OW38062   0.008   1.584   0.291  0.1420  0.6002 -0.1412
 8810SOL    HW138063   4.668   1.583   0.235 -0.1682  1.8139  0.2651
 8810SOL    HW238064   0.071   1.535   0.239 -0.4221  0.5574 -0.7859
 8811SOL     OW38065   2.459   1.820   2.115 -0.3212  0.3402  0.1685
 8811SOL    HW138066   2.440   1.912   2.097  0.7310  0.1669 -1.9057
 8811SOL    HW238067   2.513   1.817   2.194  0.3348 -0.7403 -0.3102
 8812SOL     OW38068   2.938   3.942  16.386 -0.0777  0.2538  0.5305
 8812SOL    HW138069   2.850   3.922  16.356  0.3456 -0.3228 -0.3508
 8812SOL    HW238070   2.988   3.860  16.379  1.0449  1.0045 -0.2174
 8813SOL     OW38071   1.838   0.102   1.405  0.1978 -0.5588 -0.5115
 8813SOL    HW138072   1.812   0.012   1.424  1.7114 -0.7970  0.4047
 8813SOL    HW238073   1.755   0.132   1.366  0.2081 -0.4133 -0.4211
 8814SOL     OW38074   4.376   1.118   3.943 -0.3543  0.0365  0.0415
 8814SOL    HW138075   4.440   1.162   3.886  0.3031  0.0134  0.7723
 8814SOL    HW238076   4.299   1.163   3.910  0.1874  1.8269  1.2445
 8815SOL     OW38077   4.047   3.050  17.539  0.3035  0.0217 -0.4253
 8815SOL    HW138078   4.116   3.098  17.585  1.4242  0.5697 -2.6643
 8815SOL    HW238079   4.021   2.997  17.615 -1.0751  0.5153 -0.5475
 8816SOL     OW38080   2.730   2.110   5.036  0.1372 -0.0428 -0.8187
 8816SOL    HW138081   2.650   2.057   5.030  1.6029 -2.4226  0.8257
 8816SOL    HW238082   2.706   2.178   4.973 -0.5475  1.4373  1.0436
 8817SOL     OW38083   0.624   4.281   8.605 -0.0168  0.5787  0.0386
 8817SOL    HW138084   0.618   4.335   8.527  0.3730 -1.1581 -1.2084
 8817SOL    HW238085   0.532   4.275   8.631  0.1622 -3.6413 -0.2475
 8818SOL     OW38086   1.903   4.529   6.076  0.1575  0.1396 -0.2274
 8818SOL    HW138087   1.908   4.596   6.144  0.3127 -2.5173  2.3366
 8818SOL    HW238088   1.886   4.455   6.133  1.7696  0.3885  0.5914
 8819SOL     OW38089   0.072   1.714   3.731  0.5900 -0.1165 -0.1767
 8819SOL    HW138090   4.721   1.741   3.754  0.0402 -0.1679 -2.1649
 8819SOL    HW238091   0.053   1.683   3.642 -1.5596 -0.8035  0.5255
 8820SOL     OW38092   3.013   1.229   5.009  0.2985 -0.2736 -0.7985
 8820SOL    HW138093   3.035   1.152   4.956  1.3095  1.2182 -2.5417
 8820SOL    HW238094   3.089   1.252   5.063  0.3879 -0.5175 -0.8201
 8821SOL     OW38095   0.889   3.047   6.558 -0.1014  0.0443  0.0060
 8821SOL    HW138096   0.859   3.117   6.499  1.1607  2.5522  2.3426
 8821SOL    HW238097   0.817   3.032   6.619 -1.4928  1.2099 -1.3272
 8822SOL     OW38098   3.900   3.968   2.722 -0.1457  0.3616  0.3383
 8822SOL    HW138099   3.876   4.037   2.784  0.1825  2.3568 -1.8077
 8822SOL    HW238100   3.819   3.917   2.723 -0.7872  1.3680 -1.6326
 8823SOL     OW38101   2.781   0.371   1.902  0.2845  0.2817 -0.1911
 8823SOL    HW138102   2.856   0.340   1.851  1.0733 -0.8417  1.6543
 8823SOL    HW238103   2.806   0.337   1.988 -0.1664  0.2839 -0.0611
 8824SOL     OW38104   2.195   2.036  13.757 -0.0580  0.0479  0.2324
 8824SOL    HW138105   2.182   2.044  13.852 -2.1575 -1.3846  0.0581
 8824SOL    HW238106   2.209   1.941  13.758  1.3041  0.2330 -1.4917
 8825SOL     OW38107   2.006   4.323  13.118  0.6768 -0.5330  0.3296
 8825SOL    HW138108   2.025   4.394  13.056 -3.0607  0.4729  0.3314
 8825SOL    HW238109   1.928   4.365  13.152  0.1959 -0.2506 -1.1174
 8826SOL     OW38110   0.374   3.902   8.383  0.4953  0.1201  0.5808
 8826SOL    HW138111   0.449   3.872   8.434  1.6204  2.1808  0.1019
 8826SOL    HW238112   0.402   3.978   8.332 -0.1066 -0.3656 -0.4807
 8827SOL     OW38113   2.158   1.614   4.250  0.2077 -0.2798  0.5346
 8827SOL    HW138114   2.098   1.582   4.183 -0.7100  1.1182  0.6751
 8827SOL    HW238115   2.123   1.563   4.323  0.3865  0.9978  1.5115
 8828SOL     OW38116   1.227   3.209   3.252  0.1343 -0.0046 -0.1683
 8828SOL    HW138117   1.243   3.202   3.158 -0.2524 -2.0348 -0.0736
 8828SOL    HW238118   1.200   3.301   3.262 -2.6511 -1.1081  2.4938
 8829SOL     OW38119   0.896   4.539  13.076 -0.2370 -0.0001  0.5876
 8829SOL    HW138120   0.960   4.490  13.128  1.0897 -0.2048 -1.2468
 8829SOL    HW238121   0.832   4.566  13.142  1.4507  1.2137  1.7502
 8830SOL     OW38122   1.725   3.767   8.137  0.2953  0.0101 -0.0977
 8830SOL    HW138123   1.701   3.777   8.044 -0.3637 -0.2756  0.0429
 8830SOL    HW238124   1.634   3.776   8.165  1.4318  0.4011  3.4008
 8831SOL     OW38125   3.544   4.382  17.295 -0.1703 -0.1266  0.0961
 8831SOL    HW138126   3.562   4.355  17.205 -2.6894 -0.4818 -0.3053
 8831SOL    HW238127   3.534   4.299  17.342 -0.4251  0.5557  1.2485
 8832SOL     OW38128   2.338   1.852   3.184 -0.1728 -0.2087  0.5714
 8832SOL    HW138129   2.248   1.828   3.162  0.7318 -0.0539 -3.4038
 8832SOL    HW238130   2.356   1.796   3.259 -0.8406 -1.5176 -0.2394
 8833SOL     OW38131   1.299   0.315   6.642 -0.5777  0.3290 -0.2136
 8833SOL    HW138132   1.260   0.400   6.663 -2.9396 -0.2245 -2.4326
 8833SOL    HW238133   1.333   0.298   6.730 -0.9586  1.3500  0.1324
 8834SOL     OW38134   2.300   1.951   5.434  0.9042 -0.5851 -0.0398
 8834SOL    HW138135   2.230   1.988   5.488  0.8572 -0.5926 -0.0952
 8834SOL    HW238136   2.342   1.909   5.508 -0.6680  1.0477  1.7970
 8835SOL     OW38137   2.161   4.682   3.867 -0.3165 -0.0380 -0.8426
 8835SOL    HW138138   2.198   0.032   3.874  3.7913 -1.6896 -1.9066
 8835SOL    HW238139   2.075   4.702   3.903  1.4380  0.1715  3.2274
 8836SOL     OW38140   1.449   1.106  17.265  0.4176  0.5618  0.0954
 8836SOL    HW138141   1.394   1.178  17.297  3.7689  3.0305  0.3780
 8836SOL    HW238142   1.378   1.043  17.254  1.8219 -0.9646 -0.1805
 8837SOL     OW38143   2.123   0.653   8.841  0.2492 -0.0484 -0.2351
 8837SOL    HW138144   2.164   0.641   8.927  0.0005  1.5787  0.1078
 8837SOL    HW238145   2.143   0.744   8.822  1.4074 -0.0166  1.0897
 8838SOL     OW38146   0.539   4.039  17.645  1.0677  0.1516 -0.4663
 8838SOL    HW138147   0.603   4.100  17.609 -0.2160  1.0735 -1.1989
 8838SOL    HW238148   0.458   4.072  17.606  0.8246  0.0930 -0.0154
 8839SOL     OW38149   3.909   3.108   4.974 -0.2372  0.3421  0.3813
 8839SOL    HW138150   3.996   3.124   4.938  0.2807  1.2081  2.0711
 8839SOL    HW238151   3.875   3.197   4.969  0.3719  0.5223 -0.6181
 8840SOL     OW38152   3.665   1.311   3.579  0.1630 -0.1216 -0.0007
 8840SOL    HW138153   3.647   1.404   3.567  0.3097 -0.3266 -1.8546
 8840SOL    HW238154   3.648   1.305   3.673  0.1802 -2.7668 -0.1622
 8841SOL     OW38155   2.455   3.038   7.246 -0.3141  0.0427 -0.1533
 8841SOL    HW138156   2.532   3.073   7.290 -0.8713 -0.9899  1.6572
 8841SOL    HW238157   2.427   2.974   7.311 -0.8299  0.3140 -0.1064
 8842SOL     OW38158   4.426   4.380   3.878  0.3614 -0.0523 -0.1438
 8842SOL    HW138159   4.496   4.406   3.818  1.2103  0.1673  0.9342
 8842SOL    HW238160   4.477   4.374   3.959  2.5068  0.8618 -1.4168
 8843SOL     OW38161   1.353   1.180  13.134  0.2303  0.4462  0.3745
 8843SOL    HW138162   1.428   1.228  13.170 -1.0810  2.3735  0.5160
 8843SOL    HW238163   1.384   1.090  13.149 -0.9393 -0.3836 -2.1780
 8844SOL     OW38164   2.657   4.231   3.479 -0.7372 -0.0606  0.0834
 8844SOL    HW138165   2.680   4.198   3.392 -0.1511  2.1996 -0.6058
 8844SOL    HW238166   2.634   4.320   3.454 -0.3775  0.0066 -0.0114
 8845SOL     OW38167   2.275   0.736  16.872  0.5468 -0.3645 -0.0247
 8845SOL    HW138168   2.194   0.694  16.842  1.2694 -1.1744 -0.8326
 8845SOL    HW238169   2.258   0.828  16.850 -0.8618 -0.9925 -1.5866
 8846SOL     OW38170   2.957   3.248  16.642  0.5343 -0.1141  0.4720
 8846SOL    HW138171   3.042   3.228  16.681  0.1865  3.5945  3.1349
 8846SOL    HW238172   2.961   3.165  16.594  0.3132  0.2064 -0.1099
 8847SOL     OW38173   3.873   2.852   6.675  0.5271  0.3011  0.3184
 8847SOL    HW138174   3.876   2.896   6.760 -0.5246 -0.4483  0.7385
 8847SOL    HW238175   3.779   2.858   6.663  0.6451  3.5721  1.1903
 8848SOL     OW38176   4.375   2.770   5.551 -0.0391  0.0029 -0.1435
 8848SOL    HW138177   4.438   2.823   5.502  0.8150 -2.4147 -1.6759
 8848SOL    HW238178   4.413   2.771   5.639 -0.4425  1.2696  0.0194
 8849SOL     OW38179   4.361   2.314   4.140  0.5363 -0.0067  0.1817
 8849SOL    HW138180   4.288   2.342   4.084 -1.1784 -1.1765  1.8576
 8849SOL    HW238181   4.436   2.371   4.123  0.9427  0.1003  2.4088
 8850SOL     OW38182   0.974   1.285   2.263  0.6845  0.5001 -0.4555
 8850SOL    HW138183   1.066   1.277   2.291  0.7604 -0.5993 -1.0287
 8850SOL    HW238184   0.964   1.379   2.247 -0.3594  0.4375 -0.1446
 8851SOL     OW38185   4.498   1.147   1.104  0.2764  0.0700 -0.3292
 8851SOL    HW138186   4.444   1.223   1.081  0.7985  0.2848 -0.8437
 8851SOL    HW238187   4.431   1.085   1.132 -1.1824  1.1400 -1.4410
 8852SOL     OW38188   0.933   4.585   5.161 -0.1711  0.0027 -0.0246
 8852SOL    HW138189   0.980   4.599   5.243 -0.5081 -3.2820  0.7241
 8852SOL    HW238190   0.979   4.518   5.109  0.6672  0.5867 -0.0440
 8853SOL     OW38191   4.025   4.292  13.750 -0.2189  0.0663 -0.1477
 8853SOL    HW138192   4.015   4.381  13.782 -0.4098 -0.5603  1.5382
 8853SOL    HW238193   4.084   4.262  13.819 -0.4886  1.1265  0.5413
 8854SOL     OW38194   3.514   1.283   5.544 -0.8152  0.0964 -0.6080
 8854SOL    HW138195   3.436   1.231   5.528 -0.7532 -0.3345  0.4537
 8854SOL    HW238196   3.481   1.372   5.532  2.1714  1.3228  0.1745
 8855SOL     OW38197   0.477   2.430   2.808  0.4916 -0.3048  0.0088
 8855SOL    HW138198   0.561   2.386   2.817  1.0896  0.7010 -0.6609
 8855SOL    HW238199   0.434   2.375   2.742 -0.1967 -0.7240  0.8124
 8856SOL     OW38200   2.346   0.907  14.529 -0.4763  0.2342 -0.2608
 8856SOL    HW138201   2.256   0.938  14.538 -0.9873 -1.0168 -1.1093
 8856SOL    HW238202   2.386   0.921  14.616 -1.7542  0.9275  0.2148
 8857SOL     OW38203   2.926   0.992  16.909 -0.0708 -0.1295  0.1549
 8857SOL    HW138204   2.866   1.004  16.835 -0.9027  0.7191  0.9572
 8857SOL    HW238205   2.898   0.901  16.920 -1.3997  0.4796  1.8137
 8858SOL     OW38206   4.730   2.548  14.924 -0.6484  0.1677 -0.0355
 8858SOL    HW138207   4.692   2.634  14.941 -2.3142 -0.6959  0.5966
 8858SOL    HW238208   0.079   2.577  14.897 -1.1375  0.4752 -1.2446
 8859SOL     OW38209   4.551   1.090   7.157 -0.2737 -0.4185  0.6414
 8859SOL    HW138210   4.504   1.031   7.098  0.4072 -0.9646  0.6499
 8859SOL    HW238211   4.497   1.168   7.143  1.2788  0.3218 -1.3418
 8860SOL     OW38212   2.087   1.976   0.338 -0.7956 -0.3071  0.0576
 8860SOL    HW138213   2.027   1.966   0.264  0.7319  2.8704 -1.5786
 8860SOL    HW238214   2.161   1.919   0.313 -1.2603 -0.8693 -0.0436
 8861SOL     OW38215   3.562   3.258  16.258  0.1505  0.0749  0.0428
 8861SOL    HW138216   3.496   3.305  16.206  0.9604  0.9322 -0.2021
 8861SOL    HW238217   3.522   3.171  16.260 -0.2656  0.2606 -0.2763
 8862SOL     OW38218   3.333   3.972   8.045 -0.0009 -0.7576  0.3132
 8862SOL    HW138219   3.309   3.965   7.952 -0.7825 -1.2864  0.5570
 8862SOL    HW238220   3.286   3.903   8.091 -1.7595  1.1957  1.4520
 8863SOL     OW38221   1.777   3.074   5.217 -0.3730  0.3879 -0.7808
 8863SOL    HW138222   1.682   3.076   5.223 -0.3011 -0.3100  0.5295
 8863SOL    HW238223   1.789   3.163   5.182 -2.5409  0.6139 -0.9279
 8864SOL     OW38224   0.128   0.113  12.165 -0.4583 -0.0139  0.1012
 8864SOL    HW138225   0.190   0.168  12.213 -2.9317  1.6226  1.4847
 8864SOL    HW238226   0.139   0.027  12.205 -0.1218  0.1899  0.4518
 8865SOL     OW38227   4.545   4.592   1.157  0.2233 -0.0367  0.0162
 8865SOL    HW138228   4.512   4.625   1.074  1.3068  0.9689 -0.0073
 8865SOL    HW238229   4.634   4.626   1.168  0.1482  0.2315 -0.1971
 8866SOL     OW38230   0.101   2.633   4.456 -0.7861 -0.7373 -0.8699
 8866SOL    HW138231   0.032   2.678   4.505 -0.7643  0.5607 -2.0382
 8866SOL    HW238232   0.129   2.562   4.514  2.0378 -0.6156 -2.0954
 8867SOL     OW38233   0.332   2.118   2.068  0.5251  0.0502  0.4050
 8867SOL    HW138234   0.310   2.208   2.042  1.4798 -0.3286 -1.7702
 8867SOL    HW238235   0.428   2.122   2.065  0.4663  0.2837 -1.6159
 8868SOL     OW38236   3.074   3.219   4.741  0.0294 -0.1010  0.1323
 8868SOL    HW138237   3.166   3.208   4.715  0.1903  2.0548 -0.1519
 8868SOL    HW238238   3.054   3.125   4.741 -0.7768  0.0691 -3.0126
 8869SOL     OW38239   3.440   4.009   6.431 -0.3272  0.2157 -0.1387
 8869SOL    HW138240   3.444   4.104   6.423 -0.4125  0.0874 -1.8389
 8869SOL    HW238241   3.355   3.987   6.391 -0.7086 -1.6027  1.7097
 8870SOL     OW38242   3.109   4.091   2.649  0.7266 -0.1412  0.5921
 8870SOL    HW138243   3.066   4.005   2.646 -1.7038  1.0689  0.3080
 8870SOL    HW238244   3.075   4.126   2.567 -0.4588 -0.0282  1.1280
 8871SOL     OW38245   2.432   3.218   2.967  0.4701 -0.0219 -0.0522
 8871SOL    HW138246   2.386   3.303   2.965 -0.9789 -0.8018  0.2003
 8871SOL    HW238247   2.485   3.228   3.045 -1.2203  2.5505  0.7934
 8872SOL     OW38248   3.696   1.125   8.943 -0.2962  0.2646  0.0014
 8872SOL    HW138249   3.731   1.211   8.922 -1.4496  0.5637 -0.6674
 8872SOL    HW238250   3.697   1.084   8.856 -0.8138  1.1814 -0.4279
 8873SOL     OW38251   2.197   2.241   0.784 -0.9195  0.1894 -0.3524
 8873SOL    HW138252   2.238   2.159   0.756 -1.0060  1.1667 -3.3810
 8873SOL    HW238253   2.125   2.242   0.720  0.1235 -1.7129 -1.5638
 8874SOL     OW38254   0.951   2.107   2.946  0.7443 -0.3224 -0.5908
 8874SOL    HW138255   1.039   2.076   2.969  1.7965  3.6243  0.5845
 8874SOL    HW238256   0.927   2.060   2.865 -0.3007 -0.7007 -0.0640
 8875SOL     OW38257   0.234   1.091   8.321 -0.0286 -0.2907 -0.1369
 8875SOL    HW138258   0.147   1.080   8.281  0.7500 -1.3279 -1.5647
 8875SOL    HW238259   0.204   1.150   8.390 -1.1767 -1.7596  0.6233
 8876SOL     OW38260   1.098   3.082   1.687  0.0478 -0.4567 -0.0094
 8876SOL    HW138261   1.167   3.052   1.627  1.2447  0.1668  1.0578
 8876SOL    HW238262   1.133   3.064   1.774  2.5499  2.5133 -0.3904
 8877SOL     OW38263   0.394   2.033   4.617 -0.0974 -0.0973 -0.3828
 8877SOL    HW138264   0.486   2.046   4.639  0.5127  0.5322 -3.4054
 8877SOL    HW238265   0.384   1.951   4.665 -1.3340  0.0815 -0.3201
 8878SOL     OW38266   4.188   4.451   5.807 -0.3833 -0.0317  0.2134
 8878SOL    HW138267   4.207   4.359   5.787  1.4012  0.6472 -1.2077
 8878SOL    HW238268   4.280   4.478   5.803 -0.4897  0.4655  1.0333
 8879SOL     OW38269   4.247   4.262   5.514 -0.4283 -0.2191  0.0830
 8879SOL    HW138270   4.194   4.244   5.592  1.0376  0.2781  1.1959
 8879SOL    HW238271   4.294   4.179   5.509  0.8554  0.5793 -0.9787
 8880SOL     OW38272   2.318   3.035   6.012  0.3662 -0.2349  0.3343
 8880SOL    HW138273   2.403   2.991   6.005  1.8297  2.5193  0.4744
 8880SOL    HW238274   2.258   2.961   6.010  1.4705 -1.1260 -0.7711
 8881SOL     OW38275   0.740   2.719   2.242  0.0853 -0.3537  0.1947
 8881SOL    HW138276   0.799   2.713   2.317  0.8176 -3.2127 -0.6125
 8881SOL    HW238277   0.672   2.766   2.290  0.2342  1.2642 -1.1867
 8882SOL     OW38278   3.888   3.868   5.633 -0.3174  0.2701 -0.3083
 8882SOL    HW138279   3.807   3.818   5.644 -0.1245  0.0570  0.1563
 8882SOL    HW238280   3.857   3.957   5.652  0.5320  0.7266 -1.1006
 8883SOL     OW38281   3.227   3.685   8.158  0.2238  0.6773 -0.0052
 8883SOL    HW138282   3.134   3.662   8.165  0.2122  0.6425 -0.2750
 8883SOL    HW238283   3.246   3.684   8.252 -0.0543 -2.3905  0.0182
 8884SOL     OW38284   0.490   2.702   3.191  0.1159  0.2730  0.0218
 8884SOL    HW138285   0.420   2.672   3.132 -0.0245 -0.7863  0.7394
 8884SOL    HW238286   0.513   2.628   3.246  1.3760  1.8418  1.5970
 8885SOL     OW38287   0.765   0.337   7.704  0.3129  0.2459 -0.0918
 8885SOL    HW138288   0.838   0.281   7.728 -0.3927 -0.6992 -0.1453
 8885SOL    HW238289   0.712   0.328   7.783 -1.3597 -3.4053 -1.6165
 8886SOL     OW38290   2.327   1.426   0.711  0.3642  0.3310 -0.3162
 8886SOL    HW138291   2.277   1.454   0.634 -2.7461 -0.8124  1.2695
 8886SOL    HW238292   2.272   1.461   0.782  1.9746 -0.3056  1.2558
 8887SOL     OW38293   0.965   3.404  15.946  0.3407  0.8452 -0.5266
 8887SOL    HW138294   0.900   3.451  15.997  0.5384  1.8986 -1.2345
 8887SOL    HW238295   1.042   3.415  16.002  1.1017  2.6634 -1.9055
 8888SOL     OW38296   3.768   2.752   9.884 -0.8876 -0.2725 -0.9089
 8888SOL    HW138297   3.751   2.780   9.794 -1.4109  0.9181 -0.4505
 8888SOL    HW238298   3.863   2.747   9.876 -0.7351  0.0891  0.7369
 8889SOL     OW38299   4.332   2.492  13.159 -0.4295 -0.7250 -0.6209
 8889SOL    HW138300   4.353   2.510  13.250  1.6025  0.4049 -1.3038
 8889SOL    HW238301   4.397   2.534  13.102  1.0413 -0.1411  1.5100
 8890SOL     OW38302   0.978   2.041   3.934 -0.6101  0.0573  0.1645
 8890SOL    HW138303   0.965   2.047   3.839 -1.3629 -0.5507  0.2241
 8890SOL    HW238304   1.013   2.128   3.950  0.1772 -0.4574  1.1981
 8891SOL     OW38305   2.867   3.953   6.295  0.2432  0.6762 -0.2373
 8891SOL    HW138306   2.944   3.947   6.239  0.6809  1.0036  0.3239
 8891SOL    HW238307   2.861   4.048   6.283 -1.3558  0.6327  0.1272
 8892SOL     OW38308   4.483   4.098   4.882  0.6291  0.7235  0.1397
 8892SOL    HW138309   4.457   4.026   4.825  1.6702 -0.9587  1.7468
 8892SOL    HW238310   4.459   4.171   4.826 -0.4830  0.3614  0.1559
 8893SOL     OW38311   4.196   4.374  10.223 -0.3483  0.2206 -0.2325
 8893SOL    HW138312   4.227   4.432  10.153  2.4527 -2.9394 -1.6032
 8893SOL    HW238313   4.192   4.424  10.305  1.2701 -1.1486  0.6731
 8894SOL     OW38314   4.354   1.306   5.798 -0.0129  0.2997  0.1733
 8894SOL    HW138315   4.293   1.232   5.790 -1.8612  1.7674  0.5701
 8894SOL    HW238316   4.438   1.261   5.791  0.3004  0.7611  1.0180
 8895SOL     OW38317   0.054   2.063   5.703  0.0424  0.3387  0.4503
 8895SOL    HW138318   0.009   2.018   5.775 -0.3847 -0.4860 -0.3126
 8895SOL    HW238319   0.148   2.049   5.712 -0.4517 -2.4765  1.4315
 8896SOL     OW38320   0.557   1.718   0.964  0.5211  0.2681  0.1581
 8896SOL    HW138321   0.469   1.684   0.978  0.4609 -0.2019 -1.3863
 8896SOL    HW238322   0.580   1.656   0.895 -0.5362  0.0270  0.0260
 8897SOL     OW38323   1.186   3.175   7.034  0.3850 -0.1218 -0.0898
 8897SOL    HW138324   1.106   3.148   6.988  0.9633 -0.0252 -1.1637
 8897SOL    HW238325   1.189   3.123   7.114  1.2179  0.7298  0.4221
 8898SOL     OW38326   1.277   1.748   7.362  0.0435 -0.1641  0.2399
 8898SOL    HW138327   1.188   1.750   7.396 -0.6671 -0.8638 -1.5692
 8898SOL    HW238328   1.246   1.760   7.272 -0.4833  1.0651  0.5731
 8899SOL     OW38329   4.128   0.446   0.757 -0.1361 -0.5621  0.1411
 8899SOL    HW138330   4.033   0.454   0.765  0.0706  1.7021  0.2723
 8899SOL    HW238331   4.126   0.447   0.662  0.8719  1.2501  0.1334
 8900SOL     OW38332   0.451   1.614  10.616 -0.4777  0.2651 -0.7531
 8900SOL    HW138333   0.514   1.557  10.572  1.3430  0.8784  1.0446
 8900SOL    HW238334   0.513   1.660  10.673 -0.3292 -2.5030  1.3178
 8901SOL     OW38335   3.401   1.187   3.684 -0.0605 -0.3347 -0.8239
 8901SOL    HW138336   3.476   1.148   3.638  0.4301 -0.5402  0.1552
 8901SOL    HW238337   3.442   1.226   3.762  1.8545 -3.6475 -0.1842
 8902SOL     OW38338   1.089   3.793  15.212 -0.6349 -0.2670  0.7514
 8902SOL    HW138339   1.129   3.775  15.126 -0.5859 -0.1913  0.7591
 8902SOL    HW238340   1.005   3.749  15.199  0.2731 -1.4023 -1.4208
 8903SOL     OW38341   2.708   0.632   4.860 -0.3514  0.4882 -0.0346
 8903SOL    HW138342   2.755   0.653   4.941  1.4211  1.0226 -1.2042
 8903SOL    HW238343   2.681   0.717   4.825 -0.2861  0.6365  0.2768
 8904SOL     OW38344   3.331   0.708   9.222  0.3383  0.1856  0.3199
 8904SOL    HW138345   3.291   0.686   9.138  1.3253 -0.3839 -0.0101
 8904SOL    HW238346   3.342   0.624   9.266  0.0985  1.1223  2.1745
 8905SOL     OW38347   0.348   2.985   3.578 -0.0891 -0.3510 -0.2299
 8905SOL    HW138348   0.312   2.918   3.519  2.0457 -2.9788  1.4312
 8905SOL    HW238349   0.421   3.019   3.526 -2.2403  0.7618 -2.5106
 8906SOL     OW38350   4.071   3.602   1.820  0.0489  0.8128  0.1924
 8906SOL    HW138351   4.004   3.636   1.760 -1.0916  0.6160  1.3628
 8906SOL    HW238352   4.111   3.543   1.755 -0.3971 -0.5201  1.1420
 8907SOL     OW38353   3.425   4.280   4.737 -0.1809  0.1811  0.1797
 8907SOL    HW138354   3.474   4.282   4.820  1.6377 -1.4936 -0.8629
 8907SOL    HW238355   3.392   4.370   4.740 -0.9999 -0.1795  1.7930
 8908SOL     OW38356   0.162   1.574   2.261  0.0039 -0.2181 -0.0693
 8908SOL    HW138357   0.250   1.552   2.289  0.0581  0.9677  0.6703
 8908SOL    HW238358   0.192   1.640   2.199 -2.9408  1.2758  0.0741
 8909SOL     OW38359   1.967   3.172   7.013  0.2950  0.2463  0.2216
 8909SOL    HW138360   1.873   3.155   7.017  0.9778 -3.3268  0.6943
 8909SOL    HW238361   2.012   3.090   7.037  0.6249  0.9647  2.0988
 8910SOL     OW38362   3.198   3.505   5.962  0.7968  0.1036  0.1024
 8910SOL    HW138363   3.114   3.459   5.963 -0.1689  1.8498 -0.9952
 8910SOL    HW238364   3.217   3.491   5.869  0.5029 -0.8366  0.1859
 8911SOL     OW38365   4.099   1.564   3.742  0.5163 -0.4324 -0.2053
 8911SOL    HW138366   4.035   1.635   3.750 -0.7410 -1.3491 -2.1539
 8911SOL    HW238367   4.181   1.590   3.785  0.9960  0.7418 -1.8059
 8912SOL     OW38368   4.559   0.964   8.504  0.0002 -0.2668  0.2489
 8912SOL    HW138369   4.621   1.035   8.522  0.4432 -0.4766 -0.4661
 8912SOL    HW238370   4.590   0.940   8.417  0.1349  0.5398  0.0766
 8913SOL     OW38371   0.511   0.490   7.590  0.0856  0.2224  0.3638
 8913SOL    HW138372   0.451   0.457   7.523 -2.8596  1.4209  2.4358
 8913SOL    HW238373   0.596   0.498   7.546 -1.0261  0.4480 -1.7199
 8914SOL     OW38374   0.912   2.871  10.667 -0.0384  0.2061 -0.5703
 8914SOL    HW138375   0.928   2.813  10.592 -0.1727 -0.8133  0.1962
 8914SOL    HW238376   0.921   2.811  10.741 -2.1257  0.9432  0.2763
 8915SOL     OW38377   4.356   4.029   7.412  0.7576 -0.0468  0.2307
 8915SOL    HW138378   4.371   4.008   7.504  1.1036 -2.3751 -0.3450
 8915SOL    HW238379   4.443   4.066   7.399  0.8873 -1.5674 -3.4194
 8916SOL     OW38380   3.901   2.371  14.377  0.3372  0.1715 -0.1268
 8916SOL    HW138381   3.988   2.348  14.409  0.9659  1.8609 -0.6433
 8916SOL    HW238382   3.853   2.289  14.388  0.3070  0.2892  0.6332
 8917SOL     OW38383   0.092   0.726   1.481 -0.1846 -0.5328  0.0151
 8917SOL    HW138384   0.064   0.804   1.529 -2.1022 -1.6189  0.6609
 8917SOL    HW238385   0.098   0.664   1.554 -1.2689  2.8692  3.0127
 8918SOL     OW38386   3.988   0.500   4.358  0.9216 -0.5785 -0.2305
 8918SOL    HW138387   4.001   0.406   4.343 -2.0876 -1.1523  0.7663
 8918SOL    HW238388   3.963   0.530   4.270 -0.1194  0.4032  0.4016
 8919SOL     OW38389   3.641   1.248  14.368  0.4283 -0.4950  0.2769
 8919SOL    HW138390   3.711   1.313  14.364 -0.7792  0.8292  0.8989
 8919SOL    HW238391   3.593   1.265  14.449 -0.2540  0.4474 -0.3224
 8920SOL     OW38392   0.521   1.790   7.676  0.3692 -0.4522 -0.4030
 8920SOL    HW138393   0.464   1.727   7.719  1.0160 -0.6608  0.1606
 8920SOL    HW238394   0.490   1.778   7.586 -0.1261 -0.6557 -0.2046
 8921SOL     OW38395   4.622   4.172   7.427 -0.2993  0.1966  0.3791
 8921SOL    HW138396   4.702   4.119   7.434  0.1229  0.7523 -0.2323
 8921SOL    HW238397   4.601   4.171   7.334  0.8938 -1.7891  0.1245
 8922SOL     OW38398   4.302   1.593   9.576 -0.6809 -0.1217  0.6882
 8922SOL    HW138399   4.347   1.509   9.572  0.6757  0.6074  0.2489
 8922SOL    HW238400   4.210   1.572   9.587 -0.9023  1.7426  2.5156
 8923SOL     OW38401   4.372   2.015   2.826  0.0285 -0.1715 -0.2765
 8923SOL    HW138402   4.407   1.931   2.799 -1.1436 -0.5263 -0.6623
 8923SOL    HW238403   4.278   2.001   2.837  0.1147  1.3083  2.5631
 8924SOL     OW38404   0.028   0.051   5.302  0.0875 -0.7348  0.1728
 8924SOL    HW138405   4.736   0.138   5.327  0.4781 -0.3540 -0.6952
 8924SOL    HW238406   0.016   0.006   5.385  1.6720 -0.5957  0.4686
 8925SOL     OW38407   2.223   2.537   4.930  0.4313  0.0212 -0.4644
 8925SOL    HW138408   2.215   2.532   4.834 -3.0537  4.1130 -0.3858
 8925SOL    HW238409   2.131   2.545   4.954 -0.1454  0.3976 -2.7398
 8926SOL     OW38410   1.059   3.076   4.417 -0.1763  0.0140  0.4127
 8926SOL    HW138411   1.139   3.038   4.381  0.4142  2.5670 -0.9450
 8926SOL    HW238412   1.084   3.168   4.424  0.2480 -0.2037  1.7922
 8927SOL     OW38413   1.659   0.716   2.274  0.7730 -0.1476 -0.2341
 8927SOL    HW138414   1.722   0.679   2.335 -0.5359  1.4169  2.0851
 8927SOL    HW238415   1.722   0.760   2.217  1.0447  2.2785  1.9431
 8928SOL     OW38416   3.629   2.121  13.774 -0.2968 -0.2023  0.7585
 8928SOL    HW138417   3.680   2.188  13.820 -0.9847  0.0259  1.1785
 8928SOL    HW238418   3.697   2.089  13.715 -1.9503 -1.0662 -0.6475
 8929SOL     OW38419   2.226   3.635  14.693  0.5207  0.0512  0.5164
 8929SOL    HW138420   2.148   3.679  14.658  1.0486  0.2437 -0.4134
 8929SOL    HW238421   2.278   3.609  14.617 -1.3877 -0.6495 -0.5302
 8930SOL     OW38422   3.774   3.038  10.033 -0.1321  0.6675  0.3822
 8930SOL    HW138423   3.837   3.036   9.962 -0.0244 -1.7664  0.5402
 8930SOL    HW238424   3.705   2.984   9.994 -0.3390  1.1117  0.1341
 8931SOL     OW38425   4.673   2.870  10.187  0.1287 -0.5387  0.1523
 8931SOL    HW138426   4.607   2.854  10.254  1.6555 -0.6052  1.6544
 8931SOL    HW238427   0.021   2.864  10.230  0.3564 -0.8106 -0.3337
 8932SOL     OW38428   2.753   1.136   4.425  0.1578 -0.7048  0.3750
 8932SOL    HW138429   2.834   1.174   4.461 -0.5848 -0.2188  1.5278
 8932SOL    HW238430   2.686   1.201   4.446  0.7393  0.1858 -0.4839
 8933SOL     OW38431   2.005   4.625  15.953 -0.5662  0.0145  0.6711
 8933SOL    HW138432   1.952   4.655  15.880 -0.4985  1.5161  1.2345
 8933SOL    HW238433   1.943   4.641  16.024  1.3669  0.1846  2.3392
 8934SOL     OW38434   3.781   1.715  13.334 -0.0780  0.0209  0.2305
 8934SOL    HW138435   3.746   1.653  13.398 -2.3233 -0.5311 -1.5728
 8934SOL    HW238436   3.718   1.785  13.351 -2.8328 -2.5311  0.5815
 8935SOL     OW38437   1.259   3.364  16.348 -0.1219 -0.1013 -0.6142
 8935SOL    HW138438   1.206   3.334  16.421 -1.3147 -1.1226 -1.8900
 8935SOL    HW238439   1.346   3.356  16.385  0.2771 -1.3407 -1.8384
 8936SOL     OW38440   3.528   0.422   8.940 -0.7406 -0.1075 -0.6482
 8936SOL    HW138441   3.578   0.503   8.928  0.2843 -0.7984 -1.0489
 8936SOL    HW238442   3.547   0.416   9.034 -0.4507 -1.4644 -0.7913
 8937SOL     OW38443   3.699   4.429   0.506  0.6606  0.2933  0.4556
 8937SOL    HW138444   3.735   4.512   0.476 -0.0921  0.6183  0.4505
 8937SOL    HW238445   3.670   4.389   0.423  2.3738  0.7639 -0.3611
 8938SOL     OW38446   2.379   3.279   7.105  0.0018 -0.2226 -0.2099
 8938SOL    HW138447   2.412   3.210   7.163 -1.3774 -0.3830  0.3923
 8938SOL    HW238448   2.434   3.250   7.033 -0.8097 -2.8485  0.2380
 8939SOL     OW38449   0.803   3.055   2.507  0.4746 -0.2245  0.1545
 8939SOL    HW138450   0.816   3.037   2.414 -1.0035 -0.0027 -0.0824
 8939SOL    HW238451   0.882   3.020   2.550  0.1125  1.1201  1.9313
 8940SOL     OW38452   4.397   3.781   8.340 -0.6139 -0.1641  0.3988
 8940SOL    HW138453   4.408   3.714   8.272 -1.0296  1.2759 -1.0860
 8940SOL    HW238454   4.449   3.845   8.291 -1.8107  0.5976  0.1263
 8941SOL     OW38455   2.228   0.075   3.560  0.4535  0.3043  0.0515
 8941SOL    HW138456   2.302   0.073   3.498  0.7037  0.8576  0.3307
 8941SOL    HW238457   2.261   0.060   3.648 -0.2443 -0.9343  0.1042
 8942SOL     OW38458   3.505   4.139   0.686  0.3217 -0.2151 -0.1049
 8942SOL    HW138459   3.533   4.147   0.594 -0.8169  1.5178 -0.3041
 8942SOL    HW238460   3.416   4.173   0.674  0.9062  1.5222  0.5423
 8943SOL     OW38461   2.441   0.110   5.888  0.0762 -0.7055  0.6837
 8943SOL    HW138462   2.430   0.034   5.832 -1.4344  1.5395 -2.0507
 8943SOL    HW238463   2.385   0.083   5.961 -1.4051  0.3809 -0.0304
 8944SOL     OW38464   0.136   2.975  15.661  0.5134 -0.4708  0.2138
 8944SOL    HW138465   0.154   2.914  15.733 -2.8518 -1.7395 -0.0182
 8944SOL    HW238466   0.204   3.038  15.685 -0.5187  0.1492  1.5198
 8945SOL     OW38467   2.677   0.884   1.686  0.0275  0.1488  0.3044
 8945SOL    HW138468   2.694   0.790   1.692 -0.5445 -0.0313 -0.8941
 8945SOL    HW238469   2.666   0.897   1.780 -1.7303 -0.7093  0.2056
 8946SOL     OW38470   0.699   4.337   3.993  0.1849 -0.5247 -0.1709
 8946SOL    HW138471   0.716   4.337   3.899 -2.2514  1.7784 -0.6341
 8946SOL    HW238472   0.757   4.407   4.022  1.8824 -1.5169 -1.2068
 8947SOL     OW38473   4.669   1.127   5.443  0.9558 -0.2530  0.4503
 8947SOL    HW138474   4.690   1.190   5.373  1.7459 -1.0329 -0.0132
 8947SOL    HW238475   4.583   1.095   5.417  0.8496 -0.7289  1.4018
 8948SOL     OW38476   4.651   3.472  15.852 -0.3376  0.4126 -0.0268
 8948SOL    HW138477   4.659   3.519  15.769  1.0301 -0.6433 -0.5048
 8948SOL    HW238478   4.615   3.546  15.901  2.1039 -0.0064  2.3442
 8949SOL     OW38479   2.751   1.553   1.699 -0.0218  0.3003 -0.3860
 8949SOL    HW138480   2.662   1.570   1.728  0.1747  0.1902  0.2826
 8949SOL    HW238481   2.797   1.548   1.782  0.8408 -0.1544 -0.8866
 8950SOL     OW38482   4.683   3.543   3.768 -0.1524 -0.2843  0.5020
 8950SOL    HW138483   0.032   3.531   3.806  0.7444  2.2970 -0.7049
 8950SOL    HW238484   4.706   3.578   3.682 -1.0513  0.8107  0.6994
 8951SOL     OW38485   3.137   3.729   3.887 -0.2444 -0.3867 -0.1614
 8951SOL    HW138486   3.102   3.802   3.836 -1.8991 -1.2191 -0.2105
 8951SOL    HW238487   3.222   3.758   3.921  0.1446 -0.3028 -1.2113
 8952SOL     OW38488   3.120   2.678   2.529  0.0289  0.2098  0.0280
 8952SOL    HW138489   3.089   2.591   2.502 -0.5235  1.0431 -1.9893
 8952SOL    HW238490   3.074   2.734   2.467 -1.9123 -0.7724  0.5703
 8953SOL     OW38491   2.849   4.139   4.204 -0.4936 -0.0081 -0.3851
 8953SOL    HW138492   2.930   4.170   4.244 -1.4828  0.7793  1.0212
 8953SOL    HW238493   2.836   4.063   4.262 -2.8693  0.9153  0.3110
 8954SOL     OW38494   3.139   2.229   2.232  0.2601  0.6424  0.0836
 8954SOL    HW138495   3.045   2.244   2.242 -0.0165  0.3025 -1.9945
 8954SOL    HW238496   3.148   2.145   2.276  1.7945  0.0950 -1.2845
 8955SOL     OW38497   2.037   0.757   4.940 -0.3390  0.2248  0.2541
 8955SOL    HW138498   2.112   0.747   4.882 -0.6274  1.4299 -0.3227
 8955SOL    HW238499   2.068   0.831   4.992  0.4246 -0.3393  0.6190
 8956SOL     OW38500   4.554   0.303   7.231  0.1156  0.7172  0.5205
 8956SOL    HW138501   4.628   0.275   7.177  0.1675 -2.1300  2.0637
 8956SOL    HW238502   4.483   0.311   7.168 -0.9486  0.3799  1.6841
 8957SOL     OW38503   4.315   4.014   1.617 -0.0061  0.0005  0.5166
 8957SOL    HW138504   4.236   3.984   1.661 -0.4282 -3.0804 -2.3154
 8957SOL    HW238505   4.304   4.101   1.580 -0.9204 -0.7574 -0.9885
 8958SOL     OW38506   0.311   3.966  15.540 -0.3125 -0.4084  1.0591
 8958SOL    HW138507   0.308   4.038  15.478 -1.9434 -2.2733 -1.0196
 8958SOL    HW238508   0.369   3.994  15.611  1.1000  2.4084 -1.2664
 8959SOL     OW38509   2.612   4.596   6.779 -0.1692 -0.4709  0.0816
 8959SOL    HW138510   2.683   4.593   6.715  0.0192  1.6672  0.2061
 8959SOL    HW238511   2.559   4.673   6.759 -0.0616 -0.2403  0.7049
 8960SOL     OW38512   4.716   2.652   8.210 -0.3015 -0.0537 -0.0591
 8960SOL    HW138513   0.055   2.595   8.220  0.7881  1.4247 -0.1202
 8960SOL    HW238514   4.647   2.591   8.184  1.0270 -1.9526  0.8354
 8961SOL     OW38515   3.131   4.275   6.416  0.0436  0.3644  0.2848
 8961SOL    HW138516   3.152   4.193   6.370 -0.9331 -0.4852  1.3532
 8961SOL    HW238517   3.095   4.221   6.487  0.0387  2.1494  1.6314
 8962SOL     OW38518   3.538   3.883   0.283 -0.2492  0.4422 -0.2207
 8962SOL    HW138519   3.538   3.807   0.224  0.7845  0.8488 -0.7537
 8962SOL    HW238520   3.507   3.839   0.362 -0.1422  0.8366  0.0399
 8963SOL     OW38521   3.970   3.262   3.641 -0.0706 -0.4953  0.5337
 8963SOL    HW138522   4.032   3.296   3.705 -0.3545  0.4713  0.2887
 8963SOL    HW238523   3.932   3.345   3.612  2.1978  0.5165  0.4562
 8964SOL     OW38524   2.635   4.117   6.523 -0.5829  0.3020  0.1535
 8964SOL    HW138525   2.653   4.160   6.607 -2.5457  2.1195 -0.3225
 8964SOL    HW238526   2.541   4.127   6.508 -0.7570 -1.3615  0.1861
 8965SOL     OW38527   2.241   1.429  16.144 -0.2672  0.2369  0.3022
 8965SOL    HW138528   2.271   1.446  16.055  2.7533 -2.3316  0.8559
 8965SOL    HW238529   2.273   1.508  16.187 -1.4392  0.8462  0.0685
 8966SOL     OW38530   1.233   1.199   2.290  0.2048 -0.8601 -0.6593
 8966SOL    HW138531   1.203   1.110   2.275  1.0031 -1.4811  1.5130
 8966SOL    HW238532   1.253   1.217   2.198 -0.0792  0.8511 -0.3857
 8967SOL     OW38533   0.860   0.577   3.935 -0.1072 -0.1995  0.1567
 8967SOL    HW138534   0.912   0.504   3.903 -0.6104  0.4626 -2.2265
 8967SOL    HW238535   0.871   0.564   4.029  0.7204 -1.3642 -0.1097
 8968SOL     OW38536   3.531   1.012   6.096  0.0603  0.1494  0.0179
 8968SOL    HW138537   3.581   0.931   6.082 -0.9008 -0.3408 -0.5882
 8968SOL    HW238538   3.448   0.966   6.105 -0.3991  1.2677  1.5196
 8969SOL     OW38539   4.365   1.483   5.260  0.1931 -0.1913 -0.1957
 8969SOL    HW138540   4.283   1.532   5.259 -0.0980 -0.6622  1.5018
 8969SOL    HW238541   4.356   1.415   5.193 -1.9905  1.1621 -1.2680
 8970SOL     OW38542   1.801   3.779   6.144  0.3607 -0.5687  0.7751
 8970SOL    HW138543   1.792   3.842   6.072 -0.0079  0.0027  1.3202
 8970SOL    HW238544   1.750   3.835   6.203 -1.2251  0.3480 -1.4333
 8971SOL     OW38545   0.876   2.030   5.826 -1.2709  0.1203 -0.1470
 8971SOL    HW138546   0.802   2.002   5.880 -3.3234  0.9040 -2.5504
 8971SOL    HW238547   0.829   2.099   5.779 -0.5138  0.7121 -0.0176
 8972SOL     OW38548   4.236   3.214   1.244  0.7940  0.2069  0.1168
 8972SOL    HW138549   4.219   3.258   1.161 -1.4170 -0.8787  0.0040
 8972SOL    HW238550   4.257   3.289   1.300  1.7092  0.1532 -0.1598
 8973SOL     OW38551   1.779   0.500  16.652  0.0695  0.0499 -0.4614
 8973SOL    HW138552   1.859   0.486  16.601  0.8805 -0.4185  0.9652
 8973SOL    HW238553   1.724   0.425  16.630  1.7885 -1.0275 -1.1161
 8974SOL     OW38554   0.059   3.818   6.889 -0.4061 -0.0161  0.2927
 8974SOL    HW138555   0.067   3.811   6.984 -0.4983  2.2945  0.4765
 8974SOL    HW238556   4.733   3.888   6.876 -0.4929  0.4870  3.4440
 8975SOL     OW38557   0.508   3.047   0.206 -0.3860 -0.1518 -0.0592
 8975SOL    HW138558   0.494   3.061   0.112  1.1804 -2.2823 -0.6161
 8975SOL    HW238559   0.600   3.074   0.216 -1.1971  1.2654  3.4081
 8976SOL     OW38560   0.113   0.595  14.178 -0.1025  0.3944 -0.1003
 8976SOL    HW138561   0.154   0.561  14.098 -0.2413 -1.6601  0.7126
 8976SOL    HW238562   0.031   0.619  14.135  1.2070  1.3151 -2.1404
 8977SOL     OW38563   2.587   0.374   9.181  0.3157  0.2763  0.0587
 8977SOL    HW138564   2.559   0.341   9.267  0.8964 -0.7864 -0.1648
 8977SOL    HW238565   2.591   0.468   9.197 -0.7781  0.1943  0.8181
 8978SOL     OW38566   1.376   2.205   6.935 -1.1015  0.1279  0.3716
 8978SOL    HW138567   1.342   2.294   6.936 -0.7763  0.2681 -1.8933
 8978SOL    HW238568   1.302   2.160   6.894  1.3505 -2.2016 -1.5608
 8979SOL     OW38569   0.406   4.532   3.256  0.5810  0.4659  0.0785
 8979SOL    HW138570   0.318   4.514   3.223 -0.2399  1.8746  1.4410
 8979SOL    HW238571   0.464   4.526   3.181  1.5639 -1.9107  1.0409
 8980SOL     OW38572   3.202   2.593  16.594  0.0100 -0.3221 -0.3125
 8980SOL    HW138573   3.190   2.644  16.674 -2.7967  0.2710 -1.1225
 8980SOL    HW238574   3.284   2.628  16.560  0.0010  1.9514  2.0490
 8981SOL     OW38575   3.225   0.804   8.741 -0.5141  0.1363 -0.3065
 8981SOL    HW138576   3.202   0.759   8.659 -1.1728  0.0417 -0.0623
 8981SOL    HW238577   3.242   0.735   8.805  0.0247  1.0898  0.5794
 8982SOL     OW38578   2.515   2.373   5.275 -0.1819 -0.0341 -0.1345
 8982SOL    HW138579   2.485   2.397   5.363 -0.2176  0.3206 -0.2428
 8982SOL    HW238580   2.610   2.368   5.291 -0.4164 -1.1127  0.9898
 8983SOL     OW38581   4.448   4.036   3.927  0.0045 -0.0236  0.0090
 8983SOL    HW138582   4.417   4.032   3.837 -0.2272 -2.8734  0.2380
 8983SOL    HW238583   4.406   3.959   3.964  2.0039  0.3123  2.9866
 8984SOL     OW38584   2.753   0.954   8.882 -0.1222 -0.0000 -0.0690
 8984SOL    HW138585   2.728   0.963   8.974 -2.7780 -1.6159 -0.6252
 8984SOL    HW238586   2.765   0.859   8.878  0.6095  0.0881  0.1451
 8985SOL     OW38587   1.230   4.396   3.609  0.3824  0.2397  0.3629
 8985SOL    HW138588   1.276   4.479   3.599  1.1319 -0.2592 -0.3639
 8985SOL    HW238589   1.215   4.370   3.518  0.9320 -0.5839  0.5010
 8986SOL     OW38590   1.073   2.432   8.280  0.0070 -0.1230  0.1752
 8986SOL    HW138591   1.009   2.409   8.214  1.1249  0.2558 -1.0438
 8986SOL    HW238592   1.070   2.346   8.322 -1.3338  0.2355  0.8221
 8987SOL     OW38593   1.699   3.549   6.041 -0.2678  0.8968  0.0645
 8987SOL    HW138594   1.747   3.623   6.079  0.9507  0.5427 -0.7797
 8987SOL    HW238595   1.762   3.477   6.051  1.0557  1.5942 -2.9872
 8988SOL     OW38596   3.782   1.175   7.454 -0.2709  0.1834 -0.5521
 8988SOL    HW138597   3.791   1.114   7.381 -2.7718 -0.7131 -0.1205
 8988SOL    HW238598   3.807   1.261   7.421 -0.6267  0.3606 -0.3516
 8989SOL     OW38599   2.426   0.265   3.288 -0.9527 -0.3544  0.4295
 8989SOL    HW138600   2.363   0.311   3.344 -1.0616 -0.7025  0.5916
 8989SOL    HW238601   2.427   0.309   3.203  0.1481  0.1757  0.7218
 8990SOL     OW38602   1.135   4.428   4.824  0.2678 -0.2849 -0.0836
 8990SOL    HW138603   1.151   4.390   4.738  0.6440 -0.0050 -0.1370
 8990SOL    HW238604   1.054   4.476   4.805 -0.2782 -0.9094  0.6580
 8991SOL     OW38605   2.890   0.129  17.386 -0.5205  0.5000  0.3998
 8991SOL    HW138606   2.855   0.055  17.436 -1.9766 -0.2713 -1.7539
 8991SOL    HW238607   2.905   0.089  17.300  1.5334 -1.5397  1.7142
 8992SOL     OW38608   3.200   1.626   4.015 -0.9842 -0.1105 -0.7082
 8992SOL    HW138609   3.105   1.616   4.015 -1.1825  1.6850 -1.5379
 8992SOL    HW238610   3.206   1.664   4.103 -1.3992  0.4964 -0.9409
 8993SOL     OW38611   1.126   3.387   4.363  0.2615  0.2105  0.2933
 8993SOL    HW138612   1.197   3.340   4.408 -0.6925  0.1207  1.6934
 8993SOL    HW238613   1.121   3.464   4.420  2.1104  0.7460 -0.2795
 8994SOL     OW38614   1.715   3.025   5.798  0.2141  0.2061  0.0343
 8994SOL    HW138615   1.721   3.108   5.752 -1.3131  0.3216  0.0357
 8994SOL    HW238616   1.792   3.034   5.854  0.3187 -0.4827  0.0094
 8995SOL     OW38617   1.079   0.145   6.644 -0.4573 -0.0421 -0.1620
 8995SOL    HW138618   1.033   0.224   6.673 -0.8697 -0.4498  0.2951
 8995SOL    HW238619   1.171   0.167   6.658 -0.9024  1.9522 -0.3817
 8996SOL     OW38620   3.290   3.612   3.477  0.5077 -0.1180  0.7583
 8996SOL    HW138621   3.204   3.598   3.516 -0.6026 -0.1170 -1.7326
 8996SOL    HW238622   3.340   3.660   3.543  0.1263  0.7300  0.4272
 8997SOL     OW38623   2.449   3.316   8.586  0.3771  0.3000 -0.1293
 8997SOL    HW138624   2.418   3.367   8.511 -1.6052 -1.5308 -0.5389
 8997SOL    HW238625   2.396   3.240   8.564 -0.1974  0.9759 -1.0792
 8998SOL     OW38626   0.631   3.555  17.050 -0.0222  0.2552 -0.3078
 8998SOL    HW138627   0.546   3.588  17.022 -1.0861  0.2329  2.8965
 8998SOL    HW238628   0.606   3.550  17.142  0.0859 -0.9793 -0.3459
 8999SOL     OW38629   3.681   4.448  12.072 -0.2233  1.0937  0.3800
 8999SOL    HW138630   3.750   4.515  12.068  0.3407  0.6484  2.5550
 8999SOL    HW238631   3.723   4.370  12.108 -1.6302  0.9055  1.6375
 9000SOL     OW38632   3.548   2.104   3.983  0.6867 -1.0284  0.4582
 9000SOL    HW138633   3.465   2.072   3.948 -0.0441 -2.0391  3.1267
 9000SOL    HW238634   3.528   2.109   4.077 -2.1068  0.4421 -0.2186
 9001SOL     OW38635   0.784   0.182  13.320  0.5074 -0.3193  0.4167
 9001SOL    HW138636   0.837   0.188  13.240 -2.0001 -0.1685 -1.2221
 9001SOL    HW238637   0.711   0.237  13.291 -0.1335 -1.3977  0.0169
 9002SOL     OW38638   2.593   0.259   8.944  0.2018 -0.0673  0.8838
 9002SOL    HW138639   2.609   0.191   9.009 -0.0267 -1.4543 -0.4957
 9002SOL    HW238640   2.582   0.330   9.007  1.6935 -0.7569  1.9167
 9003SOL     OW38641   0.712   2.080   8.410  0.1244  0.6765  0.2761
 9003SOL    HW138642   0.661   2.120   8.481  1.4199  2.1594  0.3744
 9003SOL    HW238643   0.689   2.143   8.341  1.8819  1.1400  0.1254
 9004SOL     OW38644   3.289   3.765   7.666 -0.4560  0.2642 -0.3276
 9004SOL    HW138645   3.271   3.703   7.596  0.8171 -0.5002  0.0224
 9004SOL    HW238646   3.319   3.844   7.621  2.3739 -2.2200 -2.7508
 9005SOL     OW38647   4.201   3.118  14.486 -0.3389 -0.7131  0.2457
 9005SOL    HW138648   4.251   3.116  14.568 -0.2220 -0.7759  0.1715
 9005SOL    HW238649   4.257   3.161  14.422 -1.8732  1.6430  0.5025
 9006SOL     OW38650   2.149   0.904   6.398  0.2254  0.3139  0.0768
 9006SOL    HW138651   2.155   0.991   6.358  1.1677 -0.0333 -0.5404
 9006SOL    HW238652   2.174   0.915   6.489 -0.8065  0.3989  0.3564
 9007SOL     OW38653   1.240   1.158   8.516 -0.5162 -0.3367 -0.0829
 9007SOL    HW138654   1.197   1.175   8.433 -1.3539 -1.8304  0.0564
 9007SOL    HW238655   1.171   1.181   8.578  0.7541  0.1399  1.1614
 9008SOL     OW38656   3.438   2.337  14.222  0.1396 -0.1532  0.3371
 9008SOL    HW138657   3.401   2.421  14.194  0.9071  0.1919  0.3669
 9008SOL    HW238658   3.513   2.366  14.273  0.3610  1.7493 -1.0878
 9009SOL     OW38659   4.531   1.195   8.157 -0.5188  0.6317 -0.2189
 9009SOL    HW138660   4.452   1.248   8.155 -1.1289 -0.2766 -0.1883
 9009SOL    HW238661   4.494   1.123   8.107  0.8030  1.4419 -2.3279
 9010SOL     OW38662   2.189   3.812   1.896 -0.0297 -0.2874 -1.0715
 9010SOL    HW138663   2.234   3.795   1.979  0.2748 -1.2624 -1.4304
 9010SOL    HW238664   2.142   3.891   1.922 -0.1323 -0.5034 -0.6021
 9011SOL     OW38665   3.571   3.154   2.676  0.3694 -0.7306 -0.1190
 9011SOL    HW138666   3.572   3.233   2.622 -1.5423 -1.5310 -1.3318
 9011SOL    HW238667   3.528   3.091   2.618 -1.3779 -1.5768  2.0654
 9012SOL     OW38668   4.155   4.524   1.510 -0.0079  0.1380 -0.4228
 9012SOL    HW138669   4.208   4.582   1.565  0.6170  0.3185 -1.2008
 9012SOL    HW238670   4.207   4.499   1.433 -0.6440 -2.0540 -0.1389
 9013SOL     OW38671   4.433   3.591   9.628 -0.9174  0.3157  0.0384
 9013SOL    HW138672   4.517   3.581   9.583 -1.3915 -1.5637 -0.4533
 9013SOL    HW238673   4.431   3.684   9.649 -0.6191  0.6012 -1.1841
 9014SOL     OW38674   4.189   0.411   3.796 -0.5304 -0.3967  0.6752
 9014SOL    HW138675   4.285   0.413   3.794 -0.5241  1.2223  2.0715
 9014SOL    HW238676   4.178   0.319   3.773  1.9042 -0.6950  0.6509
 9015SOL     OW38677   0.981   4.177   8.530 -0.1115 -0.3849 -0.6660
 9015SOL    HW138678   0.944   4.128   8.603  2.3334  1.3386  1.7407
 9015SOL    HW238679   0.951   4.265   8.551 -0.8894 -0.7933 -0.0532
 9016SOL     OW38680   0.877   0.460   4.653  0.9345 -0.2940  0.0818
 9016SOL    HW138681   0.839   0.469   4.566  0.9607 -1.2400 -0.0309
 9016SOL    HW238682   0.885   0.365   4.664  0.7666 -0.3036  0.1267
 9017SOL     OW38683   0.211   0.263   3.441 -0.2033 -0.0133 -0.0015
 9017SOL    HW138684   0.240   0.172   3.448  0.3082  0.2695  1.4734
 9017SOL    HW238685   0.290   0.295   3.399 -0.9358  3.9961  1.6834
 9018SOL     OW38686   4.669   1.194  13.469  0.5060  0.3971 -0.9040
 9018SOL    HW138687   4.686   1.219  13.559 -1.5623 -0.2516 -0.3277
 9018SOL    HW238688   4.581   1.232  13.471  0.3851  0.0863 -0.3677
 9019SOL     OW38689   0.205   3.972   4.789  0.4770 -0.4194  0.8915
 9019SOL    HW138690   0.241   3.979   4.701 -0.7845  2.5404  0.6154
 9019SOL    HW238691   0.257   4.038   4.835  1.7223  0.1849 -1.3454
 9020SOL     OW38692   2.501   2.887  17.047 -0.1291 -0.7218  0.2542
 9020SOL    HW138693   2.451   2.837  16.982  0.0442  2.2507 -2.1607
 9020SOL    HW238694   2.483   2.832  17.123  2.9599  0.3565  1.7641
 9021SOL     OW38695   0.436   3.036   1.411  0.5542 -0.5290  0.6479
 9021SOL    HW138696   0.473   3.051   1.324 -1.6393  3.3448  0.3625
 9021SOL    HW238697   0.343   3.018   1.396  0.6060 -1.4470  1.4510
 9022SOL     OW38698   2.861   2.805   0.096  0.0552 -0.6142  0.4098
 9022SOL    HW138699   2.775   2.815   0.054  0.0192  0.0407  0.6230
 9022SOL    HW238700   2.920   2.827   0.025  1.7349  0.7866  2.2403
 9023SOL     OW38701   1.391   1.014   4.802  0.0852  0.0448  0.1922
 9023SOL    HW138702   1.354   0.941   4.753 -0.5819  0.1865  0.4730
 9023SOL    HW238703   1.425   1.070   4.733 -1.5793  0.7755 -0.0366
 9024SOL     OW38704   0.952   0.763   9.681  0.2116  0.3850 -0.2025
 9024SOL    HW138705   0.904   0.692   9.724  0.6693  0.0013 -0.3172
 9024SOL    HW238706   0.953   0.843   9.733 -1.2641 -0.1967  0.7206
 9025SOL     OW38707   4.617   1.293  14.954 -0.2138  0.0899 -0.1705
 9025SOL    HW138708   4.683   1.224  14.965  2.1113  2.3642  0.1198
 9025SOL    HW238709   4.621   1.305  14.859  2.6668 -1.3133 -0.2049
 9026SOL     OW38710   2.991   0.978   2.137 -0.1389  0.0098  0.7418
 9026SOL    HW138711   3.083   1.004   2.139  0.0958 -0.7188 -0.5081
 9026SOL    HW238712   2.998   0.888   2.105 -2.6921  0.6945 -1.7386
 9027SOL     OW38713   2.183   2.044  11.626 -0.0263  0.2001  0.0555
 9027SOL    HW138714   2.263   1.996  11.605  0.4888 -0.5011  3.6521
 9027SOL    HW238715   2.168   2.040  11.721  0.0511  1.5905  0.1138
 9028SOL     OW38716   4.657   1.637   7.822  0.3024  0.2751 -1.1004
 9028SOL    HW138717   4.584   1.578   7.840 -0.1204  0.7583 -1.2466
 9028SOL    HW238718   4.613   1.695   7.760 -0.9898 -1.4985 -1.8280
 9029SOL     OW38719   4.588   3.261   5.776  0.2919  0.5024 -0.1029
 9029SOL    HW138720   4.526   3.188   5.780  0.3288  0.4597 -0.2821
 9029SOL    HW238721   4.568   3.329   5.840 -1.5802 -0.0079 -0.1618
 9030SOL     OW38722   0.568   3.568  16.596 -0.1805  0.0506 -0.3719
 9030SOL    HW138723   0.504   3.640  16.593 -1.3439 -1.0082 -1.0327
 9030SOL    HW238724   0.518   3.495  16.560 -2.0495  0.6305  1.0144
 9031SOL     OW38725   4.008   3.904   4.002  0.3377 -0.6199 -0.2502
 9031SOL    HW138726   3.938   3.941   3.950  1.9885  0.0648 -1.9885
 9031SOL    HW238727   3.972   3.817   4.022  0.4535 -0.2620  1.4826
 9032SOL     OW38728   0.353   0.748   3.590 -0.1451  0.0663  0.5694
 9032SOL    HW138729   0.269   0.706   3.572  0.4008 -1.4663  1.5502
 9032SOL    HW238730   0.388   0.775   3.506 -0.0786 -0.7127  0.3409
 9033SOL     OW38731   3.484   3.683   6.406 -0.1094 -0.6701  0.5415
 9033SOL    HW138732   3.450   3.772   6.417 -0.1087 -0.8493  1.9552
 9033SOL    HW238733   3.427   3.652   6.336  0.9604  1.0052 -1.1000
 9034SOL     OW38734   1.168   1.057   3.564  0.1421  0.6777  0.1468
 9034SOL    HW138735   1.175   1.051   3.659  1.1694 -0.5435 -0.0069
 9034SOL    HW238736   1.235   1.003   3.523 -0.8990  0.6366 -1.5014
 9035SOL     OW38737   2.100   1.833   8.935  0.3685  0.5504  0.0663
 9035SOL    HW138738   2.127   1.871   8.851 -1.8440  1.0577 -0.4195
 9035SOL    HW238739   2.010   1.865   8.942  0.4049  0.7989 -0.5970
 9036SOL     OW38740   4.562   0.641   1.696  0.4880 -0.1927  0.1450
 9036SOL    HW138741   4.548   0.735   1.686  4.1906  0.7412  3.3731
 9036SOL    HW238742   4.657   0.637   1.700  0.5243  1.0384  0.5249
 9037SOL     OW38743   2.318   3.506  15.229  0.2137 -0.7529  1.2053
 9037SOL    HW138744   2.390   3.460  15.273  1.2998 -1.9616 -1.9061
 9037SOL    HW238745   2.240   3.463  15.264 -1.4748 -0.8851 -2.8496
 9038SOL     OW38746   0.481   2.360   5.815  0.0713 -0.0781  0.0143
 9038SOL    HW138747   0.427   2.347   5.893 -1.0436  0.0097 -0.7385
 9038SOL    HW238748   0.521   2.445   5.833 -2.8828  1.9623 -3.1637
 9039SOL     OW38749   0.387   4.420   0.474 -0.2753  0.1412 -0.3933
 9039SOL    HW138750   0.477   4.393   0.457  1.0449  2.1891  3.1938
 9039SOL    HW238751   0.384   4.425   0.570  2.8869 -0.4423 -0.2666
 9040SOL     OW38752   0.419   1.734   8.374 -0.0678  0.3223 -0.4350
 9040SOL    HW138753   0.507   1.701   8.394 -0.1114  1.7982  2.2228
 9040SOL    HW238754   0.420   1.744   8.279 -0.8228 -0.1433 -0.4846
 9041SOL     OW38755   2.560   2.738  13.635 -0.0186  0.4905 -0.1711
 9041SOL    HW138756   2.549   2.832  13.650  2.0462  0.8788 -1.0481
 9041SOL    HW238757   2.571   2.731  13.540 -2.5034 -0.7626 -0.3691
 9042SOL     OW38758   4.094   0.111   2.589 -0.0367  0.0668  0.0575
 9042SOL    HW138759   4.091   0.196   2.634  0.3038 -0.1908  0.5707
 9042SOL    HW238760   4.117   0.050   2.660 -1.7418 -0.9701 -0.2939
 9043SOL     OW38761   4.046   0.784   5.260  0.0570 -0.1121 -0.4565
 9043SOL    HW138762   3.977   0.817   5.203  0.7027  0.2063 -1.0555
 9043SOL    HW238763   4.090   0.865   5.285  2.5550 -0.9692 -1.9934
 9044SOL     OW38764   2.471   4.357   6.145 -0.0952 -0.0031 -0.1550
 9044SOL    HW138765   2.391   4.407   6.125 -0.4975  0.2561  2.1214
 9044SOL    HW238766   2.442   4.265   6.152 -0.0924  0.0245  0.2155
 9045SOL     OW38767   1.620   1.704   0.812  0.4617  0.5313  0.2414
 9045SOL    HW138768   1.622   1.613   0.784 -0.5484  0.6530 -0.2134
 9045SOL    HW238769   1.582   1.744   0.734 -0.5101 -0.6376  0.1318
 9046SOL     OW38770   0.744   0.443  10.118 -0.0339  0.0920 -0.2368
 9046SOL    HW138771   0.794   0.484  10.048 -1.4657  1.9618 -0.1980
 9046SOL    HW238772   0.813   0.455  10.183  0.1163 -3.1819  0.1734
 9047SOL     OW38773   3.959   2.586   3.892 -0.7132 -0.8749  0.0001
 9047SOL    HW138774   3.917   2.652   3.838 -1.9150  0.2908  2.3609
 9047SOL    HW238775   4.022   2.647   3.932  0.2555 -0.2181 -2.5041
 9048SOL     OW38776   3.161   1.966   2.293  0.2921  0.4225  0.1652
 9048SOL    HW138777   3.223   1.922   2.352  0.3632  1.0774  0.5773
 9048SOL    HW238778   3.163   1.911   2.215 -0.4569  2.2132 -1.0986
 9049SOL     OW38779   4.218   3.653   8.788 -0.6401  0.5668 -0.2919
 9049SOL    HW138780   4.286   3.587   8.779 -1.3971 -0.2242 -0.1632
 9049SOL    HW238781   4.244   3.713   8.717  1.6378 -0.6202 -0.4484
 9050SOL     OW38782   0.416   0.363  11.901 -0.0606 -0.1575 -0.5195
 9050SOL    HW138783   0.473   0.380  11.976 -0.4241  0.4267 -0.3786
 9050SOL    HW238784   0.407   0.448  11.858  1.5378  0.5354  0.5312
 9051SOL     OW38785   0.301   2.906  13.367 -0.6870 -0.2901 -0.3811
 9051SOL    HW138786   0.215   2.873  13.341 -0.4126 -1.8368  0.6546
 9051SOL    HW238787   0.359   2.895  13.291 -0.4341  0.6351 -0.3122
 9052SOL     OW38788   1.758   3.455   3.459 -0.4895 -0.0878  0.0582
 9052SOL    HW138789   1.818   3.399   3.509  1.0577  1.6305  0.1299
 9052SOL    HW238790   1.760   3.536   3.510 -2.0490  0.3172 -0.5084
 9053SOL     OW38791   0.661   1.128  12.783  0.3316 -0.2250  0.8255
 9053SOL    HW138792   0.721   1.170  12.845  1.2572  2.6787 -2.0235
 9053SOL    HW238793   0.718   1.085  12.718 -1.6023  1.5409 -2.0505
 9054SOL     OW38794   0.376   4.318   9.138 -0.1861 -0.3331 -0.0871
 9054SOL    HW138795   0.370   4.316   9.233 -1.6365  3.3722 -0.0624
 9054SOL    HW238796   0.309   4.254   9.113 -0.5693 -0.0406  0.1751
 9055SOL     OW38797   2.712   3.760   3.907 -0.4060 -0.0679 -0.3393
 9055SOL    HW138798   2.748   3.696   3.967  1.0759  0.9837 -0.1054
 9055SOL    HW238799   2.777   3.831   3.902  0.5813 -0.8459  1.6411
 9056SOL     OW38800   0.619   3.823   4.555 -0.6201 -0.1802 -0.1765
 9056SOL    HW138801   0.527   3.825   4.528 -1.3118 -3.7187  1.8049
 9056SOL    HW238802   0.626   3.745   4.610  2.2074  0.5947  0.5535
 9057SOL     OW38803   2.603   1.749   2.362 -0.0268 -0.0030 -0.3522
 9057SOL    HW138804   2.646   1.749   2.448 -1.0492  1.0371  0.1608
 9057SOL    HW238805   2.519   1.712   2.389 -0.6256  1.6621  0.0807
 9058SOL     OW38806   2.130   3.387  16.300 -0.2824  0.0116 -0.7540
 9058SOL    HW138807   2.043   3.357  16.273 -0.7300 -0.0592  0.7588
 9058SOL    HW238808   2.184   3.329  16.248 -0.3487 -0.7193 -0.0178
 9059SOL     OW38809   0.486   1.999   3.386 -0.3966  0.5093  0.1369
 9059SOL    HW138810   0.398   1.963   3.368  0.1504 -1.6274  1.8374
 9059SOL    HW238811   0.510   1.959   3.469 -1.8707 -1.2962 -0.2872
 9060SOL     OW38812   4.677   1.548   4.007 -0.0927  0.1709 -1.1208
 9060SOL    HW138813   4.618   1.544   4.083 -0.6293 -1.8702 -1.6458
 9060SOL    HW238814   0.023   1.576   4.044  0.0134 -0.0899 -1.1628
 9061SOL     OW38815   0.644   2.822  16.490  0.0954 -0.3736 -0.6195
 9061SOL    HW138816   0.719   2.816  16.431 -1.0943  1.2507 -2.2747
 9061SOL    HW238817   0.631   2.917  16.489  1.9516 -0.0740  1.2250
 9062SOL     OW38818   3.681   1.051  12.512  0.2148 -0.2646 -1.0222
 9062SOL    HW138819   3.708   1.142  12.500  0.2661 -0.1316  0.0566
 9062SOL    HW238820   3.593   1.069  12.543  1.3509  3.2110  0.2352
 9063SOL     OW38821   2.556   3.103   9.857 -0.2482 -0.1426 -0.2862
 9063SOL    HW138822   2.536   3.010   9.845 -1.8859 -0.1786  3.0443
 9063SOL    HW238823   2.505   3.115   9.936  0.3946 -0.4505  0.1799
 9064SOL     OW38824   2.400   0.153   2.555  0.1312 -0.2130 -0.2282
 9064SOL    HW138825   2.454   0.140   2.477 -0.6482 -1.7953 -0.5095
 9064SOL    HW238826   2.316   0.180   2.518 -0.1364 -2.7152 -1.5047
 9065SOL     OW38827   1.244   1.217   7.140  0.7540  0.1080 -0.0293
 9065SOL    HW138828   1.333   1.224   7.176  0.6406  1.7471 -0.0834
 9065SOL    HW238829   1.224   1.134   7.185 -1.9268 -1.2606 -3.7095
 9066SOL     OW38830   4.533   2.522   7.460  0.3627 -0.0346 -0.3856
 9066SOL    HW138831   4.559   2.489   7.546  0.0741 -0.2934 -0.3985
 9066SOL    HW238832   4.480   2.447   7.432 -0.4347  0.0641  0.8435
 9067SOL     OW38833   2.902   3.685   7.533 -0.4155  0.0947  0.1001
 9067SOL    HW138834   2.835   3.692   7.602 -0.8038  0.2019 -0.2846
 9067SOL    HW238835   2.914   3.776   7.507 -0.3311  0.1044  0.1726
 9068SOL     OW38836   0.948   1.075   2.870  0.1006 -0.4021 -0.1866
 9068SOL    HW138837   0.948   1.066   2.965  0.4721  3.3066  0.1615
 9068SOL    HW238838   0.863   1.040   2.843 -0.0875 -0.7520  0.8996
 9069SOL     OW38839   1.716   1.098   3.810  0.3244  0.3240 -0.3944
 9069SOL    HW138840   1.746   1.031   3.872  0.2482 -0.9345 -1.7015
 9069SOL    HW238841   1.799   1.120   3.770  0.7443  1.5900  1.1889
 9070SOL     OW38842   1.997   2.801   4.726  0.0560  0.4407 -0.1028
 9070SOL    HW138843   2.067   2.866   4.731  0.8388 -0.5614  2.2311
 9070SOL    HW238844   1.927   2.856   4.691  0.4364  0.5253 -0.7345
 9071SOL     OW38845   0.068   3.119  12.003  0.3705  0.2054 -0.7948
 9071SOL    HW138846   0.016   3.152  11.929  0.3413 -0.5388 -1.1049
 9071SOL    HW238847   0.006   3.057  12.043  0.8080  0.2338 -0.0691
 9072SOL     OW38848   4.429   2.173   7.558 -0.6843  0.1873  0.6793
 9072SOL    HW138849   4.475   2.152   7.639  1.8975  0.1852 -0.7875
 9072SOL    HW238850   4.391   2.258   7.581 -2.0918  0.4595 -2.6112
 9073SOL     OW38851   1.638   1.907   2.524  0.0211  0.3156 -0.4001
 9073SOL    HW138852   1.705   1.890   2.457  0.6915  2.4816 -0.2890
 9073SOL    HW238853   1.606   1.823   2.558 -0.1734  0.1606 -0.9609
 9074SOL     OW38854   4.061   4.559  10.643  0.2844  0.5906 -0.1915
 9074SOL    HW138855   4.139   4.610  10.619  0.9391 -0.4266 -0.2199
 9074SOL    HW238856   4.017   4.525  10.566  0.3220  1.3643 -0.5528
 9075SOL     OW38857   4.501   1.940   6.478  0.3379  0.1234 -0.2238
 9075SOL    HW138858   4.453   1.858   6.487 -1.2747  1.2147  1.2836
 9075SOL    HW238859   4.439   1.989   6.424  0.3065 -0.2347 -0.5090
 9076SOL     OW38860   3.318   0.465   8.482 -0.2805 -0.6649  0.2128
 9076SOL    HW138861   3.267   0.395   8.441 -0.1661  0.7040 -2.2558
 9076SOL    HW238862   3.357   0.418   8.556 -0.2903  0.8691  1.1773
 9077SOL     OW38863   2.721   4.252   9.163  0.6125  0.5051  0.0839
 9077SOL    HW138864   2.708   4.330   9.218  0.2374 -1.8702  3.3957
 9077SOL    HW238865   2.681   4.279   9.080  1.2707 -2.1658 -1.0828
 9078SOL     OW38866   2.812   3.111   5.911  0.6466 -0.2816 -0.2764
 9078SOL    HW138867   2.859   3.099   5.828  0.4274  1.9324 -0.7097
 9078SOL    HW238868   2.876   3.141   5.975 -0.0200  1.0234 -0.2279
 9079SOL     OW38869   3.223   0.293  15.203  0.3762 -0.3840  0.5433
 9079SOL    HW138870   3.288   0.241  15.155  1.2745  1.0860  0.1743
 9079SOL    HW238871   3.140   0.249  15.182  0.2742 -1.0145  2.2628
 9080SOL     OW38872   2.462   0.974   7.420  0.3860 -0.2509  0.2577
 9080SOL    HW138873   2.528   1.039   7.395 -0.3428  0.7194  0.8243
 9080SOL    HW238874   2.398   0.981   7.349 -0.6414 -1.9106  1.0118
 9081SOL     OW38875   1.148   4.059   3.088  0.2907  0.0190 -0.5064
 9081SOL    HW138876   1.204   4.136   3.100  1.1212 -0.6848  0.1009
 9081SOL    HW238877   1.208   3.999   3.042 -1.4795 -0.0438 -2.7227
 9082SOL     OW38878   2.822   1.532   1.247  0.2863 -0.3080  0.4169
 9082SOL    HW138879   2.793   1.610   1.201  0.8288  1.6619  3.4395
 9082SOL    HW238880   2.864   1.575   1.321  0.7616  0.9280 -0.5738
 9083SOL     OW38881   4.327   2.644   9.195 -0.4741  0.1381  0.8097
 9083SOL    HW138882   4.364   2.678   9.276  0.7381  1.0209 -0.1065
 9083SOL    HW238883   4.392   2.680   9.134 -3.0551  1.6825 -1.0257
 9084SOL     OW38884   4.379   0.750   7.159  0.2510  0.3530  0.2625
 9084SOL    HW138885   4.378   0.814   7.231 -0.7176  2.1617 -1.3732
 9084SOL    HW238886   4.465   0.711   7.172  0.4888  0.7728 -0.0608
 9085SOL     OW38887   0.740   1.785   3.638 -0.2959 -0.9395 -0.8937
 9085SOL    HW138888   0.649   1.762   3.654 -0.9748  1.8965 -0.6461
 9085SOL    HW238889   0.745   1.787   3.543  2.2422  1.4390 -0.7110
 9086SOL     OW38890   3.102   0.337  13.837 -0.1154  0.1905  0.1193
 9086SOL    HW138891   3.192   0.311  13.857 -0.5842 -0.8445  0.9200
 9086SOL    HW238892   3.104   0.423  13.879  0.5444  0.3483 -0.2398
 9087SOL     OW38893   4.448   2.133   5.912  0.5916  0.3364 -0.1972
 9087SOL    HW138894   4.410   2.065   5.857  0.2373  0.8941 -0.6462
 9087SOL    HW238895   4.468   2.082   5.990 -2.6510 -2.4580 -1.2534
 9088SOL     OW38896   3.832   1.621   2.792  0.4461  0.0208 -0.0081
 9088SOL    HW138897   3.869   1.682   2.728  1.8336 -2.2510 -1.3785
 9088SOL    HW238898   3.744   1.634   2.756  0.9217 -1.5389 -1.7483
 9089SOL     OW38899   3.504   1.738   4.091  0.1606 -0.7186  0.4075
 9089SOL    HW138900   3.448   1.790   4.034  1.4142 -0.9453 -1.0451
 9089SOL    HW238901   3.512   1.799   4.164 -1.1517  0.1455 -0.1684
 9090SOL     OW38902   4.331   0.346   2.512  0.1407  0.2099  0.8022
 9090SOL    HW138903   4.348   0.419   2.452  1.4128 -1.1775 -0.5341
 9090SOL    HW238904   4.349   0.276   2.449  1.2406  0.6433  0.6372
 9091SOL     OW38905   3.803   0.076   7.542  0.2958 -0.5083  0.1317
 9091SOL    HW138906   3.826   4.722   7.527 -1.4990 -0.8008 -0.8238
 9091SOL    HW238907   3.762   0.070   7.628  1.5582 -1.4194  0.6691
 9092SOL     OW38908   2.870   2.866   8.014  0.1243 -0.6406  0.5058
 9092SOL    HW138909   2.891   2.924   7.941  1.7110 -0.2178  1.3156
 9092SOL    HW238910   2.833   2.926   8.078 -0.1757 -1.1555  0.8205
 9093SOL     OW38911   3.491   3.390   1.949 -0.3783  0.2782 -0.3973
 9093SOL    HW138912   3.405   3.399   1.991 -0.5626  0.2209 -0.7660
 9093SOL    HW238913   3.465   3.358   1.862 -0.3447 -0.3190 -0.1857
 9094SOL     OW38914   3.779   2.708   3.207  0.0986  0.1087 -0.0435
 9094SOL    HW138915   3.737   2.698   3.122  0.4074 -0.9282 -0.0652
 9094SOL    HW238916   3.763   2.800   3.229  0.8013 -0.2961  2.1822
 9095SOL     OW38917   2.087   0.438   8.677  0.0343  0.3735 -0.0819
 9095SOL    HW138918   2.104   0.506   8.742  0.1195 -0.0960  0.3925
 9095SOL    HW238919   1.994   0.443   8.655 -0.6668 -0.5123  2.6219
 9096SOL     OW38920   1.589   4.211   1.945 -0.1290 -0.4621 -0.0324
 9096SOL    HW138921   1.633   4.128   1.930 -0.7156 -0.7859  0.0386
 9096SOL    HW238922   1.506   4.182   1.984 -0.8453  3.1741  1.1691
 9097SOL     OW38923   1.741   3.362   7.455  0.4575 -0.1836  0.2633
 9097SOL    HW138924   1.669   3.402   7.406  0.8350 -0.1430 -0.2596
 9097SOL    HW238925   1.716   3.270   7.452  0.8584 -0.2704 -0.4409
 9098SOL     OW38926   4.125   2.613  17.123 -0.0309  0.2014 -0.4479
 9098SOL    HW138927   4.175   2.611  17.042  2.0596  0.7127  0.8325
 9098SOL    HW238928   4.141   2.526  17.159  3.1811  0.5261 -1.1130
 9099SOL     OW38929   4.451   3.505   8.842  0.4344  0.2791  0.4601
 9099SOL    HW138930   4.466   3.505   8.937 -1.4539  1.8181  0.7392
 9099SOL    HW238931   4.536   3.470   8.816  0.3809  2.1207 -2.1383
 9100SOL     OW38932   1.356   1.711   6.448 -0.4399  0.4930  0.4026
 9100SOL    HW138933   1.422   1.749   6.507  0.5329 -0.0552 -0.3343
 9100SOL    HW238934   1.406   1.705   6.367 -0.9304 -3.4296  0.4007
 9101SOL     OW38935   3.830   3.980  12.010  0.0135  0.4976  0.1331
 9101SOL    HW138936   3.906   4.006  11.959  0.1456  2.4217  1.3202
 9101SOL    HW238937   3.827   3.884  12.000  0.6167  0.5091 -0.1650
 9102SOL     OW38938   4.094   4.007   4.752 -0.5804 -0.1891  0.0743
 9102SOL    HW138939   4.049   3.925   4.729  0.9252 -0.9058 -0.3141
 9102SOL    HW238940   4.021   4.057   4.789  2.1048  3.3221  0.5636
 9103SOL     OW38941   2.846   2.540   4.334 -0.1403  0.2035 -0.6738
 9103SOL    HW138942   2.904   2.557   4.260  1.2541 -1.7795 -0.0164
 9103SOL    HW238943   2.895   2.479   4.389 -1.5233 -0.1357  0.2011
 9104SOL     OW38944   0.187   2.493  13.872 -0.1490  0.0659 -0.3660
 9104SOL    HW138945   0.233   2.475  13.790 -0.5954 -0.1739 -0.5659
 9104SOL    HW238946   0.149   2.578  13.853  2.3685  1.7742  2.2798
 9105SOL     OW38947   3.925   4.255   7.965  0.5798 -0.2028  0.3389
 9105SOL    HW138948   3.931   4.349   7.953 -1.0214 -0.1542  0.0374
 9105SOL    HW238949   3.843   4.241   7.918  0.1260  0.0554  1.0678
 9106SOL     OW38950   4.397   1.143  11.817  0.5583  0.2226 -0.5533
 9106SOL    HW138951   4.465   1.110  11.757  1.2334 -0.2693  0.4836
 9106SOL    HW238952   4.331   1.081  11.786  0.2432  0.7218 -0.8907
 9107SOL     OW38953   3.389   3.939   3.796 -0.4888 -0.4129  0.0889
 9107SOL    HW138954   3.360   3.966   3.709  1.1367 -2.3576 -1.0404
 9107SOL    HW238955   3.427   3.853   3.780 -0.0956 -0.5088  1.4808
 9108SOL     OW38956   4.688   4.098   3.610  0.0095 -0.4867  0.4901
 9108SOL    HW138957   4.730   4.078   3.526 -1.3490  2.4466 -0.8813
 9108SOL    HW238958   4.713   4.017   3.655 -0.4802 -1.2806 -0.6810
 9109SOL     OW38959   4.531   3.875   1.557 -0.2140  0.2284  0.5813
 9109SOL    HW138960   4.577   3.953   1.586  1.3005 -0.1409 -0.8515
 9109SOL    HW238961   4.442   3.910   1.556 -0.0303  0.7081  1.2611
 9110SOL     OW38962   1.752   3.008   8.541  0.1727 -0.9494 -0.2033
 9110SOL    HW138963   1.803   3.086   8.520 -0.8388  0.0053  0.9180
 9110SOL    HW238964   1.769   2.946   8.469 -1.0201  1.0601 -2.2168
 9111SOL     OW38965   0.624   2.291   1.525 -0.6515 -0.5400 -0.0576
 9111SOL    HW138966   0.616   2.378   1.564  3.1936 -0.7988  1.2337
 9111SOL    HW238967   0.659   2.305   1.437 -0.6652  0.4341  0.0855
 9112SOL     OW38968   2.439   2.637   6.116  0.3138 -0.1831  0.4346
 9112SOL    HW138969   2.438   2.568   6.183  2.5652 -1.7866 -1.2079
 9112SOL    HW238970   2.380   2.700   6.159 -0.0462 -0.0322 -0.2860
 9113SOL     OW38971   3.703   1.477   4.828 -0.4012  0.1162 -0.5361
 9113SOL    HW138972   3.722   1.486   4.921 -0.8617  0.2758 -0.4613
 9113SOL    HW238973   3.792   1.463   4.795  0.4426  4.1490  0.0437
 9114SOL     OW38974   4.115   2.532   5.040 -0.4068 -0.3186 -0.4100
 9114SOL    HW138975   4.192   2.554   5.091 -1.9027  0.7482  1.3672
 9114SOL    HW238976   4.053   2.545   5.112 -0.3764  2.0843 -0.8316
 9115SOL     OW38977   3.466   1.872  16.218 -0.5215 -0.1295 -0.7658
 9115SOL    HW138978   3.419   1.869  16.301 -1.8651  0.9355 -1.4875
 9115SOL    HW238979   3.456   1.966  16.201 -0.6440 -0.0523 -0.2643
 9116SOL     OW38980   2.993   3.526   9.800 -0.1794 -0.1961 -0.4570
 9116SOL    HW138981   3.020   3.573   9.879 -0.0814 -1.6294  0.3604
 9116SOL    HW238982   3.067   3.549   9.743 -0.0301  1.1971  0.3017
 9117SOL     OW38983   4.551   0.650   3.020  0.3100 -0.1350 -0.0553
 9117SOL    HW138984   4.592   0.720   3.070 -0.1469  0.4566 -0.5086
 9117SOL    HW238985   4.618   0.581   3.015  1.0843  0.9432 -4.2440
 9118SOL     OW38986   1.965   3.615  17.413  0.4493 -0.2293  0.3222
 9118SOL    HW138987   1.974   3.666  17.494  1.2329 -0.9117  0.6663
 9118SOL    HW238988   1.905   3.549  17.448  1.0484 -1.4669 -1.0084
 9119SOL     OW38989   4.520   3.183   9.720 -0.5412 -0.3479 -0.0759
 9119SOL    HW138990   4.607   3.190   9.758 -1.2975 -1.2059  1.7960
 9119SOL    HW238991   4.502   3.093   9.747  2.2662 -0.8389  0.0723
 9120SOL     OW38992   1.565   2.632   5.320 -0.5764 -0.5679  0.4371
 9120SOL    HW138993   1.568   2.566   5.389 -0.4405  0.5260  1.4654
 9120SOL    HW238994   1.537   2.578   5.246 -1.0727  1.5822 -0.9527
 9121SOL     OW38995   2.068   3.560   3.074 -0.1245  0.1141  0.2486
 9121SOL    HW138996   2.045   3.481   3.123  0.2624  0.7999  1.5437
 9121SOL    HW238997   2.009   3.628   3.107  0.9274  1.1254  0.0488
 9122SOL     OW38998   1.986   3.018  15.994 -0.1273  0.1233  0.0380
 9122SOL    HW138999   1.996   3.106  16.031  1.4485 -0.3472  0.7288
 9122SOL    HW239000   2.049   2.976  16.053  1.0804  2.1029  0.1396
 9123SOL     OW39001   2.487   3.273   3.663  0.2590  0.0110  0.1894
 9123SOL    HW139002   2.545   3.202   3.634  2.2513  0.8812  2.0353
 9123SOL    HW239003   2.442   3.289   3.580  1.0565  2.8905  0.3187
 9124SOL     OW39004   3.316   2.711   6.983 -0.5513 -0.1339 -0.1943
 9124SOL    HW139005   3.370   2.631   6.979  1.3675  1.2373 -1.7250
 9124SOL    HW239006   3.308   2.714   7.078  1.5715  1.1856 -0.0724
 9125SOL     OW39007   3.400   1.070  12.599  0.1827  0.0890  0.0186
 9125SOL    HW139008   3.343   1.109  12.532 -0.1578  2.1873  1.5281
 9125SOL    HW239009   3.397   1.135  12.670  0.1118 -0.8594  0.8852
 9126SOL     OW39010   0.412   2.711  12.187  0.0843 -0.0086 -0.1635
 9126SOL    HW139011   0.491   2.764  12.182  1.3027 -1.6917  1.4153
 9126SOL    HW239012   0.446   2.622  12.198  0.4007  0.2084  0.5928
 9127SOL     OW39013   0.867   3.587   3.502 -0.1672 -0.3119  0.2098
 9127SOL    HW139014   0.952   3.631   3.499 -0.2618 -0.1528 -0.2139
 9127SOL    HW239015   0.811   3.656   3.465 -0.3059 -0.9007 -0.6870
 9128SOL     OW39016   2.511   0.605   4.592  0.4044  0.6028  0.0305
 9128SOL    HW139017   2.581   0.657   4.630 -0.2364  0.0283  1.9665
 9128SOL    HW239018   2.523   0.621   4.498  0.3612 -0.9003 -0.2428
 9129SOL     OW39019   3.524   4.656   4.653  0.3372  0.2120  0.5388
 9129SOL    HW139020   3.455   4.627   4.711  0.2401  2.1887  1.4278
 9129SOL    HW239021   3.473   4.702   4.586 -0.0555 -0.5568  0.3202
 9130SOL     OW39022   3.175   4.644   3.908 -0.3095  0.1636 -0.3918
 9130SOL    HW139023   3.266   4.662   3.884  0.0589  0.8202  1.4730
 9130SOL    HW239024   3.170   4.703   3.984 -1.8306 -0.3396 -0.1099
 9131SOL     OW39025   1.956   2.467   7.258  0.1584  0.2298 -0.1175
 9131SOL    HW139026   1.872   2.514   7.264 -0.5810 -0.8389 -2.3717
 9131SOL    HW239027   1.924   2.383   7.226 -1.6887  0.7424  0.3977
 9132SOL     OW39028   0.702   4.282   2.834 -0.0366  0.7856 -1.0886
 9132SOL    HW139029   0.625   4.302   2.887  0.6109 -0.8599  0.4877
 9132SOL    HW239030   0.679   4.200   2.791 -1.2021 -0.0050  1.0175
 9133SOL     OW39031   0.743   1.453   2.402  0.3688 -0.0914 -0.5425
 9133SOL    HW139032   0.748   1.541   2.438 -0.5890 -1.4127  2.9177
 9133SOL    HW239033   0.777   1.468   2.314 -0.5179  0.6809 -0.7472
 9134SOL     OW39034   0.202   1.720   7.256 -0.3994  0.1788  0.0252
 9134SOL    HW139035   0.198   1.628   7.232  0.1266 -0.2693  1.6757
 9134SOL    HW239036   0.296   1.723   7.274 -0.8512  1.3719  2.1877
 9135SOL     OW39037   4.317   1.525  12.472  0.6021 -0.1975 -0.2760
 9135SOL    HW139038   4.376   1.506  12.399  1.9502 -0.0931  0.7880
 9135SOL    HW239039   4.272   1.441  12.475  0.1198  0.1144  0.9292
 9136SOL     OW39040   0.365   1.194   3.388  0.0847 -0.0662 -0.2248
 9136SOL    HW139041   0.406   1.280   3.398 -1.0145  0.6245 -1.7205
 9136SOL    HW239042   0.317   1.176   3.469  0.9113 -0.1192  0.2532
 9137SOL     OW39043   3.879   2.566   0.173  0.0365  0.3834 -1.0446
 9137SOL    HW139044   3.881   2.476   0.141 -2.2164  0.2692 -0.9109
 9137SOL    HW239045   3.808   2.552   0.235  0.5211 -0.2879 -0.6391
 9138SOL     OW39046   2.258   1.417   3.852  0.4480  0.0378 -0.5066
 9138SOL    HW139047   2.296   1.376   3.930 -0.7076  4.8390  2.5152
 9138SOL    HW239048   2.229   1.335   3.810  0.5346 -0.3897  0.2614
 9139SOL     OW39049   1.706   0.318   2.281 -0.5868 -0.2394  0.1189
 9139SOL    HW139050   1.659   0.378   2.223 -0.1262 -0.1357 -0.1517
 9139SOL    HW239051   1.638   0.273   2.329 -1.0619  0.5869  0.2177
 9140SOL     OW39052   4.146   4.345   6.786 -0.4906 -0.6975 -0.5818
 9140SOL    HW139053   4.150   4.323   6.693 -0.8388 -1.0434 -0.5150
 9140SOL    HW239054   4.054   4.367   6.797 -0.2325  0.0252  0.0785
 9141SOL     OW39055   2.877   2.533   4.865 -0.3100 -0.2480  0.0633
 9141SOL    HW139056   2.928   2.580   4.931 -1.9347  2.4997 -0.6420
 9141SOL    HW239057   2.864   2.594   4.792  1.5574  1.2729  1.0302
 9142SOL     OW39058   4.442   0.402  10.013  0.6822  0.3869 -0.7766
 9142SOL    HW139059   4.518   0.344  10.018 -1.0371 -1.5927  2.5466
 9142SOL    HW239060   4.372   0.349   9.976  2.3574 -0.4744 -2.7435
 9143SOL     OW39061   2.047   4.620   0.703  0.0219  0.8491  0.4861
 9143SOL    HW139062   2.094   4.580   0.630  1.4339  1.9558  0.7795
 9143SOL    HW239063   2.105   4.602   0.777 -0.4346  1.8221  1.0809
 9144SOL     OW39064   4.623   4.407   5.321 -0.7115 -0.3188  0.0906
 9144SOL    HW139065   4.571   4.328   5.306 -0.9014  0.1463 -1.7940
 9144SOL    HW239066   4.715   4.383   5.332 -0.2688  0.8452 -1.0717
 9145SOL     OW39067   4.011   2.315   7.340 -0.0170 -0.5713  0.5354
 9145SOL    HW139068   4.070   2.262   7.393  0.5149 -1.1992 -0.6962
 9145SOL    HW239069   3.925   2.278   7.361 -1.0221  1.3385 -0.2234
 9146SOL     OW39070   3.085   4.570   4.350 -0.0494  0.7865  0.2087
 9146SOL    HW139071   2.994   4.555   4.378 -0.0359  1.8525  0.8573
 9146SOL    HW239072   3.120   4.497   4.401 -0.2583 -0.8462 -1.9770
 9147SOL     OW39073   3.697   2.239   2.907  0.4345  0.1018 -0.0514
 9147SOL    HW139074   3.645   2.251   2.986  0.0256 -1.1030 -0.1381
 9147SOL    HW239075   3.665   2.312   2.853 -0.2241 -1.2105 -1.4569
 9148SOL     OW39076   4.145   4.304   2.524 -0.1201  0.4708  0.1755
 9148SOL    HW139077   4.136   4.396   2.502 -1.9157  0.2638  0.0387
 9148SOL    HW239078   4.054   4.276   2.510  1.0945 -1.7049 -3.3055
 9149SOL     OW39079   0.139   3.054   2.531 -0.7618 -0.2997 -0.7295
 9149SOL    HW139080   0.096   3.065   2.616 -0.6773  1.8166 -0.9776
 9149SOL    HW239081   0.076   2.993   2.491  1.1255 -0.5491 -3.2928
 9150SOL     OW39082   2.860   4.186   3.668  0.1898  0.0242  0.2113
 9150SOL    HW139083   2.816   4.183   3.753 -0.5154  0.7492 -0.1248
 9150SOL    HW239084   2.791   4.219   3.611  0.0100 -2.6874 -1.1678
 9151SOL     OW39085   4.085   0.690   6.347  0.1765  0.1209  0.1796
 9151SOL    HW139086   4.012   0.723   6.397 -1.2745 -1.4552 -0.8889
 9151SOL    HW239087   4.124   0.766   6.305  1.1044 -0.1756  0.5010
 9152SOL     OW39088   2.278   1.690   4.600  0.4644  0.0046  0.1007
 9152SOL    HW139089   2.340   1.761   4.583  0.6343 -0.6238 -1.9476
 9152SOL    HW239090   2.197   1.740   4.592  0.3537 -0.1556  0.2300
 9153SOL     OW39091   0.596   0.739   1.005  0.8117 -0.8968 -0.3605
 9153SOL    HW139092   0.656   0.718   0.933 -0.9061  0.1220 -2.1028
 9153SOL    HW239093   0.526   0.762   0.944  1.8713 -1.4995 -1.8162
 9154SOL     OW39094   4.685   4.080  11.191 -0.3486 -0.2011  0.1417
 9154SOL    HW139095   4.612   4.038  11.236 -0.8212 -0.3319 -0.7527
 9154SOL    HW239096   4.711   4.150  11.251 -0.6884  0.6232 -0.6753
 9155SOL     OW39097   4.431   4.735   8.256 -0.3646  0.1161  0.1418
 9155SOL    HW139098   4.502   0.000   8.192  0.7026 -1.6161  1.2480
 9155SOL    HW239099   4.374   0.059   8.210 -0.9544 -0.5417 -0.0136
 9156SOL     OW39100   4.483   3.762  13.327  0.2506  0.2909 -0.7723
 9156SOL    HW139101   4.524   3.848  13.337 -1.4814  1.0794 -0.3264
 9156SOL    HW239102   4.561   3.707  13.328  0.8002  1.0912  0.7543
 9157SOL     OW39103   4.307   0.639   4.112  0.3100  0.6894  0.1725
 9157SOL    HW139104   4.213   0.619   4.109  0.1609  1.4402 -0.2654
 9157SOL    HW239105   4.342   0.591   4.187 -1.1291 -2.0997 -0.9297
 9158SOL     OW39106   1.566   0.779   2.872 -0.1891  0.0003 -0.2910
 9158SOL    HW139107   1.617   0.860   2.876  0.6992 -0.5518 -0.4681
 9158SOL    HW239108   1.542   0.767   2.964  0.9750  2.1930  0.3113
 9159SOL     OW39109   1.669   4.031  17.579  0.1796  0.1422 -0.0690
 9159SOL    HW139110   1.593   4.080  17.610  0.4658 -1.3112  2.9040
 9159SOL    HW239111   1.657   3.944  17.617  0.0423  0.8280  1.4517
 9160SOL     OW39112   1.083   2.172   8.642  0.2536  0.0114  0.0650
 9160SOL    HW139113   1.169   2.214   8.648 -0.1061  0.6150  1.0181
 9160SOL    HW239114   1.102   2.083   8.612  0.0234 -0.4679  1.3410
 9161SOL     OW39115   2.675   0.517  17.141  0.2541 -0.0570  0.2557
 9161SOL    HW139116   2.612   0.497  17.210 -0.2968 -0.2682 -0.3075
 9161SOL    HW239117   2.702   0.607  17.158 -0.7379  1.1226 -4.4199
 9162SOL     OW39118   0.953   3.410  14.443 -0.2646  0.4322  0.4980
 9162SOL    HW139119   0.896   3.477  14.480 -0.4056  0.6633 -0.1386
 9162SOL    HW239120   1.029   3.424  14.501 -0.0385  0.6071  0.1591
 9163SOL     OW39121   0.731   0.149  12.890 -0.2673  0.4915  1.0192
 9163SOL    HW139122   0.761   0.090  12.820  0.3874 -0.4606  2.0969
 9163SOL    HW239123   0.637   0.142  12.875  0.5352 -0.6926 -3.4211
 9164SOL     OW39124   4.543   4.640   9.623 -0.4149 -0.2493 -0.1228
 9164SOL    HW139125   4.538   4.681   9.536  1.0099  0.2595  0.0351
 9164SOL    HW239126   4.468   4.683   9.663 -0.1542  0.3094 -0.2284
 9165SOL     OW39127   2.560   2.943   3.033 -0.4279 -0.6915 -0.0126
 9165SOL    HW139128   2.625   2.917   3.099  0.8226  0.5205 -0.7658
 9165SOL    HW239129   2.560   3.038   3.041 -2.2236 -0.6022 -1.1504
 9166SOL     OW39130   2.084   2.019   7.297  0.4389  0.3653 -0.2671
 9166SOL    HW139131   2.035   1.965   7.359  0.7463 -0.9996 -1.2029
 9166SOL    HW239132   2.167   1.971   7.296  0.5669  0.5741  0.5870
 9167SOL     OW39133   3.811   1.883  12.388  0.2561 -0.8935 -0.2304
 9167SOL    HW139134   3.826   1.968  12.346  1.1717 -0.7560  0.3636
 9167SOL    HW239135   3.728   1.852  12.353  0.1791  0.8300 -1.5526
 9168SOL     OW39136   1.471   2.780  16.849  0.1162 -0.4719 -0.3404
 9168SOL    HW139137   1.439   2.869  16.860 -3.6825 -1.5145 -2.7704
 9168SOL    HW239138   1.445   2.730  16.926  1.5909 -0.4806  0.1423
 9169SOL     OW39139   2.918   2.065   2.062 -0.1998  0.2413  0.2337
 9169SOL    HW139140   2.895   2.004   2.132 -2.2301  2.4973  1.5468
 9169SOL    HW239141   2.944   2.007   1.991  1.4411  2.3653 -0.9130
 9170SOL     OW39142   2.404   2.814   1.993 -0.0879 -0.0178  0.1830
 9170SOL    HW139143   2.444   2.861   2.066  2.0690  0.8218 -1.5606
 9170SOL    HW239144   2.338   2.883   1.984 -1.8870 -1.8773 -0.8364
 9171SOL     OW39145   4.560   2.153   6.976  0.6016 -0.3329 -0.5029
 9171SOL    HW139146   4.518   2.118   6.898 -2.5912  2.3617  0.0536
 9171SOL    HW239147   4.549   2.077   7.033  2.5549  0.3249  0.7530
 9172SOL     OW39148   1.969   1.179   3.710 -0.0542  0.0802  0.4652
 9172SOL    HW139149   1.950   1.265   3.746 -2.5279  0.3285 -1.4889
 9172SOL    HW239150   2.059   1.196   3.681  0.1861 -1.4847  0.2817
 9173SOL     OW39151   0.012   2.337  17.624  0.1897 -0.4942 -0.5338
 9173SOL    HW139152   0.027   2.244  17.611 -0.5671 -0.3084 -2.6283
 9173SOL    HW239153   0.079   2.352  17.691 -1.0984  1.0807  0.4046
 9174SOL     OW39154   0.331   2.153   1.372 -0.1088 -0.2234  0.0540
 9174SOL    HW139155   0.300   2.109   1.452  0.1073 -0.8197 -0.1906
 9174SOL    HW239156   0.406   2.104   1.339  0.8978  1.1201  0.3606
 9175SOL     OW39157   3.030   2.787   3.954 -0.1545 -0.2479  0.1219
 9175SOL    HW139158   2.995   2.876   3.963  2.1170  0.6478  0.0014
 9175SOL    HW239159   3.000   2.769   3.865  1.1311  0.8222 -0.5329
 9176SOL     OW39160   1.189   2.236   9.949  0.2042  0.4993 -0.1560
 9176SOL    HW139161   1.126   2.308   9.963  1.6270  1.6550  0.2880
 9176SOL    HW239162   1.144   2.168   9.999  1.4550 -2.4507 -3.0818
 9177SOL     OW39163   0.464   1.438   1.964  0.0290 -0.3996 -0.1658
 9177SOL    HW139164   0.393   1.488   1.924  1.5089 -0.3731 -2.7885
 9177SOL    HW239165   0.500   1.406   1.881  0.4751 -2.1810  0.7044
 9178SOL     OW39166   2.713   2.820   4.412  0.1317  0.0686 -0.3004
 9178SOL    HW139167   2.778   2.881   4.379 -1.3333  2.4066  1.1631
 9178SOL    HW239168   2.732   2.745   4.355 -0.1447 -1.3643  1.4619
 9179SOL     OW39169   2.464   0.534   2.779 -0.1977 -0.3697 -0.3741
 9179SOL    HW139170   2.399   0.578   2.833 -0.9077 -0.1487 -1.4284
 9179SOL    HW239171   2.551   0.547   2.817 -1.3622  1.6594  1.5601
 9180SOL     OW39172   2.139   0.704   7.793  0.3348  0.0631  0.3664
 9180SOL    HW139173   2.051   0.668   7.787 -0.7450  2.5386  1.6046
 9180SOL    HW239174   2.191   0.633   7.832 -0.7296  0.5609  2.7115
 9181SOL     OW39175   4.419   1.774   2.360  0.0972  0.0592 -0.4653
 9181SOL    HW139176   4.479   1.795   2.288  0.3229 -1.7031 -0.7803
 9181SOL    HW239177   4.436   1.853   2.412  1.0258 -0.1588 -0.4378
 9182SOL     OW39178   0.145   0.055   5.779 -0.2001  0.1086 -0.3066
 9182SOL    HW139179   0.217   0.056   5.843  1.1722  1.7090 -1.8657
 9182SOL    HW239180   0.145   0.144   5.744  0.5164  0.1567 -0.1781
 9183SOL     OW39181   3.913   2.345   5.675  0.3548  0.2988 -0.2955
 9183SOL    HW139182   3.951   2.431   5.695  2.0678 -1.0264  2.1060
 9183SOL    HW239183   3.927   2.296   5.756 -2.5495  0.3219  0.2273
 9184SOL     OW39184   2.426   2.869  13.149 -0.1665 -0.1601  0.1189
 9184SOL    HW139185   2.360   2.844  13.214  0.8886 -0.7321  0.9513
 9184SOL    HW239186   2.431   2.961  13.176 -1.1549  0.7078 -2.6075
 9185SOL     OW39187   3.380   0.510   5.247 -0.0717  0.3884 -0.2099
 9185SOL    HW139188   3.393   0.588   5.192 -0.4157 -1.2004 -2.5336
 9185SOL    HW239189   3.406   0.535   5.336  2.0390  1.1673 -1.0392
 9186SOL     OW39190   4.504   2.802   6.163  0.4388  0.2613  0.2097
 9186SOL    HW139191   4.561   2.868   6.203  0.4112  0.3196  0.1526
 9186SOL    HW239192   4.563   2.741   6.119  1.1068  0.2671  1.0996
 9187SOL     OW39193   1.208   3.092   2.552  0.0675  0.5630 -0.2101
 9187SOL    HW139194   1.162   3.155   2.497 -2.6461  0.5029  2.0398
 9187SOL    HW239195   1.138   3.027   2.553  0.5045  0.0856 -0.5566
 9188SOL     OW39196   1.386   2.273  17.555  0.0342 -0.4357  0.0705
 9188SOL    HW139197   1.431   2.263  17.471  0.9837  0.2580  0.5052
 9188SOL    HW239198   1.314   2.332  17.532 -1.5819 -3.2249 -2.0611
 9189SOL     OW39199   0.413   4.438   2.653  0.5381  0.1571  0.2386
 9189SOL    HW139200   0.483   4.406   2.596  1.4451  2.0652  0.2737
 9189SOL    HW239201   0.422   4.533   2.644 -1.4150  0.4930  1.9113
 9190SOL     OW39202   2.171   0.736   6.111  0.0761  0.1142 -0.2973
 9190SOL    HW139203   2.192   0.775   6.196 -0.1916  2.0418 -1.1064
 9190SOL    HW239204   2.247   0.679   6.104  0.4032  0.2000  2.3451
 9191SOL     OW39205   2.717   3.837   7.368  0.0204 -0.4251  0.0014
 9191SOL    HW139206   2.798   3.888   7.377  0.4450 -1.0012 -0.4778
 9191SOL    HW239207   2.752   3.752   7.392  0.3132  0.0468  1.2397
 9192SOL     OW39208   0.754   3.706   0.103  0.2027 -0.0507 -0.1196
 9192SOL    HW139209   0.780   3.669   0.188  3.4561 -0.7271 -1.4081
 9192SOL    HW239210   0.707   3.786   0.125  2.4699  0.8762  1.3030
 9193SOL     OW39211   2.593   1.624   3.552 -0.2843  0.4103  0.7281
 9193SOL    HW139212   2.662   1.690   3.556 -0.6993  0.7286  2.3413
 9193SOL    HW239213   2.646   1.545   3.559 -2.2849 -1.1951 -2.1289
 9194SOL     OW39214   0.159   0.849   1.922 -0.0291  0.4147  0.3763
 9194SOL    HW139215   0.082   0.832   1.976 -1.9032  5.5178 -0.6938
 9194SOL    HW239216   0.155   0.943   1.941 -2.4380  0.3728  0.1006
 9195SOL     OW39217   2.589   4.374  17.403  0.2371 -0.5732  0.0344
 9195SOL    HW139218   2.536   4.448  17.435  0.4888 -0.5565  0.4009
 9195SOL    HW239219   2.541   4.309  17.454 -1.1577  0.2360 -0.2303
 9196SOL     OW39220   0.283   4.074  16.736  0.7573 -0.5977 -0.0884
 9196SOL    HW139221   0.285   4.075  16.832  2.0520  0.6085 -0.1272
 9196SOL    HW239222   0.310   4.165  16.722 -0.5664  0.2779  2.9880
 9197SOL     OW39223   0.448   4.133   2.472 -0.0785 -0.4569  0.0898
 9197SOL    HW139224   0.490   4.218   2.460  0.5774 -0.7990 -0.0582
 9197SOL    HW239225   0.367   4.153   2.518  1.2237 -0.5090  2.3800
 9198SOL     OW39226   1.679   1.063  17.654  0.1198  0.1839  0.2195
 9198SOL    HW139227   1.694   1.027  17.742  0.5768 -1.8788 -0.7096
 9198SOL    HW239228   1.754   1.034  17.603 -0.9468 -0.4659 -0.9623
 9199SOL     OW39229   3.425   1.334  16.396  0.4021  0.5333 -0.2034
 9199SOL    HW139230   3.509   1.377  16.411  1.4396 -1.2500 -0.9204
 9199SOL    HW239231   3.423   1.251  16.445 -0.7411  0.2416 -0.7417
 9200SOL     OW39232   2.522   1.832  17.264 -0.0469  0.3947 -0.7001
 9200SOL    HW139233   2.617   1.842  17.274 -0.2562  0.1766  1.5801
 9200SOL    HW239234   2.513   1.768  17.194 -0.1413 -0.4842  0.1065
 9201SOL     OW39235   0.094   2.534   8.846  0.1711 -0.0785 -0.4090
 9201SOL    HW139236   0.093   2.620   8.803  0.8531  0.7619  1.2526
 9201SOL    HW239237   0.153   2.535   8.921 -1.8392  0.2655  1.1831
 9202SOL     OW39238   4.489   4.022  10.949 -0.1603  0.0029 -0.5457
 9202SOL    HW139239   4.471   3.936  10.988 -0.9333  0.3634 -0.0975
 9202SOL    HW239240   4.561   4.063  10.997  0.1396 -0.6167 -0.4760
 9203SOL     OW39241   0.859   3.335   4.405  0.0199 -0.4926 -0.1493
 9203SOL    HW139242   0.874   3.389   4.328 -0.4977 -1.2403 -0.7700
 9203SOL    HW239243   0.880   3.246   4.376  0.6787  0.3522 -2.2780
 9204SOL     OW39244   2.108   2.222   0.501 -0.0378 -0.4296 -0.1171
 9204SOL    HW139245   2.200   2.241   0.482  0.6928 -3.8221 -0.0687
 9204SOL    HW239246   2.109   2.135   0.460  0.5159  0.6920 -2.4360
 9205SOL     OW39247   0.068   3.407   6.503 -0.2261  0.0317  0.1522
 9205SOL    HW139248   0.100   3.334   6.556 -0.7365 -0.9159 -0.8365
 9205SOL    HW239249   0.045   3.467   6.573  1.7717 -1.5024  2.1123
 9206SOL     OW39250   1.174   1.917   6.454  0.0579 -0.9183 -0.6382
 9206SOL    HW139251   1.202   1.920   6.546  0.9466 -1.9454 -0.8660
 9206SOL    HW239252   1.208   1.828   6.441  1.2029 -0.5507 -0.1752
 9207SOL     OW39253   1.542   2.394   4.175  0.1472  0.0081 -0.2829
 9207SOL    HW139254   1.634   2.395   4.201 -0.3680  1.1557  1.4952
 9207SOL    HW239255   1.525   2.488   4.173 -0.2874 -0.0416  0.8417
 9208SOL     OW39256   2.980   3.452  12.928 -0.2383  0.2170  0.5765
 9208SOL    HW139257   3.063   3.419  12.964  1.2468  3.2911  0.0249
 9208SOL    HW239258   2.916   3.459  12.999 -0.9266 -0.5118  0.0171
 9209SOL     OW39259   4.132   4.189   3.879  0.3986 -0.3993  0.0711
 9209SOL    HW139260   4.134   4.107   3.830  0.6895 -0.4116  0.1030
 9209SOL    HW239261   4.213   4.196   3.929  0.0791  2.7536  0.1162
 9210SOL     OW39262   1.008   4.277   9.798  0.4979 -0.5546  0.1796
 9210SOL    HW139263   0.923   4.257   9.836  0.5106  2.3476  1.7176
 9210SOL    HW239264   1.059   4.237   9.869  1.9144 -0.6327 -0.8697
 9211SOL     OW39265   3.990   1.607   4.179 -0.5862 -0.2035  0.1128
 9211SOL    HW139266   4.023   1.562   4.256  0.9452  2.1711  0.8448
 9211SOL    HW239267   3.903   1.634   4.209  0.9783  2.6100  2.1811
 9212SOL     OW39268   0.656   2.659   8.890 -0.3315  0.4638 -0.4505
 9212SOL    HW139269   0.674   2.604   8.966  1.4840  0.1867 -1.0748
 9212SOL    HW239270   0.604   2.732   8.924 -0.7254 -0.0478  0.0567
 9213SOL     OW39271   3.980   1.552   4.846  0.7185 -0.1826 -0.5304
 9213SOL    HW139272   3.920   1.620   4.876  1.7991 -0.0918  1.4276
 9213SOL    HW239273   4.057   1.577   4.898  0.6064 -1.6292  0.3283
 9214SOL     OW39274   1.415   0.886   4.432  0.1253 -0.8396 -0.1034
 9214SOL    HW139275   1.352   0.836   4.485 -0.4398  0.1667  0.1749
 9214SOL    HW239276   1.503   0.854   4.453  0.8725  0.5528 -1.1030
 9215SOL     OW39277   0.477   2.563   7.293 -0.0282 -0.1297 -0.1521
 9215SOL    HW139278   0.394   2.590   7.252 -0.0160 -0.4083 -0.3618
 9215SOL    HW239279   0.495   2.474   7.262  0.2884 -0.0568 -0.1741
 9216SOL     OW39280   2.857   2.322  14.406  0.1407  0.1381 -0.1420
 9216SOL    HW139281   2.946   2.287  14.407 -0.5400 -1.5647 -0.3481
 9216SOL    HW239282   2.848   2.338  14.312  1.0682  0.0472 -0.2440
 9217SOL     OW39283   1.593   1.139  10.985  0.3569 -0.6760  0.1646
 9217SOL    HW139284   1.528   1.166  11.050 -0.2644 -1.0031 -0.3098
 9217SOL    HW239285   1.678   1.137  11.029  0.7900 -1.2661 -0.7087
 9218SOL     OW39286   0.728   3.274   9.900  0.0437  0.4635  0.3052
 9218SOL    HW139287   0.779   3.266   9.819  2.3295  2.2427  1.5888
 9218SOL    HW239288   0.700   3.183   9.911  0.5557  0.2822  0.0956
 9219SOL     OW39289   0.086   2.822   6.534 -0.0404 -0.2239 -0.5369
 9219SOL    HW139290   0.011   2.871   6.501 -0.3190 -0.5477 -0.3722
 9219SOL    HW239291   0.044   2.778   6.608 -2.1675  2.4515 -0.1490
 9220SOL     OW39292   1.130   2.057   3.256 -0.3795 -0.3445 -0.2036
 9220SOL    HW139293   1.176   2.125   3.305 -1.1090 -0.9051  1.2440
 9220SOL    HW239294   1.126   1.986   3.320 -0.4133  1.0305  1.3214
 9221SOL     OW39295   4.158   3.212   2.727  0.7332  0.0716 -0.3466
 9221SOL    HW139296   4.167   3.276   2.797  0.8755  0.4851 -0.7415
 9221SOL    HW239297   4.225   3.148   2.751  0.1721  0.1857  1.5117
 9222SOL     OW39298   4.690   0.747   8.168  0.0302  0.6276  0.5279
 9222SOL    HW139299   4.728   0.712   8.088 -0.9208  1.1405 -0.1488
 9222SOL    HW239300   0.015   0.715   8.233 -2.7068 -3.7691  1.0336
 9223SOL     OW39301   1.836   0.296  16.199 -1.1973  0.6101  0.6454
 9223SOL    HW139302   1.917   0.280  16.150 -1.2597  0.5875  0.5501
 9223SOL    HW239303   1.777   0.224  16.177 -2.3970  1.6800  0.4019
 9224SOL     OW39304   1.117   0.075  14.404 -0.2924 -0.5568  0.0352
 9224SOL    HW139305   1.133   0.165  14.376 -2.7804 -0.7819 -2.1142
 9224SOL    HW239306   1.163   0.027  14.336  0.9421 -0.4291  0.7773
 9225SOL     OW39307   1.651   1.358  17.529  0.0866  0.5952 -0.8387
 9225SOL    HW139308   1.642   1.269  17.495 -2.0782  0.7295 -0.6169
 9225SOL    HW239309   1.745   1.368  17.519  0.2263 -0.2932 -0.4155
 9226SOL     OW39310   0.246   3.213   2.268 -0.0946 -0.0250 -0.2389
 9226SOL    HW139311   0.184   3.164   2.322 -0.1824  0.9529  0.5371
 9226SOL    HW239312   0.195   3.293   2.258 -0.4438 -0.3447 -0.9813
 9227SOL     OW39313   0.316   1.739  11.750  0.4629 -0.2738 -0.2818
 9227SOL    HW139314   0.222   1.722  11.758  0.0577  1.8212 -0.7289
 9227SOL    HW239315   0.310   1.834  11.754  1.0724 -0.4111  3.9880
 9228SOL     OW39316   1.530   0.213   5.705  0.3257  0.7177  0.5391
 9228SOL    HW139317   1.500   0.288   5.756 -1.6567 -0.3318  0.9163
 9228SOL    HW239318   1.524   0.246   5.616 -0.8284  1.4327  0.8783
 9229SOL     OW39319   2.018   1.378   6.878 -0.1072 -0.3192 -0.2167
 9229SOL    HW139320   1.981   1.347   6.961 -3.2700  2.1276 -0.6698
 9229SOL    HW239321   2.043   1.464   6.912  0.2214  1.0475 -3.8335
 9230SOL     OW39322   2.230   0.666   5.321 -0.0374 -0.0821 -0.5238
 9230SOL    HW139323   2.281   0.625   5.391 -1.5786  0.5929  0.9920
 9230SOL    HW239324   2.281   0.650   5.242  3.2281  2.1785  1.1240
 9231SOL     OW39325   1.707   4.081  11.131  0.5150 -0.1981 -0.0365
 9231SOL    HW139326   1.750   4.166  11.119  0.8035  0.0594  2.8243
 9231SOL    HW239327   1.784   4.024  11.126 -1.4629 -3.1469  3.0585
 9232SOL     OW39328   3.251   1.371   3.324 -1.0376 -0.3858 -0.0260
 9232SOL    HW139329   3.344   1.356   3.308 -0.2294  3.4030  0.9947
 9232SOL    HW239330   3.258   1.380   3.419 -1.3015  0.0923 -0.0484
 9233SOL     OW39331   4.285   3.280   4.989 -0.2229 -0.0227  0.7478
 9233SOL    HW139332   4.331   3.363   5.004 -2.7941  1.5858 -0.3340
 9233SOL    HW239333   4.285   3.234   5.073 -1.4652  0.3149  0.9389
 9234SOL     OW39334   1.776   1.046  12.010 -0.8205  0.7610  0.0975
 9234SOL    HW139335   1.818   1.108  12.069 -0.3279  0.5937 -0.0838
 9234SOL    HW239336   1.688   1.080  12.030 -0.6243  1.3972 -0.1325
 9235SOL     OW39337   0.334   1.328   9.540  0.3463 -0.4531 -0.3383
 9235SOL    HW139338   0.414   1.303   9.586 -0.0495  0.9712  1.1058
 9235SOL    HW239339   0.350   1.273   9.463  1.4186  0.6088 -0.8623
 9236SOL     OW39340   2.543   0.490   2.455  0.0129  0.1811 -0.0248
 9236SOL    HW139341   2.459   0.487   2.409 -0.2957  1.1760  0.4692
 9236SOL    HW239342   2.519   0.571   2.501  2.6187 -0.1492  1.9022
 9237SOL     OW39343   0.179   0.938   3.786  0.0999  0.3711 -0.1093
 9237SOL    HW139344   0.176   0.845   3.765 -1.8374  0.8050 -1.8000
 9237SOL    HW239345   0.272   0.941   3.811  0.1690  2.3132 -0.5432
 9238SOL     OW39346   2.918   1.098  16.514  0.0510 -0.0527 -0.7961
 9238SOL    HW139347   2.915   1.193  16.503  0.1289 -0.0672 -0.9415
 9238SOL    HW239348   2.844   1.078  16.572  0.3416  1.4929  0.1134
 9239SOL     OW39349   2.980   3.255   8.245 -0.4631  0.4522 -0.2936
 9239SOL    HW139350   2.945   3.320   8.306 -0.6489  1.0008 -0.9753
 9239SOL    HW239351   3.043   3.210   8.301 -0.3654  1.0233  0.0556
 9240SOL     OW39352   3.624   1.136   3.371  0.1787  0.0639  1.0067
 9240SOL    HW139353   3.551   1.172   3.320  1.4637  0.7751 -0.3376
 9240SOL    HW239354   3.637   1.210   3.430  3.1173 -0.2502  0.7695
 9241SOL     OW39355   3.763   1.679   5.973 -0.3207  0.4660  0.2091
 9241SOL    HW139356   3.718   1.696   6.055 -0.9681 -0.5656  0.0707
 9241SOL    HW239357   3.810   1.762   5.962  0.1461 -0.0500 -1.7973
 9242SOL     OW39358   0.416   3.687   8.207  0.4483  0.3522  0.2224
 9242SOL    HW139359   0.396   3.747   8.279  0.1268 -1.1503  1.3882
 9242SOL    HW239360   0.398   3.751   8.138 -1.5898  0.0704  0.5046
 9243SOL     OW39361   0.621   4.488  10.165  0.0634 -0.0927 -0.2961
 9243SOL    HW139362   0.580   4.437  10.095 -2.1746 -0.2956  1.1729
 9243SOL    HW239363   0.546   4.506  10.221  0.5084  2.9795 -0.6867
 9244SOL     OW39364   3.258   4.121   4.895  0.2515  0.5230  0.6880
 9244SOL    HW139365   3.201   4.198   4.898 -0.7507 -0.2353  1.0562
 9244SOL    HW239366   3.324   4.137   4.828  0.0673 -0.8965  0.1827
 9245SOL     OW39367   2.293   3.176  12.126  0.2753  0.0287  0.4272
 9245SOL    HW139368   2.234   3.101  12.118  2.0357 -1.2489 -0.3887
 9245SOL    HW239369   2.303   3.204  12.035 -4.3147 -2.5171 -0.8830
 9246SOL     OW39370   4.652   4.684   0.303 -1.0627  0.4876  0.2483
 9246SOL    HW139371   4.693   0.010   0.244  0.3659 -1.4896 -0.8660
 9246SOL    HW239372   4.724   4.647   0.354 -1.5650 -0.7143  0.0813
 9247SOL     OW39373   0.560   4.339   9.481 -0.2039  0.1714 -0.4283
 9247SOL    HW139374   0.480   4.291   9.457 -0.0714 -0.2316 -0.0711
 9247SOL    HW239375   0.539   4.376   9.566 -1.3410 -0.0826 -0.5966
 9248SOL     OW39376   0.991   3.088  15.997  0.4047 -0.5750  0.1732
 9248SOL    HW139377   1.007   3.051  15.910 -1.8038 -0.1749 -0.3983
 9248SOL    HW239378   0.998   3.181  15.978 -0.2439 -1.2507 -3.4531
 9249SOL     OW39379   1.024   4.582   2.445  0.0796 -0.3089  0.0178
 9249SOL    HW139380   1.104   4.531   2.463 -0.4213 -1.4511 -0.9503
 9249SOL    HW239381   1.046   4.673   2.466 -0.4157 -0.4879  1.3082
 9250SOL     OW39382   2.270   1.952  17.165  0.1403  0.2805 -0.0444
 9250SOL    HW139383   2.352   1.966  17.118 -0.0230 -0.0330 -0.4188
 9250SOL    HW239384   2.297   1.897  17.238  0.4367 -0.2893 -0.5879
 9251SOL     OW39385   1.451   4.645  16.708 -0.0874 -0.1283  0.1613
 9251SOL    HW139386   1.371   4.637  16.761 -1.0888 -1.5645 -1.5575
 9251SOL    HW239387   1.488   4.557  16.719  0.3182 -0.2902 -2.6494
 9252SOL     OW39388   0.011   2.674   5.138  0.2605  0.2181 -0.2172
 9252SOL    HW139389   4.707   2.735   5.199  1.9373  0.1515  0.9940
 9252SOL    HW239390   4.682   2.606   5.131 -1.4770  1.8323  0.7167
 9253SOL     OW39391   0.437   4.720  16.384 -0.2812  0.9271  0.4286
 9253SOL    HW139392   0.479   4.637  16.360  1.0599  2.0098 -0.8832
 9253SOL    HW239393   0.369   4.731  16.317  0.3996 -0.0312 -0.4126
 9254SOL     OW39394   2.196   2.063   7.677  0.0042  0.0843  0.2493
 9254SOL    HW139395   2.214   2.133   7.614 -1.9177 -0.4670 -0.9275
 9254SOL    HW239396   2.256   2.079   7.749  0.5087  1.9415 -0.5731
 9255SOL     OW39397   4.444   0.699   9.144 -0.2799 -0.6864 -0.5900
 9255SOL    HW139398   4.449   0.730   9.235 -0.2617 -0.6031 -0.6191
 9255SOL    HW239399   4.351   0.701   9.124 -0.1961 -0.6097 -0.9591
 9256SOL     OW39400   0.050   0.701   5.165  0.2699  0.0957  0.0595
 9256SOL    HW139401   4.728   0.631   5.138  1.8590 -1.3211  0.2267
 9256SOL    HW239402   0.073   0.683   5.256 -0.0477  0.2929  0.1776
 9257SOL     OW39403   0.545   0.828   5.572  0.1695 -0.6393  0.5392
 9257SOL    HW139404   0.451   0.812   5.568  0.0251  0.4087 -0.1014
 9257SOL    HW239405   0.580   0.738   5.571 -1.1795 -1.1714  1.6786
 9258SOL     OW39406   2.044   2.846   5.879 -0.3723  0.2303 -0.1639
 9258SOL    HW139407   2.133   2.819   5.900 -0.2745  1.1612  0.6001
 9258SOL    HW239408   2.042   2.854   5.784 -0.1797 -1.5587 -0.3226
 9259SOL     OW39409   0.189   0.416   6.856  0.8048 -0.0943  0.1454
 9259SOL    HW139410   0.139   0.485   6.813  0.9336 -0.3668 -0.4325
 9259SOL    HW239411   0.276   0.454   6.858  0.4927  0.6038  0.4606
 9260SOL     OW39412   2.292   3.451   6.906  0.3581  0.5061 -0.2214
 9260SOL    HW139413   2.329   3.385   6.965 -1.2688 -2.4412 -2.5198
 9260SOL    HW239414   2.215   3.461   6.962  0.0773 -0.8733 -0.3761
 9261SOL     OW39415   3.190   3.984  13.453 -0.1404  0.4677 -0.6885
 9261SOL    HW139416   3.237   3.912  13.493  1.0621  1.0551 -1.0447
 9261SOL    HW239417   3.255   4.008  13.387  1.1822 -2.2210 -0.3373
 9262SOL     OW39418   4.498   2.348   4.894 -0.2541 -0.0573  0.0840
 9262SOL    HW139419   4.565   2.289   4.861  1.4060  1.9104 -0.0811
 9262SOL    HW239420   4.489   2.304   4.979  0.1596 -1.6909 -0.7364
 9263SOL     OW39421   1.971   0.732  11.499 -0.1777  0.3040  0.0955
 9263SOL    HW139422   2.005   0.665  11.559  0.6684  0.2894 -0.3977
 9263SOL    HW239423   1.879   0.708  11.487  0.0839 -1.3198  1.3405
 9264SOL     OW39424   1.222   1.294   5.939 -0.2538 -0.1414  0.3865
 9264SOL    HW139425   1.249   1.386   5.933  1.4673 -0.6883 -0.2890
 9264SOL    HW239426   1.135   1.294   5.899 -0.2056  1.2078  0.2600
 9265SOL     OW39427   2.949   1.668  16.959  0.0790  0.1353  0.1440
 9265SOL    HW139428   2.938   1.727  16.885 -1.7953 -0.4254 -0.0066
 9265SOL    HW239429   2.917   1.589  16.917  0.9584 -0.0316 -0.2043
 9266SOL     OW39430   4.342   1.112   4.930 -0.0677  0.0234 -0.6296
 9266SOL    HW139431   4.411   1.095   4.865 -0.6945  0.2375 -1.3581
 9266SOL    HW239432   4.317   1.021   4.948  0.1375 -0.1162 -1.0453
 9267SOL     OW39433   0.665   1.068   4.624 -0.6950 -0.4153 -0.3943
 9267SOL    HW139434   0.709   1.009   4.562  1.8513 -0.0382  1.0748
 9267SOL    HW239435   0.629   1.142   4.575 -0.6924 -0.3281 -0.2637
 9268SOL     OW39436   2.551   2.857   5.672  0.1379 -0.0308  0.4898
 9268SOL    HW139437   2.531   2.931   5.614 -0.9218 -1.6443 -1.2006
 9268SOL    HW239438   2.644   2.864   5.694  0.2279 -0.0289  0.1116
 9269SOL     OW39439   1.585   0.053   2.683  0.2587 -0.0428 -0.0784
 9269SOL    HW139440   1.579   0.105   2.764 -1.9828 -0.9256  0.3096
 9269SOL    HW239441   1.530   4.719   2.715  0.8711 -0.6228 -0.3128
 9270SOL     OW39442   4.672   1.701   6.948  0.1324 -0.3038 -0.1232
 9270SOL    HW139443   4.617   1.627   6.973  0.7687 -0.9964 -0.7897
 9270SOL    HW239444   0.017   1.662   6.920  0.4554 -0.5691  1.1819
 9271SOL     OW39445   0.115   4.557   4.912  0.1924  0.2165  0.9512
 9271SOL    HW139446   0.128   4.565   5.006 -3.0129  0.0944  1.3962
 9271SOL    HW239447   0.024   4.530   4.908  0.4590 -0.5797  0.3577
 9272SOL     OW39448   0.580   1.254  12.577 -0.5879 -0.3220 -0.1977
 9272SOL    HW139449   0.577   1.189  12.647 -2.0402 -0.9412 -0.8235
 9272SOL    HW239450   0.639   1.314  12.622 -0.6841 -0.4946  0.1543
 9273SOL     OW39451   1.469   4.737  11.131 -0.8186  0.2911  0.4068
 9273SOL    HW139452   1.483   4.642  11.128  1.3531  0.5986  0.7883
 9273SOL    HW239453   1.551   0.033  11.166 -0.5422 -0.0514  0.0997
 9274SOL     OW39454   0.903   4.328  13.372  0.3421  0.1041  0.1153
 9274SOL    HW139455   0.912   4.410  13.420  1.3452  0.2513 -0.3142
 9274SOL    HW239456   0.980   4.318  13.316  0.6301 -0.6612  0.6434
 9275SOL     OW39457   3.160   2.774   8.039  0.7747  0.3239 -0.2095
 9275SOL    HW139458   3.192   2.864   8.045  1.5017  0.0586 -0.2040
 9275SOL    HW239459   3.065   2.788   8.039  0.7114 -0.0780 -0.7759
 9276SOL     OW39460   2.418   1.153   2.529 -0.3204 -0.0324  0.0037
 9276SOL    HW139461   2.324   1.160   2.514 -0.5687 -0.1158  1.4828
 9276SOL    HW239462   2.440   1.238   2.490  1.1444 -0.9443 -1.1381
 9277SOL     OW39463   4.388   1.384   4.866 -0.4552 -0.5749 -0.2022
 9277SOL    HW139464   4.465   1.328   4.858 -1.8276 -2.7012  1.5766
 9277SOL    HW239465   4.339   1.329   4.927  1.3560 -0.9112  0.9628
 9278SOL     OW39466   2.737   3.851  13.339 -0.0231  0.3947 -0.4837
 9278SOL    HW139467   2.810   3.912  13.338 -0.4216  0.8739 -0.1651
 9278SOL    HW239468   2.766   3.791  13.408  0.4542 -0.0434 -1.0666
 9279SOL     OW39469   3.181   1.899   2.668 -0.5144  0.1432  0.0956
 9279SOL    HW139470   3.104   1.941   2.630 -1.0981  0.8376  2.0879
 9279SOL    HW239471   3.218   1.874   2.583  0.7949  2.8179 -0.1024
 9280SOL     OW39472   3.433   3.689   7.242  0.0755 -0.7161  0.4100
 9280SOL    HW139473   3.446   3.640   7.323  0.0106  0.4494  1.1345
 9280SOL    HW239474   3.513   3.668   7.195  0.5127  0.7687  0.4827
 9281SOL     OW39475   2.630   4.605  13.955 -1.0156  0.0482 -0.0009
 9281SOL    HW139476   2.553   4.661  13.955 -0.2269  1.1280 -2.4018
 9281SOL    HW239477   2.624   4.560  14.040 -2.4430  0.3739  0.0603
 9282SOL     OW39478   1.441   3.635   9.666 -0.0288 -0.0035  0.2113
 9282SOL    HW139479   1.469   3.724   9.646  1.1794  0.0700  2.2129
 9282SOL    HW239480   1.524   3.586   9.666  0.1106  0.2294  1.9480
 9283SOL     OW39481   2.939   3.842   6.564 -0.6270 -0.3148  0.7757
 9283SOL    HW139482   2.922   3.796   6.481 -2.0325  0.1877  0.7811
 9283SOL    HW239483   2.851   3.834   6.600  0.3977  0.8139  3.5022
 9284SOL     OW39484   3.866   2.851  13.154 -0.6099  0.2188 -0.6135
 9284SOL    HW139485   3.842   2.759  13.167 -0.3420 -0.1331 -2.7412
 9284SOL    HW239486   3.820   2.893  13.226 -3.0616 -2.8355 -0.3916
 9285SOL     OW39487   1.239   1.711   8.998 -0.1300 -0.3889  0.0553
 9285SOL    HW139488   1.254   1.793   9.046  1.4459 -0.6269 -0.0474
 9285SOL    HW239489   1.148   1.697   9.024  0.0768 -0.3046  0.8207
 9286SOL     OW39490   1.248   0.168  17.155  0.3380 -0.0904 -0.1333
 9286SOL    HW139491   1.281   0.091  17.200 -1.2234 -1.5422 -1.4859
 9286SOL    HW239492   1.219   0.135  17.070  0.2679 -0.9417  0.2229
 9287SOL     OW39493   1.550   4.535   5.270 -0.5692 -0.1116  0.4042
 9287SOL    HW139494   1.570   4.593   5.196 -0.0694  0.3035  0.8580
 9287SOL    HW239495   1.571   4.600   5.338  1.1240 -1.2322  0.9771
 9288SOL     OW39496   1.011   0.888   9.212  0.6268 -0.1065 -0.0374
 9288SOL    HW139497   1.028   0.853   9.125 -2.4343  0.0496 -0.6685
 9288SOL    HW239498   1.101   0.912   9.234 -0.0877  0.9415  1.7700
 9289SOL     OW39499   1.693   3.197   3.779 -0.0648  0.1269  0.5506
 9289SOL    HW139500   1.677   3.213   3.686 -1.0324  0.3112  0.7487
 9289SOL    HW239501   1.765   3.252   3.808  0.0925 -0.3318  1.0392
 9290SOL     OW39502   4.451   1.334   4.531 -0.1180  0.3577 -0.5211
 9290SOL    HW139503   4.525   1.345   4.590  2.3132 -0.2172 -3.5018
 9290SOL    HW239504   4.497   1.336   4.447  0.5070  1.0613 -0.1639
 9291SOL     OW39505   0.932   2.283   7.763  0.5469  0.0321 -0.4420
 9291SOL    HW139506   0.960   2.327   7.683  2.1980 -0.1829  0.0304
 9291SOL    HW239507   1.004   2.289   7.825  1.7954 -0.1536 -1.8829
 9292SOL     OW39508   0.441   2.823   9.255 -0.4447  0.0112 -0.0296
 9292SOL    HW139509   0.472   2.788   9.338  1.6538 -2.4127 -1.8284
 9292SOL    HW239510   0.392   2.749   9.220  0.3823 -1.0865  1.1313
 9293SOL     OW39511   2.210   3.857   4.714 -0.3491 -0.2346 -0.6741
 9293SOL    HW139512   2.262   3.778   4.731 -1.7523 -1.2945 -1.3115
 9293SOL    HW239513   2.227   3.915   4.788 -1.1178 -2.8440  1.5568
 9294SOL     OW39514   0.873   2.552   1.861 -0.5202  0.4607  0.1491
 9294SOL    HW139515   0.786   2.531   1.895 -0.3682  1.9057  1.3989
 9294SOL    HW239516   0.854   2.550   1.767  0.9976 -1.2934 -0.1093
 9295SOL     OW39517   0.621   3.537  14.887 -0.0918  0.5033  0.0935
 9295SOL    HW139518   0.565   3.609  14.861 -0.4670 -0.4278 -1.6475
 9295SOL    HW239519   0.706   3.554  14.846 -0.6267  1.1717 -0.7397
 9296SOL     OW39520   1.576   2.628  10.287  0.1630  0.2496  0.4468
 9296SOL    HW139521   1.576   2.548  10.340  2.3272 -1.8470 -2.6966
 9296SOL    HW239522   1.523   2.686  10.340 -0.8762  1.1333 -1.5831
 9297SOL     OW39523   4.239   3.859   6.173 -0.5380  0.4996 -0.2479
 9297SOL    HW139524   4.145   3.853   6.188 -0.2961 -0.0934  1.1006
 9297SOL    HW239525   4.269   3.768   6.171 -1.3038  0.2918 -1.7690
 9298SOL     OW39526   0.510   3.819   1.015  1.0594 -0.2801 -0.0636
 9298SOL    HW139527   0.482   3.846   0.928 -1.5619 -0.6302  0.6529
 9298SOL    HW239528   0.466   3.878   1.077  2.3740  1.6062 -0.9275
 9299SOL     OW39529   1.103   3.256   5.208  0.9875 -0.0342 -0.3837
 9299SOL    HW139530   1.101   3.352   5.202  1.4203  0.1713  2.5977
 9299SOL    HW239531   1.109   3.238   5.302 -2.7136  3.8869  0.5859
 9300SOL     OW39532   4.005   3.648   5.769 -0.2853 -0.3381  0.3374
 9300SOL    HW139533   3.959   3.604   5.697 -1.8681  0.2501  0.9772
 9300SOL    HW239534   4.015   3.734   5.727 -1.1231 -0.6455 -0.4934
 9301SOL     OW39535   1.990   4.389   5.274  0.4749  0.0280  0.0475
 9301SOL    HW139536   1.944   4.405   5.357 -1.1000 -1.5475 -0.5321
 9301SOL    HW239537   1.994   4.293   5.273 -0.3604  0.0205 -2.5345
 9302SOL     OW39538   3.355   0.082   6.268  0.1867 -0.3504  0.4814
 9302SOL    HW139539   3.437   0.073   6.317 -1.9078 -0.8097  3.9174
 9302SOL    HW239540   3.361   0.002   6.216 -0.9569  0.3727 -0.7688
 9303SOL     OW39541   4.523   1.768   9.585  0.5966 -0.2738 -0.3108
 9303SOL    HW139542   4.513   1.783   9.679 -1.0837 -2.4300 -0.1279
 9303SOL    HW239543   4.443   1.718   9.565  0.0634  0.3110  0.3425
 9304SOL     OW39544   1.591   0.699   4.240 -0.5430  0.3965  0.0176
 9304SOL    HW139545   1.510   0.748   4.229 -0.5136  0.1243 -1.3833
 9304SOL    HW239546   1.638   0.762   4.295 -1.2224  1.5389 -0.7228
 9305SOL     OW39547   2.113   3.087  15.247 -0.4694 -0.1217 -0.3230
 9305SOL    HW139548   2.056   3.065  15.321 -0.5307 -1.5590 -0.7798
 9305SOL    HW239549   2.082   3.014  15.193  0.5800 -1.3820  0.7686
 9306SOL     OW39550   3.667   4.611   2.069  0.0232 -0.8570 -0.0155
 9306SOL    HW139551   3.574   4.600   2.092  0.1610  0.4459  1.1793
 9306SOL    HW239552   3.704   4.523   2.063  0.0457 -1.0221  2.3134
 9307SOL     OW39553   1.030   1.992   6.747  0.7550  0.6158 -0.0593
 9307SOL    HW139554   0.965   1.963   6.811 -0.0790 -0.6363 -1.4612
 9307SOL    HW239555   0.990   2.067   6.702  0.7979  1.7115  1.7074
 9308SOL     OW39556   3.085   1.498   5.187 -0.2521  0.3761 -0.0123
 9308SOL    HW139557   2.994   1.491   5.160  0.0050  1.3316 -1.1671
 9308SOL    HW239558   3.122   1.410   5.194  1.4793  0.8984 -2.5025
 9309SOL     OW39559   1.818   2.531  15.566 -0.7756 -0.6810 -0.5199
 9309SOL    HW139560   1.778   2.597  15.508  2.0979  1.3326 -0.2116
 9309SOL    HW239561   1.876   2.596  15.606  0.3394 -0.9304 -1.7355
 9310SOL     OW39562   0.435   4.372  17.105 -0.5805  0.0496 -0.4301
 9310SOL    HW139563   0.465   4.294  17.151 -0.0113  0.8556  0.5800
 9310SOL    HW239564   0.482   4.353  17.024 -0.4177  2.0481 -0.8123
 9311SOL     OW39565   2.686   1.692   9.181 -0.1150  0.7150 -0.1139
 9311SOL    HW139566   2.673   1.650   9.266  0.5732  0.5060 -0.1097
 9311SOL    HW239567   2.770   1.736   9.192  1.1337 -1.2486 -1.8025
 9312SOL     OW39568   2.809   2.929   6.665  0.6451  0.2698 -0.2752
 9312SOL    HW139569   2.759   2.851   6.691 -2.4046  3.0275  2.0968
 9312SOL    HW239570   2.839   2.959   6.751  2.1870  1.4527 -1.2236
 9313SOL     OW39571   2.779   2.068   8.133 -0.3594 -0.1020 -0.3213
 9313SOL    HW139572   2.850   2.132   8.132 -0.5108  0.1802  4.4770
 9313SOL    HW239573   2.705   2.119   8.164 -0.6330 -1.1278  0.7385
 9314SOL     OW39574   2.292   2.752   5.918  0.2360 -0.0191  0.2282
 9314SOL    HW139575   2.364   2.718   5.971 -0.7966  0.7170  2.0934
 9314SOL    HW239576   2.298   2.701   5.837 -0.6030 -1.0382  0.8091
 9315SOL     OW39577   4.311   4.202   5.825  0.2516  0.1737 -0.4479
 9315SOL    HW139578   4.232   4.153   5.848  0.2303  0.1548 -0.5610
 9315SOL    HW239579   4.356   4.202   5.909  0.2577  1.5883 -0.4424
 9316SOL     OW39580   0.291   0.126   4.648 -0.5336  0.6731  0.0597
 9316SOL    HW139581   0.236   0.090   4.718 -0.9695 -0.1807 -0.7242
 9316SOL    HW239582   0.328   0.208   4.682 -0.4555  0.4619  0.4819
 9317SOL     OW39583   3.507   2.459   1.450 -0.1916  0.0740  0.1034
 9317SOL    HW139584   3.579   2.486   1.393 -2.4431 -2.8880 -4.0806
 9317SOL    HW239585   3.545   2.381   1.491 -0.7371 -1.4579 -2.3419
 9318SOL     OW39586   0.846   1.787   2.134 -0.5700 -0.3484 -0.1178
 9318SOL    HW139587   0.809   1.871   2.164 -0.3357 -1.1038  2.2726
 9318SOL    HW239588   0.912   1.809   2.069 -1.7585  1.6755 -0.6408
 9319SOL     OW39589   1.342   2.184  13.200 -0.1620  0.0570 -0.2265
 9319SOL    HW139590   1.364   2.276  13.194  1.6278 -0.3649  0.0217
 9319SOL    HW239591   1.383   2.151  13.280  2.9442  1.9037 -1.0711
 9320SOL     OW39592   4.604   3.634   9.415  0.3295  0.4526 -0.1147
 9320SOL    HW139593   4.600   3.539   9.406 -1.6692  0.7046 -1.6718
 9320SOL    HW239594   4.547   3.656   9.342 -0.0274  1.1778  0.3833
 9321SOL     OW39595   2.420   0.018   3.344 -0.4752  0.1446 -0.4217
 9321SOL    HW139596   2.425   0.097   3.290  0.9995 -0.0905 -0.6196
 9321SOL    HW239597   2.354   4.712   3.290 -0.6813 -1.2918  0.9669
 9322SOL     OW39598   2.663   1.057  17.357  0.3549 -0.9680 -0.1474
 9322SOL    HW139599   2.755   1.050  17.333  0.4449 -0.9334  0.1896
 9322SOL    HW239600   2.663   1.004  17.437 -2.2863  0.6289  0.8984
 9323SOL     OW39601   4.491   2.963   9.960 -0.4918  0.4709 -0.9224
 9323SOL    HW139602   4.401   2.930   9.963  0.1640 -1.3000 -1.1105
 9323SOL    HW239603   4.534   2.917  10.032 -0.1666  0.9666 -0.8017
 9324SOL     OW39604   3.324   0.770   5.157 -0.8972  0.3404  0.4197
 9324SOL    HW139605   3.256   0.819   5.203 -1.4562  0.1395 -0.1945
 9324SOL    HW239606   3.400   0.829   5.158 -1.2456  0.8285 -1.7085
 9325SOL     OW39607   3.722   2.018   2.750 -0.0714 -0.4585  0.1173
 9325SOL    HW139608   3.749   1.952   2.813 -0.9253  0.5495  1.5537
 9325SOL    HW239609   3.697   2.093   2.804 -1.5632 -0.3392 -0.7239
 9326SOL     OW39610   1.462   3.918   5.907 -0.1392 -0.3516  0.1454
 9326SOL    HW139611   1.473   3.839   5.959  0.2418 -0.6355 -0.3673
 9326SOL    HW239612   1.367   3.915   5.892 -0.0858 -0.7587 -0.1083
 9327SOL     OW39613   0.761   3.726   9.319  0.6113 -0.2226 -0.8428
 9327SOL    HW139614   0.705   3.730   9.397 -0.3852  1.7540 -1.6597
 9327SOL    HW239615   0.691   3.719   9.255  0.1447  0.1957 -0.3734
 9328SOL     OW39616   0.325   0.518   3.969  0.6121  0.0415 -1.0288
 9328SOL    HW139617   0.317   0.473   3.885 -3.2453 -1.3035  0.0500
 9328SOL    HW239618   0.294   0.444   4.020 -0.4981  1.3106  0.1480
 9329SOL     OW39619   1.555   1.094   5.450  0.4138 -0.0642  0.7584
 9329SOL    HW139620   1.569   1.041   5.371  1.0552 -0.4713  1.1401
 9329SOL    HW239621   1.607   1.053   5.520  2.1269  1.5774  0.4580
 9330SOL     OW39622   3.196   4.344   5.594  0.0279  0.4997 -0.8151
 9330SOL    HW139623   3.160   4.286   5.527  1.6514  0.4348 -1.6284
 9330SOL    HW239624   3.281   4.370   5.559 -0.5530 -0.1398 -2.6987
 9331SOL     OW39625   1.505   2.646   4.750  0.6497  0.1954 -0.1956
 9331SOL    HW139626   1.540   2.656   4.662 -0.3982  0.4753 -0.5696
 9331SOL    HW239627   1.417   2.624   4.720  0.0089  0.3078  1.5674
 9332SOL     OW39628   1.341   3.002  14.688 -0.0059 -0.6330 -0.2588
 9332SOL    HW139629   1.373   2.986  14.776 -0.4819  2.1738  0.4433
 9332SOL    HW239630   1.253   3.032  14.712  0.2674 -0.8448  1.0069
 9333SOL     OW39631   0.718   0.666   6.142 -0.3813  0.3239 -0.2812
 9333SOL    HW139632   0.748   0.731   6.079 -0.0485  0.6621  0.2232
 9333SOL    HW239633   0.771   0.590   6.119 -1.7241 -0.4109 -0.9545
 9334SOL     OW39634   0.891   2.974   8.348  0.3517  0.2631  0.4826
 9334SOL    HW139635   0.879   2.879   8.353 -0.0260  0.2367 -1.1707
 9334SOL    HW239636   0.817   3.003   8.401 -1.9053  0.4668 -2.7827
 9335SOL     OW39637   4.050   0.630   0.002 -0.7059  0.3016  0.1181
 9335SOL    HW139638   3.997   0.698  17.710 -1.7570 -0.8432 -0.4352
 9335SOL    HW239639   4.090   0.608  17.667 -0.6878  1.8184 -0.2596
 9336SOL     OW39640   2.534   0.338   5.684 -0.8895  0.6297 -0.3743
 9336SOL    HW139641   2.629   0.337   5.679 -0.7704  0.7636  2.0090
 9336SOL    HW239642   2.516   0.254   5.727 -1.1452  1.4564  1.1211
 9337SOL     OW39643   3.959   2.650   0.997  0.3352  0.0041 -0.2241
 9337SOL    HW139644   3.951   2.733   1.042  2.4722 -0.4612  0.9750
 9337SOL    HW239645   3.977   2.681   0.908 -1.8759  0.1811 -0.6216
 9338SOL     OW39646   2.579   0.279  12.592  0.0193  0.3516  0.4571
 9338SOL    HW139647   2.566   0.340  12.520  0.2302 -0.1881 -0.0337
 9338SOL    HW239648   2.639   0.219  12.548 -0.5051  0.3432 -0.2331
 9339SOL     OW39649   3.777   0.511   7.765 -0.2020 -0.1666 -0.7859
 9339SOL    HW139650   3.826   0.431   7.748 -2.7263 -1.9238  0.1625
 9339SOL    HW239651   3.751   0.494   7.856 -1.7896 -1.6686 -1.5193
 9340SOL     OW39652   0.143   3.774   9.399 -0.8013  0.4448  0.2906
 9340SOL    HW139653   0.089   3.710   9.445 -2.5323  1.9259  0.3526
 9340SOL    HW239654   0.220   3.718   9.391 -0.6043  0.7374  0.0915
 9341SOL     OW39655   1.849   1.472  15.913  0.0586  0.3867 -0.3394
 9341SOL    HW139656   1.789   1.527  15.862 -1.8784 -0.2252  1.2615
 9341SOL    HW239657   1.880   1.404  15.854  0.4569  0.8602 -0.6731
 9342SOL     OW39658   3.708   2.426   7.548  0.2447  0.5612 -0.2103
 9342SOL    HW139659   3.627   2.466   7.581 -0.9352 -0.1145 -2.2456
 9342SOL    HW239660   3.742   2.384   7.627  0.1729  0.6978 -0.1066
 9343SOL     OW39661   0.312   4.255   9.387  1.2104  0.0042  0.1914
 9343SOL    HW139662   0.221   4.285   9.381  1.5448  1.1785  0.9043
 9343SOL    HW239663   0.290   4.173   9.430 -0.5231  0.1862 -0.3516
 9344SOL     OW39664   3.348   2.645  10.060 -0.1476 -0.4853  0.7179
 9344SOL    HW139665   3.426   2.698  10.077  0.6866 -1.3313 -0.4489
 9344SOL    HW239666   3.382   2.581   9.998  1.0709  0.1475  0.7258
 9345SOL     OW39667   2.448   3.511   2.732 -0.1873 -0.4735  0.0415
 9345SOL    HW139668   2.376   3.494   2.671 -1.0199  0.6414  0.7210
 9345SOL    HW239669   2.409   3.490   2.817 -0.6542 -1.2257 -0.3535
 9346SOL     OW39670   3.255   0.016   9.457  0.9046  0.6153  0.1432
 9346SOL    HW139671   3.270   4.675   9.511 -0.7116 -0.1712 -0.5412
 9346SOL    HW239672   3.340   0.059   9.454  1.3708 -0.3381 -0.2139
 9347SOL     OW39673   2.668   4.086   8.096 -0.0279 -0.3069 -0.3601
 9347SOL    HW139674   2.596   4.061   8.153 -0.1486 -2.0301 -1.2671
 9347SOL    HW239675   2.741   4.062   8.154  0.4046 -0.1897 -0.8546
 9348SOL     OW39676   1.658   0.138   4.738  0.0101 -0.0367 -0.1694
 9348SOL    HW139677   1.739   0.090   4.719  1.0004  1.7754 -0.6269
 9348SOL    HW239678   1.668   0.218   4.686  1.5711  1.5278  2.4830
 9349SOL     OW39679   3.308   4.719   6.598  0.6819 -0.0341  0.9000
 9349SOL    HW139680   3.305   4.625   6.583 -0.4640 -0.5700  4.4083
 9349SOL    HW239681   3.284   0.008   6.510 -0.1012 -0.1145  1.0863
 9350SOL     OW39682   3.996   0.837  14.991 -0.5440 -0.2289 -0.2029
 9350SOL    HW139683   3.901   0.846  14.980 -0.2933  2.1956 -0.2722
 9350SOL    HW239684   4.024   0.816  14.901  1.4468  3.3296 -0.3870
 9351SOL     OW39685   1.906   2.271   6.905  0.2156  0.1424  0.0205
 9351SOL    HW139686   1.815   2.242   6.898  1.4075 -3.0238 -2.0552
 9351SOL    HW239687   1.933   2.257   6.996  1.8065  0.6208 -0.3784
 9352SOL     OW39688   2.897   1.363  16.804 -0.2516 -0.2582 -0.3021
 9352SOL    HW139689   2.843   1.426  16.756  0.5785 -0.1151 -1.0480
 9352SOL    HW239690   2.834   1.320  16.863 -1.3005 -2.3425 -2.9515
 9353SOL     OW39691   2.684   4.279   4.964  0.0874 -0.0108  0.2997
 9353SOL    HW139692   2.641   4.208   4.916 -0.1803  0.8419 -0.7257
 9353SOL    HW239693   2.616   4.305   5.026 -0.4396 -1.9297  0.5248
 9354SOL     OW39694   4.463   2.872   9.643  0.4509 -0.3285  0.2830
 9354SOL    HW139695   4.461   2.831   9.729  2.0897 -2.3426 -0.6348
 9354SOL    HW239696   4.555   2.897   9.642  0.7506 -1.4169  0.6291
 9355SOL     OW39697   4.126   3.000   8.773 -0.2606 -0.0635 -0.3057
 9355SOL    HW139698   4.126   2.935   8.703  0.4374  1.4149 -1.6995
 9355SOL    HW239699   4.160   2.952   8.848 -2.0621  1.9374  1.7698
 9356SOL     OW39700   2.313   3.596   4.670 -0.7922  0.2793 -0.2951
 9356SOL    HW139701   2.303   3.505   4.640  0.7402 -0.1059  0.3630
 9356SOL    HW239702   2.355   3.626   4.590 -0.9160  0.2552 -0.3703
 9357SOL     OW39703   2.312   4.098  11.216 -0.5651 -0.2755 -0.3003
 9357SOL    HW139704   2.405   4.078  11.212 -0.1401  2.2571 -3.0502
 9357SOL    HW239705   2.314   4.181  11.263 -0.2168 -0.1627 -0.5175
 9358SOL     OW39706   0.142   2.967   2.869 -0.1686  0.0242 -0.0141
 9358SOL    HW139707   0.087   3.045   2.865 -0.1842 -0.1431 -3.1952
 9358SOL    HW239708   0.228   3.003   2.891 -0.4598  0.4562  0.4238
 9359SOL     OW39709   0.628   2.821   8.195 -0.0697 -0.0535 -0.1743
 9359SOL    HW139710   0.694   2.788   8.257  0.7158 -0.1993 -1.0914
 9359SOL    HW239711   0.667   2.817   8.108  2.1600  2.2464  0.6966
 9360SOL     OW39712   4.071   1.829   4.987  0.2973  0.1869  0.2873
 9360SOL    HW139713   4.106   1.894   4.927  0.4727 -0.0558  0.1308
 9360SOL    HW239714   3.978   1.830   4.965  0.3741 -0.4860 -0.0441
 9361SOL     OW39715   3.424   0.759  15.350  0.3192  0.5145 -0.5683
 9361SOL    HW139716   3.415   0.760  15.445  1.0154 -0.4023 -0.4923
 9361SOL    HW239717   3.395   0.672  15.324  0.1881  0.5075 -0.3929
 9362SOL     OW39718   2.983   3.629   3.232 -0.0981 -0.2037 -0.3458
 9362SOL    HW139719   2.944   3.623   3.145 -2.1232  1.7879  0.4415
 9362SOL    HW239720   3.009   3.537   3.241 -1.6448 -0.6602 -0.5661
 9363SOL     OW39721   3.148   1.147   3.244  0.0738  0.0808 -0.6416
 9363SOL    HW139722   3.183   1.233   3.268 -0.2953  0.9262 -3.0992
 9363SOL    HW239723   3.059   1.167   3.218  0.5216 -0.7627 -2.8489
 9364SOL     OW39724   3.328   4.448   6.500  0.1059  0.8122  0.4115
 9364SOL    HW139725   3.255   4.403   6.458  0.3974  1.0482 -0.3459
 9364SOL    HW239726   3.396   4.381   6.495 -2.3604 -1.6826  0.8308
 9365SOL     OW39727   0.917   1.054   7.926 -0.2978 -0.2050  0.3644
 9365SOL    HW139728   0.822   1.055   7.928 -0.2987 -0.0547  0.2604
 9365SOL    HW239729   0.925   1.017   7.838  1.2162  1.0091 -0.0124
 9366SOL     OW39730   4.535   1.462   8.554 -0.5550 -0.0751 -0.0030
 9366SOL    HW139731   4.450   1.505   8.564 -0.9056 -0.5530 -0.9692
 9366SOL    HW239732   4.531   1.439   8.461 -0.1011 -2.7796  0.6375
 9367SOL     OW39733   2.330   3.895  13.615 -0.1882 -0.4745 -0.1904
 9367SOL    HW139734   2.420   3.928  13.618 -0.5825  0.7132 -1.4644
 9367SOL    HW239735   2.296   3.968  13.563  1.2348  1.3560  1.4502
 9368SOL     OW39736   2.312   2.232   1.561  0.2084 -0.2738  0.3198
 9368SOL    HW139737   2.375   2.294   1.596  0.5602  0.0095 -0.8152
 9368SOL    HW239738   2.363   2.166   1.514 -2.2427 -0.5184 -1.9789
 9369SOL     OW39739   3.667   2.236  14.055 -0.0720  0.3538  0.0804
 9369SOL    HW139740   3.606   2.279  13.996  0.0628  1.5249  0.7903
 9369SOL    HW239741   3.610   2.232  14.132 -0.7929  0.7031 -0.4391
 9370SOL     OW39742   3.057   0.060   4.706 -0.3059  0.8033 -0.1391
 9370SOL    HW139743   3.033   4.712   4.742  0.4345 -0.1192 -1.8484
 9370SOL    HW239744   3.087   0.110   4.783  0.3537 -0.1540  0.2343
 9371SOL     OW39745   2.189   0.359   3.433 -0.1223  0.1269  0.0169
 9371SOL    HW139746   2.200   0.351   3.528  2.0367  0.2914 -0.2270
 9371SOL    HW239747   2.168   0.451   3.419  2.6351  1.0922  2.4591
 9372SOL     OW39748   1.132   1.734   9.980  0.7903  0.0953  0.4594
 9372SOL    HW139749   1.167   1.750   9.892 -2.9649  0.1135 -1.0480
 9372SOL    HW239750   1.120   1.639   9.974 -0.2583  0.4929 -3.9074
 9373SOL     OW39751   4.682   0.448   5.225 -0.0331  0.2289  0.4528
 9373SOL    HW139752   4.627   0.372   5.248 -0.2506  0.8291  1.8934
 9373SOL    HW239753   0.031   0.415   5.247 -0.1638 -0.0016  0.6277
 9374SOL     OW39754   2.546   2.360   3.886 -0.4874 -0.5107  0.3257
 9374SOL    HW139755   2.639   2.342   3.900 -0.1884  0.3368 -0.5450
 9374SOL    HW239756   2.537   2.344   3.792 -3.0808  0.4123  0.4128
 9375SOL     OW39757   3.583   1.897  13.918  0.2936  0.7001  0.1451
 9375SOL    HW139758   3.637   1.967  13.882  0.2131 -0.2534 -1.8018
 9375SOL    HW239759   3.501   1.914  13.871  0.7277  1.6026 -0.2868
 9376SOL     OW39760   3.759   0.668   7.364  0.2159 -0.2203 -0.3679
 9376SOL    HW139761   3.833   0.612   7.342 -1.1008 -1.9380 -0.4468
 9376SOL    HW239762   3.682   0.622   7.329  0.3212 -0.3926 -0.3705
 9377SOL     OW39763   3.883   0.989   7.852 -0.1880 -0.3055  0.3945
 9377SOL    HW139764   3.796   0.952   7.866 -0.1592 -0.6528 -0.3463
 9377SOL    HW239765   3.868   1.046   7.777 -2.2646 -0.9150  0.3266
 9378SOL     OW39766   4.564   1.528   1.981  0.1879  0.0515  0.1352
 9378SOL    HW139767   4.487   1.526   2.038 -1.6227  1.3307 -2.2958
 9378SOL    HW239768   4.585   1.435   1.971 -0.6695 -0.1409  0.1346
 9379SOL     OW39769   2.782   3.398   7.575  0.1839  0.0077  0.0645
 9379SOL    HW139770   2.836   3.419   7.651 -1.7380  0.3980  1.3159
 9379SOL    HW239771   2.847   3.407   7.504  1.4099  1.1881  1.3150
 9380SOL     OW39772   1.380   3.016  10.901  0.7515 -0.4382 -0.6634
 9380SOL    HW139773   1.329   2.955  10.954 -1.1802  2.2254  0.5561
 9380SOL    HW239774   1.450   3.042  10.960 -0.8138  3.0549 -0.3071
 9381SOL     OW39775   3.174   3.591   9.600 -0.1302 -0.2351 -0.7653
 9381SOL    HW139776   3.180   3.497   9.613 -1.4473 -0.1157  0.8380
 9381SOL    HW239777   3.266   3.615   9.591 -0.0890 -0.1484 -0.1646
 9382SOL     OW39778   0.739   1.974   5.030 -0.1384 -0.4474 -0.2052
 9382SOL    HW139779   0.711   2.057   5.068  1.3013 -0.8904  1.8180
 9382SOL    HW239780   0.694   1.916   5.091 -1.0003  0.2645 -0.1690
 9383SOL     OW39781   4.124   2.518   0.539  0.0282 -0.9601 -0.3507
 9383SOL    HW139782   4.193   2.538   0.475  0.1853  1.0870  0.4490
 9383SOL    HW239783   4.056   2.564   0.489 -1.4172 -2.0875  0.5991
 9384SOL     OW39784   0.453   1.135   8.135  0.1925 -0.2854  0.3481
 9384SOL    HW139785   0.390   1.122   8.206 -0.3888 -0.2144 -0.1591
 9384SOL    HW239786   0.457   1.231   8.126 -1.1321 -0.1800  0.8538
 9385SOL     OW39787   0.485   4.467   6.527  0.3750 -0.0265  0.0287
 9385SOL    HW139788   0.430   4.408   6.475  0.1961 -1.0121  1.3438
 9385SOL    HW239789   0.497   4.536   6.461  0.5057 -0.2765 -0.2088
 9386SOL     OW39790   2.949   3.495   7.331  0.0043 -0.2204 -0.2280
 9386SOL    HW139791   2.956   3.571   7.389  2.6219  0.1117 -0.9950
 9386SOL    HW239792   3.014   3.514   7.264  0.1907 -1.2240 -0.3227
 9387SOL     OW39793   2.304   0.048   3.062  0.0499  0.3795 -0.0185
 9387SOL    HW139794   2.214   0.027   3.036 -0.2916  1.6039  0.1992
 9387SOL    HW239795   2.357   4.721   3.015  0.2643  0.5421  0.0057
 9388SOL     OW39796   1.709   0.738  16.375 -0.4019 -0.6079  0.0894
 9388SOL    HW139797   1.681   0.647  16.364 -1.1432 -0.7092  2.8841
 9388SOL    HW239798   1.621   0.775  16.376 -0.3819 -0.5687  0.3794
 9389SOL     OW39799   3.923   0.260   2.940  0.0549 -0.3153  0.4566
 9389SOL    HW139800   3.911   0.173   2.978 -1.0991 -0.3998 -0.1154
 9389SOL    HW239801   3.998   0.280   2.997  0.3349  0.1675 -0.0874
 9390SOL     OW39802   0.159   1.833   8.218  0.4294 -0.4315  0.3726
 9390SOL    HW139803   0.241   1.868   8.185  0.3424  0.4661  1.1235
 9390SOL    HW239804   0.106   1.839   8.138 -0.0892  3.0285  1.0039
 9391SOL     OW39805   2.862   0.688   2.814  0.1860 -0.2642  0.3710
 9391SOL    HW139806   2.895   0.614   2.764 -0.3222 -1.5827  1.9729
 9391SOL    HW239807   2.928   0.683   2.883  0.3692 -2.0152  0.0762
 9392SOL     OW39808   2.448   2.468  13.442  0.2800  0.2797  0.4269
 9392SOL    HW139809   2.457   2.521  13.521 -1.7498  0.3316  0.6064
 9392SOL    HW239810   2.419   2.527  13.372 -0.8380  0.9031  1.4106
 9393SOL     OW39811   4.304   3.425   9.324 -0.2750 -0.6332 -0.2787
 9393SOL    HW139812   4.255   3.505   9.340  0.3274 -0.3302  0.0503
 9393SOL    HW239813   4.316   3.384   9.410 -2.7635 -1.7339 -0.4642
 9394SOL     OW39814   1.714   0.814   7.870  0.1492 -0.0485 -0.3453
 9394SOL    HW139815   1.711   0.809   7.965 -0.3944 -0.7031 -0.3946
 9394SOL    HW239816   1.739   0.905   7.859 -0.7011  0.2121 -0.0982
 9395SOL     OW39817   2.069   3.734   6.797  0.1263  0.5369  0.0420
 9395SOL    HW139818   2.159   3.707   6.777  0.3355 -0.3990  2.2946
 9395SOL    HW239819   2.094   3.815   6.841 -0.6205  0.5706  0.4009
 9396SOL     OW39820   3.008   3.733  16.212  0.7686 -0.2576 -0.0438
 9396SOL    HW139821   3.076   3.678  16.174  1.0098  0.7145 -1.0177
 9396SOL    HW239822   2.938   3.667  16.211  1.0477 -0.5411 -0.5192
 9397SOL     OW39823   3.452   2.478   6.918 -0.5572  0.4562  0.3767
 9397SOL    HW139824   3.457   2.415   6.846 -1.6780 -1.4834  1.9843
 9397SOL    HW239825   3.527   2.452   6.971 -0.7680 -0.8779  0.0235
 9398SOL     OW39826   4.136   2.717   6.359 -0.1535  0.1089 -0.4747
 9398SOL    HW139827   4.066   2.684   6.416 -1.3967  1.5141 -1.1930
 9398SOL    HW239828   4.133   2.810   6.382 -0.1309 -0.2514  1.0311
 9399SOL     OW39829   2.898   1.007   2.631 -0.8585  0.2897 -0.4343
 9399SOL    HW139830   2.950   1.033   2.556  1.0781  0.2668  0.8849
 9399SOL    HW239831   2.902   0.912   2.619  1.5136  0.3506 -0.1643
 9400SOL     OW39832   1.160   3.820   7.183 -0.3672  0.1853 -0.2174
 9400SOL    HW139833   1.067   3.843   7.187 -0.0318  1.4525  0.2671
 9400SOL    HW239834   1.190   3.896   7.233  2.9039  1.0792 -3.5562
 9401SOL     OW39835   0.325   2.239   6.108 -0.5063  0.5330  0.0971
 9401SOL    HW139836   0.419   2.249   6.122 -0.6281  2.4908 -0.5734
 9401SOL    HW239837   0.323   2.146   6.132  2.0795  0.1798 -1.0583
 9402SOL     OW39838   3.319   0.832   7.651 -0.5462 -0.1600 -0.0269
 9402SOL    HW139839   3.289   0.921   7.671 -0.1901  0.3418 -1.7048
 9402SOL    HW239840   3.402   0.832   7.698  0.0640 -0.9893 -1.0946
 9403SOL     OW39841   1.153   4.284   7.854  0.0501 -0.3585 -0.3527
 9403SOL    HW139842   1.100   4.205   7.841 -1.0989  0.2266  0.8265
 9403SOL    HW239843   1.203   4.255   7.931  0.0836  0.3335 -0.1185
 9404SOL     OW39844   3.122   3.233   1.912  0.7437  0.3050 -0.7036
 9404SOL    HW139845   3.145   3.312   1.961 -0.1982 -2.1991  3.7133
 9404SOL    HW239846   3.154   3.159   1.963 -0.2928  0.1276 -0.3148
 9405SOL     OW39847   0.113   0.897   2.252  0.0831  0.1308  0.4121
 9405SOL    HW139848   0.052   0.861   2.188 -0.9617 -0.7219  1.8852
 9405SOL    HW239849   0.102   0.992   2.253 -0.8672  0.0175  1.4627
 9406SOL     OW39850   1.510   4.152  12.253 -0.1843 -0.1717  0.2104
 9406SOL    HW139851   1.581   4.214  12.238 -0.7407  0.1292 -1.2299
 9406SOL    HW239852   1.461   4.208  12.313  0.2050 -0.4298  0.7605
 9407SOL     OW39853   1.020   2.632   3.762  0.4349 -0.7227 -0.3574
 9407SOL    HW139854   0.982   2.646   3.675 -0.5027 -2.2679 -0.1992
 9407SOL    HW239855   1.068   2.550   3.749 -0.9999 -1.8188  1.2247
 9408SOL     OW39856   0.004   0.614   9.383  0.9226 -0.0305  0.5114
 9408SOL    HW139857   0.024   0.707   9.384 -0.1485  0.2006  0.6062
 9408SOL    HW239858   4.666   0.618   9.442 -1.5238 -0.4454 -2.6031
 9409SOL     OW39859   3.468   4.502   3.630  0.1250 -0.2348  0.3595
 9409SOL    HW139860   3.502   4.540   3.711 -1.6043  2.3062 -0.1045
 9409SOL    HW239861   3.548   4.507   3.578  0.4431  0.3833  0.9049
 9410SOL     OW39862   0.333   2.865   9.876  0.3250 -0.8631  0.2335
 9410SOL    HW139863   0.358   2.827   9.960 -0.9616  0.6604  1.3290
 9410SOL    HW239864   0.238   2.856   9.879 -0.1047  2.6513 -2.4030
 9411SOL     OW39865   4.663   2.132  10.907 -0.3235 -0.4231 -0.0886
 9411SOL    HW139866   4.691   2.051  10.949  1.6946  0.7339  0.7507
 9411SOL    HW239867   4.571   2.118  10.929 -0.3108  1.0105  0.8889
 9412SOL     OW39868   1.851   4.103  14.145  0.1606  0.2682 -0.2780
 9412SOL    HW139869   1.763   4.136  14.164  1.2614  2.1518  1.5044
 9412SOL    HW239870   1.835   4.017  14.185  0.8400 -0.3718 -1.3777
 9413SOL     OW39871   2.647   1.809   2.830 -0.3590  0.2788  0.3671
 9413SOL    HW139872   2.552   1.803   2.838 -0.3816  0.7514  0.4838
 9413SOL    HW239873   2.656   1.835   2.922  1.3669  0.2172  0.2184
 9414SOL     OW39874   1.286   2.250   0.086  0.2592 -0.1829  0.8175
 9414SOL    HW139875   1.332   2.266   0.003  2.1205 -0.1846  1.8481
 9414SOL    HW239876   1.362   2.272   0.140 -0.0032  1.0250  0.7054
 9415SOL     OW39877   2.729   1.253   4.045 -0.3222 -0.2170 -0.3004
 9415SOL    HW139878   2.782   1.299   3.980  0.1731  0.3581  0.5098
 9415SOL    HW239879   2.713   1.330   4.100  1.2607  0.7810 -1.2202
 9416SOL     OW39880   2.764   2.187   1.880  0.4909 -0.0679 -0.2281
 9416SOL    HW139881   2.678   2.222   1.902  0.9223  0.2008  1.0362
 9416SOL    HW239882   2.790   2.160   1.968 -1.8327  0.2060  0.5574
 9417SOL     OW39883   1.539   0.011   6.289  0.4106  0.0759  0.3349
 9417SOL    HW139884   1.533   0.097   6.249 -0.0133 -0.2117 -0.2173
 9417SOL    HW239885   1.518   0.035   6.379  1.5161 -3.3306  1.5267
 9418SOL     OW39886   2.959   0.791   4.746  0.5344 -0.3023  0.0333
 9418SOL    HW139887   3.001   0.718   4.700  0.2264 -0.4587 -0.0034
 9418SOL    HW239888   2.864   0.780   4.740  0.3815  1.3322 -0.6207
 9419SOL     OW39889   2.004   0.095   4.876  0.1405  0.7138 -0.3448
 9419SOL    HW139890   1.995   0.022   4.937  0.4221  0.4194 -0.6538
 9419SOL    HW239891   1.961   0.054   4.801 -0.8771 -0.6088  0.9553
 9420SOL     OW39892   0.506   1.151   0.152  0.3295 -0.4018  0.0836
 9420SOL    HW139893   0.506   1.218   0.221  2.7093 -0.6954  0.3612
 9420SOL    HW239894   0.464   1.075   0.193  0.9805  0.0126  1.5306
 9421SOL     OW39895   1.693   1.886   2.830 -0.3590  0.1447  0.1784
 9421SOL    HW139896   1.743   1.836   2.895  0.8901  1.5802  0.3106
 9421SOL    HW239897   1.614   1.833   2.834 -2.1400  2.6985 -1.2224
 9422SOL     OW39898   3.420   2.441  15.785  0.1855 -0.1985  0.0821
 9422SOL    HW139899   3.427   2.366  15.726  0.9351  1.5623 -2.0065
 9422SOL    HW239900   3.353   2.482  15.731  1.0685  0.7319 -0.2945
 9423SOL     OW39901   1.295   2.852  11.131  0.0639  0.4344  0.2676
 9423SOL    HW139902   1.251   2.779  11.175  1.5671 -1.1363 -0.8463
 9423SOL    HW239903   1.268   2.927  11.185  3.8649  1.5519  0.6148
 9424SOL     OW39904   3.988   0.000   9.299 -0.7403  0.3324  0.4170
 9424SOL    HW139905   4.082   4.729   9.286 -0.7853 -1.4510  1.2560
 9424SOL    HW239906   3.970   0.085   9.340 -0.3315 -0.3395  1.9696
 9425SOL     OW39907   3.403   0.116   2.033 -0.1310 -0.0817  0.1564
 9425SOL    HW139908   3.393   0.128   1.939  1.1455 -0.2639 -0.0066
 9425SOL    HW239909   3.330   0.166   2.067  0.2048  2.3479 -2.7624
 9426SOL     OW39910   2.771   3.569   5.795  0.5287  0.3335  0.6216
 9426SOL    HW139911   2.845   3.602   5.846  0.3753 -2.7989  2.8180
 9426SOL    HW239912   2.702   3.626   5.830 -0.8967 -0.3288 -1.1225
 9427SOL     OW39913   0.047   0.721  10.009 -0.0639 -0.0872 -1.0842
 9427SOL    HW139914   0.059   0.806  10.052  0.3190 -0.9853  0.5874
 9427SOL    HW239915   0.141   0.714   9.990 -0.0839  0.9754 -1.5552
 9428SOL     OW39916   0.352   0.719   1.812  0.1321 -0.3443  0.2422
 9428SOL    HW139917   0.409   0.706   1.888 -0.5974  2.1348  1.2169
 9428SOL    HW239918   0.285   0.773   1.853  0.4348  0.5531 -0.4424
 9429SOL     OW39919   1.261   2.260   9.651 -0.1151  0.2534  0.3078
 9429SOL    HW139920   1.247   2.250   9.746  0.4373 -0.9936  0.2561
 9429SOL    HW239921   1.269   2.355   9.649 -0.3399  0.2288 -1.5656
 9430SOL     OW39922   0.041   0.851   5.431  0.4200 -0.1935 -0.5214
 9430SOL    HW139923   4.710   0.813   5.485  1.5917  0.4301  1.4201
 9430SOL    HW239924   4.713   0.888   5.372 -0.0181  1.4463  0.9783
 9431SOL     OW39925   0.313   1.243  10.440 -0.6373 -0.2236 -0.2038
 9431SOL    HW139926   0.397   1.289  10.448 -0.0649 -1.3813  0.4549
 9431SOL    HW239927   0.242   1.307  10.443  0.1541  0.6548 -0.2853
 9432SOL     OW39928   2.826   2.535   1.830 -1.2794  0.5688 -0.2745
 9432SOL    HW139929   2.755   2.584   1.788  0.0148  1.4158 -1.4874
 9432SOL    HW239930   2.777   2.479   1.891  1.4928 -1.8697 -0.2941
 9433SOL     OW39931   1.914   1.299   7.111 -0.0698  0.9678  0.9588
 9433SOL    HW139932   1.900   1.205   7.127  3.9674  0.5022  1.8742
 9433SOL    HW239933   1.864   1.336   7.184  0.8800  0.0434  2.0895
 9434SOL     OW39934   2.055   3.718   8.723 -0.1317 -1.1302 -0.4570
 9434SOL    HW139935   1.997   3.770   8.779  0.4258 -2.2395  1.1681
 9434SOL    HW239936   2.046   3.768   8.642 -2.1863  0.8748  0.9910
 9435SOL     OW39937   4.471   2.749  12.493 -0.7238 -0.2352 -0.4153
 9435SOL    HW139938   4.504   2.799  12.418  1.9870  0.0861  1.0084
 9435SOL    HW239939   4.442   2.664  12.460 -2.2035  0.3513 -0.6259
 9436SOL     OW39940   3.742   2.791  17.725  0.2914 -0.5148  0.2690
 9436SOL    HW139941   3.736   2.698   0.001  1.5041 -0.5451  0.4574
 9436SOL    HW239942   3.766   2.841   0.055  0.8086  1.5448 -1.2198
 9437SOL     OW39943   3.409   0.348   3.834 -0.2047 -0.2135 -0.1310
 9437SOL    HW139944   3.363   0.345   3.918 -0.5876 -2.3702 -0.4422
 9437SOL    HW239945   3.359   0.415   3.787 -0.6417 -0.1957  0.3646
 9438SOL     OW39946   0.609   2.828   4.100  0.2079 -0.4241  0.1517
 9438SOL    HW139947   0.663   2.785   4.034 -0.9302 -1.9852  0.2159
 9438SOL    HW239948   0.529   2.828   4.048  0.0301 -0.5770  0.4264
 9439SOL     OW39949   1.302   3.511   5.824 -0.0688  0.0593  0.0646
 9439SOL    HW139950   1.282   3.599   5.792  4.2401  0.3861 -1.6761
 9439SOL    HW239951   1.232   3.466   5.777  1.0732  0.4225 -1.9856
 9440SOL     OW39952   0.722   1.909   0.993  0.5219  0.2038  0.4501
 9440SOL    HW139953   0.794   1.871   1.043  0.9615 -0.4943 -0.7092
 9440SOL    HW239954   0.664   1.836   0.973 -1.1731  1.8673 -0.7008
 9441SOL     OW39955   2.226   3.011   2.264 -0.3810 -0.2156 -0.4486
 9441SOL    HW139956   2.200   2.923   2.291 -1.5194  0.1270 -0.4258
 9441SOL    HW239957   2.231   3.050   2.351  1.4456 -1.3692 -0.0323
 9442SOL     OW39958   2.073   3.818  12.194  0.8886  0.9872  0.8916
 9442SOL    HW139959   2.125   3.824  12.114  1.1299 -0.7613  0.9206
 9442SOL    HW239960   2.098   3.727  12.209  0.7371  0.6576 -0.8407
 9443SOL     OW39961   2.914   3.063   7.841  0.3885 -0.0919  0.1508
 9443SOL    HW139962   2.880   3.125   7.905 -0.2616 -0.7325  0.4222
 9443SOL    HW239963   2.844   3.051   7.777  1.2200  2.0198 -1.1950
 9444SOL     OW39964   4.530   1.703   5.533  0.2903  0.4639  0.2035
 9444SOL    HW139965   4.501   1.627   5.584  0.0187  1.5543  1.6566
 9444SOL    HW239966   4.446   1.747   5.516  0.5107  0.3400 -1.2332
 9445SOL     OW39967   2.264   2.205   3.675 -0.3135  0.2669 -0.1321
 9445SOL    HW139968   2.307   2.185   3.758  0.4257  2.2388 -0.0409
 9445SOL    HW239969   2.221   2.122   3.656  0.0448 -0.2047  1.0466
 9446SOL     OW39970   0.807   2.332  12.482  0.1369  0.1117 -0.1881
 9446SOL    HW139971   0.830   2.308  12.392 -0.0261 -1.0679  0.0805
 9446SOL    HW239972   0.723   2.286  12.486 -0.3900  1.0460 -0.7524
 9447SOL     OW39973   1.015   1.433   2.736  0.1580  0.1446  0.2267
 9447SOL    HW139974   1.070   1.470   2.666  0.1362 -0.3859 -0.0711
 9447SOL    HW239975   0.944   1.383   2.696  0.4285  1.2369 -1.6230
 9448SOL     OW39976   3.996   1.173  16.383  0.0251 -0.2962  0.3445
 9448SOL    HW139977   4.027   1.198  16.470 -1.7037  0.4380  0.7500
 9448SOL    HW239978   4.077   1.154  16.334 -0.4306  1.1252 -0.9858
 9449SOL     OW39979   3.196   1.532   6.877 -0.1383  0.0710  0.0657
 9449SOL    HW139980   3.213   1.497   6.790 -1.7853  0.9917 -0.6336
 9449SOL    HW239981   3.250   1.471   6.928  0.1662 -1.0156 -1.5828
 9450SOL     OW39982   4.262   1.974   6.166  0.1000 -0.4341  0.9876
 9450SOL    HW139983   4.357   1.967   6.159 -0.1660 -1.9201 -1.1698
 9450SOL    HW239984   4.229   1.884   6.166  0.1640 -0.4588  1.3984
 9451SOL     OW39985   2.461   3.575   8.933  0.2794 -0.2787 -0.4379
 9451SOL    HW139986   2.438   3.525   9.011  1.8336  1.9118  1.3954
 9451SOL    HW239987   2.470   3.664   8.967 -0.9911 -0.5460  0.5789
 9452SOL     OW39988   4.395   4.267   9.068  0.0870  0.0848  0.3381
 9452SOL    HW139989   4.349   4.261   8.984 -0.0481 -0.4061  0.4481
 9452SOL    HW239990   4.476   4.309   9.039 -0.1685  0.7049  0.5057
 9453SOL     OW39991   0.023   2.263   4.808 -0.2932  0.8599 -0.4850
 9453SOL    HW139992   0.031   2.354   4.839  1.2741 -0.0372  1.7673
 9453SOL    HW239993   0.117   2.245   4.807 -0.3312  0.4968  1.5534
 9454SOL     OW39994   4.233   3.276   6.585 -0.0223 -0.3911 -0.9135
 9454SOL    HW139995   4.271   3.348   6.535  1.3259 -0.8593 -0.5452
 9454SOL    HW239996   4.139   3.296   6.586 -0.5294 -2.7148 -2.4743
 9455SOL     OW39997   4.173   3.095   3.529 -0.2689 -0.2489 -0.2310
 9455SOL    HW139998   4.225   3.176   3.523 -0.4943 -0.1808 -1.1753
 9455SOL    HW239999   4.088   3.131   3.554 -1.1664 -1.7145 -1.2141
 9456SOL     OW40000   1.079   2.492   8.886 -0.1717 -0.0539  0.2122
 9456SOL    HW140001   1.082   2.499   8.791  1.1661 -0.0829  0.2537
 9456SOL    HW240002   1.091   2.582   8.915  1.2688 -0.5312  1.0978
 9457SOL     OW40003   4.091   0.923   7.680  0.6183  0.6495  0.6451
 9457SOL    HW140004   4.083   0.832   7.649  0.9614  0.3119  1.5239
 9457SOL    HW240005   4.017   0.918   7.740 -1.3226 -1.3957 -1.9092
 9458SOL     OW40006   2.167   2.885   2.729  0.3886 -0.1506 -0.7785
 9458SOL    HW140007   2.248   2.853   2.770  0.6628  1.0531 -0.3880
 9458SOL    HW240008   2.106   2.881   2.802 -1.8275  0.8448 -2.5862
 9459SOL     OW40009   0.087   1.106  11.448  0.3253 -0.0285 -0.7473
 9459SOL    HW140010   0.086   1.150  11.363 -1.4043  2.8194  0.7486
 9459SOL    HW240011   0.179   1.080  11.447  0.7216  1.3116  0.5300
 9460SOL     OW40012   4.081   1.174   7.959 -0.0425  0.5845 -0.4222
 9460SOL    HW140013   4.012   1.236   7.981 -0.8542 -0.5327  0.1998
 9460SOL    HW240014   4.027   1.097   7.942  0.1695  0.2560  0.3672
 9461SOL     OW40015   0.792   0.953   5.562  0.1932  0.2046  0.3387
 9461SOL    HW140016   0.805   0.867   5.521 -0.5553  0.9611 -1.5147
 9461SOL    HW240017   0.698   0.967   5.555  0.8418  3.1296 -2.7775
 9462SOL     OW40018   2.473   4.297   2.805  0.0396 -0.3497 -0.0772
 9462SOL    HW140019   2.380   4.274   2.810  0.0489 -0.5892 -0.9020
 9462SOL    HW240020   2.478   4.340   2.719  0.6888  1.0097  0.6566
 9463SOL     OW40021   0.988   0.944   7.667  0.0737 -0.4138  0.3546
 9463SOL    HW140022   1.035   0.861   7.667  0.0251 -0.4312 -0.5771
 9463SOL    HW240023   1.048   1.004   7.622  2.2146 -1.0748  2.2930
 9464SOL     OW40024   0.648   2.007  11.751  0.1425 -0.2589  0.6371
 9464SOL    HW140025   0.558   2.005  11.717  0.6893  0.4165 -0.8327
 9464SOL    HW240026   0.636   1.976  11.841 -1.5090  1.6963  1.0868
 9465SOL     OW40027   3.148   4.623   7.638 -0.3100  0.2307  0.2703
 9465SOL    HW140028   3.136   4.603   7.731 -1.4208 -2.3753 -0.4181
 9465SOL    HW240029   3.235   4.662   7.637  0.8074 -2.1976  1.1742
 9466SOL     OW40030   2.195   0.943  10.299  0.3463  0.2502 -0.8515
 9466SOL    HW140031   2.144   0.862  10.294  2.1480 -0.8082 -2.0479
 9466SOL    HW240032   2.284   0.906  10.295  0.5586  0.3188  3.2319
 9467SOL     OW40033   2.733   4.558  15.077  0.4129  0.0486 -0.1440
 9467SOL    HW140034   2.675   4.484  15.060 -1.3033  1.2948  0.3028
 9467SOL    HW240035   2.697   4.620  15.014  2.0877  1.3520  0.1929
 9468SOL     OW40036   0.408   1.304   1.444  0.1761 -0.0496  0.0294
 9468SOL    HW140037   0.454   1.353   1.376  0.7758 -0.1635  0.3543
 9468SOL    HW240038   0.480   1.302   1.506  1.5849  0.2667 -1.5915
 9469SOL     OW40039   1.984   0.384   3.034  0.1277  0.2111 -0.4202
 9469SOL    HW140040   1.976   0.349   3.123 -1.6698  0.7656 -0.3580
 9469SOL    HW240041   1.912   0.337   2.992 -0.1864  1.1498 -0.9214
 9470SOL     OW40042   3.926   1.250   3.220  0.1596  0.0938  0.3402
 9470SOL    HW140043   3.886   1.301   3.149  0.5166 -2.0364 -1.3937
 9470SOL    HW240044   3.855   1.188   3.238  0.1158  0.6829  2.2317
 9471SOL     OW40045   2.229   2.344   2.086 -0.6650  0.0798 -0.2796
 9471SOL    HW140046   2.174   2.273   2.117 -0.1232  1.6710  4.4526
 9471SOL    HW240047   2.157   2.400   2.058  0.8721  1.0953 -2.1950
 9472SOL     OW40048   2.102   0.966   7.743  0.3931  0.1114 -0.7092
 9472SOL    HW140049   2.113   0.871   7.745  0.5349  0.1385  0.0833
 9472SOL    HW240050   2.108   0.993   7.835 -2.4678 -1.4456 -0.0698
 9473SOL     OW40051   2.929   1.509  15.383  0.0913  0.3820  0.4448
 9473SOL    HW140052   2.911   1.419  15.356  3.6924  0.0996 -0.9045
 9473SOL    HW240053   2.866   1.561  15.334  3.0178  1.9273 -1.6239
 9474SOL     OW40054   4.560   0.018  11.726 -0.7783 -0.0062  0.3339
 9474SOL    HW140055   4.650   0.025  11.696  0.2013  0.1662  3.2420
 9474SOL    HW240056   4.555   0.064  11.810 -2.1685 -0.7121  0.6377
 9475SOL     OW40057   3.606   2.599  11.602 -0.6573  0.8325  0.0892
 9475SOL    HW140058   3.591   2.522  11.547  0.6754  0.1758  0.6341
 9475SOL    HW240059   3.677   2.552  11.646 -2.7120 -1.7155  0.6992
 9476SOL     OW40060   0.495   3.168   8.272 -0.4127  0.5952 -0.4332
 9476SOL    HW140061   0.438   3.107   8.224  2.1026  0.3090 -3.0816
 9476SOL    HW240062   0.520   3.109   8.343 -0.7562 -0.6696 -1.3541
 9477SOL     OW40063   1.992   1.674   9.168  0.2226  0.4776  0.0620
 9477SOL    HW140064   1.950   1.591   9.144  2.0784 -0.1271 -1.0871
 9477SOL    HW240065   2.007   1.717   9.084 -2.0471 -0.3981 -0.7940
 9478SOL     OW40066   2.893   3.874   4.305 -0.0971 -0.0856  0.0015
 9478SOL    HW140067   2.909   3.808   4.237 -0.7433  0.7264 -0.9421
 9478SOL    HW240068   2.973   3.868   4.357 -1.1606 -1.9240  1.4132
 9479SOL     OW40069   3.357   1.167   8.264 -0.2865 -0.4505 -0.3628
 9479SOL    HW140070   3.398   1.084   8.287  2.4629  0.6977 -1.1815
 9479SOL    HW240071   3.395   1.168   8.177 -0.2588  1.0698 -0.3247
 9480SOL     OW40072   1.434   4.591   3.267 -0.2269  0.2069  0.1226
 9480SOL    HW140073   1.378   4.548   3.202 -2.3808  2.2767  0.5928
 9480SOL    HW240074   1.516   4.543   3.258  0.8807  1.6063  2.8029
 9481SOL     OW40075   2.643   0.353   4.866 -0.1566  0.1108 -0.3443
 9481SOL    HW140076   2.566   0.297   4.854  0.9215 -1.4495 -0.0315
 9481SOL    HW240077   2.601   0.437   4.882 -1.5189 -0.8956  1.2208
 9482SOL     OW40078   4.396   3.274   5.545  0.0331  0.1630 -0.6307
 9482SOL    HW140079   4.419   3.315   5.628  0.9153  1.0501 -1.3180
 9482SOL    HW240080   4.304   3.298   5.543  0.0489  0.0522 -2.5617
 9483SOL     OW40081   2.064   4.418   6.907  0.6476 -1.0362  0.1092
 9483SOL    HW140082   2.041   4.342   6.960 -1.1751 -0.6972 -0.2255
 9483SOL    HW240083   2.027   4.489   6.959  1.1829 -0.4813 -0.2691
 9484SOL     OW40084   4.701   1.058   1.304 -0.0131  0.5368 -0.0120
 9484SOL    HW140085   4.620   1.070   1.354 -0.6372 -0.1560 -0.8460
 9484SOL    HW240086   4.660   1.089   1.224 -3.0035 -0.2870  1.1769
 9485SOL     OW40087   1.333   1.309  10.487 -0.1122  0.6761  0.1054
 9485SOL    HW140088   1.319   1.239  10.551 -0.4200  0.6445  0.0064
 9485SOL    HW240089   1.333   1.389  10.540  1.0518  0.3995  0.5248
 9486SOL     OW40090   4.572   1.090  10.178  0.3117  0.2808 -0.3633
 9486SOL    HW140091   4.599   1.181  10.167 -0.7938  0.4657 -1.4042
 9486SOL    HW240092   4.544   1.099  10.269 -0.4041  1.4528 -0.7050
 9487SOL     OW40093   1.482   3.807  13.836  0.3238  0.0849 -0.2258
 9487SOL    HW140094   1.549   3.739  13.845  1.4870  1.5533  2.1616
 9487SOL    HW240095   1.422   3.773  13.903 -0.6500 -1.4092 -1.8602
 9488SOL     OW40096   3.540   0.289   5.313 -0.4180  0.0292  0.1872
 9488SOL    HW140097   3.501   0.366   5.272 -0.7066 -0.3675 -0.2800
 9488SOL    HW240098   3.611   0.337   5.356  0.2631 -1.1489  0.3936
 9489SOL     OW40099   0.965   0.411  17.082 -0.3115  0.0751  0.1286
 9489SOL    HW140100   0.964   0.431  16.989 -1.2759 -1.6820 -0.2336
 9489SOL    HW240101   0.926   0.323  17.078  1.4540 -0.6985 -0.2650
 9490SOL     OW40102   2.982   1.414   4.198 -0.4119 -0.2804  0.1086
 9490SOL    HW140103   2.943   1.363   4.126  0.5816 -2.5111  1.1422
 9490SOL    HW240104   2.962   1.503   4.171 -0.9126 -0.8532 -1.4672
 9491SOL     OW40105   4.020   2.116   9.050  0.1353 -0.5075 -0.1056
 9491SOL    HW140106   4.089   2.090   9.111 -0.6790  0.6780  1.3416
 9491SOL    HW240107   3.991   2.026   9.034  0.6343 -0.5650 -0.6451
 9492SOL     OW40108   2.641   2.607   1.614  0.6000 -0.3936  0.0887
 9492SOL    HW140109   2.610   2.618   1.524  2.4139  0.1990 -0.4722
 9492SOL    HW240110   2.654   2.697   1.644  0.4097 -0.1351 -0.5834
 9493SOL     OW40111   1.140   0.573  14.826  0.0629 -0.5212  0.1315
 9493SOL    HW140112   1.120   0.480  14.833  3.9965 -1.3558  0.2813
 9493SOL    HW240113   1.231   0.577  14.796  0.6397 -2.3773  1.6299
 9494SOL     OW40114   3.000   1.457   3.599  0.2784  0.5468 -0.2704
 9494SOL    HW140115   3.083   1.410   3.606  0.2423  0.1860 -2.1346
 9494SOL    HW240116   3.035   1.540   3.566 -0.5857  1.5978  1.4454
 9495SOL     OW40117   3.646   0.302  15.044  0.0773 -0.9892 -0.2397
 9495SOL    HW140118   3.611   0.384  15.009 -0.6604 -0.2650  2.1777
 9495SOL    HW240119   3.563   0.255  15.051  1.0349 -2.8714 -1.6032
 9496SOL     OW40120   2.521   2.578   2.957 -0.0499 -0.0844 -0.2525
 9496SOL    HW140121   2.486   2.491   2.939  1.4501 -0.6236 -0.6038
 9496SOL    HW240122   2.605   2.568   2.912  0.0598 -2.3887  0.4794
 9497SOL     OW40123   0.931   3.647   2.759  0.2580  0.2719 -0.5627
 9497SOL    HW140124   0.847   3.613   2.729  2.0952 -3.0017 -1.9331
 9497SOL    HW240125   0.986   3.573   2.735  0.8689  0.4611  0.2721
 9498SOL     OW40126   0.006   2.283   7.647 -0.6267 -1.1207 -0.0018
 9498SOL    HW140127   0.048   2.284   7.734  2.0843 -1.7463 -1.3022
 9498SOL    HW240128   0.030   2.192   7.628  1.0049 -0.5211 -0.8854
 9499SOL     OW40129   2.215   4.544   2.334 -0.3149 -0.4149 -0.5044
 9499SOL    HW140130   2.144   4.604   2.312 -0.3214  0.3434  1.5995
 9499SOL    HW240131   2.215   4.573   2.425 -1.0859  0.1846 -0.6932
 9500SOL     OW40132   3.620   3.922   6.044 -0.1750  0.4694  0.1303
 9500SOL    HW140133   3.654   4.011   6.044 -0.9364  0.7595  0.4670
 9500SOL    HW240134   3.669   3.877   6.113 -1.7195  0.6656  1.3557
 9501SOL     OW40135   1.068   3.569   3.778 -0.5854 -0.0562 -0.2792
 9501SOL    HW140136   1.162   3.584   3.793 -0.5600 -0.2586 -0.2398
 9501SOL    HW240137   1.067   3.607   3.690  2.2548 -0.1448 -0.3669
 9502SOL     OW40138   1.409   3.493   5.149  0.4522 -0.0608  0.1061
 9502SOL    HW140139   1.495   3.535   5.149  0.5591 -0.2756  0.8163
 9502SOL    HW240140   1.413   3.453   5.063  2.5837  0.5895 -0.0928
 9503SOL     OW40141   1.589   1.541  15.710 -0.2250 -0.6762 -0.0459
 9503SOL    HW140142   1.579   1.635  15.695 -2.2767 -0.8922 -0.1515
 9503SOL    HW240143   1.510   1.502  15.670 -1.6685  0.2669  1.8960
 9504SOL     OW40144   2.783   2.559   5.357 -0.1634  0.2926  0.2428
 9504SOL    HW140145   2.803   2.474   5.317 -2.5977 -0.2778  0.1912
 9504SOL    HW240146   2.720   2.540   5.427  1.7927 -1.6609  1.4595
 9505SOL     OW40147   1.384   2.180  14.277 -0.5313 -0.2108  0.4629
 9505SOL    HW140148   1.453   2.233  14.238  1.5248 -0.9690  3.0669
 9505SOL    HW240149   1.305   2.234  14.275 -0.6215 -0.3764 -0.2503
 9506SOL     OW40150   2.965   2.380   4.607 -0.3138 -0.1611 -0.2283
 9506SOL    HW140151   2.885   2.391   4.657  0.4923 -0.5732  1.1487
 9506SOL    HW240152   3.021   2.337   4.671 -2.3504  1.8010  2.8293
 9507SOL     OW40153   3.588   1.878  13.436  0.2070 -0.3074  0.0976
 9507SOL    HW140154   3.528   1.947  13.411 -2.1430 -1.9310  1.2398
 9507SOL    HW240155   3.529   1.822  13.487 -1.5064 -0.5995 -2.2152
 9508SOL     OW40156   0.607   4.303   8.933 -0.4377  0.3210 -0.3285
 9508SOL    HW140157   0.630   4.394   8.915 -1.2650  0.4371 -0.7681
 9508SOL    HW240158   0.544   4.315   9.004 -0.1837 -0.8016  0.0869
 9509SOL     OW40159   2.115   3.456   4.189 -0.1380 -0.1710  0.0752
 9509SOL    HW140160   2.077   3.544   4.181  1.3051  0.6914  2.5950
 9509SOL    HW240161   2.200   3.467   4.231  0.2482 -1.0294 -0.4800
 9510SOL     OW40162   4.708   1.451   5.510  0.1322  0.5713 -0.3327
 9510SOL    HW140163   4.677   1.536   5.479 -2.1452  0.0408  0.4422
 9510SOL    HW240164   4.619   1.417   5.520  1.1267 -1.8938  0.1466
 9511SOL     OW40165   1.213   1.811  10.241  0.3767 -0.5694 -0.4089
 9511SOL    HW140166   1.258   1.727  10.243  1.3185 -0.0128  1.6038
 9511SOL    HW240167   1.207   1.820  10.145 -0.3880 -1.8533 -0.4855
 9512SOL     OW40168   1.488   1.720  12.658 -0.3913 -0.1833  0.1573
 9512SOL    HW140169   1.460   1.686  12.572 -0.7530  0.5996 -0.0320
 9512SOL    HW240170   1.490   1.814  12.642 -0.3093 -0.6160 -2.4495
 9513SOL     OW40171   4.484   0.839   4.684 -0.1702 -0.7288 -0.0928
 9513SOL    HW140172   4.496   0.865   4.593  0.2918 -0.7243 -0.0342
 9513SOL    HW240173   4.553   0.888   4.730 -1.5145 -0.2331  1.4209
 9514SOL     OW40174   1.054   1.658   2.291  0.2070 -0.2055 -0.3922
 9514SOL    HW140175   1.088   1.603   2.220 -0.7727 -1.2810 -0.0272
 9514SOL    HW240176   0.978   1.703   2.254  1.2340  1.4087 -0.5195
 9515SOL     OW40177   1.129   1.723   7.130 -0.3722 -0.1002  0.1347
 9515SOL    HW140178   1.074   1.800   7.146 -0.4769  0.1886 -1.6680
 9515SOL    HW240179   1.062   1.655   7.142 -0.7583  0.6611  2.3648
 9516SOL     OW40180   2.121   3.467  11.948 -0.0039 -0.7274  0.1418
 9516SOL    HW140181   2.173   3.386  11.952  1.3878  0.2339  1.5544
 9516SOL    HW240182   2.137   3.498  12.037  0.4203  1.6785 -0.7814
 9517SOL     OW40183   4.703   4.200   4.656  0.4674 -0.7225 -0.2062
 9517SOL    HW140184   4.732   4.221   4.744 -1.0194 -1.3736  0.4459
 9517SOL    HW240185   4.706   4.105   4.666 -1.9305 -0.6189  1.6199
 9518SOL     OW40186   3.759   2.695  11.993 -0.2163 -0.5206 -0.4623
 9518SOL    HW140187   3.696   2.741  11.936 -0.8412 -0.2347  0.4616
 9518SOL    HW240188   3.716   2.610  11.991 -1.4187  0.0812 -0.4448
 9519SOL     OW40189   2.095   0.376   1.699 -0.0797 -0.5610 -0.2113
 9519SOL    HW140190   2.015   0.360   1.649  0.1828  2.0607 -1.4432
 9519SOL    HW240191   2.116   0.282   1.698 -0.6814 -0.6522 -3.5131
 9520SOL     OW40192   0.654   4.049   7.391 -0.5264  0.0488 -1.5830
 9520SOL    HW140193   0.652   4.128   7.337  1.5645  0.3460 -1.2368
 9520SOL    HW240194   0.678   3.985   7.324 -0.4950 -0.5050 -1.0413
 9521SOL     OW40195   1.997   4.359   8.464  0.3796  0.2208  0.3851
 9521SOL    HW140196   1.919   4.411   8.441  0.9367  1.3972  1.1522
 9521SOL    HW240197   2.021   4.325   8.378 -1.9498  0.1903 -0.2536
 9522SOL     OW40198   1.542   4.618  15.796  0.0580 -0.3636 -0.1752
 9522SOL    HW140199   1.631   4.619  15.760 -0.1678  2.4697 -0.6874
 9522SOL    HW240200   1.480   4.609  15.724 -1.0619  2.5568  0.4259
 9523SOL     OW40201   1.337   4.332   6.100 -0.4593  0.0034  0.2194
 9523SOL    HW140202   1.400   4.334   6.028  2.7288  0.3144  3.0203
 9523SOL    HW240203   1.276   4.395   6.062 -1.6630 -1.9120 -1.0114
 9524SOL     OW40204   1.438   3.699   6.039  0.0720  0.7454  0.0775
 9524SOL    HW140205   1.376   3.629   6.059  1.3774 -0.6330 -0.7251
 9524SOL    HW240206   1.517   3.645   6.041 -1.9858 -2.2418  1.2187
 9525SOL     OW40207   1.180   3.785   9.548 -0.3031  0.3447 -0.1495
 9525SOL    HW140208   1.088   3.809   9.534  0.1807  1.5600 -1.1723
 9525SOL    HW240209   1.173   3.763   9.641 -0.4084  2.6406  0.3838
 9526SOL     OW40210   3.253   4.156  15.632  0.2399 -0.9598  0.4852
 9526SOL    HW140211   3.203   4.229  15.669  0.3683 -0.5167 -0.2126
 9526SOL    HW240212   3.292   4.113  15.709 -0.6777  0.7975  1.9338
 9527SOL     OW40213   0.314   0.325   3.798 -0.0864  0.5992 -0.2358
 9527SOL    HW140214   0.393   0.325   3.744 -0.1372  0.0440 -0.3060
 9527SOL    HW240215   0.309   0.242   3.845  0.5330 -0.2391 -1.6411
 9528SOL     OW40216   0.223   2.394   1.267  0.2933  0.2128  0.0216
 9528SOL    HW140217   0.135   2.356   1.266  1.0790 -1.5610 -0.4501
 9528SOL    HW240218   0.256   2.319   1.316 -0.7647 -1.5758 -2.0349
 9529SOL     OW40219   0.364   3.666   6.126 -0.0189  0.2803  0.3751
 9529SOL    HW140220   0.438   3.615   6.094  0.0582  0.5901  0.0736
 9529SOL    HW240221   0.368   3.726   6.052  2.6601 -1.0288 -0.5248
 9530SOL     OW40222   2.967   0.235   3.319 -0.0161  0.0231  0.2919
 9530SOL    HW140223   3.005   0.322   3.332  0.7349 -0.2369 -0.1248
 9530SOL    HW240224   2.876   0.250   3.344  0.0199  0.1255  0.3580
 9531SOL     OW40225   3.531   1.190   7.168 -0.6971  0.0814  0.0945
 9531SOL    HW140226   3.515   1.285   7.173  0.9990  0.3611  0.0034
 9531SOL    HW240227   3.608   1.180   7.112  0.5616  0.7599  1.7348
 9532SOL     OW40228   0.114   3.662   7.377  0.2744 -0.3400  0.0138
 9532SOL    HW140229   0.091   3.626   7.463 -1.6216 -0.5007 -0.5609
 9532SOL    HW240230   0.173   3.595   7.342 -0.9092 -0.3895 -1.9101
 9533SOL     OW40231   3.843   2.037  11.598  0.0219  0.3683  0.0705
 9533SOL    HW140232   3.772   2.065  11.655 -0.9568 -0.4660 -0.7327
 9533SOL    HW240233   3.823   2.094  11.524 -1.4815 -0.5980 -0.2828
 9534SOL     OW40234   1.943   3.528   2.628 -0.5979 -0.4054  0.4496
 9534SOL    HW140235   2.018   3.471   2.645 -0.3064 -0.3033 -0.5049
 9534SOL    HW240236   1.880   3.494   2.692  0.3641  0.1512  1.6953
 9535SOL     OW40237   3.087   0.745   4.397  0.1104  0.2401 -0.4447
 9535SOL    HW140238   3.087   0.805   4.323 -1.1633  1.2210  0.3659
 9535SOL    HW240239   3.004   0.698   4.388  0.4254 -0.4274  0.1053
 9536SOL     OW40240   4.460   0.566   3.411  0.0465  0.1992  0.5546
 9536SOL    HW140241   4.484   0.594   3.500  1.5540  0.3019  0.1051
 9536SOL    HW240242   4.444   0.471   3.415  1.2164  0.0035  0.7162
 9537SOL     OW40243   1.132   1.166   8.251  0.4339 -0.1515 -0.6419
 9537SOL    HW140244   1.122   1.179   8.157  1.2062  0.5693 -0.6247
 9537SOL    HW240245   1.044   1.135   8.274 -0.1720  2.2839  0.3571
 9538SOL     OW40246   0.598   4.352   2.477  0.3254 -0.1156 -0.1322
 9538SOL    HW140247   0.661   4.286   2.506  1.4121  1.3319  0.7866
 9538SOL    HW240248   0.660   4.406   2.427  1.8660 -1.0115  0.8076
 9539SOL     OW40249   2.441   4.104   3.579 -0.4421  0.1707  0.0359
 9539SOL    HW140250   2.500   4.159   3.526  0.3971  0.1584  0.9513
 9539SOL    HW240251   2.501   4.031   3.595  2.0263  2.4420  1.2929
 9540SOL     OW40252   4.016   3.338   4.270 -0.1465 -0.0493  0.4273
 9540SOL    HW140253   4.094   3.379   4.307 -1.6624 -0.9548  4.6558
 9540SOL    HW240254   3.957   3.316   4.342  0.8500 -0.6626  1.0573
 9541SOL     OW40255   1.719   3.819  14.202  0.4898  0.1953  0.3233
 9541SOL    HW140256   1.636   3.865  14.189  1.0234  0.9850 -0.3033
 9541SOL    HW240257   1.719   3.747  14.139  1.4324  0.4332  0.0613
 9542SOL     OW40258   0.561   2.765   1.117 -0.2062 -0.2816 -0.1707
 9542SOL    HW140259   0.536   2.674   1.133  0.6895 -0.5886 -0.5020
 9542SOL    HW240260   0.639   2.773   1.172  0.3719 -1.4514 -0.8288
 9543SOL     OW40261   1.892   2.420  14.699 -0.0809  0.2124 -0.0853
 9543SOL    HW140262   1.936   2.375  14.627 -2.2281 -0.1666 -1.1700
 9543SOL    HW240263   1.808   2.376  14.710 -0.1394  0.2862 -0.2268
 9544SOL     OW40264   0.907   0.642   5.712 -0.1056  0.4190 -0.6298
 9544SOL    HW140265   0.878   0.634   5.621 -1.0444 -1.5971 -0.1667
 9544SOL    HW240266   0.905   0.550   5.740  0.7434  0.1731 -1.4064
 9545SOL     OW40267   3.011   3.629  15.876  0.1628  0.2038  0.4875
 9545SOL    HW140268   2.990   3.722  15.883  0.7852  0.2958  1.1953
 9545SOL    HW240269   3.024   3.606  15.968  1.3817 -1.6872 -0.1665
 9546SOL     OW40270   0.580   2.278   1.055  0.5002 -0.6112 -0.3800
 9546SOL    HW140271   0.511   2.212   1.045  0.5969 -0.7028 -0.4387
 9546SOL    HW240272   0.609   2.289   0.965 -0.1575 -0.5482 -0.5848
 9547SOL     OW40273   4.081   0.179  17.006  0.1182 -0.3316  0.1203
 9547SOL    HW140274   4.007   0.156  16.950 -0.0667 -0.0258  0.2393
 9547SOL    HW240275   4.105   0.263  16.967  1.2458 -1.1995 -1.0210
 9548SOL     OW40276   3.601   3.846  12.788 -0.6014  0.1574 -0.6674
 9548SOL    HW140277   3.547   3.767  12.788  0.6019 -0.6794 -4.2023
 9548SOL    HW240278   3.554   3.898  12.853  0.1704 -0.1314  0.1385
 9549SOL     OW40279   1.697   1.165  14.445 -0.1653 -0.6264 -0.4935
 9549SOL    HW140280   1.751   1.235  14.410  0.6117  0.3268  2.5906
 9549SOL    HW240281   1.717   1.097  14.381  0.4065  0.5973 -1.6104
 9550SOL     OW40282   3.256   2.984   5.850  0.6200 -0.2151  0.7641
 9550SOL    HW140283   3.232   3.028   5.768  1.7354 -0.0116  0.5494
 9550SOL    HW240284   3.231   2.898   5.817 -2.9986 -0.1535  3.3570
 9551SOL     OW40285   2.572   4.356   1.951  0.4245  0.8232  0.2662
 9551SOL    HW140286   2.612   4.359   2.038  1.6446  0.9862 -0.3088
 9551SOL    HW240287   2.644   4.346   1.890  1.0693  0.6508  1.0592
 9552SOL     OW40288   3.446   1.597   2.070  0.0698  0.4520 -0.4058
 9552SOL    HW140289   3.489   1.511   2.070  0.1234  0.4787 -0.3629
 9552SOL    HW240290   3.490   1.646   2.140  0.4212  0.4098 -0.5980
 9553SOL     OW40291   2.059   4.417   9.176 -0.0604  0.3609  0.4393
 9553SOL    HW140292   1.998   4.489   9.192 -0.8658  0.4353 -2.8618
 9553SOL    HW240293   2.132   4.473   9.150 -0.2171  0.1691 -0.4224
 9554SOL     OW40294   4.410   4.380   6.059  0.0587 -0.1349 -0.2152
 9554SOL    HW140295   4.496   4.338   6.054  0.9959  1.5943  1.2627
 9554SOL    HW240296   4.430   4.459   6.010  3.5663 -0.4330  0.6677
 9555SOL     OW40297   1.271   0.970   5.693 -0.1978 -0.2067 -0.0890
 9555SOL    HW140298   1.334   1.033   5.729 -0.1839 -1.3466  1.8521
 9555SOL    HW240299   1.202   0.977   5.759 -0.4478  1.0975 -0.4756
 9556SOL     OW40300   0.424   2.394   6.783  0.2774 -0.0594 -0.2422
 9556SOL    HW140301   0.369   2.324   6.818 -1.1047  0.6015 -1.1010
 9556SOL    HW240302   0.510   2.367   6.816 -0.2062 -1.5697 -0.1956
 9557SOL     OW40303   2.651   0.705   3.738  0.1192  0.1078 -0.1549
 9557SOL    HW140304   2.572   0.760   3.733  0.6386  0.8550 -0.2371
 9557SOL    HW240305   2.716   0.744   3.678 -1.7745  1.8239 -1.0959
 9558SOL     OW40306   1.553   2.772  11.043 -0.8283 -0.5948  0.2479
 9558SOL    HW140307   1.471   2.797  11.085 -0.2372  1.8211 -0.0277
 9558SOL    HW240308   1.621   2.826  11.084 -0.9384  0.8860 -1.4982
 9559SOL     OW40309   3.202   2.841  10.392 -0.1651 -0.7836 -0.1116
 9559SOL    HW140310   3.228   2.823  10.483  0.1899  0.1976 -0.0224
 9559SOL    HW240311   3.179   2.753  10.362 -0.4459 -0.2661 -1.4063
 9560SOL     OW40312   1.592   4.164   8.324  0.6722 -0.0700  0.9707
 9560SOL    HW140313   1.553   4.077   8.333 -1.1511  0.8381  1.9340
 9560SOL    HW240314   1.673   4.146   8.372  0.6762  2.7217  1.9924
 9561SOL     OW40315   0.912   2.303   5.078  0.3195  0.0014 -0.1162
 9561SOL    HW140316   0.846   2.296   5.147 -1.0773  1.6052 -1.3020
 9561SOL    HW240317   0.989   2.253   5.106  1.5854  2.2299  0.4091
 9562SOL     OW40318   1.808   2.713   3.147  0.2091  0.5281  0.4047
 9562SOL    HW140319   1.856   2.793   3.125  0.9499  0.6170  2.3704
 9562SOL    HW240320   1.733   2.759   3.185 -0.7522  0.0535 -0.9120
 9563SOL     OW40321   3.586   4.262   8.207 -0.2986 -0.2005  0.1717
 9563SOL    HW140322   3.643   4.319   8.156 -0.7054 -0.3450 -0.4449
 9563SOL    HW240323   3.570   4.316   8.284 -1.0989  0.6791 -0.6244
 9564SOL     OW40324   4.016   2.294   2.710  0.3611  0.1082  0.0457
 9564SOL    HW140325   3.998   2.361   2.776  0.1460  1.5982 -1.5355
 9564SOL    HW240326   3.932   2.278   2.667  1.4861 -0.1987 -2.0175
 9565SOL     OW40327   0.045   1.121   4.544 -0.2724 -0.4212  0.1395
 9565SOL    HW140328   4.727   1.084   4.476  1.9457 -3.4410 -0.0237
 9565SOL    HW240329   0.083   1.197   4.501 -0.4660 -0.5087 -0.1869
 9566SOL     OW40330   2.568   4.416   7.002  0.6493 -0.3537 -0.4476
 9566SOL    HW140331   2.569   4.482   7.072 -1.5126  0.5848 -1.2777
 9566SOL    HW240332   2.608   4.452   6.923 -0.1071 -0.4223 -0.8621
 9567SOL     OW40333   1.483   4.675   6.766 -0.4984  0.4476  0.4104
 9567SOL    HW140334   1.451   4.599   6.813 -0.8216 -1.9170 -3.5971
 9567SOL    HW240335   1.449   4.651   6.679 -0.3549 -0.5135  0.6231
 9568SOL     OW40336   0.453   3.716  14.777  0.0602 -0.2260  0.2160
 9568SOL    HW140337   0.452   3.750  14.866  1.9756 -1.5918  0.7535
 9568SOL    HW240338   0.452   3.796  14.725 -0.6609 -0.1785  0.3010
 9569SOL     OW40339   0.591   0.173   4.012 -0.3787 -0.2633  0.2921
 9569SOL    HW140340   0.641   0.137   3.939 -0.2121 -1.6644  1.1068
 9569SOL    HW240341   0.543   0.242   3.966  0.3935 -0.4181 -0.7370
 9570SOL     OW40342   0.081   0.418   0.128  0.2833  0.2440 -0.4009
 9570SOL    HW140343   0.076   0.495   0.072 -3.7259  0.9525  0.9672
 9570SOL    HW240344   0.077   0.461   0.214 -1.5840 -0.6338 -0.0428
 9571SOL     OW40345   0.635   1.208   2.045 -0.5332  0.1980 -0.2027
 9571SOL    HW140346   0.602   1.298   2.038  0.5416  0.5964 -0.0948
 9571SOL    HW240347   0.597   1.187   2.130 -0.2841  0.6220  0.0137
   4.73754   4.73754  17.74841
