Membrane in water
40347
    1TMC1    C1    1   0.111   1.013  11.423  0.1400  0.5011 -0.3576
    1TMC1    C2    2   0.247   1.034  11.450 -0.5036 -0.5209  0.1278
    1TMC1    C3    3   0.295   1.158  11.423 -0.8789 -0.2502  1.3234
    1TMC1    C4    4   0.038   1.101  11.347 -1.0732  0.8888 -0.9550
    1TMC1    C5    5   0.097   1.218  11.310 -0.1833  0.0769  0.3626
    1TMC1    C6    6   0.223   1.250  11.350 -0.5607  0.2500  0.2781
    1TMC1     C    7   0.040   0.902  11.490  0.3897 -0.5121  0.1519
    1TMC1     O    8   4.656   0.897  11.487  0.5396  0.2253  0.2915
    1TMC1     H    9   0.313   0.961  11.495  0.3509  0.3664  0.3251
    1TMC1    H1   10   4.675   1.070  11.315 -1.1730 -0.2151  0.4261
    1TMC1    H2   11   0.269   1.345  11.322 -2.8662  1.5497  0.9386
    1TMC1    C7   12   4.736   1.318  11.274  0.0834  0.1867 -0.2918
    1TMC1    C8   13   0.433   1.181  11.444 -0.3294 -0.1421  0.5886
    1TMC1    O1   14   4.615   1.295  11.296  0.1421 -0.0336  0.0587
    1TMC1    O2   15   0.514   1.092  11.425 -0.2606  0.2876  0.4014
    1TMC1    O3   16   0.047   1.371  11.159 -0.0173  0.1414  0.1206
    1TMC1    H3   17   0.145   1.363  11.156 -0.2210 -2.2293 -0.0010
    1TMC1    O5   18   0.455   1.316  11.450 -0.1234  0.0537 -0.3496
    1TMC1    H5   19   0.377   1.368  11.480  0.6369  1.1469 -0.2918
    2MPD2     C   20   0.025   0.532  11.842  0.3645 -0.4415 -0.6611
    2MPD2    C1   21   4.663   0.615  11.799  0.0491  0.1279  0.0979
    2MPD2    C2   22   4.693   0.697  11.697  0.0453  0.4130 -0.2753
    2MPD2    C3   23   0.081   0.702  11.632 -0.2382  0.2513 -0.5604
    2MPD2    C4   24   0.179   0.614  11.684 -0.6603  0.3852  0.0781
    2MPD2    C5   25   0.150   0.529  11.792  0.6465  0.1035 -0.1133
    2MPD2     H   26   4.614   0.760  11.657 -0.1744  0.6895  0.5904
    2MPD2    H1   27   0.277   0.608  11.640 -0.9464  0.7760 -0.6138
    2MPD2    H2   28   4.736   0.457  11.916  0.2733 -0.1329 -0.3759
    2MPD2    H3   29   0.222   0.453  11.822  2.5526  1.3536 -1.5184
    2MPD2     N   30   0.121   0.803  11.542 -0.2586  0.1664  0.5368
    2MPD2    H5   31   0.215   0.803  11.505 -1.7768 -2.7324 -3.3338
    2MPD2    N1   32   4.536   0.624  11.858 -0.5157 -0.0735 -0.2074
    2MPD2    H7   33   4.460   0.670  11.809  0.9686  2.5126 -0.0673
    3TMC1    C1   34   4.459   2.194  10.161  0.3752 -0.3277  0.5493
    3TMC1    C2   35   4.546   2.272  10.227 -0.0258 -0.4214  0.3734
    3TMC1    C3   36   4.650   2.210  10.290 -0.5807  0.1094 -1.1121
    3TMC1    C4   37   4.472   2.054  10.164  0.0655 -0.1541  0.1494
    3TMC1    C5   38   4.564   1.998  10.244  0.0163 -0.1529  0.5805
    3TMC1    C6   39   4.667   2.073  10.301 -0.5563 -0.1212  0.3904
    3TMC1     C   40   4.321   2.241  10.163  0.2002 -0.8463 -0.3134
    3TMC1     O   41   4.237   2.173  10.101  0.1616  0.2209  0.2557
    3TMC1     H   42   4.537   2.379  10.234 -0.6819 -0.3496 -1.5965
    3TMC1    H1   43   4.393   1.993  10.122 -0.1388  0.8111 -0.8663
    3TMC1    H2   44   0.021   2.015  10.316 -0.7803 -1.2684 -2.7349
    3TMC1    C7   45   4.599   1.863  10.206  0.1867 -0.0364  0.4213
    3TMC1    C8   46   0.033   2.286  10.310  0.5850 -0.2996 -0.2673
    3TMC1    O1   47   4.593   1.829  10.087 -0.1845  0.1376  1.0017
    3TMC1    O2   48   0.051   2.383  10.240 -0.7407 -0.7464 -0.7697
    3TMC1    O3   49   4.671   1.807  10.304  0.7875 -0.0867 -0.1416
    3TMC1    H3   50   4.650   1.860  10.384  1.7076 -0.4295  0.3201
    3TMC1    O5   51   0.116   2.222  10.394 -0.4338 -0.2307  0.0698
    3TMC1    H5   52   0.058   2.178  10.460 -2.1781  0.6174 -0.8779
    4MPD2     C   53   3.948   2.497  10.391  0.4475  0.2491 -0.8329
    4MPD2    C1   54   4.059   2.526  10.458 -0.9718 -0.0291 -0.0556
    4MPD2    C2   55   4.181   2.488  10.407  1.0664  0.1504  0.1797
    4MPD2    C3   56   4.184   2.395  10.302  0.0041 -0.5381 -0.4854
    4MPD2    C4   57   4.066   2.353  10.247 -0.2803  0.3073 -1.0167
    4MPD2    C5   58   3.951   2.414  10.286  0.2894  0.6072 -0.1845
    4MPD2     H   59   4.271   2.508  10.465  2.0868  0.5956 -1.5748
    4MPD2    H1   60   4.063   2.267  10.182 -3.4014 -0.0110 -0.4248
    4MPD2    H2   61   3.845   2.523  10.413  0.2429 -1.3959  0.0998
    4MPD2    H3   62   3.860   2.384  10.234  1.0247  0.7057 -1.5241
    4MPD2     N   63   4.309   2.345  10.254 -0.1982 -0.0588 -0.1736
    4MPD2    H5   64   4.389   2.375  10.308  0.2208  0.9317 -1.3405
    4MPD2    N1   65   4.064   2.596  10.580  0.1035  0.1898  0.4995
    4MPD2    H7   66   4.159   2.612  10.611  0.6072  0.7033 -1.2955
    5TCq1    O1   67   0.576   3.620  11.751  0.0788 -0.3549  0.4406
    5TCq1    C1   68   0.570   3.620  11.615  0.3559 -0.5647 -1.5377
    5TCq1    O2   69   0.658   3.581  11.541  0.1525 -0.1495  0.6815
    5TCq1    C2   70   0.486   3.735  11.570  0.1292 -0.1861  0.2258
    5TCq1    C3   71   0.470   3.841  11.652 -0.4357  0.0045  0.0278
    5TCq1    C4   72   0.422   3.959  11.608 -0.1534  0.2903 -0.1043
    5TCq1    C5   73   0.370   3.966  11.481  0.3163  0.2072  0.4156
    5TCq1    C6   74   0.393   3.860  11.402  0.2135  0.5292 -0.9004
    5TCq1    C7   75   0.458   3.749  11.437  0.0557 -0.4953  0.2126
    5TCq1    C8   76   0.374   3.876  11.261  0.5943 -0.5546 -0.2692
    5TCq1    O4   77   0.453   3.808  11.194  0.4380  0.0562  0.0749
    5TCq1    C9   78   0.419   4.078  11.695 -0.1138  0.0206 -0.7330
    5TCq1    O5   79   0.404   4.192  11.641  0.1332 -1.1709  0.4011
    5TCq1    O6   80   0.470   4.064  11.814 -0.1168 -0.3811  0.0468
    5TCq1    H1   81   0.487   3.646  11.783 -0.0322  1.0103 -0.9913
    5TCq1    H2   82   0.532   3.848  11.741 -0.6295 -0.0331  0.1654
    5TCq1    H3   83   0.319   4.056  11.448 -0.0454 -0.2388 -0.2238
    5TCq1    H4   84   0.472   3.670  11.364 -1.8807  0.5419 -1.2817
    6MPD2     C   85   0.134   4.091  11.075  0.2030  0.3043  0.0728
    6MPD2    C1   86   0.227   3.988  11.091  0.0894 -0.6936  0.6640
    6MPD2    C2   87   0.271   3.929  10.973 -0.0973 -0.1812 -0.0697
    6MPD2    C3   88   0.221   3.953  10.849 -0.5823  0.3035  0.3120
    6MPD2    C4   89   0.132   4.057  10.834 -0.1552 -0.1791 -0.2591
    6MPD2    C5   90   0.087   4.116  10.948 -0.1534 -0.1460  0.7441
    6MPD2     H   91   0.346   3.851  10.978  0.0918 -0.0465 -0.9205
    6MPD2    H1   92   0.087   4.080  10.738 -0.3416  0.1310 -0.0989
    6MPD2    H2   93   0.110   4.149  11.163 -0.5953  0.3257 -0.1539
    6MPD2    H3   94   0.014   4.194  10.929  1.2287  0.9421 -0.1167
    6MPD2     N   95   0.268   3.873  10.738  0.2560  0.5779 -0.4734
    6MPD2    H5   96   0.335   3.799  10.759 -0.2413  0.6778  1.4405
    6MPD2    N1   97   0.265   3.955  11.221 -0.6845 -0.1857  0.5001
    6MPD2    H7   98   0.205   3.993  11.294 -0.7027 -0.9854  0.9011
    7TCq1    O1   99   1.204   3.705  13.157  0.1871  0.2269  0.3554
    7TCq1    C1  100   1.267   3.580  13.169  0.6829 -0.2848 -0.1531
    7TCq1    O2  101   1.345   3.529  13.088 -0.0167  0.0343  0.0439
    7TCq1    C2  102   1.247   3.527  13.304  0.8788 -0.0435 -0.1640
    7TCq1    C3  103   1.227   3.615  13.410  0.0887 -0.5254 -0.0737
    7TCq1    C4  104   1.232   3.564  13.533  0.3335 -0.1564 -0.1442
    7TCq1    C5  105   1.244   3.426  13.557  0.0560  0.4418 -0.1093
    7TCq1    C6  106   1.270   3.347  13.442  0.2487 -0.9358 -0.3906
    7TCq1    C7  107   1.282   3.394  13.319  0.0703  0.6989 -0.1801
    7TCq1    C8  108   1.344   3.229  13.469  0.1689  0.1545  1.0375
    7TCq1    O4  109   1.441   3.206  13.400 -0.1938 -0.0089 -0.0386
    7TCq1    C9  110   1.205   3.645  13.651  0.0278 -0.8184  0.2396
    7TCq1    O5  111   1.184   3.771  13.639  0.5870  0.2158 -0.3742
    7TCq1    O6  112   1.172   3.581  13.754 -0.4518 -0.0078 -0.3012
    7TCq1    H1  113   1.135   3.721  13.226 -0.0962 -3.4280  0.9326
    7TCq1    H2  114   1.213   3.722  13.402  1.2565 -0.2609  1.5367
    7TCq1    H3  115   1.266   3.395  13.659 -2.9245 -0.2524  0.3159
    7TCq1    H4  116   1.323   3.346  13.232 -0.6876 -2.0733  0.9879
    8MPD2     C  117   1.445   2.845  13.798  0.5575 -0.1503  0.4375
    8MPD2    C1  118   1.499   2.881  13.681 -0.3211 -0.2101 -0.4998
    8MPD2    C2  119   1.452   2.982  13.594  0.1660  0.2627 -0.2825
    8MPD2    C3  120   1.347   3.053  13.643 -0.5122  0.1914  0.0244
    8MPD2    C4  121   1.289   3.017  13.761  0.2449  0.2647  1.0545
    8MPD2    C5  122   1.337   2.912  13.843 -0.0391  0.1199 -0.6516
    8MPD2     H  123   1.498   3.002  13.498  0.7555  1.8488  0.3365
    8MPD2    H1  124   1.207   3.075  13.803 -0.8067  1.3657 -2.5282
    8MPD2    H2  125   1.481   2.761  13.858 -0.2668 -1.7008 -1.2406
    8MPD2    H3  126   1.294   2.880  13.937 -0.1864 -0.3429 -0.8733
    8MPD2     N  127   1.292   3.164  13.580  0.5037  0.6096 -0.0099
    8MPD2    H5  128   1.209   3.205  13.622  0.1898 -0.2193  0.1798
    8MPD2    N1  129   1.611   2.800  13.648  0.7082 -0.0850  0.0184
    8MPD2    H7  130   1.642   2.728  13.712  2.1485 -0.6272 -1.2880
    9TMC1    C1  131   0.002   2.338  11.064  0.2191 -0.5137 -0.0209
    9TMC1    C2  132   4.664   2.262  10.971  0.3997  0.0863 -0.5286
    9TMC1    C3  133   4.730   2.213  10.867  1.0033 -0.2555 -0.0088
    9TMC1    C4  134   0.135   2.357  11.046  0.2826  0.1878  0.0372
    9TMC1    C5  135   0.194   2.288  10.947  0.2167  1.3649  0.2311
    9TMC1    C6  136   0.129   2.219  10.854  0.2444 -0.0409 -0.1675
    9TMC1     C  137   4.674   2.373  11.191 -0.9180 -0.6958 -0.0366
    9TMC1     O  138   4.728   2.462  11.254 -0.8268  0.1597  0.5012
    9TMC1     H  139   4.557   2.279  10.981  0.3444 -0.0302 -0.9205
    9TMC1    H1  140   0.187   2.423  11.115  2.9841 -1.5219 -0.3620
    9TMC1    H2  141   0.182   2.174  10.771  1.5855  4.0362 -1.4935
    9TMC1    C7  142   0.337   2.296  10.928 -0.0170  0.0780  0.1984
    9TMC1    C8  143   4.664   2.189  10.743  0.4772 -0.7908 -0.0301
    9TMC1    O1  144   0.408   2.390  10.975  0.1664 -0.0937  0.3124
    9TMC1    O2  145   4.714   2.207  10.631 -0.4118  0.3441  0.1503
    9TMC1    O3  146   0.387   2.167  10.925 -0.4513  0.2868 -0.3292
    9TMC1    H3  147   0.321   2.095  10.933  0.4353 -0.5395 -0.4254
    9TMC1    O5  148   4.544   2.146  10.775 -0.1023  0.3295 -0.5266
    9TMC1    H5  149   4.547   2.111  10.867  1.5367 -1.5961 -1.3223
   10MPD2     C  150   4.536   2.369  11.450  0.3893  0.5493  0.0531
   10MPD2    C1  151   4.539   2.259  11.360 -0.5146  0.2749  0.5583
   10MPD2    C2  152   4.491   2.141  11.406  0.3597 -0.8700 -0.5736
   10MPD2    C3  153   4.442   2.128  11.539 -0.3705 -0.1341 -0.4799
   10MPD2    C4  154   4.457   2.231  11.630  0.0733  0.0570 -0.5246
   10MPD2    C5  155   4.506   2.353  11.580 -0.2914  0.1536  0.7238
   10MPD2     H  156   4.495   2.052  11.344 -0.9909 -1.3462  0.0177
   10MPD2    H1  157   4.427   2.224  11.734  0.2594 -0.6727 -0.5188
   10MPD2    H2  158   4.553   2.472  11.421 -1.7251  0.5989 -1.0346
   10MPD2    H3  159   4.507   2.436  11.651 -0.2581  2.8745 -2.4484
   10MPD2     N  160   4.410   2.001  11.599 -0.1573 -0.0837 -0.1841
   10MPD2    H5  161   4.409   1.997  11.701  3.1278 -0.3837 -0.1732
   10MPD2    N1  162   4.589   2.273  11.230  0.7958 -0.0116  0.2073
   10MPD2    H7  163   4.569   2.200  11.161  1.9528  0.9868 -1.1913
   11TCq1    O1  164   0.156   2.276  14.640 -0.3555 -0.0418 -0.3974
   11TCq1    C1  165   0.233   2.190  14.708  0.4631  0.0554  0.4758
   11TCq1    O2  166   0.287   2.220  14.816  0.3690 -0.2906  0.2679
   11TCq1    C2  167   0.263   2.083  14.609 -0.2413  0.2286 -0.1866
   11TCq1    C3  168   0.386   2.033  14.600  0.6708 -0.2016 -0.8579
   11TCq1    C4  169   0.417   1.943  14.501 -1.4203 -0.4476  0.1417
   11TCq1    C5  170   0.324   1.901  14.411 -0.3890 -0.3870  0.4479
   11TCq1    C6  171   0.195   1.944  14.427 -0.0519  0.5129 -0.1701
   11TCq1    C7  172   0.160   2.034  14.526  0.4069 -0.0528 -0.6008
   11TCq1    C8  173   0.095   1.854  14.372 -0.4196  0.3700 -0.0175
   11TCq1    O4  174   4.721   1.906  14.369 -0.0485 -0.5330 -0.4218
   11TCq1    C9  175   0.557   1.909  14.489 -0.6716 -0.0453 -0.6322
   11TCq1    O5  176   0.586   1.827  14.394  0.3243  0.0201 -0.0339
   11TCq1    O6  177   0.636   1.980  14.543  0.4709 -0.3134  0.1786
   11TCq1    H1  178   0.140   2.251  14.546 -0.5927  1.7273 -0.8242
   11TCq1    H2  179   0.459   2.077  14.668  1.2028 -0.4920 -1.2384
   11TCq1    H3  180   0.355   1.840  14.327  0.8904  0.6973  0.1413
   11TCq1    H4  181   0.058   2.063  14.544  0.4745  1.1230 -2.0602
   12MPD2     C  182   4.654   1.641  14.243 -0.6022 -0.0243  0.5930
   12MPD2    C1  183   0.057   1.645  14.248 -0.3035  0.3446  0.0769
   12MPD2    C2  184   0.124   1.553  14.168  0.4862 -0.4155 -0.3111
   12MPD2    C3  185   0.052   1.447  14.110 -0.9808  0.3524 -1.5648
   12MPD2    C4  186   4.652   1.445  14.106  0.5486  0.1736 -0.3406
   12MPD2    C5  187   4.586   1.544  14.176 -0.2392 -0.2798  1.1223
   12MPD2     H  188   0.232   1.563  14.171  0.5171 -0.3551 -1.8188
   12MPD2    H1  189   4.599   1.363  14.059  1.2405 -1.3792  1.5895
   12MPD2    H2  190   4.597   1.711  14.303  0.7165 -0.6734  2.5873
   12MPD2    H3  191   4.478   1.552  14.187 -0.3622 -1.0860  0.5159
   12MPD2     N  192   0.113   1.340  14.044  0.1791 -0.3649 -0.4661
   12MPD2    H5  193   0.055   1.261  14.019  0.3007 -0.0755 -1.6714
   12MPD2    N1  194   0.137   1.734  14.321 -0.2969  0.8337  0.2985
   12MPD2    H7  195   0.237   1.720  14.311  0.2476  2.5823  3.3586
   13TCq1    O1  196   4.713   1.150  10.165 -0.2145 -0.1820 -0.0716
   13TCq1    C1  197   4.609   1.160  10.244  0.1438 -0.4734  0.0277
   13TCq1    O2  198   4.501   1.108  10.220 -0.3347  0.2009 -0.7024
   13TCq1    C2  199   4.628   1.274  10.324  0.2084 -0.0694  0.2057
   13TCq1    C3  200   0.012   1.299  10.383 -0.6832  0.0491 -0.0088
   13TCq1    C4  201   0.033   1.410  10.463 -0.1994  0.9123 -0.4833
   13TCq1    C5  202   4.664   1.489  10.480  0.9131  0.2160 -0.5023
   13TCq1    C6  203   4.550   1.474  10.401 -0.2335  0.5230  0.3738
   13TCq1    C7  204   4.528   1.361  10.332 -0.3812  0.2707 -0.1478
   13TCq1    C8  205   4.455   1.579  10.407 -0.1334 -0.4177 -0.0784
   13TCq1    O4  206   4.429   1.612  10.523  0.7117  0.1192  0.0886
   13TCq1    C9  207   0.161   1.433  10.541  0.4884 -0.3588 -0.6798
   13TCq1    O5  208   0.237   1.334  10.561 -0.2281  0.1531 -0.5344
   13TCq1    O6  209   0.158   1.535  10.606 -0.1243  0.4345 -0.6021
   13TCq1    H1  210   0.046   1.214  10.194 -2.5334  1.1731  2.5250
   13TCq1    H2  211   0.093   1.228  10.376 -1.4388 -0.7198 -1.0108
   13TCq1    H3  212   4.680   1.582  10.533 -1.3994 -1.0755  2.4595
   13TCq1    H4  213   4.437   1.349  10.273  0.2311  1.8512 -1.4281
   14MPD2     C  214   4.264   1.712  10.118 -0.5347  0.4441  0.4028
   14MPD2    C1  215   4.301   1.699  10.248 -0.0083  0.1432  0.0814
   14MPD2    C2  216   4.255   1.783  10.342  0.1688  0.1197  0.0961
   14MPD2    C3  217   4.159   1.879  10.310 -0.1479  0.1782  0.4000
   14MPD2    C4  218   4.117   1.889  10.179  0.3217 -0.4219 -0.7341
   14MPD2    C5  219   4.173   1.811  10.086 -0.2260 -0.5918  0.1638
   14MPD2     H  220   4.298   1.785  10.442  0.9839 -1.0284 -0.2398
   14MPD2    H1  221   4.036   1.956  10.152  0.5426 -0.3744 -1.2691
   14MPD2    H2  222   4.307   1.660  10.033 -0.5862  2.6200 -0.9486
   14MPD2    H3  223   4.147   1.829   9.982  0.0070 -2.1182 -0.1629
   14MPD2     N  224   4.109   1.965  10.413 -0.1011 -0.2095  0.6020
   14MPD2    H5  225   4.153   1.961  10.505  1.8705  0.6099 -0.2972
   14MPD2    N1  226   4.401   1.606  10.280  0.2180  0.0447  0.0474
   14MPD2    H7  227   4.450   1.568  10.200 -1.8480 -1.1221 -0.6615
   15TCq1    O1  228   0.899   1.220   2.125 -0.1425 -0.3687  0.3267
   15TCq1    C1  229   0.846   1.128   2.041 -0.5069 -0.5728  0.1237
   15TCq1    O2  230   0.742   1.130   1.979 -0.4990 -0.3885 -0.0182
   15TCq1    C2  231   0.944   1.028   2.022 -0.7260 -0.6873  0.1646
   15TCq1    C3  232   0.996   0.976   2.132  0.6278  0.1046  0.2240
   15TCq1    C4  233   1.072   0.864   2.130 -0.2406  0.7023  0.0216
   15TCq1    C5  234   1.085   0.792   2.012  0.7625 -0.1245 -0.0444
   15TCq1    C6  235   1.032   0.850   1.903 -0.2772 -0.0177 -0.7744
   15TCq1    C7  236   0.958   0.964   1.905 -0.3659  0.0809  0.0582
   15TCq1    C8  237   1.077   0.799   1.779 -0.1382 -0.6311  0.6040
   15TCq1    O4  238   1.116   0.682   1.780 -0.3597 -0.8789 -0.3542
   15TCq1    C9  239   1.139   0.818   2.245  0.7166  0.5752  0.9369
   15TCq1    O5  240   1.178   0.699   2.245 -0.0406 -0.0654 -0.4626
   15TCq1    O6  241   1.148   0.902   2.342 -0.2749  0.2254 -0.0691
   15TCq1    H1  242   0.991   1.200   2.152 -1.0017 -3.3987  0.9101
   15TCq1    H2  243   0.977   1.026   2.226  2.4490  0.0317  0.6260
   15TCq1    H3  244   1.146   0.703   2.015  1.5267  0.3711 -0.8815
   15TCq1    H4  245   0.903   1.011   1.825 -0.6184  1.4099  1.0152
   16MPD2     C  246   1.084   0.960   1.448  0.2107 -0.4597  0.4252
   16MPD2    C1  247   1.115   0.861   1.550 -0.3539 -0.3877  0.2753
   16MPD2    C2  248   1.186   0.747   1.508 -0.3058 -0.3109 -0.8214
   16MPD2    C3  249   1.216   0.722   1.372  0.0353  0.1238 -0.6163
   16MPD2    C4  250   1.179   0.810   1.277  0.3423  0.4531 -0.5022
   16MPD2    C5  251   1.109   0.927   1.316 -0.0396  0.5286 -0.0713
   16MPD2     H  252   1.218   0.677   1.584  2.3094 -0.1879 -1.8191
   16MPD2    H1  253   1.206   0.790   1.174  1.6722  0.3215 -0.1286
   16MPD2    H2  254   1.022   1.047   1.468  0.9185 -0.2654  1.8201
   16MPD2    H3  255   1.064   0.989   1.240 -0.4937  1.1232  0.6850
   16MPD2     N  256   1.308   0.614   1.346  0.4923  0.5698 -0.1535
   16MPD2    H5  257   1.336   0.576   1.436 -0.1911 -0.1270 -0.2389
   16MPD2    N1  258   1.075   0.891   1.678 -0.4208  0.3887 -0.3084
   16MPD2    H7  259   1.047   0.987   1.694 -0.7685 -0.0360  1.6325
   17TMC1    C1  260   4.457   1.247  10.899  0.0932  0.3454  0.3904
   17TMC1    C2  261   4.333   1.238  10.846 -0.8431  0.2890  0.3086
   17TMC1    C3  262   4.275   1.350  10.799 -0.1314 -1.1053 -0.1024
   17TMC1    C4  263   4.533   1.359  10.897 -0.4234 -0.3692  0.6400
   17TMC1    C5  264   4.479   1.467  10.837  0.3433 -0.5367  0.7849
   17TMC1    C6  265   4.348   1.472  10.796 -0.0458  1.0222 -0.1938
   17TMC1     C  266   4.506   1.126  10.969 -0.1160 -0.4578 -0.1832
   17TMC1     O  267   4.426   1.038  11.000  0.4742  0.3629  0.0285
   17TMC1     H  268   4.290   1.138  10.850  1.2733 -0.6672 -0.8578
   17TMC1    H1  269   4.634   1.361  10.936 -0.5241  1.2383  0.8565
   17TMC1    H2  270   4.303   1.564  10.762 -1.6235 -0.3820 -1.8274
   17TMC1    C7  271   4.549   1.593  10.862  0.4989  0.5686  0.3391
   17TMC1    C8  272   4.184   1.325  10.695  0.1644 -0.4299 -0.8907
   17TMC1    O1  273   4.624   1.625  10.955  0.7243  0.5094  0.5845
   17TMC1    O2  274   4.156   1.401  10.601 -0.4903  0.3255  0.4945
   17TMC1    O3  275   4.520   1.678  10.766  0.3195  0.0099 -0.0175
   17TMC1    H3  276   4.488   1.632  10.686 -1.0633  0.8992  0.0266
   17TMC1    O5  277   4.082   1.261  10.753  0.2894  0.5560  0.2767
   17TMC1    H5  278   4.093   1.237  10.847 -0.8952  1.8802  0.7396
   18MPD2     C  279   4.667   0.890  11.073  0.4440 -0.1559 -0.2366
   18MPD2    C1  280   4.720   1.007  11.018  0.3973  0.3480 -0.1381
   18MPD2    C2  281   0.119   1.027  11.023  0.2423 -0.6556 -0.6318
   18MPD2    C3  282   0.210   0.950  11.085 -0.0635 -0.4978 -0.6250
   18MPD2    C4  283   0.161   0.831  11.142 -1.1149  0.1591 -0.2472
   18MPD2    C5  284   0.022   0.801  11.129 -0.5517  0.0548  0.4441
   18MPD2     H  285   0.170   1.112  10.981 -1.9641  0.3714 -1.2262
   18MPD2    H1  286   0.220   0.753  11.189 -0.3586  0.8018 -0.1345
   18MPD2    H2  287   4.561   0.868  11.072 -0.0388  2.2081 -0.5350
   18MPD2    H3  288   4.721   0.709  11.173  1.1497 -0.0910  1.5606
   18MPD2     N  289   0.347   0.985  11.082 -0.1678 -0.6515 -0.2820
   18MPD2    H5  290   0.377   1.064  11.026  0.3927 -0.3481  0.4446
   18MPD2    N1  291   4.642   1.114  10.964 -0.9307  0.2193  0.6508
   18MPD2    H7  292   4.693   1.191  10.922 -2.1801  0.6133 -0.1558
   19TMC2    C1  293   1.008   2.022  14.184  0.2034 -0.5293  0.0239
   19TMC2    C2  294   0.885   2.077  14.162 -1.2612 -0.4947  0.3139
   19TMC2    C3  295   0.777   1.992  14.158  0.1042  0.2486 -0.1219
   19TMC2    C4  296   1.021   1.890  14.234 -0.0892 -0.7114 -0.0437
   19TMC2    C5  297   0.919   1.806  14.213  0.3417 -0.0046  0.3788
   19TMC2    C6  298   0.799   1.856  14.180  0.0375 -0.0657  0.3605
   19TMC2     C  299   1.124   2.111  14.187  0.2503 -0.1523 -0.0846
   19TMC2     O  300   1.094   2.222  14.154  0.0515  0.0231 -0.0897
   19TMC2     H  301   0.869   2.180  14.133  3.1037  0.9587  3.2774
   19TMC2    H1  302   1.115   1.841  14.257  2.3614  4.1753  0.2603
   19TMC2    H2  303   0.708   1.798  14.172  1.2129 -1.7894 -0.3368
   19TMC2    C7  304   0.949   1.662  14.220 -0.0398  0.4849 -0.9224
   19TMC2    C8  305   0.651   2.051  14.144 -1.0926 -1.1162 -0.1457
   19TMC2    O1  306   1.056   1.625  14.257 -0.1120  0.6513 -0.4791
   19TMC2    O2  307   0.630   2.166  14.105  0.0774 -0.0996  0.2162
   19TMC2    O5  308   0.557   1.962  14.179  0.3806  0.1812  0.1915
   19TMC2    H5  309   0.583   1.903  14.253  3.2510  3.2073  1.6197
   20MPD2     C  310   1.372   2.252  14.200  0.2446  0.9048  0.4400
   20MPD2    C1  311   1.346   2.136  14.276  0.0415  0.0533  0.2174
   20MPD2    C2  312   1.447   2.084  14.360  0.2069 -0.4443  0.4734
   20MPD2    C3  313   1.567   2.155  14.374 -0.2866  0.1216 -0.0150
   20MPD2    C4  314   1.583   2.274  14.304 -0.1383 -1.1370  0.3790
   20MPD2    C5  315   1.491   2.316  14.212 -0.2432 -0.0139 -0.6960
   20MPD2     H  316   1.430   1.992  14.415 -2.5593  0.4325  1.0820
   20MPD2    H1  317   1.676   2.328  14.298 -0.5303 -0.5821 -0.6293
   20MPD2    H2  318   1.309   2.284  14.118  1.3913 -0.4487 -0.9827
   20MPD2    H3  319   1.508   2.398  14.142  1.3684  0.0648 -0.1931
   20MPD2     N  320   1.664   2.119  14.469  0.1258 -0.9247  0.3534
   20MPD2    H5  321   1.750   2.172  14.469 -1.6452  1.9749  3.6144
   20MPD2    N1  322   1.227   2.063  14.258  0.1496 -0.1059 -0.1665
   20MPD2    H7  323   1.223   1.977  14.311 -0.0171 -0.2144 -0.3543
   21TMC2    C1  324   3.645   2.153  14.092 -0.5362 -0.1915  0.9718
   21TMC2    C2  325   3.750   2.063  14.066 -0.1624  0.4403  0.2413
   21TMC2    C3  326   3.779   1.984  14.170 -0.1803 -0.3099 -0.1930
   21TMC2    C4  327   3.568   2.150  14.201  0.1494  0.5910 -0.7640
   21TMC2    C5  328   3.618   2.080  14.308 -0.3194 -0.1850  0.0831
   21TMC2    C6  329   3.723   2.002  14.292 -0.2413 -0.0176 -0.3793
   21TMC2     C  330   3.627   2.255  13.994  0.0352 -0.3904 -0.0310
   21TMC2     O  331   3.620   2.208  13.879  0.2154  0.1615  0.3123
   21TMC2     H  332   3.806   2.065  13.974 -1.1709 -0.1945 -0.3832
   21TMC2    H1  333   3.489   2.224  14.204  0.6665  1.0756  0.6447
   21TMC2    H2  334   3.760   1.942  14.374  0.8777  0.3254 -0.6314
   21TMC2    C7  335   3.586   2.132  14.443 -0.3604 -0.0231 -0.0845
   21TMC2    C8  336   3.910   1.924  14.171 -0.2753 -0.1096  0.2388
   21TMC2    O1  337   3.638   2.077  14.535 -0.2373 -0.1965  0.0464
   21TMC2    O2  338   3.994   1.946  14.256  0.1679 -0.3129 -1.2218
   21TMC2    O5  339   3.927   1.874  14.046  0.0650  0.0499  0.1116
   21TMC2    H5  340   3.841   1.864  13.999  0.6237 -0.0850 -0.8847
   22MPD2     C  341   3.742   2.504  14.430  0.1074 -0.1320  0.3180
   22MPD2    C1  342   3.799   2.391  14.383  0.9534 -0.3680  0.0968
   22MPD2    C2  343   3.775   2.361  14.253  0.5413  0.4459 -0.7658
   22MPD2    C3  344   3.673   2.421  14.174 -0.5557  0.2517  0.7187
   22MPD2    C4  345   3.613   2.531  14.226 -0.1806  0.4855  0.4156
   22MPD2    C5  346   3.655   2.570  14.354 -0.6119  0.4121 -0.6415
   22MPD2     H  347   3.830   2.279  14.208  0.4425 -0.8233  1.4538
   22MPD2    H1  348   3.540   2.588  14.170 -1.1230 -1.5857 -0.4531
   22MPD2    H2  349   3.771   2.541  14.528  0.4197 -2.1835  0.9990
   22MPD2    H3  350   3.623   2.664  14.396 -0.3620  0.9003 -1.5389
   22MPD2     N  351   3.618   2.377  14.049 -0.0907  0.2439  0.2434
   22MPD2    H5  352   3.574   2.454  13.999 -1.4071 -1.0284 -0.5453
   22MPD2    N1  353   3.886   2.306  14.454 -0.5713 -0.3968  0.6363
   22MPD2    H7  354   3.916   2.229  14.395  1.4545 -0.0411  1.2229
   23TMC2    C1  355   0.191   3.534  14.367 -0.3616  0.5009  0.3718
   23TMC2    C2  356   0.139   3.633  14.448  0.1705  0.6107 -0.1306
   23TMC2    C3  357   0.005   3.661  14.436  0.4859 -0.1068 -0.0742
   23TMC2    C4  358   0.114   3.462  14.276  0.2495 -0.5685  0.6813
   23TMC2    C5  359   4.722   3.501  14.262 -1.0379  0.4819  0.2263
   23TMC2    C6  360   4.664   3.606  14.333  0.1828  0.4683  0.2974
   23TMC2     C  361   0.286   3.446  14.436 -0.2479 -1.1849  0.5530
   23TMC2     O  362   0.300   3.464  14.555  0.4946  0.0513  0.8951
   23TMC2     H  363   0.204   3.670  14.527  1.7986  0.1070 -1.2375
   23TMC2    H1  364   0.146   3.374  14.222 -2.4604 -1.1262 -0.0388
   23TMC2    H2  365   4.560   3.629  14.313 -0.1014 -2.0667 -1.0466
   23TMC2    C7  366   4.638   3.410  14.193 -0.0606 -0.1080 -0.4113
   23TMC2    C8  367   4.695   3.769  14.525 -0.0811 -0.9563  0.0724
   23TMC2    O1  368   4.687   3.340  14.103  0.2211  0.3699  0.9364
   23TMC2    O2  369   0.034   3.838  14.593  0.5460  0.0930 -0.4204
   23TMC2    O5  370   4.566   3.747  14.552  0.2283  0.1754 -0.1545
   23TMC2    H5  371   4.530   3.671  14.501  1.2446  1.4592 -2.8005
   24MPD2     C  372   0.667   3.101  14.423  0.0317  0.4306 -0.1094
   24MPD2    C1  373   0.591   3.144  14.528  0.0975 -0.3108  0.2604
   24MPD2    C2  374   0.490   3.238  14.503  0.1274  0.0010 -0.6316
   24MPD2    C3  375   0.456   3.276  14.375 -0.0894 -0.2750  0.8488
   24MPD2    C4  376   0.532   3.215  14.270 -0.0177  0.1883  0.3586
   24MPD2    C5  377   0.639   3.131  14.297 -0.0989 -0.1668 -0.3078
   24MPD2     H  378   0.446   3.286  14.589 -3.0121 -1.6558 -1.3196
   24MPD2    H1  379   0.518   3.234  14.164  0.0554  2.1589  0.7082
   24MPD2    H2  380   0.743   3.023  14.424  0.5369  0.9812  3.0626
   24MPD2    H3  381   0.691   3.098  14.208 -0.1513  1.1252 -0.8172
   24MPD2     N  382   0.358   3.377  14.341  0.0135 -0.1136  0.2518
   24MPD2    H5  383   0.350   3.421  14.250  1.2550  1.4741  0.9095
   24MPD2    N1  384   0.616   3.106  14.657 -0.2333  0.0548 -0.1032
   24MPD2    H7  385   0.559   3.141  14.733 -2.1846 -1.2193 -0.9699
   25TMC2    C1  386   3.741   1.289  11.788 -0.0147  0.0714  0.7152
   25TMC2    C2  387   3.869   1.323  11.823 -0.3110 -0.2024  0.2656
   25TMC2    C3  388   3.907   1.301  11.948  0.0973 -0.3906 -0.3615
   25TMC2    C4  389   3.648   1.233  11.874 -0.2182  0.5467  0.2838
   25TMC2    C5  390   3.692   1.225  12.006 -0.0842  0.4280 -0.0957
   25TMC2    C6  391   3.820   1.248  12.040 -0.2907 -0.1806 -0.5096
   25TMC2     C  392   3.723   1.272  11.647  0.6033  0.2330  1.0936
   25TMC2     O  393   3.783   1.356  11.582  0.5954  0.6401  0.3560
   25TMC2     H  394   3.938   1.353  11.745 -2.0294  1.8125 -0.4973
   25TMC2    H1  395   3.550   1.211  11.835 -0.2259 -0.4882  0.8683
   25TMC2    H2  396   3.845   1.246  12.145 -1.3245 -0.9796 -0.2746
   25TMC2    C7  397   3.604   1.156  12.100 -0.5116  0.1498  0.1337
   25TMC2    C8  398   4.023   1.380  11.997  0.2931 -0.4894  0.0150
   25TMC2    O1  399   3.659   1.094  12.187  0.1258  0.4141  0.0961
   25TMC2    O2  400   4.134   1.373  11.942  0.0306  0.9374 -0.3511
   25TMC2    O5  401   3.970   1.501  12.032 -0.2830 -0.6903 -0.2203
   25TMC2    H5  402   3.872   1.495  12.028 -0.1333 -2.8046 -1.0585
   26MPD2     C  403   3.638   0.954  11.256  0.2063 -0.7042  0.8885
   26MPD2    C1  404   3.586   0.889  11.362  0.3880  0.0985  0.4279
   26MPD2    C2  405   3.607   0.950  11.486  0.0952  0.4878 -0.4147
   26MPD2    C3  406   3.672   1.080  11.498  0.0100  0.3427 -0.2998
   26MPD2    C4  407   3.714   1.142  11.384  0.1195 -0.2735  0.4513
   26MPD2    C5  408   3.692   1.076  11.267 -0.2095 -0.4002 -1.3038
   26MPD2     H  409   3.584   0.900  11.580  1.0768 -2.3856 -1.7290
   26MPD2    H1  410   3.756   1.242  11.387 -1.2826  0.3568 -0.8437
   26MPD2    H2  411   3.627   0.912  11.157  0.2739 -1.3215  1.1394
   26MPD2    H3  412   3.716   1.136  11.180 -0.4050  2.9270  0.9378
   26MPD2     N  413   3.685   1.143  11.623 -0.2828 -0.1015 -0.3202
   26MPD2    H5  414   3.656   1.093  11.707 -0.8464  1.1563  0.2297
   26MPD2    N1  415   3.538   0.764  11.346 -0.3101 -0.1438  0.2473
   26MPD2    H7  416   3.538   0.732  11.250 -0.1683  0.6488 -0.0174
   27TMC2    C1  417   2.449   2.628  12.068 -0.4799 -0.2624 -0.1013
   27TMC2    C2  418   2.449   2.622  11.932 -1.0242  0.0082  0.1842
   27TMC2    C3  419   2.573   2.624  11.866  0.0184 -0.2964 -0.5030
   27TMC2    C4  420   2.567   2.642  12.141 -0.2766 -0.3318 -0.2634
   27TMC2    C5  421   2.686   2.640  12.071 -0.0530  0.4207  0.5765
   27TMC2    C6  422   2.691   2.630  11.937 -0.1197 -0.7284 -0.2569
   27TMC2     C  423   2.322   2.659  12.135 -0.4423 -0.9016  0.9891
   27TMC2     O  424   2.217   2.645  12.077 -0.2448 -0.6833  1.2739
   27TMC2     H  425   2.356   2.593  11.883 -1.1286 -0.8467  0.8838
   27TMC2    H1  426   2.573   2.646  12.249 -3.3740  0.4373 -0.1215
   27TMC2    H2  427   2.786   2.600  11.893  0.9655 -0.3241  1.8555
   27TMC2    C7  428   2.802   2.647  12.153  0.1654  0.8921 -0.5227
   27TMC2    C8  429   2.579   2.604  11.726 -0.5951  0.3419 -0.2927
   27TMC2    O1  430   2.802   2.622  12.274 -0.0042 -0.0459  0.6120
   27TMC2    O2  431   2.686   2.560  11.690  0.0599 -0.2996  0.0262
   27TMC2    O5  432   2.533   2.727  11.694  0.9936 -0.1073 -0.7429
   27TMC2    H5  433   2.460   2.764  11.750 -0.6483 -1.2430 -2.1545
   28MPD2     C  434   2.023   2.722  12.559  0.1414 -0.5449 -0.2832
   28MPD2    C1  435   2.162   2.722  12.596  0.3971  0.1151 -1.0239
   28MPD2    C2  436   2.256   2.720  12.493  0.4157 -0.1933  0.1637
   28MPD2    C3  437   2.220   2.710  12.358  0.6808  0.1106 -0.3815
   28MPD2    C4  438   2.082   2.712  12.323 -0.0436 -0.9843  0.0016
   28MPD2    C5  439   1.990   2.721  12.428 -0.3190  0.6324 -0.0339
   28MPD2     H  440   2.363   2.715  12.512  0.1113 -1.6413  1.4563
   28MPD2    H1  441   2.047   2.703  12.221  0.6091  2.2384 -0.4962
   28MPD2    H2  442   1.939   2.729  12.628 -0.5930 -2.0978 -0.9969
   28MPD2    H3  443   1.885   2.722  12.401 -0.0527  0.7939 -1.0390
   28MPD2     N  444   2.329   2.680  12.270 -0.4101  0.1373  0.0045
   28MPD2    H5  445   2.419   2.671  12.316 -0.8308  3.4871  1.5089
   28MPD2    N1  446   2.200   2.699  12.730 -0.4363  0.2255  0.7760
   28MPD2    H7  447   2.296   2.668  12.746 -0.8708 -1.2637  0.4745
   29TMC2    C1  448   2.309   0.618  14.667 -0.1584 -0.2943 -0.1706
   29TMC2    C2  449   2.246   0.570  14.779 -0.9123  0.0036 -0.6439
   29TMC2    C3  450   2.209   0.657  14.881  0.0139 -0.6614 -0.1654
   29TMC2    C4  451   2.324   0.754  14.650 -0.3218  0.1696 -0.2585
   29TMC2    C5  452   2.285   0.838  14.748  0.0738  0.1655 -0.7032
   29TMC2    C6  453   2.235   0.790  14.869  0.2076 -0.5428 -0.3219
   29TMC2     C  454   2.353   0.515  14.568  0.0820  0.4210  0.3511
   29TMC2     O  455   2.325   0.395  14.582 -0.3094  0.4464  0.8352
   29TMC2     H  456   2.242   0.464  14.798 -0.3599 -0.1350 -1.3098
   29TMC2    H1  457   2.382   0.800  14.570 -0.1168  0.1985 -0.0919
   29TMC2    H2  458   2.214   0.854  14.953 -2.5943 -0.2758 -1.2285
   29TMC2    C7  459   2.244   0.968  14.714 -0.2435 -0.5891  0.0287
   29TMC2    C8  460   2.149   0.609  15.001  0.1672 -0.3090 -0.5966
   29TMC2    O1  461   2.166   0.986  14.626  0.0029  0.4713  0.4030
   29TMC2    O2  462   2.179   0.662  15.109  0.6646 -0.7627 -0.2772
   29TMC2    O5  463   2.030   0.553  14.986 -0.3942 -0.3299  0.0012
   29TMC2    H5  464   1.995   0.542  14.895 -1.8648 -1.4037  0.6830
   30MPD2     C  465   2.455   0.352  14.097  0.2002 -0.2195 -0.0530
   30MPD2    C1  466   2.451   0.282  14.215  0.1418  0.9691 -0.1287
   30MPD2    C2  467   2.427   0.352  14.330  0.1701 -0.4415  0.1190
   30MPD2    C3  468   2.402   0.489  14.332  0.2324 -0.7013  0.4730
   30MPD2    C4  469   2.398   0.560  14.216  0.1603 -0.2449  0.5963
   30MPD2    C5  470   2.416   0.481  14.104 -0.7000  0.3797  0.8578
   30MPD2     H  471   2.434   0.288  14.417 -1.1798  1.6786  1.7488
   30MPD2    H1  472   2.371   0.664  14.209 -1.3783 -0.6882  0.0452
   30MPD2    H2  473   2.466   0.311  13.998 -2.1623 -0.5974 -0.1634
   30MPD2    H3  474   2.413   0.539  14.013  4.1117  0.8897  1.0187
   30MPD2     N  475   2.390   0.569  14.446  0.2829 -0.0261  0.1597
   30MPD2    H5  476   2.373   0.665  14.418  2.1726  0.1009 -0.5232
   30MPD2    N1  477   2.478   0.142  14.223 -0.1758  0.0959 -0.4844
   30MPD2    H7  478   2.506   0.103  14.313  1.6326  2.9899  0.2142
   31TMC2    C1  479   0.058   3.946  15.383 -0.2221 -0.7014 -0.1189
   31TMC2    C2  480   4.660   3.973  15.418  0.3452  0.0539  0.7049
   31TMC2    C3  481   4.622   3.997  15.547 -0.4384 -0.3347 -0.3533
   31TMC2    C4  482   0.146   3.953  15.489  0.2187  0.1774 -0.5338
   31TMC2    C5  483   0.107   3.991  15.617  0.3055  0.0197  0.3548
   31TMC2    C6  484   4.716   4.011  15.646 -1.1599  0.0840 -0.6268
   31TMC2     C  485   0.104   3.979  15.251  0.0288  0.0373  0.2881
   31TMC2     O  486   0.016   4.003  15.170 -0.2499 -0.4288  0.6943
   31TMC2     H  487   4.586   3.953  15.342 -0.3281  1.0841  1.0898
   31TMC2    H1  488   0.251   3.936  15.471  0.2615 -0.2632  0.1474
   31TMC2    H2  489   4.683   4.024  15.749  0.9955 -0.7676  0.1878
   31TMC2    C7  490   0.197   3.992  15.726 -0.8261 -0.1397 -0.8647
   31TMC2    C8  491   4.488   3.965  15.589 -0.6341  0.2087  0.3229
   31TMC2    O1  492   0.154   3.967  15.838  0.1742 -0.3994 -0.1789
   31TMC2    O2  493   4.467   3.910  15.694 -0.6364 -0.7018 -0.4952
   31TMC2    O5  494   4.404   4.056  15.532 -0.5478  0.0598  0.0648
   31TMC2    H5  495   4.445   4.123  15.473  1.7152 -1.4831 -0.1010
   32MPD2     C  496   0.462   4.120  14.903 -0.6679 -0.6235  0.0617
   32MPD2    C1  497   0.326   4.121  14.896  0.9408 -0.6417 -0.0603
   32MPD2    C2  498   0.243   4.068  14.994 -1.0259  0.0407 -0.5203
   32MPD2    C3  499   0.306   4.011  15.107 -0.4125  0.2091  0.1279
   32MPD2    C4  500   0.445   3.997  15.102 -0.3447 -0.3878  0.2483
   32MPD2    C5  501   0.519   4.056  15.004  0.2898 -1.1207  0.5174
   32MPD2     H  502   0.135   4.076  14.988 -1.2751 -0.1443  3.4534
   32MPD2    H1  503   0.497   3.944  15.180 -0.0711 -0.3646  0.0820
   32MPD2    H2  504   0.518   4.167  14.822  1.1842 -0.0588  1.6806
   32MPD2    H3  505   0.627   4.064  15.011  0.1860  1.2508 -0.4530
   32MPD2     N  506   0.236   3.954  15.223  0.6614 -0.0078 -0.3978
   32MPD2    H5  507   0.295   3.912  15.293  0.1478  0.9578  0.6074
   32MPD2    N1  508   0.269   4.169  14.775  0.7171  0.4459 -0.3909
   32MPD2    H7  509   0.337   4.200  14.707  1.2809  0.8121  0.3374
   33TMC2    C1  510   0.516   1.832  10.625  0.7795 -0.5555  0.1896
   33TMC2    C2  511   0.386   1.806  10.638 -0.2223 -0.2398 -0.5236
   33TMC2    C3  512   0.303   1.889  10.568  0.2750  0.0891 -0.3849
   33TMC2    C4  513   0.577   1.932  10.552  0.3064 -0.8420 -0.1893
   33TMC2    C5  514   0.487   2.007  10.485  0.0135  0.0947  0.7982
   33TMC2    C6  515   0.348   1.996  10.494  0.1401  0.4184  0.3550
   33TMC2     C  516   0.598   1.730  10.684 -0.5447  0.0755  0.1612
   33TMC2     O  517   0.550   1.618  10.688 -0.3297  0.2625 -0.2541
   33TMC2     H  518   0.351   1.731  10.708  1.8600 -0.0466  0.7534
   33TMC2    H1  519   0.684   1.939  10.539  0.3129  2.9393  1.7595
   33TMC2    H2  520   0.276   2.059  10.444 -1.1997 -2.2300 -1.0819
   33TMC2    C7  521   0.534   2.094  10.383 -0.3214 -0.8269 -0.1739
   33TMC2    C8  522   0.156   1.862  10.567 -0.4570  0.2765  0.1183
   33TMC2    O1  523   0.638   2.062  10.324  0.1672  0.0650  0.1094
   33TMC2    O2  524   0.092   1.963  10.538 -0.0014 -0.1919  0.9132
   33TMC2    O5  525   0.130   1.776  10.667 -0.3484 -0.0838  0.1340
   33TMC2    H5  526   0.138   1.684  10.635 -0.0037  0.3580 -1.0725
   34MPD2     C  527   0.952   1.545  11.005  0.8274  0.6836  0.5580
   34MPD2    C1  528   0.844   1.488  10.950  0.2315  0.0180 -0.3046
   34MPD2    C2  529   0.765   1.554  10.858 -0.2867 -0.3228  0.7921
   34MPD2    C3  530   0.792   1.685  10.831 -0.1111 -0.0430 -0.5733
   34MPD2    C4  531   0.899   1.748  10.897  0.1805  1.4080  0.4339
   34MPD2    C5  532   0.983   1.672  10.980  0.0306 -0.2595  0.0144
   34MPD2     H  533   0.687   1.500  10.805 -0.2519  0.2701  0.1322
   34MPD2    H1  534   0.941   1.841  10.858  0.3693  0.4179 -1.7356
   34MPD2    H2  535   1.027   1.485  11.054 -0.3915 -1.4621 -0.2093
   34MPD2    H3  536   1.080   1.709  11.011 -0.6309  0.5867  1.0525
   34MPD2     N  537   0.715   1.766  10.751 -1.0627  0.0903  0.0728
   34MPD2    H5  538   0.739   1.864  10.753  1.1071 -0.3799 -1.7527
   34MPD2    N1  539   0.823   1.357  10.992 -0.6040  0.6525  0.1045
   34MPD2    H7  540   0.892   1.309  11.048  0.0360 -0.9024 -1.9894
   35TMC2    C1  541   1.148   2.415  11.384  0.1063 -0.1945 -0.4919
   35TMC2    C2  542   1.104   2.460  11.262  0.0409  0.4949 -0.3025
   35TMC2    C3  543   0.973   2.426  11.225 -0.0511  1.3563 -0.3271
   35TMC2    C4  544   1.080   2.315  11.455 -1.0039 -0.3027 -0.1134
   35TMC2    C5  545   0.960   2.273  11.403 -0.8402 -0.4864 -0.0936
   35TMC2    C6  546   0.897   2.334  11.295 -0.1352 -0.0750 -0.6430
   35TMC2     C  547   1.284   2.414  11.401 -0.6619 -0.8380  0.1135
   35TMC2     O  548   1.355   2.436  11.304  0.6124  0.3807  0.6143
   35TMC2     H  549   1.164   2.530  11.204  0.3675 -0.0038 -0.5686
   35TMC2    H1  550   1.129   2.259  11.535 -0.0344  2.2646  1.0986
   35TMC2    H2  551   0.810   2.285  11.255 -0.8414 -1.7265  2.9108
   35TMC2    C7  552   0.895   2.168  11.472  0.4782 -0.6788  0.0199
   35TMC2    C8  553   0.921   2.489  11.105 -0.0804  0.3052  0.8202
   35TMC2    O1  554   0.964   2.074  11.510 -0.1454 -0.2659  0.2785
   35TMC2    O2  555   0.994   2.563  11.041 -0.2844  0.6320  0.5941
   35TMC2    O5  556   0.790   2.512  11.139 -0.6752 -0.1643 -0.1293
   35TMC2    H5  557   0.751   2.438  11.189  0.6135 -1.4660 -1.0456
   36MPD2     C  558   1.676   2.572  11.690 -0.4902 -0.3264 -0.6957
   36MPD2    C1  559   1.569   2.558  11.773 -0.6223 -0.3645 -0.0714
   36MPD2    C2  560   1.454   2.504  11.720 -0.4066  0.2561 -0.0726
   36MPD2    C3  561   1.445   2.463  11.587 -0.1168 -0.1529  0.6019
   36MPD2    C4  562   1.559   2.473  11.513 -0.1383  0.2968  0.4049
   36MPD2    C5  563   1.676   2.529  11.565 -0.2609  0.1821  0.0036
   36MPD2     H  564   1.365   2.499  11.782  1.4709 -1.3743  2.5189
   36MPD2    H1  565   1.560   2.413  11.424  1.5796 -0.3629  0.8616
   36MPD2    H2  566   1.770   2.618  11.716 -2.5728  1.7642  3.2810
   36MPD2    H3  567   1.768   2.526  11.507  0.1796  0.5850  0.6875
   36MPD2     N  568   1.323   2.419  11.538 -0.3320  0.3156  0.3084
   36MPD2    H5  569   1.250   2.428  11.607 -1.7934 -0.1922 -1.1819
   36MPD2    N1  570   1.588   2.590  11.908  0.1389  0.3104 -0.1530
   36MPD2    H7  571   1.675   2.634  11.937  1.1436 -1.5381 -0.3832
   37TMC2    C1  572   3.634   3.343  11.318  0.3794  1.6225 -0.1308
   37TMC2    C2  573   3.542   3.377  11.222  0.5664 -0.3242  0.4585
   37TMC2    C3  574   3.593   3.378  11.094  0.8565  0.8054  0.2263
   37TMC2    C4  575   3.766   3.301  11.288  0.3331 -0.0859 -0.2998
   37TMC2    C5  576   3.802   3.288  11.156  0.1643 -0.1047 -0.5687
   37TMC2    C6  577   3.720   3.335  11.058  0.5024 -0.4476  0.5596
   37TMC2     C  578   3.575   3.317  11.455  0.0042 -0.8402 -0.3055
   37TMC2     O  579   3.456   3.342  11.461 -0.1609  0.4171  0.3235
   37TMC2     H  580   3.441   3.409  11.244  0.9253  1.2475 -0.2012
   37TMC2    H1  581   3.832   3.276  11.371 -0.8906  1.4908  1.1374
   37TMC2    H2  582   3.738   3.345  10.952  0.8140 -2.1999  0.4482
   37TMC2    C7  583   3.939   3.262  11.128  0.6851 -0.4632  0.2539
   37TMC2    C8  584   3.496   3.413  10.989 -0.5659  0.1304  0.6235
   37TMC2    O1  585   4.008   3.205  11.205 -0.2490  0.3927 -0.3752
   37TMC2    O2  586   3.389   3.465  11.012 -0.3441 -0.0685  0.4280
   37TMC2    O5  587   3.550   3.400  10.863 -0.1919 -0.0177 -0.2028
   37TMC2    H5  588   3.634   3.351  10.853 -1.5344 -2.1510 -1.0852
   38MPD2     C  589   3.512   3.122  11.923 -0.6345 -0.2333 -0.0645
   38MPD2    C1  590   3.642   3.087  11.882  0.6665 -0.4113 -0.0411
   38MPD2    C2  591   3.695   3.144  11.766  0.3313  0.0439  0.3207
   38MPD2    C3  592   3.606   3.210  11.680 -0.7022 -0.3987 -0.5450
   38MPD2    C4  593   3.477   3.240  11.722 -0.0805 -0.2025 -0.3057
   38MPD2    C5  594   3.424   3.196  11.839 -0.3782  0.1739 -0.5788
   38MPD2     H  595   3.797   3.118  11.740  0.2611  0.7541 -0.6861
   38MPD2    H1  596   3.406   3.297  11.664 -0.6009 -0.5599 -0.0165
   38MPD2    H2  597   3.471   3.080  12.014 -2.1405 -0.8018 -1.0114
   38MPD2    H3  598   3.326   3.221  11.876  0.4822 -0.0893  1.9158
   38MPD2     N  599   3.653   3.258  11.556 -0.0732 -0.6151  0.2685
   38MPD2    H5  600   3.744   3.222  11.531  0.8740  2.3549 -0.4784
   38MPD2    N1  601   3.720   2.996  11.963  0.8063  0.0317 -0.0606
   38MPD2    H7  602   3.796   2.958  11.909  1.0845  1.1238 -0.4338
   39TMC2    C1  603   1.842   0.008   1.691 -0.2667  0.3476 -0.3914
   39TMC2    C2  604   1.948   4.670   1.720  0.5628  0.2192  1.1505
   39TMC2    C3  605   2.045   4.720   1.803 -0.4436  0.2540  0.1338
   39TMC2    C4  606   1.821   0.131   1.755 -0.1509 -0.0265 -0.5227
   39TMC2    C5  607   1.921   0.186   1.829 -0.0775  0.1315 -0.8551
   39TMC2    C6  608   2.040   0.118   1.848 -0.2730 -0.4641  0.2044
   39TMC2     C  609   1.731   4.691   1.611  0.4095  0.2826 -0.0938
   39TMC2     O  610   1.642   0.034   1.587  0.1206  0.4721  0.3315
   39TMC2     H  611   1.973   4.585   1.657  1.4350  1.5914 -0.3609
   39TMC2    H1  612   1.730   0.187   1.739 -1.5290 -1.0074  3.8754
   39TMC2    H2  613   2.110   0.152   1.924 -0.3253  1.1156 -0.4394
   39TMC2    C7  614   1.898   0.320   1.876  0.3172 -0.0639 -0.3323
   39TMC2    C8  615   2.163   4.642   1.820  0.8233  0.2864  0.0918
   39TMC2    O1  616   1.782   0.357   1.882 -0.4087 -0.3110 -0.0408
   39TMC2    O2  617   2.266   4.707   1.833 -0.1373  0.2925 -0.3479
   39TMC2    O5  618   2.135   4.518   1.861 -0.0416 -0.0256 -0.2274
   39TMC2    H5  619   2.040   4.496   1.876 -0.0613  0.8074  0.8860
   40MPD2     C  620   1.698   4.360   1.456 -0.5730  0.6026  0.9175
   40MPD2    C1  621   1.668   4.491   1.473  0.9626 -0.7960  0.7232
   40MPD2    C2  622   1.590   4.556   1.379  0.3708 -0.0669 -0.4833
   40MPD2    C3  623   1.537   4.495   1.274 -0.0500  0.8201  0.3661
   40MPD2    C4  624   1.570   4.364   1.255  0.4424  0.1850 -0.0569
   40MPD2    C5  625   1.646   4.293   1.350 -0.1629  0.4247  0.1661
   40MPD2     H  626   1.570   4.662   1.387  1.7176  0.1322  0.2779
   40MPD2    H1  627   1.544   4.314   1.163  0.0195  1.2332 -0.5097
   40MPD2    H2  628   1.753   4.299   1.527  0.4478 -0.1325 -0.4950
   40MPD2    H3  629   1.686   4.194   1.330 -0.4616  0.2771  0.3020
   40MPD2     N  630   1.459   4.555   1.165  0.6554 -0.3974  0.2264
   40MPD2    H5  631   1.427   4.491   1.094  1.0006  0.7102 -0.9264
   40MPD2    N1  632   1.737   4.557   1.582  0.6557  0.4200  0.1472
   40MPD2    H7  633   1.817   4.507   1.619 -0.5610 -1.4692  0.1845
   41TMC2    C1  634   0.880   3.389  13.740  0.1514  0.0451 -0.0433
   41TMC2    C2  635   0.891   3.508  13.805 -0.1849 -0.4737  0.7431
   41TMC2    C3  636   0.861   3.621  13.742  0.1432 -0.4661  0.5057
   41TMC2    C4  637   0.856   3.383  13.609  0.0945  0.2350 -0.3246
   41TMC2    C5  638   0.862   3.504  13.540  0.4675 -0.8511  0.2088
   41TMC2    C6  639   0.855   3.628  13.604 -0.2623 -0.4512  0.0314
   41TMC2     C  640   0.949   3.271  13.796  0.0699  0.3190 -0.6736
   41TMC2     O  641   1.019   3.209  13.718  0.3461 -0.0177  0.1668
   41TMC2     H  642   0.907   3.505  13.912 -0.7300  0.4477  0.8533
   41TMC2    H1  643   0.839   3.281  13.576  0.8359 -0.4150  1.3250
   41TMC2    H2  644   0.851   3.725  13.555  0.5707 -0.1827  0.5014
   41TMC2    C7  645   0.897   3.503  13.398 -0.7963  0.1230  0.1601
   41TMC2    C8  646   0.902   3.745  13.800 -0.1317 -0.2627  0.1110
   41TMC2    O1  647   0.903   3.608  13.340  0.1519  0.5265  0.1401
   41TMC2    O2  648   0.826   3.836  13.818 -0.1661 -0.0385  0.5845
   41TMC2    O5  649   0.996   3.709  13.884  0.4259  0.5933  0.6034
   41TMC2    H5  650   1.064   3.653  13.840 -0.6828  0.0906 -0.4479
   42MPD2     C  651   0.995   3.025  13.956 -0.3373 -1.0831 -0.0439
   42MPD2    C1  652   0.967   3.145  14.007  0.5470  0.2484  0.2969
   42MPD2    C2  653   0.967   3.163  14.140  0.5099 -0.2600 -0.2017
   42MPD2    C3  654   0.993   3.056  14.230 -0.7214 -0.1713 -0.5588
   42MPD2    C4  655   1.024   2.935  14.176 -0.3692  0.6421 -0.7917
   42MPD2    C5  656   1.019   2.918  14.037 -0.7746 -0.1102  0.2294
   42MPD2     H  657   0.927   3.257  14.179 -0.0709 -1.1026  1.2536
   42MPD2    H1  658   1.045   2.846  14.233 -0.2710  1.4266  0.3952
   42MPD2    H2  659   1.007   3.005  13.850 -0.5357 -0.0277 -0.2638
   42MPD2    H3  660   1.033   2.820  13.994  0.2083  0.2289 -0.2372
   42MPD2     N  661   1.006   3.064  14.370 -0.3036  0.0648  0.4493
   42MPD2    H5  662   1.004   2.984  14.432  0.1512 -0.4722 -0.2401
   42MPD2    N1  663   0.928   3.259  13.930 -0.5033  0.0888  0.9370
   42MPD2    H7  664   0.875   3.325  13.987  0.8827 -1.1267  3.6334
   43TMC2    C1  665   2.192   0.884   1.131 -0.0803 -0.4317 -0.1278
   43TMC2    C2  666   2.074   0.830   1.099  0.5636 -0.0804 -0.1387
   43TMC2    C3  667   1.970   0.859   1.178  0.2707 -0.5409 -0.2125
   43TMC2    C4  668   2.209   0.964   1.243 -0.4951 -0.2627 -0.6410
   43TMC2    C5  669   2.103   0.981   1.326 -0.0541 -0.0829  0.2216
   43TMC2    C6  670   1.980   0.933   1.295  0.5158 -0.6261  0.1930
   43TMC2     C  671   2.275   0.910   1.012  0.5514  0.2118  0.3090
   43TMC2     O  672   2.263   0.837   0.914  0.4819  0.3545  0.1347
   43TMC2     H  673   2.064   0.784   1.001  0.6880  0.4613 -0.4082
   43TMC2    H1  674   2.304   0.990   1.287 -1.3282 -0.7829  1.4668
   43TMC2    H2  675   1.898   0.937   1.365  2.1332 -0.4867  2.0779
   43TMC2    C7  676   2.130   1.038   1.459  0.2583  0.3040 -0.3053
   43TMC2    C8  677   1.840   0.822   1.142  0.3779 -0.4269  0.2543
   43TMC2    O1  678   2.229   1.110   1.459 -0.1282  0.2306  0.1561
   43TMC2    O2  679   1.816   0.749   1.049 -0.6170 -0.7145  0.3735
   43TMC2    O5  680   1.745   0.907   1.193  0.1498 -0.6194 -0.2202
   43TMC2    H5  681   1.788   0.981   1.242 -3.0849  0.2379  1.2700
   44MPD2     C  682   2.595   1.210   0.730  0.5276 -0.0593 -0.3759
   44MPD2    C1  683   2.532   1.095   0.695  0.7642  0.2469 -0.0084
   44MPD2    C2  684   2.458   1.030   0.795 -1.1222 -0.3853 -0.0509
   44MPD2    C3  685   2.443   1.083   0.925 -0.8036 -0.4625 -0.4244
   44MPD2    C4  686   2.501   1.207   0.949 -0.0875 -0.2571  0.3295
   44MPD2    C5  687   2.572   1.272   0.852 -0.2742  0.1798  0.4779
   44MPD2     H  688   2.417   0.931   0.780  3.4215 -2.1503 -0.8947
   44MPD2    H1  689   2.495   1.253   1.047  1.2944 -1.1304  0.8317
   44MPD2    H2  690   2.649   1.263   0.652 -0.1986 -0.6449 -1.2736
   44MPD2    H3  691   2.612   1.371   0.872 -0.7959  0.8716 -1.8312
   44MPD2     N  692   2.355   1.025   1.023  0.0102  0.0504  0.0393
   44MPD2    H5  693   2.343   1.073   1.112 -2.8521 -0.1752 -0.2266
   44MPD2    N1  694   2.541   1.042   0.568  0.1322 -0.2948  0.1726
   44MPD2    H7  695   2.497   0.954   0.545 -1.4184  0.4160  0.3638
   45TMC2    C1  696   3.719   3.423  10.061 -0.4122  0.5198  0.3342
   45TMC2    C2  697   3.799   3.339  10.136 -0.1660  0.4260 -0.2689
   45TMC2    C3  698   3.900   3.397  10.206 -0.1750 -0.1675  0.2258
   45TMC2    C4  699   3.729   3.559  10.063  0.4231  0.4563  0.1541
   45TMC2    C5  700   3.829   3.608  10.136 -0.2303 -0.6490 -0.3580
   45TMC2    C6  701   3.918   3.531  10.214 -0.8614  0.3259  0.1108
   45TMC2     C  702   3.615   3.356   9.984  0.0971 -0.3585 -0.7379
   45TMC2     O  703   3.591   3.237   9.998 -0.3433 -0.4076  0.7366
   45TMC2     H  704   3.785   3.231  10.139 -0.6797  0.4186 -2.9072
   45TMC2    H1  705   3.646   3.619  10.028 -0.4169  0.0652  1.5024
   45TMC2    H2  706   4.009   3.578  10.249 -2.7282  3.2536  1.0280
   45TMC2    C7  707   3.837   3.749  10.153 -0.2908  0.6239  0.7068
   45TMC2    C8  708   3.979   3.299  10.275 -0.3003 -0.0914  0.0688
   45TMC2    O1  709   3.894   3.792  10.253 -0.0803  0.6880 -0.3185
   45TMC2    O2  710   4.011   3.191  10.231  0.4515  0.6356 -0.5440
   45TMC2    O5  711   4.035   3.365  10.382  0.4835  0.0545  0.2956
   45TMC2    H5  712   3.984   3.447  10.397 -1.2407 -0.8768 -0.4445
   46MPD2     C  713   3.417   3.277   9.780  0.9134 -0.3787 -0.6508
   46MPD2    C1  714   3.459   3.402   9.792 -0.5156  0.7835  0.3057
   46MPD2    C2  715   3.395   3.497   9.717  0.7278  0.3502  0.3289
   46MPD2    C3  716   3.290   3.476   9.634  0.2407 -0.3852  0.2852
   46MPD2    C4  717   3.248   3.343   9.625  0.1100  0.5877 -0.3086
   46MPD2    C5  718   3.312   3.247   9.698  0.0601  0.1848 -0.5505
   46MPD2     H  719   3.438   3.596   9.728 -1.1246  0.7079  4.5223
   46MPD2    H1  720   3.149   3.316   9.589  0.4106 -1.0919  0.1370
   46MPD2    H2  721   3.453   3.192   9.837  0.1857 -0.2344  0.0264
   46MPD2    H3  722   3.282   3.142   9.693  1.1327 -0.1108 -0.8109
   46MPD2     N  723   3.231   3.575   9.557  0.1182  0.5178  0.0154
   46MPD2    H5  724   3.248   3.666   9.599  0.6171 -0.0176  0.9847
   46MPD2    N1  725   3.556   3.442   9.887 -0.0476  1.2120 -0.0485
   46MPD2    H7  726   3.596   3.535   9.882  1.0528  0.7514  0.1578
   47TMC2    C1  727   0.580   3.516   9.347 -0.1133  0.1705 -0.5598
   47TMC2    C2  728   0.531   3.396   9.384  0.3564 -0.1113  0.0811
   47TMC2    C3  729   0.446   3.388   9.491 -0.0378 -0.1819 -0.2063
   47TMC2    C4  730   0.539   3.629   9.420 -1.0083 -0.0325  0.0098
   47TMC2    C5  731   0.453   3.617   9.532  0.8705 -0.5128 -0.4788
   47TMC2    C6  732   0.393   3.497   9.557  0.0727 -0.6496 -0.4670
   47TMC2     C  733   0.684   3.538   9.252 -0.5885  0.5432 -0.5144
   47TMC2     O  734   0.697   3.652   9.207  0.3749  0.0166 -0.5249
   47TMC2     H  735   0.552   3.310   9.321  1.2885  1.6013 -1.9485
   47TMC2    H1  736   0.565   3.723   9.372 -2.0983  1.3382  2.0907
   47TMC2    H2  737   0.334   3.495   9.648 -0.3727 -2.2997 -0.7850
   47TMC2    C7  738   0.446   3.711   9.636 -0.1693  0.2211 -0.7209
   47TMC2    C8  739   0.376   3.262   9.506 -0.3017 -0.0089  0.6973
   47TMC2    O1  740   0.342   3.711   9.701  0.2353 -1.0862 -0.5800
   47TMC2    O2  741   0.439   3.160   9.489  0.5216  0.2872  0.6384
   47TMC2    O5  742   0.244   3.275   9.518  0.6545 -0.8178  0.1747
   47TMC2    H5  743   0.216   3.368   9.511  0.7611 -0.8330 -0.4037
   48MPD2     C  744   0.943   3.500   9.095  0.1953 -0.2084  0.1835
   48MPD2    C1  745   0.842   3.412   9.105  0.6212  1.3322  0.1138
   48MPD2    C2  746   0.859   3.285   9.052  0.4481 -0.2999 -0.7251
   48MPD2    C3  747   0.965   3.257   8.973 -0.9424  0.0992  0.1945
   48MPD2    C4  748   1.074   3.348   8.964  0.2289  0.3971  0.3364
   48MPD2    C5  749   1.058   3.470   9.026 -0.2807 -0.3272 -0.3889
   48MPD2     H  750   0.787   3.204   9.063  0.2525 -0.0034  0.2241
   48MPD2    H1  751   1.164   3.322   8.909  0.1887  2.0873 -0.5310
   48MPD2    H2  752   0.944   3.592   9.153 -0.8731 -0.7409  1.0516
   48MPD2    H3  753   1.135   3.546   9.021 -0.6931  0.0760 -0.7002
   48MPD2     N  754   0.975   3.131   8.912  0.2788 -0.3746 -0.3968
   48MPD2    H5  755   0.910   3.058   8.940 -0.2593 -0.0036 -0.6667
   48MPD2    N1  756   0.730   3.425   9.193  0.0321 -0.2243 -0.5256
   48MPD2    H7  757   0.663   3.348   9.200  1.4792 -1.4359 -0.0181
   49TMC2    C1  758   3.735   0.949   9.984 -0.5882 -0.5353  0.1409
   49TMC2    C2  759   3.755   0.859   9.878 -0.0368  0.3739  0.1954
   49TMC2    C3  760   3.713   0.732   9.901 -0.5843 -0.0128 -0.0314
   49TMC2    C4  761   3.683   0.915  10.107 -0.6902 -0.2896  0.1477
   49TMC2    C5  762   3.652   0.784  10.127  0.3649 -0.4124  0.4017
   49TMC2    C6  763   3.664   0.691  10.028 -0.2872  0.0297 -0.0376
   49TMC2     C  764   3.805   1.076   9.970  0.1601  0.9684  0.3700
   49TMC2     O  765   3.829   1.115   9.857 -0.2115 -0.1350  0.5619
   49TMC2     H  766   3.795   0.887   9.782  0.7543  0.4773  0.5498
   49TMC2    H1  767   3.646   0.992  10.174  0.2048  0.0100  0.2964
   49TMC2    H2  768   3.644   0.586  10.044  0.2086 -0.1811 -0.7797
   49TMC2    C7  769   3.570   0.756  10.247 -0.2296 -0.5487 -0.0348
   49TMC2    C8  770   3.769   0.614   9.832  0.3505 -0.1187  0.0200
   49TMC2    O1  771   3.499   0.654  10.248 -0.6028 -0.2518 -0.1959
   49TMC2    O2  772   3.796   0.511   9.887 -0.2366 -0.1103  0.5699
   49TMC2    O5  773   3.832   0.653   9.717 -0.1148 -0.3406 -0.6221
   49TMC2    H5  774   3.797   0.728   9.664 -0.4545 -1.2304 -1.6343
   50MPD2     C  775   3.964   1.325   9.995  0.0036 -0.0496 -0.0533
   50MPD2    C1  776   3.879   1.275  10.092  0.3125 -0.3788 -0.1799
   50MPD2    C2  777   3.845   1.346  10.195 -0.7788 -0.2771 -0.2098
   50MPD2    C3  778   3.884   1.483  10.211  0.0561  0.0438 -0.1894
   50MPD2    C4  779   3.979   1.529  10.119  0.6303 -0.2765 -0.5133
   50MPD2    C5  780   4.022   1.448  10.019 -0.1291  0.1234 -1.0512
   50MPD2     H  781   3.778   1.299  10.266  1.1729 -0.7183  1.3333
   50MPD2    H1  782   4.017   1.630  10.131 -0.6062 -0.0819  1.6762
   50MPD2    H2  783   3.993   1.277   9.902 -0.1306  0.9453 -0.6174
   50MPD2    H3  784   4.082   1.493   9.941 -0.3411  0.2374 -1.1495
   50MPD2     N  785   3.855   1.568  10.318  0.4000  0.0623 -0.0605
   50MPD2    H5  786   3.921   1.642  10.339 -0.5316  0.8260  0.1763
   50MPD2    N1  787   3.813   1.152  10.084 -0.3618 -0.0073  0.0573
   50MPD2    H7  788   3.781   1.110  10.170  1.6091 -0.7740  0.4252
   51TMC2    C1  789   3.674   4.542   1.013  0.2562 -0.1258  0.3487
   51TMC2    C2  790   3.609   4.598   1.122  0.1049 -0.3682  0.2212
   51TMC2    C3  791   3.613   4.731   1.141 -0.5639  0.2905  0.0186
   51TMC2    C4  792   3.749   4.620   0.929 -0.5892 -0.5262  0.2744
   51TMC2    C5  793   3.736   0.017   0.944 -0.3190  0.2887 -0.6779
   51TMC2    C6  794   3.663   0.076   1.048  0.2655 -0.9737  0.2984
   51TMC2     C  795   3.665   4.403   0.979 -0.4476  0.1928  0.3797
   51TMC2     O  796   3.735   4.367   0.882  0.4825 -0.1069 -0.0321
   51TMC2     H  797   3.563   4.535   1.197 -0.2385 -0.7617 -0.3310
   51TMC2    H1  798   3.783   4.582   0.834 -0.8183 -4.0451  1.5870
   51TMC2    H2  799   3.648   0.183   1.060 -2.0587 -1.4229  1.3339
   51TMC2    C7  800   3.818   0.100   0.865  0.3136  1.1700  0.1001
   51TMC2    C8  801   3.537   0.035   1.255  0.8700  0.0361 -0.3619
   51TMC2    O1  802   3.934   0.056   0.851  0.4754 -0.4141  0.2008
   51TMC2    O2  803   3.439   4.715   1.295 -0.2119 -0.3259 -0.0510
   51TMC2    O5  804   3.584   0.155   1.297  0.4071  0.9414 -0.3002
   51TMC2    H5  805   3.678   0.175   1.276  0.8120  0.9952  1.6288
   52MPD2     C  806   3.421   3.957   0.991  0.4360  0.1254  0.2338
   52MPD2    C1  807   3.537   3.997   0.923  0.7479 -0.2391  0.4727
   52MPD2    C2  808   3.583   4.128   0.927 -0.4546 -0.6022 -0.2868
   52MPD2    C3  809   3.512   4.216   1.003  0.0580 -0.3311 -0.1341
   52MPD2    C4  810   3.403   4.178   1.079  0.4280  0.2161  0.2675
   52MPD2    C5  811   3.356   4.047   1.078 -0.1118  0.1507 -0.6390
   52MPD2     H  812   3.677   4.151   0.878 -0.0456 -1.2713  0.1841
   52MPD2    H1  813   3.371   4.247   1.156  0.8943 -0.4663  1.0699
   52MPD2    H2  814   3.395   3.853   1.006 -0.8159  0.4136  0.0118
   52MPD2    H3  815   3.273   4.025   1.144  1.7040 -2.7356  0.7180
   52MPD2     N  816   3.557   4.345   1.035 -0.5670  0.2163  0.3566
   52MPD2    H5  817   3.499   4.394   1.102  0.6636  1.6234  0.4034
   52MPD2    N1  818   3.614   3.906   0.857 -0.1378 -0.5752  0.1155
   52MPD2    H7  819   3.711   3.933   0.849 -0.3768 -0.6580 -3.2014
   53TMC2    C1  820   4.636   3.020  11.009 -0.6933  0.6104  0.1209
   53TMC2    C2  821   0.004   2.961  10.948  0.8255 -0.8460  0.4136
   53TMC2    C3  822   0.066   2.856  11.008  0.7601 -0.7868  0.0333
   53TMC2    C4  823   4.586   2.969  11.128 -0.0365  0.1916 -0.0721
   53TMC2    C5  824   4.645   2.855  11.176 -0.6967 -1.1827 -0.1558
   53TMC2    C6  825   0.016   2.792  11.117 -0.2322 -0.2673 -0.1852
   53TMC2     C  826   4.561   3.118  10.932  0.1876  0.0854  0.0042
   53TMC2     O  827   4.617   3.165  10.832  0.0492 -0.1544  0.1221
   53TMC2     H  828   0.031   2.993  10.848 -0.6597  0.8541  0.5627
   53TMC2    H1  829   4.499   3.008  11.180 -0.6442 -2.7449  1.0935
   53TMC2    H2  830   0.075   2.720  11.173 -2.0937 -1.1911  0.6035
   53TMC2    C7  831   4.621   2.838  11.318 -0.1488 -0.1976 -0.8327
   53TMC2    C8  832   0.145   2.787  10.916 -0.1981 -1.1472 -0.2914
   53TMC2    O1  833   4.573   2.937  11.375  0.5030  0.0122 -0.1924
   53TMC2    O2  834   0.109   2.781  10.800 -0.4632  0.1146 -0.2293
   53TMC2    O5  835   0.185   2.680  10.984  0.9248 -0.7524  0.1681
   53TMC2    H5  836   0.233   2.696  11.068  2.4022 -0.3486 -0.7494
   54MPD2     C  837   4.370   3.331  10.840 -0.2852  0.7422 -0.0480
   54MPD2    C1  838   4.343   3.239  10.935  0.3146 -0.1015  0.0910
   54MPD2    C2  839   4.221   3.239  11.008 -0.9392 -1.1833 -0.7536
   54MPD2    C3  840   4.119   3.327  10.971  0.1598 -0.1981  0.0864
   54MPD2    C4  841   4.146   3.410  10.861 -0.3643  0.2451 -0.0653
   54MPD2    C5  842   4.268   3.410  10.796 -0.7379 -0.1118  0.0319
   54MPD2     H  843   4.208   3.159  11.080 -0.4673  0.3927  1.0717
   54MPD2    H1  844   4.064   3.462  10.813  0.0197  0.5464 -0.3866
   54MPD2    H2  845   4.465   3.335  10.788 -0.2171 -0.2270  0.0005
   54MPD2    H3  846   4.283   3.485  10.720 -1.0611  0.3654  0.4410
   54MPD2     N  847   3.985   3.323  11.012  0.4098 -0.1613 -0.0443
   54MPD2    H5  848   3.920   3.384  10.964  0.2148  0.5514  1.1164
   54MPD2    N1  849   4.439   3.151  10.990  0.0774  0.7531  0.2590
   54MPD2    H7  850   4.410   3.096  11.070 -1.5663 -0.1783 -0.9619
   55TMC2    C1  851   0.949   1.867   0.669  0.7556 -0.8840  0.2124
   55TMC2    C2  852   1.050   1.900   0.581  0.1227 -0.0243  0.0089
   55TMC2    C3  853   1.149   1.805   0.568 -0.6481 -0.1370  0.1596
   55TMC2    C4  854   0.942   1.747   0.737  0.4512  0.6174 -0.3016
   55TMC2    C5  855   1.044   1.653   0.724  0.5915 -0.2787 -0.0210
   55TMC2    C6  856   1.147   1.685   0.638  0.1878 -0.5704  0.5330
   55TMC2     C  857   0.831   1.954   0.695  0.3482 -0.1210 -0.0875
   55TMC2     O  858   0.726   1.912   0.746  0.0227  0.2500 -0.4315
   55TMC2     H  859   1.050   1.979   0.506  0.7645  1.1432  1.2451
   55TMC2    H1  860   0.857   1.726   0.800 -1.0378  1.4340 -2.0445
   55TMC2    H2  861   1.224   1.609   0.628 -0.0008 -0.9642  2.1254
   55TMC2    C7  862   1.054   1.539   0.808 -0.3538 -0.0847 -0.4003
   55TMC2    C8  863   1.264   1.829   0.482  0.3175 -0.0808 -0.0827
   55TMC2    O1  864   1.138   1.453   0.776 -0.1908  0.1099 -0.4314
   55TMC2    O2  865   1.324   1.730   0.437 -0.1430  0.2766  0.2095
   55TMC2    O5  866   1.289   1.961   0.468  0.0481 -0.2858 -0.3816
   55TMC2    H5  867   1.249   2.013   0.541  1.0094 -1.0915  0.7248
   56MPD2     C  868   0.773   2.281   0.529  0.3961  0.1392  0.0039
   56MPD2    C1  869   0.744   2.172   0.605  0.2242 -0.0239 -0.0467
   56MPD2    C2  870   0.611   2.157   0.641 -0.3952 -0.2505  0.1388
   56MPD2    C3  871   0.512   2.245   0.608 -0.1948 -0.6366 -0.3504
   56MPD2    C4  872   0.545   2.353   0.534  0.2357  0.2083 -0.1861
   56MPD2    C5  873   0.676   2.368   0.497  0.3986 -0.2036  0.0075
   56MPD2     H  874   0.582   2.081   0.712 -2.0077 -0.3088 -0.5952
   56MPD2    H1  875   0.470   2.425   0.506 -2.7161 -2.4204  0.9125
   56MPD2    H2  876   0.872   2.293   0.486  0.3966 -0.4322 -0.1517
   56MPD2    H3  877   0.709   2.455   0.441 -3.7226  3.1182  2.7419
   56MPD2     N  878   0.380   2.214   0.648  0.1248  0.3819  0.6257
   56MPD2    H5  879   0.366   2.129   0.703  1.9961 -0.2552  0.1117
   56MPD2    N1  880   0.851   2.079   0.641 -0.2593 -0.4979  0.7279
   56MPD2    H7  881   0.941   2.112   0.608  0.2405 -1.7974  0.8172
   57TMC2    C1  882   4.243   1.854  13.927  0.5600  0.0184  0.5635
   57TMC2    C2  883   4.238   1.791  14.048 -0.2185  0.4468  0.5339
   57TMC2    C3  884   4.286   1.664  14.050 -0.2435 -0.8283  0.7706
   57TMC2    C4  885   4.306   1.809  13.814  0.0811  0.1987 -0.1463
   57TMC2    C5  886   4.342   1.679  13.821 -0.0257 -0.3394  0.3307
   57TMC2    C6  887   4.332   1.610  13.938 -0.2296 -0.0542  0.6064
   57TMC2     C  888   4.200   1.993  13.906 -0.1961  0.1059 -0.2942
   57TMC2     O  889   4.155   2.027  13.794 -0.1487 -0.2268  0.0854
   57TMC2     H  890   4.197   1.838  14.137  1.3780  0.3627  1.3073
   57TMC2    H1  891   4.300   1.859  13.718  0.2060  0.8838  0.2044
   57TMC2    H2  892   4.355   1.504  13.933  1.9366  0.3523  2.0965
   57TMC2    C7  893   4.372   1.615  13.697 -0.6904  0.1450 -0.5310
   57TMC2    C8  894   4.214   1.572  14.139 -0.0545 -0.2786  0.6832
   57TMC2    O1  895   4.297   1.646  13.604 -0.6926 -0.3459 -0.9629
   57TMC2    O2  896   4.255   1.461  14.152 -0.3600  0.0059 -0.5321
   57TMC2    O5  897   4.080   1.595  14.116 -0.2381 -0.3968 -0.2136
   57TMC2    H5  898   4.061   1.684  14.080  0.6149  0.1743  0.7227
   58MPD2     C  899   4.073   2.457  14.078 -0.4832  0.7233 -0.5067
   58MPD2    C1  900   4.039   2.387  13.971  0.2118 -0.2895 -0.1470
   58MPD2    C2  901   4.074   2.256  13.957 -1.2408  0.0073 -0.1251
   58MPD2    C3  902   4.154   2.191  14.045 -0.1054 -0.0540 -0.5402
   58MPD2    C4  903   4.201   2.264  14.154 -0.7256  0.7233  0.1477
   58MPD2    C5  904   4.160   2.395  14.169 -0.6988  0.2880  0.7648
   58MPD2     H  905   4.037   2.208  13.867  0.1627 -1.7864  0.2447
   58MPD2    H1  906   4.258   2.223  14.237  0.3135  2.6593  0.3788
   58MPD2    H2  907   4.034   2.555  14.105 -0.5826  0.7264 -0.6663
   58MPD2    H3  908   4.193   2.446  14.259 -1.3817  2.3483 -0.1488
   58MPD2     N  909   4.201   2.063  14.024  0.0173  0.2056 -0.5604
   58MPD2    H5  910   4.235   2.021  14.110  0.7982  0.0585 -0.9404
   58MPD2    N1  911   3.960   2.443  13.864 -0.1755 -0.4414 -0.2459
   58MPD2    H7  912   3.941   2.382  13.786  1.0520 -1.3646  0.1702
   59TMC2    C1  913   2.366   2.282  12.867  0.0236 -0.0346  0.3247
   59TMC2    C2  914   2.421   2.204  12.961 -0.0137  0.1919 -0.0006
   59TMC2    C3  915   2.337   2.128  13.038 -0.1347 -0.4953  0.6085
   59TMC2    C4  916   2.232   2.294  12.846  0.5898  0.0055  0.4201
   59TMC2    C5  917   2.155   2.209  12.923 -0.0718  0.1595  0.2927
   59TMC2    C6  918   2.207   2.132  13.025 -0.2715  0.0362 -0.4941
   59TMC2     C  919   2.434   2.405  12.837  0.5374 -0.0926 -0.3163
   59TMC2     O  920   2.402   2.469  12.734 -0.3194 -0.0351  0.1281
   59TMC2     H  921   2.528   2.203  12.979 -0.0571 -1.3305  0.1625
   59TMC2    H1  922   2.196   2.376  12.785  2.4633  1.4276  1.2555
   59TMC2    H2  923   2.135   2.072  13.081  1.1944 -1.0117  0.2638
   59TMC2    C7  924   2.008   2.241  12.916  0.0226  0.1799  0.4950
   59TMC2    C8  925   2.394   2.043  13.142  0.0143  0.7117  0.0377
   59TMC2    O1  926   1.943   2.194  13.009 -0.0189 -0.2861  0.1862
   59TMC2    O2  927   2.514   2.015  13.143  0.0230  0.0671  0.3897
   59TMC2    O5  928   2.313   2.040  13.252  0.3350  0.0104  0.2216
   59TMC2    H5  929   2.251   2.116  13.246  1.5370  0.8844 -1.0706
   60MPD2     C  930   2.658   2.595  12.784  0.0495  0.3483  0.1702
   60MPD2    C1  931   2.640   2.534  12.904  0.4412 -0.0246  0.6386
   60MPD2    C2  932   2.718   2.564  13.013  1.3650 -0.2911  0.0291
   60MPD2    C3  933   2.835   2.637  12.999  0.2306 -0.5845 -0.8369
   60MPD2    C4  934   2.847   2.712  12.884 -0.4737 -0.1435 -0.8672
   60MPD2    C5  935   2.763   2.690  12.776 -0.2627  0.3936 -0.2810
   60MPD2     H  936   2.706   2.518  13.110  3.3227  1.0993  0.9193
   60MPD2    H1  937   2.932   2.779  12.875  0.4267 -0.8674  2.5522
   60MPD2    H2  938   2.600   2.575  12.695 -0.1744 -0.3058  0.4601
   60MPD2    H3  939   2.787   2.736  12.681 -0.4058 -1.1378 -1.0634
   60MPD2     N  940   2.916   2.677  13.108  0.1182  0.2445 -0.0680
   60MPD2    H5  941   2.996   2.733  13.082  1.5007 -1.4508  0.4815
   60MPD2    N1  942   2.533   2.440  12.924 -0.2786 -0.5215  0.1134
   60MPD2    H7  943   2.528   2.396  13.016  0.4888 -2.1365 -0.6136
   61TMC2    C1  944   1.460   3.398  14.928 -0.4867  0.5504  0.2141
   61TMC2    C2  945   1.400   3.306  15.013  0.7956  0.2730  0.4437
   61TMC2    C3  946   1.338   3.354  15.125  0.2292  0.9751 -0.0954
   61TMC2    C4  947   1.466   3.528  14.970  0.5982  0.6666 -0.3999
   61TMC2    C5  948   1.405   3.575  15.087  0.6470  0.5955  0.3507
   61TMC2    C6  949   1.343   3.482  15.170  0.1879  0.6182  0.0566
   61TMC2     C  950   1.468   3.355  14.792  0.3270 -0.7138  0.0221
   61TMC2     O  951   1.394   3.263  14.769  0.0469  0.3705  1.3186
   61TMC2     H  952   1.399   3.200  14.988 -0.1621  0.0282  1.5302
   61TMC2    H1  953   1.501   3.605  14.903  1.8204  0.5664  0.1347
   61TMC2    H2  954   1.298   3.514  15.263 -0.3637 -0.2025  0.0691
   61TMC2    C7  955   1.399   3.717  15.117  0.1963  0.6640 -0.3229
   61TMC2    C8  956   1.276   3.264  15.212 -0.3335 -0.2374 -0.7091
   61TMC2    O1  957   1.483   3.782  15.053  0.0182 -0.2403 -0.3623
   61TMC2    O2  958   1.246   3.151  15.172  0.2930  0.2234  0.4696
   61TMC2    O5  959   1.306   3.295  15.344 -0.5438 -0.6153  0.0508
   61TMC2    H5  960   1.347   3.383  15.355 -1.0835 -0.4432  0.6491
   62MPD2     C  961   1.395   3.402  14.500  0.0690  0.1458 -0.1668
   62MPD2    C1  962   1.468   3.484  14.579 -0.2003 -0.1061  0.0225
   62MPD2    C2  963   1.491   3.615  14.532 -0.3969 -0.1513 -0.7717
   62MPD2    C3  964   1.435   3.658  14.415 -0.7799  0.1350 -0.2526
   62MPD2    C4  965   1.365   3.568  14.330  0.0582 -0.0854 -0.6760
   62MPD2    C5  966   1.345   3.443  14.378  0.3624  0.0575  0.1684
   62MPD2     H  967   1.556   3.681  14.587 -0.3091 -1.4765  0.7408
   62MPD2    H1  968   1.315   3.590  14.236  2.2730  0.3745 -1.7538
   62MPD2    H2  969   1.361   3.303  14.529  0.8054  0.1118  0.5869
   62MPD2    H3  970   1.286   3.372  14.322 -1.7156  1.6154  0.3827
   62MPD2     N  971   1.445   3.798  14.372 -0.2822 -0.1679  0.2748
   62MPD2    H5  972   1.391   3.831  14.293  0.1330 -0.7234 -0.2404
   62MPD2    N1  973   1.505   3.456  14.715 -0.1641  0.5094 -0.6151
   62MPD2    H7  974   1.564   3.530  14.753 -0.3295  0.6651 -0.6595
   63TMC2    C1  975   1.397   3.852  10.086  0.0579  0.0321 -0.0881
   63TMC2    C2  976   1.416   3.970  10.147  0.0002  1.1497  0.3538
   63TMC2    C3  977   1.537   4.022  10.129  0.6026 -0.2851 -0.1183
   63TMC2    C4  978   1.497   3.777  10.028 -0.5952 -1.0060  0.8801
   63TMC2    C5  979   1.617   3.844  10.007 -0.1358 -0.0831  0.2217
   63TMC2    C6  980   1.643   3.965  10.059 -0.2251  0.2411  0.1014
   63TMC2     C  981   1.273   3.789  10.110  0.2507 -0.2104  0.3135
   63TMC2     O  982   1.175   3.865  10.126  1.0245 -0.1869 -0.0780
   63TMC2     H  983   1.334   4.026  10.191  0.6048  2.6734 -0.4450
   63TMC2    H1  984   1.491   3.673   9.998 -1.3785 -1.6690  3.3410
   63TMC2    H2  985   1.734   4.019  10.035 -1.3130  2.8305  1.8132
   63TMC2    C7  986   1.688   3.803   9.885 -0.1825 -0.1596  1.0682
   63TMC2    C8  987   1.572   4.151  10.177 -0.0986  0.6206 -0.1700
   63TMC2    O1  988   1.710   3.891   9.803 -0.1371 -0.0094  0.0419
   63TMC2    O2  989   1.665   4.217  10.130 -0.0618  0.2689 -0.5908
   63TMC2    O5  990   1.519   4.167  10.299 -0.0406 -0.2584  0.4679
   63TMC2    H5  991   1.461   4.095  10.332  0.9777 -0.8842  0.9186
   64MPD2     C  992   0.998   3.391  10.283 -0.0331  0.2482  0.1791
   64MPD2    C1  993   1.127   3.344  10.264 -1.0813  0.2918 -0.5449
   64MPD2    C2  994   1.219   3.441  10.231  0.0768 -0.2145  0.9513
   64MPD2    C3  995   1.184   3.570  10.190 -0.2368 -0.4049 -0.2044
   64MPD2    C4  996   1.050   3.612  10.212 -0.4801  0.9191  0.2950
   64MPD2    C5  997   0.964   3.525  10.265  0.6351 -0.0531 -0.3507
   64MPD2     H  998   1.322   3.407  10.221  0.0127 -0.6624  1.8888
   64MPD2    H1  999   1.015   3.711  10.188  0.2787  1.0202 -0.3812
   64MPD2    H2 1000   0.919   3.323  10.311 -0.7014  0.0633 -2.1805
   64MPD2    H3 1001   0.863   3.558  10.289  0.2557 -1.3800 -0.1268
   64MPD2     N 1002   1.284   3.656  10.140 -0.0520  0.4731 -0.4284
   64MPD2    H5 1003   1.379   3.622  10.133 -0.5425 -0.8639 -0.5286
   64MPD2    N1 1004   1.165   3.210  10.295 -0.1905  0.1030 -0.4895
   64MPD2    H7 1005   1.264   3.190  10.286 -0.5082 -0.8308 -1.9086
   65TMC2    C1 1006   2.743   3.488  15.885 -0.3405  0.2536  0.4532
   65TMC2    C2 1007   2.832   3.577  15.928 -0.6363 -0.4104 -0.0212
   65TMC2    C3 1008   2.853   3.695  15.858 -0.5499  0.5233  0.0700
   65TMC2    C4 1009   2.681   3.498  15.760  0.6625  0.2277  0.9382
   65TMC2    C5 1010   2.713   3.605  15.683  0.5064 -0.1999 -0.1238
   65TMC2    C6 1011   2.784   3.713  15.739  0.4458  0.2965 -0.5280
   65TMC2     C 1012   2.725   3.370  15.971 -0.0912  0.1511  0.3083
   65TMC2     O 1013   2.796   3.370  16.073  0.1878  0.5489 -0.2275
   65TMC2     H 1014   2.867   3.569  16.030  0.2527  0.9925 -0.2191
   65TMC2    H1 1015   2.640   3.414  15.705 -1.3710  0.5260  1.9970
   65TMC2    H2 1016   2.792   3.803  15.681 -0.2457  0.7477  0.0741
   65TMC2    C7 1017   2.629   3.632  15.573  0.4027  0.1584 -0.5590
   65TMC2    C8 1018   2.897   3.810  15.944  0.6176  0.7183  0.4537
   65TMC2    O1 1019   2.652   3.719  15.490  0.2043  0.1583  0.1077
   65TMC2    O2 1020   2.900   3.807  16.069 -0.1074 -0.1672  0.1726
   65TMC2    O5 1021   2.928   3.918  15.867 -0.4765 -0.1683 -0.9556
   65TMC2    H5 1022   2.944   3.897  15.773  0.6598 -0.2279 -0.7492
   66MPD2     C 1023   2.695   3.100  16.095 -0.4844  0.3920  0.9443
   66MPD2    C1 1024   2.618   3.149  15.992  0.1636 -0.6298  0.4341
   66MPD2    C2 1025   2.521   3.063  15.940  0.0088 -0.7721  0.9852
   66MPD2    C3 1026   2.494   2.945  15.995 -0.0737  0.1837  0.5637
   66MPD2    C4 1027   2.566   2.905  16.105  0.3684 -0.5201  0.4179
   66MPD2    C5 1028   2.662   2.979  16.153 -0.1826  0.6824  0.0530
   66MPD2     H 1029   2.472   3.094  15.848  0.8955 -0.8477  0.4840
   66MPD2    H1 1030   2.531   2.822  16.165  0.9309 -1.9325 -1.2061
   66MPD2    H2 1031   2.776   3.145  16.151 -0.3859  0.1593  0.9889
   66MPD2    H3 1032   2.726   2.934  16.228  0.8534 -2.3109 -2.6303
   66MPD2     N 1033   2.393   2.854  15.952  0.4972  0.0146  0.2132
   66MPD2    H5 1034   2.387   2.763  15.995 -0.6001 -0.4640 -0.9513
   66MPD2    N1 1035   2.642   3.273  15.924  0.0678 -0.1790  0.4188
   66MPD2    H7 1036   2.593   3.296  15.839 -0.2875 -1.1049  0.3711
   67TMC2    C1 1037   2.369   2.707  14.463 -0.4561  0.0615 -0.8043
   67TMC2    C2 1038   2.323   2.835  14.480  0.0014 -0.0545 -0.0043
   67TMC2    C3 1039   2.421   2.926  14.522  0.6322  0.2378  0.3922
   67TMC2    C4 1040   2.500   2.668  14.492  0.1333  0.5746  0.6617
   67TMC2    C5 1041   2.586   2.762  14.539  0.9258  0.2701  0.3942
   67TMC2    C6 1042   2.548   2.891  14.557 -0.2269 -0.3134  0.9226
   67TMC2     C 1043   2.283   2.602  14.404  0.3949  0.0649 -0.3499
   67TMC2     O 1044   2.339   2.497  14.372 -0.3814 -0.1573  0.1588
   67TMC2     H 1045   2.224   2.874  14.463  0.9593  1.8574 -1.1881
   67TMC2    H1 1046   2.530   2.564  14.491 -0.5194  0.3939 -0.6520
   67TMC2    H2 1047   2.620   2.968  14.584  0.4286 -1.0594  1.3387
   67TMC2    C7 1048   2.697   2.703  14.613  0.0898 -0.5463  0.5763
   67TMC2    C8 1049   2.374   3.066  14.528  0.3307 -0.5520  0.3192
   67TMC2    O1 1050   2.748   2.603  14.564 -0.1326 -0.2128 -0.2024
   67TMC2    O2 1051   2.258   3.087  14.559  0.2282 -0.4553  0.2350
   67TMC2    O5 1052   2.440   3.122  14.430 -0.5054 -0.5774 -0.0597
   67TMC2    H5 1053   2.534   3.095  14.426  0.0611  1.4903 -0.9048
   68MPD2     C 1054   2.087   2.476  14.213 -0.6735 -0.5284 -0.2087
   68MPD2    C1 1055   2.055   2.571  14.308  0.6505  0.1405  1.1085
   68MPD2    C2 1056   1.921   2.620  14.306 -0.7714  0.2156  0.3826
   68MPD2    C3 1057   1.827   2.565  14.215  0.6200  0.1284 -0.3531
   68MPD2    C4 1058   1.861   2.465  14.129 -0.2518  0.0911 -0.0683
   68MPD2    C5 1059   1.992   2.426  14.133 -1.2198  0.3995 -0.5429
   68MPD2     H 1060   1.895   2.698  14.377 -1.1342  1.5169 -1.1780
   68MPD2    H1 1061   1.786   2.423  14.063  0.3935  2.6702 -2.4804
   68MPD2    H2 1062   2.186   2.433  14.198  0.8352  2.0781  2.0702
   68MPD2    H3 1063   2.016   2.352  14.058 -0.5447  0.6070 -0.5281
   68MPD2     N 1064   1.689   2.599  14.213 -0.1150  0.0364 -0.4663
   68MPD2    H5 1065   1.626   2.554  14.147 -1.3350  2.4133 -0.9358
   68MPD2    N1 1066   2.148   2.640  14.392 -0.0732 -0.0427 -0.2892
   68MPD2    H7 1067   2.121   2.732  14.425 -0.7688 -0.6979  0.9558
   69TMC2    C1 1068   4.585   3.629  12.164 -0.1936 -0.4273 -0.2176
   69TMC2    C2 1069   4.468   3.693  12.138  0.1496 -0.0759 -0.2066
   69TMC2    C3 1070   4.430   3.703  12.008 -0.2009 -0.1412 -0.3174
   69TMC2    C4 1071   4.664   3.592  12.060  0.3040  0.0114  0.4208
   69TMC2    C5 1072   4.621   3.608  11.926 -0.0575 -0.5456  0.0944
   69TMC2    C6 1073   4.504   3.664  11.902 -0.3828  0.3063  0.1487
   69TMC2     C 1074   4.591   3.544  12.279  0.2726 -0.6791  0.5461
   69TMC2     O 1075   4.481   3.499  12.315  0.3202  0.1475  0.3999
   69TMC2     H 1076   4.408   3.721  12.223  0.8593 -1.4812  0.7726
   69TMC2    H1 1077   0.025   3.544  12.065  1.6400  2.5404 -1.1898
   69TMC2    H2 1078   4.456   3.661  11.805  2.7663  2.7806 -1.5189
   69TMC2    C7 1079   4.723   3.594  11.822 -0.1147 -0.6041 -0.0509
   69TMC2    C8 1080   4.288   3.710  11.990  0.2538 -0.2315 -1.1043
   69TMC2    O1 1081   0.095   3.541  11.855  0.0507 -0.0738  0.5322
   69TMC2    O2 1082   4.212   3.712  12.086  0.0588  0.0392 -0.4835
   69TMC2    O5 1083   4.262   3.766  11.868 -0.3052  0.9780  0.3923
   69TMC2    H5 1084   4.337   3.785  11.807 -0.5862  0.3167 -0.1632
   70MPD2     C 1085   0.171   3.420  12.400 -0.0828 -0.1322  0.6861
   70MPD2    C1 1086   0.036   3.425  12.388  0.3808 -0.2226 -0.4305
   70MPD2    C2 1087   4.694   3.329  12.454  0.6280  0.6474  0.1467
   70MPD2    C3 1088   0.020   3.223  12.511 -0.6633  0.0847 -0.0786
   70MPD2    C4 1089   0.158   3.222  12.518  0.3037  0.4710  0.3732
   70MPD2    C5 1090   0.230   3.325  12.474  0.0375  0.0186 -0.3668
   70MPD2     H 1091   4.586   3.332  12.458  0.6291  1.0254 -0.0279
   70MPD2    H1 1092   0.214   3.143  12.566  0.7807  1.0271  0.7373
   70MPD2    H2 1093   0.237   3.492  12.353  2.0201 -2.3639  0.2342
   70MPD2    H3 1094   0.338   3.328  12.487  0.0946  0.0289 -0.8372
   70MPD2     N 1095   4.693   3.114  12.575 -0.3410  0.2345 -0.1031
   70MPD2    H5 1096   0.017   3.047  12.622 -1.3645  0.6109  1.7428
   70MPD2    N1 1097   4.722   3.533  12.312  0.0505  0.0339  0.4091
   70MPD2    H7 1098   0.059   3.595  12.277 -1.6246  1.5156 -0.4743
   71TMC2    C1 1099   0.842   4.434   1.110 -1.1665 -0.5311 -0.0148
   71TMC2    C2 1100   0.908   4.508   1.210 -0.1470  0.2861 -0.4794
   71TMC2    C3 1101   0.844   4.606   1.282  0.5593 -0.5743  0.1789
   71TMC2    C4 1102   0.708   4.460   1.089  0.1862  0.7439 -0.1146
   71TMC2    C5 1103   0.645   4.557   1.164  0.6788 -0.2651 -0.0288
   71TMC2    C6 1104   0.712   4.628   1.266  0.1815 -0.6874  0.3911
   71TMC2     C 1105   0.918   4.396   0.997 -0.5276 -0.3992 -0.2426
   71TMC2     O 1106   1.018   4.467   0.984  0.0185 -0.0160  0.7395
   71TMC2     H 1107   1.016   4.496   1.210 -0.0011  1.5387 -0.0924
   71TMC2    H1 1108   0.665   4.414   1.001 -0.6147 -1.4813  1.4220
   71TMC2    H2 1109   0.664   4.710   1.319  0.2086 -0.6149  0.3037
   71TMC2    C7 1110   0.542   4.637   1.095 -0.0464 -0.3972  0.5613
   71TMC2    C8 1111   0.924   4.695   1.364  0.0408  0.2367 -0.3216
   71TMC2    O1 1112   0.523   0.017   1.124  0.3361 -0.9059 -0.2352
   71TMC2    O2 1113   1.042   4.732   1.343 -0.2311  0.4389 -0.1736
   71TMC2    O5 1114   0.857   4.712   1.482  0.0028  0.5564 -0.3855
   71TMC2    H5 1115   0.783   4.648   1.480  1.8195 -1.6247  2.9251
   72MPD2     C 1116   1.028   4.155   0.563 -0.1823 -0.6688  0.2392
   72MPD2    C1 1117   1.078   4.269   0.618  0.5438 -0.1621 -0.8208
   72MPD2    C2 1118   1.023   4.324   0.732  0.3353 -0.0098  0.1789
   72MPD2    C3 1119   0.921   4.259   0.794  0.0604  0.3027  0.3696
   72MPD2    C4 1120   0.873   4.148   0.740  0.7873  0.2511 -0.3016
   72MPD2    C5 1121   0.922   4.100   0.624  0.2408  0.7430  0.4134
   72MPD2     H 1122   1.061   4.419   0.768  1.7295 -1.0010  1.3705
   72MPD2    H1 1123   0.790   4.099   0.790  0.4990  1.7142  0.6489
   72MPD2    H2 1124   1.059   4.115   0.467  0.2925  1.1879 -0.3754
   72MPD2    H3 1125   0.876   4.015   0.575  0.0466 -0.5887  2.8933
   72MPD2     N 1126   0.863   4.304   0.918  0.3770  0.3018 -0.2117
   72MPD2    H5 1127   0.791   4.241   0.951  0.1735  1.2805  1.1951
   72MPD2    N1 1128   1.186   4.340   0.565  0.0432 -0.3124  0.6017
   72MPD2    H7 1129   1.208   4.421   0.623  0.0544 -0.0037  0.1688
   73TMC2    C1 1130   1.337   1.341  14.145  0.0769 -0.1105 -0.0382
   73TMC2    C2 1131   1.307   1.384  14.271  0.8143 -0.0015  0.3713
   73TMC2    C3 1132   1.388   1.343  14.371 -0.9460 -0.8590  0.5608
   73TMC2    C4 1133   1.436   1.253  14.125 -0.0708 -0.4817 -0.1392
   73TMC2    C5 1134   1.511   1.210  14.232  0.3652 -0.4155 -0.5191
   73TMC2    C6 1135   1.497   1.265  14.352 -0.6129 -0.2686 -0.1547
   73TMC2     C 1136   1.360   1.442  14.046  0.1994  1.3745 -0.7846
   73TMC2     O 1137   1.461   1.420  13.979  0.3873 -0.1975  1.0731
   73TMC2     H 1138   1.242   1.469  14.284  1.3167  0.1706  1.8224
   73TMC2    H1 1139   1.443   1.209  14.026  1.7431 -2.3068  0.7947
   73TMC2    H2 1140   1.559   1.246  14.438 -2.7646  0.4832  1.5488
   73TMC2    C7 1141   1.649   1.176  14.200  0.1615  1.1715  0.4907
   73TMC2    C8 1142   1.382   1.437  14.481 -0.1870 -0.1509  0.5026
   73TMC2    O1 1143   1.734   1.122  14.279  0.5951  0.1373  0.0247
   73TMC2    O2 1144   1.489   1.462  14.539  0.9533  0.2219 -0.1272
   73TMC2    O5 1145   1.253   1.455  14.518 -0.1644  0.8893 -0.2031
   73TMC2    H5 1146   1.188   1.400  14.470 -0.3238  1.7469 -0.9793
   74MPD2     C 1147   1.296   1.897  13.818 -0.1350 -0.1819  0.8342
   74MPD2    C1 1148   1.398   1.806  13.817 -0.2635  0.7943  0.1473
   74MPD2    C2 1149   1.394   1.686  13.894  0.3064  0.9381 -0.0713
   74MPD2    C3 1150   1.280   1.659  13.965  0.1287 -0.0764  0.3337
   74MPD2    C4 1151   1.175   1.751  13.962  0.0058 -0.2776  0.7796
   74MPD2    C5 1152   1.179   1.868  13.894 -0.4707 -0.0553 -0.4740
   74MPD2     H 1153   1.468   1.607  13.881 -1.5556 -1.0820  1.5960
   74MPD2    H1 1154   1.079   1.729  14.007 -0.4500  1.7182  0.7505
   74MPD2    H2 1155   1.312   1.992  13.769  1.6842 -2.5764 -3.2133
   74MPD2    H3 1156   1.089   1.928  13.883 -2.2017 -2.7137 -0.6893
   74MPD2     N 1157   1.267   1.546  14.042  0.1608 -0.5338  0.2309
   74MPD2    H5 1158   1.197   1.545  14.115 -2.0909 -0.7405 -1.9492
   74MPD2    N1 1159   1.517   1.850  13.760  0.8577  0.0988  0.0173
   74MPD2    H7 1160   1.514   1.923  13.689 -1.3859 -0.5072 -0.4942
   75TMC2    C1 1161   1.486   2.675  14.297 -0.3282  0.5981  0.4538
   75TMC2    C2 1162   1.418   2.675  14.417  0.5311 -0.3049 -0.4961
   75TMC2    C3 1163   1.284   2.677  14.405 -0.4863  0.3258 -0.7221
   75TMC2    C4 1164   1.429   2.652  14.173  0.4435 -0.1804  0.1712
   75TMC2    C5 1165   1.295   2.639  14.168  0.1884 -0.3573 -0.0117
   75TMC2    C6 1166   1.220   2.654  14.284 -0.2506  0.4440  0.5383
   75TMC2     C 1167   1.624   2.672  14.311 -0.5214  0.3048 -0.6284
   75TMC2     O 1168   1.665   2.711  14.418 -0.0916  0.0204 -0.0404
   75TMC2     H 1169   1.465   2.702  14.511 -0.4962  2.5917 -0.8022
   75TMC2    H1 1170   1.491   2.662  14.085 -0.7089 -0.0954 -0.6329
   75TMC2    H2 1171   1.112   2.657  14.281 -0.2694 -0.3242  0.4614
   75TMC2    C7 1172   1.238   2.585  14.046 -0.1384  0.5501 -0.3554
   75TMC2    C8 1173   1.205   2.713  14.516  0.4461  0.0461 -0.0203
   75TMC2    O1 1174   1.316   2.583  13.951  0.3547  0.1784 -0.0583
   75TMC2    O2 1175   1.101   2.776  14.504  0.0788 -0.0425  0.4618
   75TMC2    O5 1176   1.244   2.621  14.610  0.1595  0.4634 -0.5981
   75TMC2    H5 1177   1.316   2.561  14.582  1.1538  1.0885  0.6260
   76TMC2    C1 1178   0.852   2.542  12.019  0.2063 -0.4642 -0.4704
   76TMC2    C2 1179   0.850   2.416  11.961 -0.3929  0.5967 -0.8967
   76TMC2    C3 1180   0.893   2.305  12.027 -0.6522  0.3011 -0.3270
   76TMC2    C4 1181   0.915   2.566  12.140  0.7323 -0.2880 -0.4732
   76TMC2    C5 1182   0.953   2.448  12.202 -1.2223  0.4427 -0.1992
   76TMC2    C6 1183   0.941   2.319  12.152  0.1884 -0.1916  0.6471
   76TMC2     C 1184   0.813   2.650  11.927  0.4529 -0.8848  0.1059
   76TMC2     O 1185   0.729   2.630  11.836  0.0371  0.7091 -0.0390
   76TMC2     H 1186   0.809   2.396  11.862 -1.7059 -1.6005  0.1137
   76TMC2    H1 1187   0.913   2.665  12.183  0.2464 -0.6815  0.4027
   76TMC2    H2 1188   0.948   2.233  12.218 -0.1625 -0.4127  0.3925
   76TMC2    C7 1189   1.026   2.471  12.322  0.5139 -0.7267 -0.7974
   76TMC2    C8 1190   0.954   2.207  11.945 -0.2547  0.0176 -0.3072
   76TMC2    O1 1191   1.023   2.583  12.370 -0.3787  0.0312 -0.1580
   76TMC2    O2 1192   0.971   2.242  11.829 -0.1857 -0.2432 -0.4354
   76TMC2    O5 1193   0.896   2.089  11.975  0.4609  0.0437 -0.1241
   76TMC2    H5 1194   0.879   2.089  12.072 -2.3222  0.1735 -0.6308
   77MPD2     C 1195   0.917   3.124  11.745  0.1705 -0.0560 -0.5061
   77MPD2    C1 1196   0.823   3.034  11.706 -0.6985  0.9883  0.2917
   77MPD2    C2 1197   0.808   2.907  11.770 -0.1033 -0.2250 -0.3985
   77MPD2    C3 1198   0.893   2.877  11.871  0.4496  0.1892 -0.4780
   77MPD2    C4 1199   0.984   2.965  11.910 -0.0638  0.4477 -0.2613
   77MPD2    C5 1200   1.002   3.083  11.848 -0.8059 -0.2864  0.1077
   77MPD2     H 1201   0.744   2.828  11.731 -3.3065  2.0814  0.1168
   77MPD2    H1 1202   1.057   2.939  11.985  0.8732 -2.7671 -2.2960
   77MPD2    H2 1203   0.934   3.222  11.703 -0.7882 -0.8984 -2.8611
   77MPD2    H3 1204   1.082   3.144  11.889 -0.3890  0.4900 -1.8533
   77MPD2     N 1205   0.892   2.761  11.947 -0.2611  0.3932  0.5843
   77MPD2    H5 1206   0.965   2.764  12.018 -0.5879  0.5887  0.9141
   77MPD2    N1 1207   0.749   3.068  11.591  0.5977 -0.2188 -0.4692
   77MPD2    H7 1208   0.673   3.004  11.571  0.7107 -0.5903  0.2833
   78TMC2    C1 1209   1.106   4.017   0.991 -0.5787  0.3844  0.6486
   78TMC2    C2 1210   1.027   3.913   0.936  0.9387  0.7650  0.2712
   78TMC2    C3 1211   1.090   3.852   0.832  0.3910  0.5478  0.3356
   78TMC2    C4 1212   1.231   4.042   0.946 -0.0085 -0.2981 -0.4701
   78TMC2    C5 1213   1.283   3.977   0.838 -1.0333 -0.7980 -0.5213
   78TMC2    C6 1214   1.214   3.878   0.780 -0.0205  0.6113  0.3179
   78TMC2     C 1215   1.074   4.045   1.131 -0.4735  0.0848  0.0515
   78TMC2     O 1216   1.000   3.961   1.182  0.2033  0.4731  0.0494
   78TMC2     H 1217   0.924   3.899   0.966  0.8050 -0.9760 -1.0436
   78TMC2    H1 1218   1.295   4.123   0.981 -0.1899 -0.8479  1.0989
   78TMC2    H2 1219   1.248   3.813   0.700 -1.3020 -2.8956  2.6821
   78TMC2    C7 1220   1.401   4.038   0.775 -0.8902  0.0142  0.1280
   78TMC2    C8 1221   1.012   3.738   0.786  0.6345 -0.7530  0.3941
   78TMC2    O1 1222   1.469   4.108   0.851 -0.1387 -0.0654  0.3876
   78TMC2    O2 1223   1.029   3.699   0.669  0.2288 -0.0557 -0.7921
   78TMC2    O5 1224   0.978   3.654   0.891 -0.2990  0.2409 -0.0240
   78TMC2    H5 1225   1.014   3.681   0.978  1.0490  0.9301 -0.7977
   79MPD1     C 1226   1.050   4.362   1.545  0.5095 -0.6272  0.0317
   79MPD1    C1 1227   0.984   4.247   1.515 -0.7448 -0.0295  0.7046
   79MPD1    C2 1228   1.010   4.178   1.397 -0.5279 -0.1144  0.5923
   79MPD1    C3 1229   1.111   4.218   1.308 -0.4525  0.0789  0.3732
   79MPD1    C4 1230   1.179   4.340   1.343  0.4141  0.2322 -0.2457
   79MPD1    C5 1231   1.148   4.413   1.456 -0.2459  0.3550  0.5571
   79MPD1     H 1232   0.958   4.086   1.372 -1.1377 -0.5558  3.5005
   79MPD1    H1 1233   1.268   4.374   1.291 -0.1708  1.3450 -0.5021
   79MPD1    H2 1234   1.025   4.419   1.635  2.0000  2.3559 -1.4661
   79MPD1    H3 1235   1.197   4.506   1.482  1.9981 -0.4041 -0.9426
   79MPD1     N 1236   1.142   4.154   1.180 -0.3642  0.0084  0.3552
   79MPD1    H5 1237   1.200   4.217   1.126 -0.6342 -1.2906 -1.4303
   79MPD1    N1 1238   0.883   4.200   1.605  0.6809  0.0525  0.0779
   79MPD1    H6 1239   0.799   4.155   1.570 -1.1669  2.3071  1.6184
   79MPD1    H7 1240   0.852   4.270   1.672  0.1264 -1.9588  1.9159
   80TMC2    C1 1241   4.167   2.418  11.327 -0.3837 -0.6567  0.5044
   80TMC2    C2 1242   4.082   2.453  11.226 -0.9692  0.0279  0.4746
   80TMC2    C3 1243   3.977   2.379  11.194 -0.0135 -0.2711 -0.9409
   80TMC2    C4 1244   4.140   2.298  11.394  0.0420 -0.3490 -0.4175
   80TMC2    C5 1245   4.025   2.234  11.371  0.3670  0.1588  0.4051
   80TMC2    C6 1246   3.943   2.268  11.268  0.6425  0.1526 -0.4787
   80TMC2     C 1247   4.245   2.518  11.393  0.3184 -0.0583  0.0924
   80TMC2     O 1248   4.293   2.591  11.312  0.3266 -0.6008 -0.4064
   80TMC2     H 1249   4.102   2.541  11.166  1.8242 -1.2896 -0.5079
   80TMC2    H1 1250   4.207   2.262  11.471 -1.2125  2.4430  1.9397
   80TMC2    H2 1251   3.865   2.204  11.229  0.0375  1.5733 -1.5871
   80TMC2    C7 1252   4.023   2.093  11.390 -0.4746  0.5190 -0.0853
   80TMC2    C8 1253   3.888   2.413  11.089 -0.0002 -0.0225  0.3570
   80TMC2    O1 1254   3.950   2.023  11.328 -0.0517 -0.1463  0.2026
   80TMC2    O2 1255   3.811   2.331  11.037 -0.2464 -0.6880  0.3720
   80TMC2    O5 1256   3.880   2.549  11.087 -0.6110  0.2243  0.4554
   80TMC2    H5 1257   3.927   2.588  11.163 -0.5549 -1.2123  1.1516
   81MPD2     C 1258   4.316   2.754  11.556 -1.0953 -0.3466  0.4831
   81MPD2    C1 1259   4.256   2.641  11.609  0.4870  0.2599 -0.2785
   81MPD2    C2 1260   4.211   2.644  11.741  0.1532  0.5551 -0.3487
   81MPD2    C3 1261   4.233   2.761  11.812 -0.3778  0.1050  0.6607
   81MPD2    C4 1262   4.305   2.860  11.756 -0.2476  0.5453  0.7564
   81MPD2    C5 1263   4.346   2.860  11.627 -0.5930 -0.1630 -0.0096
   81MPD2     H 1264   4.149   2.562  11.776  0.4692  1.1489  1.5563
   81MPD2    H1 1265   4.329   2.944  11.820  2.6825  1.0841 -1.0404
   81MPD2    H2 1266   4.344   2.752  11.451  0.3856 -1.3952  0.8958
   81MPD2    H3 1267   4.404   2.942  11.585  1.6145 -2.4979 -1.5110
   81MPD2     N 1268   4.173   2.794  11.934  0.2757 -0.1604  0.5677
   81MPD2    H5 1269   4.181   2.892  11.957 -1.9595 -0.0142  0.7360
   81MPD2    N1 1270   4.218   2.529  11.528  0.2942  0.0625  1.3606
   81MPD2    H7 1271   4.167   2.454  11.575  0.0068  0.5121  1.7618
   82TMC2    C1 1272   2.534   2.301  10.927  0.3162 -0.0376  0.2770
   82TMC2    C2 1273   2.651   2.365  10.944  0.0218 -0.5903  0.0894
   82TMC2    C3 1274   2.717   2.335  11.063  0.0300  0.3989 -0.2747
   82TMC2    C4 1275   2.474   2.206  11.006  0.1311 -0.0548  0.0522
   82TMC2    C5 1276   2.554   2.162  11.103  0.0159  0.3196  0.2556
   82TMC2    C6 1277   2.671   2.226  11.143  0.0307  0.0353  0.3938
   82TMC2     C 1278   2.459   2.343  10.807 -0.1962  0.6833  0.4180
   82TMC2     O 1279   2.521   2.391  10.713  0.2903  0.0354 -0.1599
   82TMC2     H 1280   2.686   2.444  10.879  0.8285 -2.2609 -1.4985
   82TMC2    H1 1281   2.375   2.167  10.985  0.0086  0.7360 -0.8002
   82TMC2    H2 1282   2.735   2.175  11.214 -0.3424  0.4750  1.0502
   82TMC2    C7 1283   2.518   2.042  11.164 -0.1524 -0.0295 -0.9502
   82TMC2    C8 1284   2.862   2.370  11.074 -0.3083 -0.5950 -0.5270
   82TMC2    O1 1285   2.530   2.030  11.285 -0.1226  0.1977  0.0642
   82TMC2    O2 1286   2.937   2.384  10.979 -0.0614  0.3772  0.2735
   82TMC2    O5 1287   2.907   2.342  11.198  0.3653  0.6317  0.6826
   82TMC2    H5 1288   2.833   2.329  11.261 -0.1466  0.2846  0.0254
   83MPD2     C 1289   2.025   2.435  10.591  0.5426  0.4283  0.2472
   83MPD2    C1 1290   2.150   2.456  10.542  0.0620  0.1244 -0.0373
   83MPD2    C2 1291   2.249   2.403  10.613 -0.1219 -0.0790 -0.4623
   83MPD2    C3 1292   2.225   2.355  10.739  0.4485 -0.6413 -0.0193
   83MPD2    C4 1293   2.095   2.339  10.783  0.3775 -0.0105  0.3174
   83MPD2    C5 1294   1.997   2.376  10.705  0.0814  0.0995 -0.1761
   83MPD2     H 1295   2.350   2.407  10.574  0.1452 -2.7438 -0.0908
   83MPD2    H1 1296   2.077   2.300  10.883  1.1593 -2.6855 -0.5690
   83MPD2    H2 1297   1.940   2.464  10.530 -0.3929 -1.6197  0.5330
   83MPD2    H3 1298   1.892   2.374  10.734 -0.0376  0.1404 -0.6045
   83MPD2     N 1299   2.327   2.325  10.829 -0.3662 -0.2660  0.1570
   83MPD2    H5 1300   2.301   2.301  10.924 -1.3085  1.0949  0.2555
   83MPD2    N1 1301   2.160   2.518  10.409 -0.1869  0.0369 -0.0532
   83MPD2    H7 1302   2.077   2.556  10.364  0.9450 -0.5922 -2.6771
   84TMC2    C1 1303   3.686   1.647  10.748 -0.6356 -0.5334  0.6016
   84TMC2    C2 1304   3.808   1.663  10.795 -0.7418 -0.2839 -0.8995
   84TMC2    C3 1305   3.912   1.662  10.715  0.3682 -0.3376  0.0936
   84TMC2    C4 1306   3.670   1.624  10.618  0.1696  0.0100  0.0846
   84TMC2    C5 1307   3.773   1.620  10.535 -0.4962  0.4201  0.6033
   84TMC2    C6 1308   3.901   1.642  10.580 -0.1507 -0.1491  0.3402
   84TMC2     C 1309   3.579   1.609  10.832 -0.1074  0.2996 -0.3934
   84TMC2     O 1310   3.605   1.567  10.941 -0.1433 -0.2519 -0.2465
   84TMC2     H 1311   3.818   1.685  10.901 -0.5873 -1.9757 -0.5728
   84TMC2    H1 1312   3.574   1.599  10.574  0.6635  2.7958 -2.6063
   84TMC2    H2 1313   3.993   1.641  10.523 -0.1847  2.9310  0.1891
   84TMC2    C7 1314   3.756   1.539  10.410 -0.1377 -0.3732  0.0389
   84TMC2    C8 1315   4.023   1.741  10.748  0.0278  0.1284  0.0952
   84TMC2    O1 1316   3.664   1.459  10.395  0.3956 -0.3811  0.4239
   84TMC2    O2 1317   4.062   1.822  10.666 -0.0169  0.0087 -0.4728
   84TMC2    O5 1318   4.093   1.664  10.835 -0.1399 -0.1731  0.4414
   84TMC2    H5 1319   4.034   1.597  10.875 -1.1405  1.0052  0.9327
   85TMC2    C1 1320   4.393   4.633  15.693 -0.6261 -0.4954 -0.3183
   85TMC2    C2 1321   4.316   0.010  15.712 -0.3180  0.4929 -0.2933
   85TMC2    C3 1322   4.330   0.116  15.624  0.5694  0.2284  0.3333
   85TMC2    C4 1323   4.501   4.625  15.599  0.0144 -0.2637  0.3471
   85TMC2    C5 1324   4.515   0.006  15.526 -0.0395  0.2117  0.9923
   85TMC2    C6 1325   4.433   0.120  15.537  0.0307 -0.2853  0.2762
   85TMC2     C 1326   4.411   4.559  15.811 -0.4170 -0.5896 -0.1579
   85TMC2     O 1327   4.401   4.614  15.918  0.5989  0.3408 -0.1414
   85TMC2     H 1328   4.229   0.003  15.777 -0.5151  0.7067 -0.5350
   85TMC2    H1 1329   4.565   4.538  15.587  0.4765  0.2137 -0.5985
   85TMC2    H2 1330   4.432   0.199  15.463  1.3172 -1.6092 -1.1226
   85TMC2    C7 1331   4.620   0.011  15.425  0.4482 -0.2642  0.1572
   85TMC2    C8 1332   4.221   0.212  15.615 -0.8177 -0.0318  0.4858
   85TMC2    O1 1333   4.681   4.639  15.413 -0.1669 -0.2316 -0.0162
   85TMC2    O2 1334   4.190   0.264  15.509  0.1729 -0.2922 -0.3406
   85TMC2    O5 1335   4.151   0.207  15.730  0.2021  0.3643 -0.6046
   85TMC2    H5 1336   4.208   0.209  15.809 -0.0298 -1.8806 -0.3685
   86MPD2     C 1337   4.550   4.171  16.085  0.6049 -0.5856 -1.0762
   86MPD2    C1 1338   4.466   4.126  15.988 -0.4517 -0.3261 -0.6357
   86MPD2    C2 1339   4.450   4.197  15.876 -0.3612 -0.4614  0.5343
   86MPD2    C3 1340   4.487   4.336  15.877 -0.3569 -0.4951  0.1984
   86MPD2    C4 1341   4.565   4.380  15.983  0.5385 -0.4630  0.3575
   86MPD2    C5 1342   4.608   4.297  16.078 -0.5453 -0.4373  0.8651
   86MPD2     H 1343   4.383   4.170  15.795  0.9247  1.2623 -1.1008
   86MPD2    H1 1344   4.592   4.485  15.991 -1.2152 -0.0044  0.0710
   86MPD2    H2 1345   4.586   4.104  16.162 -2.4037 -0.7674  0.1530
   86MPD2    H3 1346   4.670   4.330  16.160  1.0154 -2.8005  0.6445
   86MPD2     N 1347   4.442   4.431  15.781  0.2431  0.5217 -0.1327
   86MPD2    H5 1348   4.392   4.403  15.697 -0.5778  1.3771  0.0748
   86MPD2    N1 1349   4.410   3.993  15.992 -0.1598  0.3880 -0.2568
   86MPD2    H7 1350   4.375   3.953  15.906  0.8108 -0.3437 -0.3072
   87TMC2    C1 1351   2.041   2.798   1.380  0.1979  0.9998 -0.1758
   87TMC2    C2 1352   2.020   2.730   1.498  0.0420 -0.3205  0.5081
   87TMC2    C3 1353   1.937   2.786   1.590  0.3779  0.4793  0.1458
   87TMC2    C4 1354   1.997   2.923   1.366  0.0226 -0.4118  0.5297
   87TMC2    C5 1355   1.890   2.961   1.444 -0.0349 -0.1819 -0.7682
   87TMC2    C6 1356   1.865   2.901   1.565  0.4828  0.6301  0.9529
   87TMC2     C 1357   2.119   2.733   1.273  0.0350 -0.1216 -0.2133
   87TMC2     O 1358   2.181   2.809   1.200  0.0923 -0.0130 -0.1330
   87TMC2     H 1359   2.077   2.644   1.529 -0.1828 -1.0879 -1.2283
   87TMC2    H1 1360   2.012   2.968   1.268 -1.0202  1.8478  1.4028
   87TMC2    H2 1361   1.779   2.934   1.623 -0.5764  0.8521 -0.7319
   87TMC2    C7 1362   1.831   3.093   1.412  0.2324  1.1823  0.3820
   87TMC2    C8 1363   1.914   2.714   1.708  0.6286 -0.3866 -0.4937
   87TMC2    O1 1364   1.840   3.116   1.290  0.3210  0.0160 -0.1897
   87TMC2    O2 1365   1.936   2.596   1.730  0.0449 -0.4677 -0.2172
   87TMC2    O5 1366   1.887   2.808   1.801  0.1354 -0.4383  0.4079
   87TMC2    H5 1367   1.920   2.899   1.789 -1.3450 -0.2511 -2.4481
   88MPD2     C 1368   1.804   3.398   1.612  0.2142 -0.3599  0.0124
   88MPD2    C1 1369   1.775   3.308   1.515 -0.1821 -0.3412  0.4573
   88MPD2    C2 1370   1.713   3.352   1.400 -0.2315 -0.1438  0.1818
   88MPD2    C3 1371   1.679   3.488   1.389  0.2453 -0.4588  0.0122
   88MPD2    C4 1372   1.700   3.576   1.492  0.4499  0.4678 -0.3314
   88MPD2    C5 1373   1.761   3.525   1.602  0.1524  0.8077  0.5661
   88MPD2     H 1374   1.679   3.280   1.327 -1.4928  0.0252  0.6059
   88MPD2    H1 1375   1.667   3.679   1.489 -1.5526 -0.0383  3.3303
   88MPD2    H2 1376   1.863   3.382   1.702 -0.7392  1.8199  1.0117
   88MPD2    H3 1377   1.784   3.595   1.681  1.2396  0.4542  0.5554
   88MPD2     N 1378   1.596   3.533   1.281 -0.0930 -0.4859 -0.4608
   88MPD2    H5 1379   1.587   3.632   1.262  1.4812 -0.1786  0.3806
   88MPD2    N1 1380   1.817   3.175   1.525  0.3742 -0.6598  0.2935
   88MPD2    H7 1381   1.848   3.139   1.615 -0.1003 -1.2297  0.2284
   89TMC2    C1 1382   2.509   0.888   1.810 -0.4799  0.6191  0.6349
   89TMC2    C2 1383   2.626   0.919   1.875  0.3593  0.0452 -0.1108
   89TMC2    C3 1384   2.729   0.945   1.793 -0.4064  0.7185  0.0164
   89TMC2    C4 1385   2.496   0.857   1.676 -0.4523  0.0947 -0.3260
   89TMC2    C5 1386   2.609   0.877   1.597  0.2462 -0.6369  0.2727
   89TMC2    C6 1387   2.725   0.909   1.660 -0.3681 -0.2148 -0.0170
   89TMC2     C 1388   2.390   0.862   1.893 -0.0691  0.0124  0.2955
   89TMC2     O 1389   2.379   0.947   1.980 -0.0321  0.5664 -0.0457
   89TMC2     H 1390   2.626   0.943   1.980  2.8845 -1.1435  0.1459
   89TMC2    H1 1391   2.394   0.860   1.640 -0.2215  1.8176 -0.8390
   89TMC2    H2 1392   2.812   0.919   1.596  0.5476 -0.1142  1.2551
   89TMC2    C7 1393   2.591   0.875   1.453 -0.3928 -0.5360  0.7898
   89TMC2    C8 1394   2.836   1.028   1.850  0.3896 -0.7100  0.9815
   89TMC2    O1 1395   2.472   0.874   1.411 -0.5615 -0.3795 -0.4929
   89TMC2    O2 1396   2.886   1.015   1.962 -0.1705 -0.2113 -0.1205
   89TMC2    O5 1397   2.864   1.125   1.766 -0.1800  0.3209  0.8422
   89TMC2    H5 1398   2.808   1.129   1.685  0.5563 -0.4141  0.2870
   90MPD2     C 1399   1.957   0.599   1.966 -0.0342 -0.7265 -0.1655
   90MPD2    C1 1400   2.047   0.518   1.901 -0.2123  0.2278 -0.9434
   90MPD2    C2 1401   2.167   0.574   1.869 -0.0542  0.0046 -0.1185
   90MPD2    C3 1402   2.199   0.699   1.903  0.1826  0.7594 -0.4072
   90MPD2    C4 1403   2.115   0.777   1.979 -0.3657  0.1782  0.9355
   90MPD2    C5 1404   1.993   0.724   2.011  0.3750  0.7889  0.0661
   90MPD2     H 1405   2.239   0.514   1.813 -0.8560 -0.2992 -0.8246
   90MPD2    H1 1406   2.134   0.878   2.014  1.4394  0.3332 -0.4760
   90MPD2    H2 1407   1.854   0.570   1.979  0.0949 -0.2527  1.9335
   90MPD2    H3 1408   1.918   0.795   2.045 -1.8425 -0.7849 -1.5015
   90MPD2     N 1409   2.326   0.742   1.860 -0.0897 -0.2529 -0.3759
   90MPD2    H5 1410   2.384   0.674   1.813 -0.8515 -0.4103 -1.0866
   90MPD2    N1 1411   2.021   0.380   1.869  0.0871 -0.3818  0.7590
   90MPD2    H7 1412   2.095   0.327   1.824  0.5333  1.4014 -0.6080
   91TMC2    C1 1413   4.585   0.700  16.287 -0.2780  1.0807  0.6775
   91TMC2    C2 1414   4.657   0.814  16.272 -0.0837  0.2033 -0.3616
   91TMC2    C3 1415   4.602   0.928  16.317  0.3879 -0.0133  0.5313
   91TMC2    C4 1416   4.453   0.704  16.322  0.4260  0.1714 -0.2645
   91TMC2    C5 1417   4.400   0.819  16.373  0.2931  0.5538  0.1704
   91TMC2    C6 1418   4.475   0.931  16.378 -0.7511 -0.2591 -0.7002
   91TMC2     C 1419   4.643   0.580  16.235  0.1908 -0.5407 -0.5646
   91TMC2     O 1420   4.561   0.495  16.202  0.4589 -0.8359  0.2773
   91TMC2     H 1421   0.020   0.808  16.227  1.1937 -0.3814  2.5542
   91TMC2    H1 1422   4.400   0.609  16.319 -0.5543  0.7030  0.3621
   91TMC2    H2 1423   4.442   1.027  16.417  0.8477 -0.2955  0.7774
   91TMC2    C7 1424   4.264   0.832  16.421  0.6442  0.8728 -0.9265
   91TMC2    C8 1425   4.670   1.059  16.319  0.0119 -0.1566 -0.7312
   91TMC2    O1 1426   4.241   0.928  16.489  0.1761  0.1025 -0.8670
   91TMC2    O2 1427   0.055   1.070  16.336  0.3406 -0.1326  0.2980
   91TMC2    O5 1428   4.590   1.160  16.266 -0.1844 -0.6792  0.1942
   91TMC2    H5 1429   4.498   1.133  16.245 -0.9389  3.5372 -1.8462
   92MPD2     C 1430   0.093   0.364  16.135  0.0723 -0.0954  0.5391
   92MPD2    C1 1431   0.124   0.468  16.219  0.4279 -0.2705 -0.0367
   92MPD2    C2 1432   0.255   0.476  16.269  0.8813  1.0007 -1.0396
   92MPD2    C3 1433   0.358   0.390  16.232 -0.1769 -0.1217  0.0747
   92MPD2    C4 1434   0.326   0.290  16.136  0.5810  0.2354  0.5144
   92MPD2    C5 1435   0.198   0.284  16.087 -0.6098 -0.6015  0.1456
   92MPD2     H 1436   0.266   0.562  16.333  0.5105 -0.5331  1.1005
   92MPD2    H1 1437   0.399   0.217  16.104 -0.7067 -0.5411 -0.6255
   92MPD2    H2 1438   4.734   0.362  16.083  0.3402  0.6131  0.0199
   92MPD2    H3 1439   0.180   0.213  16.007  0.6045 -0.2126 -0.4710
   92MPD2     N 1440   0.490   0.415  16.273 -0.0601 -0.4357  0.0581
   92MPD2    H5 1441   0.496   0.499  16.329  0.7247  0.8314 -1.9480
   92MPD2    N1 1442   0.043   0.573  16.251 -0.0146 -0.2817  0.6059
   92MPD2    H7 1443   0.095   0.638  16.308 -0.0252  1.7763 -1.7062
   93TMC2    C1 1444   1.623   0.524  13.777 -1.1802  0.3661  0.6953
   93TMC2    C2 1445   1.550   0.623  13.847  0.4138  0.2858  0.4724
   93TMC2    C3 1446   1.620   0.728  13.895 -0.3726 -0.5374  0.9761
   93TMC2    C4 1447   1.753   0.540  13.736 -0.4119 -0.0063 -1.3251
   93TMC2    C5 1448   1.812   0.653  13.782 -0.3229 -0.4589 -1.0311
   93TMC2    C6 1449   1.756   0.743  13.866  0.6502  0.7124  0.3904
   93TMC2     C 1450   1.549   0.410  13.719 -0.2528  0.4537 -0.0824
   93TMC2     O 1451   1.606   0.306  13.692 -0.4241  0.2440  0.6911
   93TMC2     H 1452   1.450   0.603  13.883 -0.1037 -0.9623 -1.6561
   93TMC2    H1 1453   1.799   0.473  13.664  1.4506  0.3245 -0.4419
   93TMC2    H2 1454   1.801   0.839  13.891  0.5351  0.7548  0.4379
   93TMC2    C7 1455   1.940   0.680  13.712 -0.2439 -0.2736  0.5578
   93TMC2    C8 1456   1.542   0.837  13.942  0.8537 -0.2115 -0.8470
   93TMC2    O1 1457   1.999   0.592  13.649 -0.3687  0.2108  0.2197
   93TMC2    O2 1458   1.425   0.836  13.910 -0.1215  0.4669 -0.3401
   93TMC2    O5 1459   1.598   0.883  14.058  0.3286 -0.0432 -0.4691
   93TMC2    H5 1460   1.689   0.853  14.078  1.1403  1.3757 -2.0726
   94MPD2     C 1461   1.340   0.215  13.691  0.6338 -0.0608  0.4457
   94MPD2    C1 1462   1.318   0.354  13.685 -0.8620 -0.2430 -0.3864
   94MPD2    C2 1463   1.187   0.396  13.652  0.5082  0.3723  0.0080
   94MPD2    C3 1464   1.084   0.305  13.635  0.0445  0.2838 -0.9498
   94MPD2    C4 1465   1.106   0.172  13.655  0.1552 -1.0856  0.6058
   94MPD2    C5 1466   1.238   0.128  13.674  0.1998  0.1504 -0.9741
   94MPD2     H 1467   1.170   0.503  13.647  0.8590  0.4692  0.8215
   94MPD2    H1 1468   1.024   0.102  13.647 -1.5684  0.8581  1.1702
   94MPD2    H2 1469   1.429   0.172  13.736  1.2809 -0.8080 -1.5340
   94MPD2    H3 1470   1.261   0.025  13.697  4.0204  1.4320  1.0400
   94MPD2     N 1471   0.951   0.340  13.614 -0.0526  0.2143  0.2337
   94MPD2    H5 1472   0.880   0.269  13.631  0.0152  0.0030 -0.3522
   94MPD2    N1 1473   1.419   0.449  13.700  0.4540 -0.7168 -0.0678
   94MPD2    H7 1474   1.398   0.548  13.696  0.3629 -0.7632 -0.8611
   95TMC2    C1 1475   1.694   2.533  16.644 -0.2975  0.8211 -0.3576
   95TMC2    C2 1476   1.771   2.460  16.730  0.0635 -0.1438 -0.3935
   95TMC2    C3 1477   1.770   2.481  16.867  0.7167 -0.1678  0.1581
   95TMC2    C4 1478   1.619   2.636  16.688  0.3367 -0.0674 -0.0853
   95TMC2    C5 1479   1.617   2.656  16.823 -0.8053  0.2419  1.1138
   95TMC2    C6 1480   1.695   2.583  16.911 -1.0652  0.0923 -0.0442
   95TMC2     C 1481   1.696   2.510  16.498 -1.3252 -0.3766 -0.2228
   95TMC2     O 1482   1.666   2.597  16.419  0.3263  0.3766 -1.2044
   95TMC2     H 1483   1.837   2.380  16.697  0.6642  0.7257 -1.2765
   95TMC2    H1 1484   1.538   2.679  16.631 -0.5587 -1.9223 -0.2253
   95TMC2    H2 1485   1.705   2.615  17.014 -0.1164  2.8940 -1.0008
   95TMC2    C7 1486   1.581   2.788  16.867  0.2428 -0.4786  0.8216
   95TMC2    C8 1487   1.832   2.381  16.948  0.1288  0.8963  0.3808
   95TMC2    O1 1488   1.565   2.804  16.988  0.0774  0.1911 -0.0402
   95TMC2    O2 1489   1.939   2.335  16.905 -0.0319  0.9965  0.4170
   95TMC2    O5 1490   1.803   2.416  17.075 -0.1474 -0.5347  0.4761
   95TMC2    H5 1491   1.706   2.425  17.083 -0.2717 -0.3622 -1.0860
   96MPD2     C 1492   1.854   2.261  16.089 -0.0803 -0.6020  0.1944
   96MPD2    C1 1493   1.867   2.388  16.122  0.1862  0.2755  0.2133
   96MPD2    C2 1494   1.824   2.424  16.248  0.4786 -0.5217 -0.4446
   96MPD2    C3 1495   1.779   2.338  16.344 -0.1973 -0.1610 -0.2618
   96MPD2    C4 1496   1.777   2.204  16.311 -0.1376 -0.0854  0.5264
   96MPD2    C5 1497   1.811   2.171  16.183 -0.1572  0.0990 -0.2162
   96MPD2     H 1498   1.823   2.531  16.266  1.2774 -0.2869 -1.8050
   96MPD2    H1 1499   1.748   2.125  16.379  0.5539 -1.5347 -0.8661
   96MPD2    H2 1500   1.871   2.228  15.987  1.1461 -0.6840  0.4214
   96MPD2    H3 1501   1.799   2.069  16.150  0.5609 -0.1498  0.3010
   96MPD2     N 1502   1.733   2.382  16.470  0.2913 -0.3172  0.7307
   96MPD2    H5 1503   1.735   2.312  16.543  0.1039  2.4554  3.3758
   96MPD2    N1 1504   1.929   2.469  16.031 -0.4882 -0.1021  0.2622
   96MPD2    H7 1505   1.956   2.447  15.936  0.9000  0.0127  0.6337
   97TMC2    C1 1506   4.004   0.102   0.471  0.2432  0.5968  0.9516
   97TMC2    C2 1507   4.097   4.736   0.475 -0.0485 -0.7925 -0.4748
   97TMC2    C3 1508   4.228   0.042   0.462  0.1210 -0.2168 -0.0124
   97TMC2    C4 1509   4.042   0.232   0.449  0.2961  0.2834  0.5720
   97TMC2    C5 1510   4.166   0.267   0.415 -0.1626 -0.0990  1.1236
   97TMC2    C6 1511   4.264   0.170   0.427 -0.2745 -0.4147 -0.2997
   97TMC2     C 1512   3.866   0.073   0.482 -0.0349  0.4329  0.0155
   97TMC2     O 1513   3.795   0.172   0.468 -0.1616 -0.3329  0.2681
   97TMC2     H 1514   4.082   4.633   0.507  0.9961 -0.5714  0.7077
   97TMC2    H1 1515   3.967   0.311   0.454 -0.5859 -0.5147 -0.0605
   97TMC2    H2 1516   4.367   0.197   0.405  0.1891 -2.0607 -0.1903
   97TMC2    C7 1517   4.194   0.394   0.367 -0.3853  0.1662 -0.9492
   97TMC2    C8 1518   4.339   4.682   0.496 -0.3069  0.4681  0.1019
   97TMC2    O1 1519   4.311   0.432   0.382  0.4164  0.0482 -0.1567
   97TMC2    O2 1520   4.446   4.723   0.546  0.4647 -0.9687 -0.2548
   97TMC2    O5 1521   4.329   4.584   0.398 -0.3918 -0.1223 -0.2390
   97TMC2    H5 1522   4.244   4.579   0.349 -0.2698 -3.0308 -0.1448
   98MPD2     C 1523   3.484   4.546   0.690 -0.4049 -0.6140 -0.3586
   98MPD2    C1 1524   3.502   4.688   0.678 -0.1176 -0.3144  0.0967
   98MPD2    C2 1525   3.617   4.726   0.605  0.0058  0.0386  0.0105
   98MPD2    C3 1526   3.711   4.639   0.561  0.1094 -0.0419 -0.0927
   98MPD2    C4 1527   3.689   4.505   0.574 -0.0475 -0.0885  0.1399
   98MPD2    C5 1528   3.570   4.461   0.628 -0.0085  0.4675  0.2561
   98MPD2     H 1529   3.637   0.095   0.587 -1.1430 -0.0356 -1.6394
   98MPD2    H1 1530   3.763   4.435   0.538 -0.5509  0.4812 -2.0376
   98MPD2    H2 1531   3.394   4.505   0.735 -0.0235 -0.8966  0.1490
   98MPD2    H3 1532   3.561   4.354   0.643  0.2331  0.7714  2.5456
   98MPD2     N 1533   3.836   4.679   0.511 -0.7975 -0.2927 -0.4299
   98MPD2    H5 1534   3.903   4.603   0.507 -0.7762 -0.3717  1.3210
   98MPD2    N1 1535   3.407   0.042   0.739  0.3493 -0.8687  0.6095
   98MPD2    H7 1536   3.340   4.727   0.795 -1.5250 -1.3855 -2.0731
   99TMC2    C1 1537   1.615   1.124   2.116 -0.3806 -0.1544  0.3552
   99TMC2    C2 1538   1.589   1.094   2.246  0.1478  0.1651 -0.0644
   99TMC2    C3 1539   1.466   1.066   2.291  0.1914 -0.0561 -0.0838
   99TMC2    C4 1540   1.519   1.132   2.018 -0.0921 -1.1062  0.2621
   99TMC2    C5 1541   1.388   1.102   2.065  0.6269  0.2162  0.5065
   99TMC2    C6 1542   1.365   1.068   2.199 -0.6166  0.7515 -0.2781
   99TMC2     C 1543   1.754   1.119   2.076  0.5770 -0.2402  0.6947
   99TMC2     O 1544   1.832   1.140   2.167 -0.9516  0.2598  0.3880
   99TMC2     H 1545   1.672   1.077   2.314  0.3138 -1.1357 -0.5916
   99TMC2    H1 1546   1.546   1.160   1.917 -0.8689 -1.2231  0.0172
   99TMC2    H2 1547   1.262   1.061   2.234 -0.0198  0.2407  1.3510
   99TMC2    C7 1548   1.275   1.161   1.991  0.5406  0.5229 -0.2780
   99TMC2    C8 1549   1.445   1.079   2.437 -0.2899  0.0845 -0.2098
   99TMC2    O1 1550   1.178   1.190   2.056  0.3738 -0.6884 -0.0686
   99TMC2    O2 1551   1.536   1.116   2.509  0.6754  0.6642  0.2597
   99TMC2    O5 1552   1.352   0.993   2.468  0.0163  0.1437  0.2614
   99TMC2    H5 1553   1.294   0.959   2.397 -1.1177  0.1171  1.1980
  100MPD2     C 1554   2.016   1.139   1.948 -0.4614  0.0919  0.2839
  100MPD2    C1 1555   1.901   1.113   1.879 -0.2853 -0.0326  0.2664
  100MPD2    C2 1556   1.908   1.059   1.747 -0.4456  0.2842 -0.6196
  100MPD2    C3 1557   2.032   1.065   1.677  0.1933 -0.1208 -0.2087
  100MPD2    C4 1558   2.144   1.099   1.751  0.1531  0.1339  0.4715
  100MPD2    C5 1559   2.133   1.146   1.880  0.0536  0.6022  0.2648
  100MPD2     H 1560   1.818   1.026   1.697  0.0048 -0.7732 -0.7308
  100MPD2    H1 1561   2.242   1.114   1.706  0.8234 -0.2450  1.8029
  100MPD2    H2 1562   2.014   1.185   2.046  0.3052 -1.0479  0.8264
  100MPD2    H3 1563   2.223   1.178   1.932 -1.7990 -0.4046  4.0789
  100MPD2     N 1564   2.029   1.011   1.548 -0.5210  0.4158 -0.1135
  100MPD2    H5 1565   1.950   0.949   1.532 -1.0266  0.8376  0.7444
  100MPD2    N1 1566   1.773   1.104   1.943  0.1814  0.0243 -0.1073
  100MPD2    H7 1567   1.701   1.078   1.876 -1.0362  0.3519  1.0641
  101TMC2    C1 1568   3.541   2.905  12.539 -0.6705  0.0804 -0.4170
  101TMC2    C2 1569   3.447   2.973  12.468 -0.2956 -0.1292 -0.2737
  101TMC2    C3 1570   3.479   3.076  12.384 -0.3660  0.4173 -0.1716
  101TMC2    C4 1571   3.671   2.943  12.531  0.0249  0.2940 -0.2246
  101TMC2    C5 1572   3.702   3.048  12.452  0.1496  0.6220  0.5312
  101TMC2    C6 1573   3.609   3.118  12.384  0.3091 -0.5840  0.2398
  101TMC2     C 1574   3.504   2.832  12.659 -0.3820 -0.4112 -1.2816
  101TMC2     O 1575   3.390   2.858  12.703  0.2025  0.0548  0.1679
  101TMC2     H 1576   3.344   2.940  12.468  0.0573 -1.2244  0.8588
  101TMC2    H1 1577   3.749   2.906  12.597  1.8985  2.3130 -1.2692
  101TMC2    H2 1578   3.653   3.173  12.301  0.8732  0.2786  1.1224
  101TMC2    C7 1579   3.849   3.076  12.427  0.0594  0.0816 -0.4631
  101TMC2    C8 1580   3.390   3.128  12.286 -0.1462  0.2985  1.1056
  101TMC2    O1 1581   3.936   2.991  12.434  0.0268  0.2245 -0.4969
  101TMC2    O2 1582   3.279   3.079  12.266 -0.2733 -0.3475  0.4795
  101TMC2    O5 1583   3.428   3.259  12.279  0.7677  0.0644  0.0792
  101TMC2    H5 1584   3.521   3.273  12.309  0.9218  2.4881 -1.5563
  102MPD2     C 1585   3.692   2.613  12.878 -0.2225 -0.1596  0.3846
  102MPD2    C1 1586   3.585   2.690  12.837  0.0618 -0.6214 -0.2557
  102MPD2    C2 1587   3.485   2.722  12.929  0.1717  0.4629 -0.0752
  102MPD2    C3 1588   3.496   2.677  13.058  0.2863 -0.1643  0.2285
  102MPD2    C4 1589   3.602   2.600  13.097 -0.1055 -0.4078  0.1077
  102MPD2    C5 1590   3.706   2.571  13.009 -0.0541 -0.4081 -0.0742
  102MPD2     H 1591   3.396   2.779  12.902  0.6921  1.5125  0.4171
  102MPD2    H1 1592   3.612   2.563  13.198  2.1263  0.2328  0.1220
  102MPD2    H2 1593   3.769   2.590  12.804  1.0753  0.3240  1.5841
  102MPD2    H3 1594   3.781   2.499  13.040  0.0982  1.0879  3.0305
  102MPD2     N 1595   3.385   2.692  13.143  0.4885 -0.6124 -0.1594
  102MPD2    H5 1596   3.300   2.728  13.101  0.4389  1.2003  1.5065
  102MPD2    N1 1597   3.595   2.743  12.708 -0.1803 -0.2767  0.3998
  102MPD2    H7 1598   3.670   2.714  12.646 -1.6769 -0.8622 -1.1596
  103TMC2    C1 1599   1.239   2.635  12.970  0.3386 -0.2395 -0.5016
  103TMC2    C2 1600   1.320   2.576  13.062  0.0010 -0.2997 -0.0001
  103TMC2    C3 1601   1.337   2.640  13.180 -0.2394  0.4331 -0.3106
  103TMC2    C4 1602   1.169   2.751  13.013  0.1501 -0.4152 -0.3859
  103TMC2    C5 1603   1.189   2.805  13.143  0.2111 -0.9566  0.2098
  103TMC2    C6 1604   1.272   2.746  13.229  0.2606  0.0702 -0.1888
  103TMC2     C 1605   1.219   2.594  12.829  0.0347 -0.5199  0.1838
  103TMC2     O 1606   1.176   2.675  12.744 -0.1526  0.3463  0.2808
  103TMC2     H 1607   1.360   2.475  13.053 -1.2914 -0.6532 -1.8931
  103TMC2    H1 1608   1.111   2.815  12.948  0.1775 -0.9252 -0.9141
  103TMC2    H2 1609   1.305   2.777  13.327 -1.6219 -0.3022  0.5728
  103TMC2    C7 1610   1.154   2.939  13.179  0.1949  0.1879  0.4079
  103TMC2    C8 1611   1.415   2.563  13.281  0.0488  0.3628  0.2561
  103TMC2    O1 1612   1.172   2.960  13.300  0.0055  0.1590 -0.3111
  103TMC2    O2 1613   1.499   2.481  13.248 -0.2331  0.1346 -0.0306
  103TMC2    O5 1614   1.321   2.538  13.379 -0.1491 -0.3591 -0.1766
  103TMC2    H5 1615   1.233   2.581  13.372 -0.5749 -0.8562  2.1046
  104MPD2     C 1616   1.356   2.291  12.671  0.8958  0.5725 -0.7803
  104MPD2    C1 1617   1.273   2.402  12.676  0.4825  0.3331 -0.1671
  104MPD2    C2 1618   1.198   2.432  12.570 -0.1844 -0.7265 -0.3608
  104MPD2    C3 1619   1.208   2.371  12.452  0.2991 -0.3807 -1.3190
  104MPD2    C4 1620   1.308   2.273  12.438 -0.1563  0.1094 -0.5380
  104MPD2    C5 1621   1.377   2.230  12.550 -0.0087  0.4665 -0.4124
  104MPD2     H 1622   1.104   2.485  12.586 -0.0703 -1.1580  1.6659
  104MPD2    H1 1623   1.328   2.219  12.346  0.2923  0.0244 -0.3947
  104MPD2    H2 1624   1.415   2.252  12.753 -0.7944 -1.9053 -0.7604
  104MPD2    H3 1625   1.457   2.157  12.554 -0.1002  0.4387  0.6952
  104MPD2     N 1626   1.116   2.375  12.343 -0.1220  0.3248 -0.9402
  104MPD2    H5 1627   1.134   2.315  12.263 -0.3075 -0.8447 -0.0955
  104MPD2    N1 1628   1.277   2.474  12.800  0.0913  0.1771  0.7286
  104MPD2    H7 1629   1.317   2.422  12.877 -0.4408  0.0088  0.8905
  105TMC2    C1 1630   2.751   2.463   0.555  0.0798  0.2547 -0.3636
  105TMC2    C2 1631   2.744   2.598   0.532 -0.8045  0.2143 -0.2234
  105TMC2    C3 1632   2.650   2.672   0.598 -0.0395 -0.1463 -0.6334
  105TMC2    C4 1633   2.668   2.407   0.652 -0.7136  0.8948 -0.1882
  105TMC2    C5 1634   2.583   2.485   0.718 -0.5807  0.3679 -0.6389
  105TMC2    C6 1635   2.575   2.621   0.702 -0.3458  0.6695 -0.5841
  105TMC2     C 1636   2.841   2.372   0.480  0.0905 -0.2582  0.5396
  105TMC2     O 1637   2.880   2.272   0.536 -0.2711 -0.5529 -0.3215
  105TMC2     H 1638   2.830   2.653   0.496 -0.2569 -0.0125  0.7432
  105TMC2    H1 1639   2.672   2.301   0.674  1.5989  1.1614  0.6932
  105TMC2    H2 1640   2.504   2.681   0.758  0.2669  0.5783  0.2819
  105TMC2    C7 1641   2.493   2.413   0.810 -0.4866 -0.6812 -0.1634
  105TMC2    C8 1642   2.644   2.816   0.575 -1.0080  0.4076 -0.5555
  105TMC2    O1 1643   2.497   2.296   0.807 -0.2666  0.1597 -0.1658
  105TMC2    O2 1644   2.586   2.892   0.649 -0.0733 -0.7056 -0.0500
  105TMC2    O5 1645   2.660   2.827   0.447 -1.1199  0.3373  0.1111
  105TMC2    H5 1646   2.667   2.736   0.411  2.5572  0.5700  0.2855
  106MPD2     C 1647   3.132   2.214   0.096 -0.1916 -0.0159 -0.3469
  106MPD2    C1 1648   3.076   2.336   0.062  0.8376  0.0553  0.0955
  106MPD2    C2 1649   2.998   2.398   0.156  0.5704  1.3224  0.1176
  106MPD2    C3 1650   2.976   2.344   0.282  0.0137 -0.1544 -0.0435
  106MPD2    C4 1651   3.023   2.218   0.311 -0.5610  0.3961  0.4851
  106MPD2    C5 1652   3.107   2.161   0.215  0.3610  0.0640 -0.0641
  106MPD2     H 1653   2.953   2.492   0.125  3.4604  2.5809 -0.2319
  106MPD2    H1 1654   3.015   2.161   0.404  0.7772 -1.5756 -0.6190
  106MPD2    H2 1655   3.212   2.173   0.036  1.0094  1.6761  0.1081
  106MPD2    H3 1656   3.145   2.062   0.234  0.6781 -0.2375 -2.2279
  106MPD2     N 1657   2.890   2.416   0.363  0.5388  0.2303  0.2778
  106MPD2    H5 1658   2.857   2.509   0.338 -2.0668 -1.1373 -1.3507
  106MPD2    N1 1659   3.105   2.400  17.679  0.4321 -0.1071  0.0613
  106MPD2    H7 1660   3.077   2.497  17.666 -0.9921 -0.5481 -0.0700
  107TMC2    C1 1661   3.125   1.528  11.549 -0.2847 -0.1094  0.9058
  107TMC2    C2 1662   3.064   1.434  11.614  0.0715 -0.1247 -0.4018
  107TMC2    C3 1663   2.996   1.340  11.537 -0.6204 -1.1079 -1.0571
  107TMC2    C4 1664   3.144   1.529  11.413 -0.1447 -0.3353  0.2406
  107TMC2    C5 1665   3.079   1.434  11.340 -0.7326  0.5701  0.3239
  107TMC2    C6 1666   2.996   1.343  11.402  0.2833  0.1386 -0.2399
  107TMC2     C 1667   3.115   1.659  11.609  0.2711 -0.3757  0.2295
  107TMC2     O 1668   3.084   1.668  11.726  0.2853  0.8653 -0.0737
  107TMC2     H 1669   3.044   1.429  11.721  0.7797  0.7679 -0.2270
  107TMC2    H1 1670   3.224   1.587  11.368  0.9330 -1.5675  0.5726
  107TMC2    H2 1671   2.924   1.287  11.343 -0.0869 -0.1290  0.4742
  107TMC2    C7 1672   3.065   1.451  11.201  0.0248 -0.4181 -0.0822
  107TMC2    C8 1673   2.925   1.235  11.614  0.5538 -1.0624  0.4499
  107TMC2    O1 1674   2.951   1.442  11.155  0.3201  0.3536  0.1304
  107TMC2    O2 1675   2.941   1.229  11.735 -0.0853  0.0703  0.5788
  107TMC2    O5 1676   2.899   1.131  11.535  0.2749  0.4434 -0.2390
  107TMC2    H5 1677   2.906   1.141  11.437  0.6152 -2.0979 -0.4926
  108MPD2     C 1678   3.140   1.986  11.439  0.6834  0.5176  0.3984
  108MPD2    C1 1679   3.128   1.903  11.550 -0.3316 -0.2216  0.5166
  108MPD2    C2 1680   3.098   1.960  11.675 -0.1786  0.0325 -0.1860
  108MPD2    C3 1681   3.088   2.104  11.685 -0.5238  0.1678  0.8674
  108MPD2    C4 1682   3.099   2.181  11.568  0.1252 -0.2652 -0.8201
  108MPD2    C5 1683   3.118   2.122  11.453  0.0753 -1.1310  0.1424
  108MPD2     H 1684   3.066   1.904  11.762  0.1847 -1.3288 -0.9266
  108MPD2    H1 1685   3.087   2.289  11.568 -0.2111 -0.3005 -0.7747
  108MPD2    H2 1686   3.156   1.945  11.340 -0.4452 -0.0117  0.4303
  108MPD2    H3 1687   3.121   2.179  11.361  1.8798 -1.5466 -0.0441
  108MPD2     N 1688   3.064   2.172  11.808  0.5066 -0.1965 -0.3431
  108MPD2    H5 1689   3.021   2.264  11.799 -2.0245 -1.5641 -2.3209
  108MPD2    N1 1690   3.144   1.765  11.522  0.3009 -0.8401  0.0984
  108MPD2    H7 1691   3.152   1.746  11.423  0.1614  0.2860 -0.1231
  109TMC2    C1 1692   2.332   0.250   1.522  0.1343 -0.2752  0.5567
  109TMC2    C2 1693   2.354   0.306   1.645 -0.2033 -0.1520 -0.0767
  109TMC2    C3 1694   2.485   0.296   1.688  0.0529  0.4047  0.8088
  109TMC2    C4 1695   2.428   0.167   1.458  0.2712  0.1993  0.3874
  109TMC2    C5 1696   2.554   0.164   1.510 -0.0202 -0.3936 -0.6563
  109TMC2    C6 1697   2.587   0.236   1.623 -0.0519 -0.9270 -0.0628
  109TMC2     C 1698   2.198   0.239   1.490  0.1958  0.0823  0.2130
  109TMC2     O 1699   2.122   0.258   1.582  0.0086  0.3885  0.5470
  109TMC2     H 1700   2.273   0.344   1.707 -1.4593  1.3844 -2.6760
  109TMC2    H1 1701   2.420   0.115   1.363  1.7543  0.2427  0.2286
  109TMC2    H2 1702   2.681   0.234   1.678 -0.4058 -0.7429  0.5475
  109TMC2    C7 1703   2.670   0.120   1.434  0.6161 -0.2438  0.4131
  109TMC2    C8 1704   2.519   0.409   1.773  0.1540 -0.0616  0.2028
  109TMC2    O1 1705   2.770   0.186   1.460  0.0856  0.3464 -0.3347
  109TMC2    O2 1706   2.457   0.513   1.776 -0.7539  0.9077  0.0080
  109TMC2    O5 1707   2.566   0.351   1.885  0.7742  0.0844  0.4786
  109TMC2    H5 1708   2.564   0.253   1.886  1.3854  0.0385 -1.8831
  110MPD2     C 1709   1.841   0.026   1.187  0.4901  0.0405  0.7297
  110MPD2    C1 1710   1.964   0.010   1.131 -0.2603  0.1629 -0.8012
  110MPD2    C2 1711   2.068   0.070   1.194 -0.6264  0.5191 -0.0143
  110MPD2    C3 1712   2.056   0.133   1.309  0.3959 -0.2448  0.3926
  110MPD2    C4 1713   1.930   0.151   1.363  0.3070  0.1500 -0.0484
  110MPD2    C5 1714   1.830   0.100   1.302 -0.1796  0.1597  0.1585
  110MPD2     H 1715   2.169   0.051   1.158 -0.2584  1.2489  0.6221
  110MPD2    H1 1716   1.920   0.185   1.466  0.4322  2.2133 -0.7169
  110MPD2    H2 1717   1.752   4.711   1.152  0.5764  0.9004 -0.7727
  110MPD2    H3 1718   1.729   0.105   1.342 -0.4543 -1.0351 -0.3529
  110MPD2     N 1719   2.171   0.176   1.371  0.1875  0.5036 -0.0163
  110MPD2    H5 1720   2.248   0.182   1.306 -0.2524 -0.5781 -0.6498
  110MPD2    N1 1721   1.976   4.674   1.012  0.1211 -0.4222 -0.2280
  110MPD2    H7 1722   1.891   4.638   0.970  1.1668 -3.4016  0.1882
  111TMC2    C1 1723   3.721   3.561  11.778  0.3380 -0.5308 -0.2599
  111TMC2    C2 1724   3.689   3.551  11.912 -0.6344 -0.9640  0.1860
  111TMC2    C3 1725   3.784   3.497  11.991 -0.2335 -0.1748 -0.2394
  111TMC2    C4 1726   3.838   3.508  11.724  0.1570  0.5659  0.0885
  111TMC2    C5 1727   3.926   3.450  11.811  0.6389  0.4748  0.2372
  111TMC2    C6 1728   3.893   3.433  11.941  0.1681 -0.4558  0.5434
  111TMC2     C 1729   3.619   3.598  11.689 -0.7232 -0.2917 -0.0544
  111TMC2     O 1730   3.645   3.633  11.576 -0.5920  0.1007  0.7112
  111TMC2     H 1731   3.602   3.602  11.951  0.7999 -0.1508  2.2875
  111TMC2    H1 1732   3.846   3.518  11.616 -0.8576  1.9467  0.1555
  111TMC2    H2 1733   3.970   3.400  12.010 -0.6984 -1.7136  0.8833
  111TMC2    C7 1734   4.058   3.393  11.782  0.0215 -1.4124  0.9729
  111TMC2    C8 1735   3.727   3.470  12.119  0.8163 -0.9574 -0.3941
  111TMC2    O1 1736   4.099   3.297  11.847  0.5792  0.1641 -0.2518
  111TMC2    O2 1737   3.643   3.533  12.177 -0.4237  1.0102  0.6686
  111TMC2    O5 1738   3.741   3.340  12.142 -1.0012  0.4753  0.3418
  111TMC2    H5 1739   3.781   3.285  12.072 -0.7675  2.2253 -0.9176
  112MPD2     C 1740   3.119   3.696  11.558 -0.2214  0.4225 -0.3422
  112MPD2    C1 1741   3.238   3.748  11.521 -0.5500  0.2690  0.2386
  112MPD2    C2 1742   3.368   3.701  11.567 -0.2287 -0.0244  0.4160
  112MPD2    C3 1743   3.367   3.606  11.663 -0.2026 -0.5342  0.5981
  112MPD2    C4 1744   3.249   3.563  11.711 -1.1011 -0.7675 -0.0937
  112MPD2    C5 1745   3.126   3.602  11.659 -0.0868 -0.1332  0.3803
  112MPD2     H 1746   3.454   3.758  11.534 -0.7904  0.0914 -0.8374
  112MPD2    H1 1747   3.244   3.507  11.803  1.7571  0.4882  0.8210
  112MPD2    H2 1748   3.024   3.730  11.518 -0.4582  1.5096  1.1482
  112MPD2    H3 1749   3.033   3.582  11.710 -0.9085 -0.9446 -1.4694
  112MPD2     N 1750   3.488   3.571  11.738  0.4209  0.6173  0.8156
  112MPD2    H5 1751   3.480   3.509  11.818  1.2538 -4.2291 -2.8561
  112MPD2    N1 1752   3.238   3.864  11.439 -0.2691  0.3251 -0.1799
  112MPD2    H7 1753   3.327   3.905  11.410  0.4080  0.3020  1.8454
  113TMC2    C1 1754   1.187   1.422   0.317 -0.5899  0.0123 -0.6226
  113TMC2    C2 1755   1.178   1.489   0.200  0.1252  0.2135  0.0397
  113TMC2    C3 1756   1.082   1.578   0.173  0.2912 -0.1583  0.1811
  113TMC2    C4 1757   1.078   1.428   0.405 -0.2723 -0.2820 -0.1779
  113TMC2    C5 1758   0.971   1.497   0.362 -0.2435 -0.5642 -0.4267
  113TMC2    C6 1759   0.974   1.583   0.255  0.0930 -0.4718  0.0445
  113TMC2     C 1760   1.309   1.371   0.373 -0.1124  0.4212  0.5490
  113TMC2     O 1761   1.314   1.334   0.493  0.0152  0.0761 -0.2496
  113TMC2     H 1762   1.263   1.486   0.134 -0.1425  0.3978 -0.3096
  113TMC2    H1 1763   1.081   1.378   0.501  0.3899 -1.6126 -0.8912
  113TMC2    H2 1764   0.892   1.650   0.232  1.0404  0.0751 -1.7262
  113TMC2    C7 1765   0.856   1.515   0.456 -0.3281 -0.0022  0.3584
  113TMC2    C8 1766   1.076   1.634   0.045 -0.2122 -0.6345 -0.5265
  113TMC2    O1 1767   0.793   1.617   0.453 -0.0582  0.5934  0.1641
  113TMC2    O2 1768   0.970   1.676  17.737  0.1883  0.2875 -1.0202
  113TMC2    O5 1769   1.193   1.659  17.728  0.3710 -0.0908  0.0569
  113TMC2    H5 1770   1.278   1.646   0.032  0.8081 -1.8065 -1.2043
  114MPD2     C 1771   1.823   1.332   0.333 -0.8973  0.5280 -0.2585
  114MPD2    C1 1772   1.733   1.338   0.445 -0.1607 -0.5412  0.1841
  114MPD2    C2 1773   1.598   1.345   0.430 -0.2344  0.1580 -0.4685
  114MPD2    C3 1774   1.545   1.345   0.306 -0.7099 -0.1680 -0.4603
  114MPD2    C4 1775   1.628   1.332   0.195 -0.1088  0.4200 -0.3262
  114MPD2    C5 1776   1.762   1.320   0.208 -0.4033 -0.2578  0.8127
  114MPD2     H 1777   1.532   1.358   0.516 -1.0972 -1.9262 -0.8094
  114MPD2    H1 1778   1.589   1.354   0.097  1.2368  1.8032 -0.5558
  114MPD2    H2 1779   1.931   1.324   0.341 -0.9437  1.7523  1.4530
  114MPD2    H3 1780   1.825   1.328   0.119 -1.1502  0.1610  0.3216
  114MPD2     N 1781   1.409   1.373   0.280  0.0013  0.1335 -0.2125
  114MPD2    H5 1782   1.389   1.383   0.181  1.9894  1.7019 -0.4598
  114MPD2    N1 1783   1.782   1.349   0.579  0.0288  0.2131 -0.4438
  114MPD2    H7 1784   1.714   1.357   0.654  1.0787  0.1608  0.5048
  115TMC2    C1 1785   2.006   4.432  17.647  0.0486  0.8455 -0.1600
  115TMC2    C2 1786   2.000   4.429   0.043  0.4314 -0.6003 -0.0361
  115TMC2    C3 1787   1.960   4.543   0.108 -1.0289  0.7840  0.0167
  115TMC2    C4 1788   1.982   4.549  17.583  1.1316 -0.5877 -0.0175
  115TMC2    C5 1789   1.939   4.654  17.649 -0.4047 -0.2758 -0.4632
  115TMC2    C6 1790   1.937   4.663   0.043 -0.0076  0.7497 -0.3322
  115TMC2     C 1791   1.964   4.313  17.585 -0.2453  0.2490  0.1701
  115TMC2     O 1792   1.991   4.300  17.465  0.3789  0.3850 -0.1265
  115TMC2     H 1793   2.040   4.344   0.098  0.4478  0.2105  1.1993
  115TMC2    H1 1794   1.967   4.541  17.476  0.5888 -0.6319  0.0651
  115TMC2    H2 1795   1.908   0.021   0.088 -1.3126  0.9067 -1.4949
  115TMC2    C7 1796   1.878   0.025  17.578  0.1626 -0.2182  0.1203
  115TMC2    C8 1797   1.899   4.521   0.235  0.0986 -0.0309  0.0353
  115TMC2    O1 1798   1.796   0.092  17.638  0.1021  0.3672 -0.6751
  115TMC2    O2 1799   1.880   4.405   0.273  0.1536  0.0601  0.3988
  115TMC2    O5 1800   1.899   4.639   0.307  0.3263  0.2122  0.0880
  115TMC2    H5 1801   1.951   4.709   0.260 -1.9400  0.5891 -1.8426
  116MPD2     C 1802   1.820   3.815  17.636  0.8575 -0.1821  0.1309
  116MPD2    C1 1803   1.895   3.873  17.542  0.2357  0.5210 -1.0092
  116MPD2    C2 1804   1.922   4.015  17.550  0.2862  0.5821  0.4939
  116MPD2    C3 1805   1.878   4.093  17.657  0.0536 -0.5374 -0.5877
  116MPD2    C4 1806   1.791   4.029   0.004  0.2405 -0.8186  0.1667
  116MPD2    C5 1807   1.767   3.898  17.733  0.0087 -0.1995 -0.3896
  116MPD2     H 1808   1.983   4.065  17.476  0.0477  0.6949  0.3712
  116MPD2    H1 1809   1.744   4.095   0.076 -0.0158  1.4293 -2.0377
  116MPD2    H2 1810   1.798   3.708  17.635  0.9809 -0.1734 -1.7476
  116MPD2    H3 1811   1.701   3.848   0.060  1.9777 -2.6488 -0.3030
  116MPD2     N 1812   1.904   4.226  17.678 -0.5573  0.3337  0.6286
  116MPD2    H5 1813   1.873   4.266   0.024  0.2568 -0.7664  1.4164
  116MPD2    N1 1814   1.934   3.787  17.435 -0.5541 -0.0411  0.4967
  116MPD2    H7 1815   1.898   3.692  17.438 -1.4047  0.2692  0.1426
  117TMC2    C1 1816   1.070   0.793  14.492 -0.5473  0.3631  0.3402
  117TMC2    C2 1817   1.204   0.771  14.505 -0.1107  0.4626 -0.4124
  117TMC2    C3 1818   1.293   0.876  14.505  0.5321 -0.1799  0.4316
  117TMC2    C4 1819   1.022   0.919  14.468 -0.0649 -0.5226  0.6907
  117TMC2    C5 1820   1.112   1.023  14.478 -0.4501  0.5573  0.6453
  117TMC2    C6 1821   1.252   1.006  14.493  0.4654 -0.0664  0.6576
  117TMC2     C 1822   1.006   0.693  14.399  0.5324  0.3723  0.1129
  117TMC2     O 1823   1.078   0.612  14.346 -0.2789 -0.1515  0.4108
  117TMC2     H 1824   1.247   0.673  14.494 -1.4001 -0.4037  2.2355
  117TMC2    H1 1825   0.917   0.945  14.475  0.1735  0.6874 -0.1195
  117TMC2    H2 1826   1.315   1.094  14.489 -2.7348  2.2722  1.7564
  117TMC2    C7 1827   1.077   1.142  14.407 -0.1546 -0.0588 -0.4572
  117TMC2    C8 1828   1.434   0.842  14.505  0.1179  0.0554  0.2884
  117TMC2    O1 1829   1.103   1.254  14.445 -0.0355 -0.0941  0.2284
  117TMC2    O2 1830   1.475   0.727  14.518 -0.5308  0.0700 -0.9169
  117TMC2    O5 1831   1.503   0.960  14.482  0.1042  0.1183  0.4470
  117TMC2    H5 1832   1.601   0.952  14.491  0.0890 -0.1993  0.3276
  118MPD2     C 1833   0.824   1.179  14.140  0.4142  0.4010 -0.1429
  118MPD2    C1 1834   0.915   1.218  14.231  1.3599 -0.2724  0.5365
  118MPD2    C2 1835   0.927   1.359  14.240  0.0955  0.1412 -0.3021
  118MPD2    C3 1836   0.857   1.447  14.153 -0.3716 -0.3894 -0.3132
  118MPD2    C4 1837   0.751   1.394  14.081  0.2403 -0.0715  0.6526
  118MPD2    C5 1838   0.747   1.262  14.058  0.2815 -0.0654  0.3839
  118MPD2     H 1839   0.993   1.405  14.312  0.3544 -1.2327  0.3476
  118MPD2    H1 1840   0.697   1.455  14.011  1.6383  1.4075  0.8653
  118MPD2    H2 1841   0.823   1.072  14.118  0.7230 -0.0146  1.9098
  118MPD2    H3 1842   0.683   1.232  13.976  0.6523 -0.4926  0.2458
  118MPD2     N 1843   0.857   1.587  14.156  0.7723  0.2585  0.6694
  118MPD2    H5 1844   0.792   1.627  14.089 -0.7681 -2.0402  0.7728
  118MPD2    N1 1845   0.989   1.118  14.307 -0.1359 -0.0518  0.0088
  118MPD2    H7 1846   0.957   1.023  14.293 -1.8099  0.0866  2.7970
  119TMC2    C1 1847   3.383   1.811  13.295 -1.2756 -0.3557 -0.7666
  119TMC2    C2 1848   3.342   1.751  13.182  0.0021  0.3416  0.0676
  119TMC2    C3 1849   3.227   1.685  13.183 -0.0428  0.2899 -0.0960
  119TMC2    C4 1850   3.306   1.804  13.404  0.0753 -0.2542 -0.2219
  119TMC2    C5 1851   3.182   1.747  13.400  0.1438  0.9510  0.3382
  119TMC2    C6 1852   3.139   1.690  13.283 -0.2843  0.5038 -0.9378
  119TMC2     C 1853   3.491   1.904  13.302 -0.0373 -0.4521  0.7200
  119TMC2     O 1854   3.529   1.918  13.418 -0.3487 -0.5644  0.3186
  119TMC2     H 1855   3.420   1.740  13.107  0.4301  0.2146  0.5338
  119TMC2    H1 1856   3.337   1.844  13.500  0.0516 -1.1423  0.1557
  119TMC2    H2 1857   3.051   1.627  13.274 -0.1124 -0.2733  3.0451
  119TMC2    C7 1858   3.071   1.805  13.465 -0.0184  0.0235  0.0325
  119TMC2    C8 1859   3.208   1.582  13.088 -0.1597  1.0533  0.1491
  119TMC2    O1 1860   2.973   1.819  13.393 -0.1890  0.1887  0.0790
  119TMC2    O2 1861   3.309   1.526  13.046 -0.0052 -0.3524  0.1673
  119TMC2    O5 1862   3.084   1.583  13.028 -0.0016 -0.2234  0.3759
  119TMC2    H5 1863   3.021   1.642  13.074  1.0842  0.7107  0.6805
  120MPD2     C 1864   3.811   2.271  13.181  0.1999 -0.1080 -0.1044
  120MPD2    C1 1865   3.729   2.253  13.281 -0.2947  0.1353  0.6551
  120MPD2    C2 1866   3.636   2.147  13.282  0.4739 -0.5470 -0.3889
  120MPD2    C3 1867   3.624   2.056  13.178  0.1706 -0.3779  0.6036
  120MPD2    C4 1868   3.708   2.077  13.073  0.3161 -0.2549 -0.7803
  120MPD2    C5 1869   3.800   2.179  13.074 -0.0649 -0.1232  0.7044
  120MPD2     H 1870   3.582   2.131  13.374  0.9217 -0.8494 -0.1820
  120MPD2    H1 1871   3.710   2.013  12.985 -1.3249 -0.7536 -0.4393
  120MPD2    H2 1872   3.878   2.355  13.179 -0.1092  0.1262 -0.8427
  120MPD2    H3 1873   3.869   2.187  12.991 -1.5850  2.7011 -0.2721
  120MPD2     N 1874   3.532   1.950  13.182 -0.0757 -0.2656 -0.4747
  120MPD2    H5 1875   3.504   1.910  13.094  1.3415 -0.6718 -0.7406
  120MPD2    N1 1876   3.716   2.341  13.388 -0.8381  0.1844 -0.6013
  120MPD2    H7 1877   3.651   2.304  13.457  0.5295  0.0185  0.5988
  121TMC2    C1 1878   0.768   3.861  14.196 -0.8262 -0.5516  0.2036
  121TMC2    C2 1879   0.854   3.842  14.295  0.4100 -0.2731  0.3894
  121TMC2    C3 1880   0.897   3.715  14.324 -0.4616  0.2220  0.4449
  121TMC2    C4 1881   0.711   3.756  14.120  0.3248  0.2091  0.8443
  121TMC2    C5 1882   0.751   3.630  14.164 -0.0619 -0.6602 -0.6366
  121TMC2    C6 1883   0.837   3.605  14.266 -0.0265 -0.2167 -0.1093
  121TMC2     C 1884   0.749   3.998  14.154 -0.0156  0.1466  0.4731
  121TMC2     O 1885   0.758   4.081  14.242  0.1406 -0.2260  0.1881
  121TMC2     H 1886   0.907   3.929  14.330 -0.1720 -0.3910  1.5582
  121TMC2    H1 1887   0.647   3.768  14.033 -1.4498 -0.8879  1.9782
  121TMC2    H2 1888   0.873   3.504  14.283  1.3213  0.1929 -0.4746
  121TMC2    C7 1889   0.697   3.513  14.100  0.2421 -0.4018 -0.4762
  121TMC2    C8 1890   1.010   3.708  14.416 -0.6700 -0.2298  0.0610
  121TMC2    O1 1891   0.768   3.416  14.089  0.2997  0.0948  0.3491
  121TMC2    O2 1892   1.094   3.794  14.428  0.2772  0.1973  0.6640
  121TMC2    O5 1893   1.008   3.580  14.459 -0.3326 -0.0439  0.0530
  121TMC2    H5 1894   0.924   3.540  14.428 -1.0612 -0.2064  2.2368
  122MPD2     C 1895   0.705   4.250  14.008  0.0832 -0.2803 -0.0001
  122MPD2    C1 1896   0.687   4.130  13.947  0.0566 -0.0898  0.5081
  122MPD2    C2 1897   0.652   4.125  13.816 -0.8956  0.7427 -0.7094
  122MPD2    C3 1898   0.632   4.235  13.741 -0.3963 -0.0083  0.6426
  122MPD2    C4 1899   0.647   4.360  13.805 -0.1084 -0.1509 -0.1909
  122MPD2    C5 1900   0.688   4.363  13.933 -0.2042  0.1846 -0.8537
  122MPD2     H 1901   0.650   4.028  13.768  1.7224  0.7268 -0.7784
  122MPD2    H1 1902   0.647   4.452  13.748 -0.3520 -1.6809 -2.6661
  122MPD2    H2 1903   0.740   4.254  14.110  0.7151  2.3543 -0.3066
  122MPD2    H3 1904   0.690   4.459  13.985 -0.4472 -0.5409  0.5113
  122MPD2     N 1905   0.596   4.243  13.605  0.6186  0.0857  0.2058
  122MPD2    H5 1906   0.567   4.335  13.575  2.9045  0.6521 -0.2262
  122MPD2    N1 1907   0.709   4.009  14.022  0.2134  0.3337  0.5769
  122MPD2    H7 1908   0.700   3.925  13.965 -1.7077  0.9157  0.0237
  123TMC2    C1 1909   4.622   2.061   9.821 -0.2909  0.1929  0.5314
  123TMC2    C2 1910   0.019   2.033   9.784 -0.4043  0.1075 -0.2633
  123TMC2    C3 1911   0.045   1.905   9.772  0.0016 -0.0019 -0.6796
  123TMC2    C4 1912   4.522   1.970   9.820  0.4034 -0.4180 -0.2745
  123TMC2    C5 1913   4.555   1.845   9.789  0.0757  0.2449  0.4060
  123TMC2    C6 1914   4.681   1.812   9.769 -0.4515 -1.0466 -0.6484
  123TMC2     C 1915   4.596   2.201   9.839  0.5629  0.0059  0.5582
  123TMC2     O 1916   4.689   2.273   9.863 -0.3080  0.1958  0.0372
  123TMC2     H 1917   0.099   2.100   9.813 -0.8330  0.7874 -0.6701
  123TMC2    H1 1918   4.422   1.993   9.853 -0.0230  0.6521 -2.3276
  123TMC2    H2 1919   4.718   1.715   9.740  2.0935 -0.2998  0.1075
  123TMC2    C7 1920   4.445   1.747   9.770 -0.6071 -0.2645  0.2800
  123TMC2    C8 1921   0.177   1.856   9.739 -0.5249  0.3820  0.6074
  123TMC2    O1 1922   4.335   1.793   9.776  0.2483 -1.1361 -0.0393
  123TMC2    O2 1923   0.201   1.738   9.717  0.5316  0.0838 -0.1531
  123TMC2    O5 1924   0.247   1.963   9.696  0.2912  0.1789 -0.4096
  123TMC2    H5 1925   0.212   2.055   9.693 -1.4683 -0.4963 -0.2354
  124MPD2     C 1926   4.243   2.574   9.774 -0.3683 -0.1907 -0.4798
  124MPD2    C1 1927   4.193   2.451   9.733 -0.1567 -0.1306  0.2797
  124MPD2    C2 1928   4.270   2.339   9.744  0.0312  0.2913 -0.2883
  124MPD2    C3 1929   4.401   2.352   9.780  0.4779 -0.2928 -0.5832
  124MPD2    C4 1930   4.452   2.475   9.812 -0.3805  0.2692  0.4840
  124MPD2    C5 1931   4.371   2.590   9.812 -0.1239 -0.3449 -0.3978
  124MPD2     H 1932   4.228   2.242   9.720 -0.1859 -0.2908  2.4426
  124MPD2    H1 1933   4.555   2.494   9.839 -0.2356 -0.0165  0.1236
  124MPD2    H2 1934   4.176   2.658   9.788  0.9752  1.2619 -2.7259
  124MPD2    H3 1935   4.407   2.684   9.852  0.4158  0.7126 -3.3212
  124MPD2     N 1936   4.467   2.230   9.786  0.8100 -0.0532 -0.5246
  124MPD2    H5 1937   4.415   2.154   9.744  1.8022  0.3923 -2.5865
  124MPD2    N1 1938   4.049   2.441   9.708  0.4734 -0.9523 -0.2238
  124MPD2    H7 1939   3.996   2.523   9.736  0.5654 -0.2618 -2.0429
  125TMC2    C1 1940   4.717   4.327   9.987  0.0601  0.4957  0.2721
  125TMC2    C2 1941   4.708   4.422  10.091 -0.3899  0.6533  0.4338
  125TMC2    C3 1942   0.081   4.424  10.177 -0.1275 -0.7145  0.2399
  125TMC2    C4 1943   0.094   4.258   9.953  0.2271  0.0755 -0.0799
  125TMC2    C5 1944   0.206   4.291  10.023  0.2091  0.7868 -0.3332
  125TMC2    C6 1945   0.201   4.379  10.126 -0.1121 -0.2849  0.3587
  125TMC2     C 1946   4.600   4.244   9.956 -0.0948  0.1730 -0.5165
  125TMC2     O 1947   4.607   4.188   9.848 -0.0953 -0.2707 -0.1725
  125TMC2     H 1948   4.615   4.467  10.123  1.0026  2.2445  2.2494
  125TMC2    H1 1949   0.095   4.194   9.866  1.2700  0.7895 -0.5876
  125TMC2    H2 1950   0.294   4.400  10.177  1.0277  0.6402 -2.1224
  125TMC2    C7 1951   0.332   4.267   9.962  0.1671  0.1527  0.1018
  125TMC2    C8 1952   0.096   4.535  10.275 -0.1467 -0.3324  0.4157
  125TMC2    O1 1953   0.417   4.353   9.981  0.1827  0.1908 -0.0718
  125TMC2    O2 1954   0.184   4.618  10.269  0.3291 -0.2078 -0.0064
  125TMC2    O5 1955   4.708   4.552  10.333 -0.0866 -0.3974  0.1954
  125TMC2    H5 1956   4.663   4.466  10.320 -1.5165  0.3626  0.1529
  126MPD1     C 1957   4.185   4.000  10.057 -0.6585 -0.0007  0.6632
  126MPD1    C1 1958   4.254   4.024  10.176  0.3479 -0.1110  0.5502
  126MPD1    C2 1959   4.359   4.114  10.170  0.1695  0.0209  0.1912
  126MPD1    C3 1960   4.404   4.149  10.051  0.3831  0.3879 -0.1516
  126MPD1    C4 1961   4.345   4.114   9.935  0.0361 -0.4465 -0.3258
  126MPD1    C5 1962   4.228   4.047   9.938  0.0853  0.3501 -0.5458
  126MPD1     H 1963   4.393   4.159  10.262 -1.3235  0.0704  0.7269
  126MPD1    H1 1964   4.379   4.144   9.836 -0.6070 -1.7432 -0.9423
  126MPD1    H2 1965   4.103   3.929  10.064  1.0880 -1.9302  1.6542
  126MPD1    H3 1966   4.182   4.024   9.843 -0.4344  0.0853 -0.2331
  126MPD1     N 1967   4.513   4.234  10.055  0.4712  0.0459 -0.0027
  126MPD1    H5 1968   4.533   4.281  10.143 -0.0947 -1.1662  0.7656
  126MPD1    N1 1969   4.189   3.996  10.303  0.1705  0.0467  0.1006
  126MPD1    H6 1970   4.139   3.908  10.304  1.6431 -0.7831  0.6916
  126MPD1    H7 1971   4.260   3.989  10.375 -1.6039 -1.2016  1.7165
  127TMC2    C1 1972   0.901   2.512   9.645 -0.4144  0.1340 -0.0506
  127TMC2    C2 1973   1.024   2.463   9.683 -0.0631 -0.5152 -1.0165
  127TMC2    C3 1974   1.048   2.450   9.814 -0.0177  0.2983  0.3202
  127TMC2    C4 1975   0.804   2.533   9.730 -0.0125  0.3037 -0.8385
  127TMC2    C5 1976   0.828   2.508   9.862 -0.1854 -0.0865 -0.5751
  127TMC2    C6 1977   0.952   2.472   9.906  0.7011 -0.0928  0.0396
  127TMC2     C 1978   0.884   2.521   9.496  0.4889  0.3607  0.0963
  127TMC2     O 1979   0.985   2.499   9.430  0.1506 -0.0471 -0.1068
  127TMC2     H 1980   1.106   2.453   9.614 -0.7809  0.5615 -2.0299
  127TMC2    H1 1981   0.712   2.578   9.695 -1.1439 -0.8052  0.7523
  127TMC2    H2 1982   0.970   2.480  10.013 -0.1854  0.0649  0.1736
  127TMC2    C7 1983   0.720   2.547   9.956  1.1116 -0.3404 -0.4488
  127TMC2    C8 1984   1.180   2.416   9.862  0.0292  0.8127 -0.0543
  127TMC2    O1 1985   0.635   2.625   9.913  0.2607 -0.7534 -0.1233
  127TMC2    O2 1986   1.281   2.430   9.796  0.3770 -0.5319  0.0523
  127TMC2    O5 1987   1.169   2.310   9.950 -0.0682  0.5658  0.0799
  127TMC2    H5 1988   1.084   2.296   9.997  0.9300  0.7091  1.9200
  128MPD2     C 1989   0.560   2.551   9.326 -0.5232  0.5382 -0.9855
  128MPD2    C1 1990   0.700   2.542   9.337 -0.2733 -0.2213 -0.8344
  128MPD2    C2 1991   0.780   2.595   9.236 -0.7960 -0.1582  0.2916
  128MPD2    C3 1992   0.723   2.652   9.125  0.0219 -0.2786  0.4120
  128MPD2    C4 1993   0.580   2.650   9.110 -0.3624 -0.0928  0.8498
  128MPD2    C5 1994   0.500   2.601   9.214  0.2780 -0.6186 -0.3780
  128MPD2     H 1995   0.885   2.611   9.255 -0.8772  1.3813 -0.5398
  128MPD2    H1 1996   0.533   2.704   9.029 -2.3023 -1.3627  1.1265
  128MPD2    H2 1997   0.488   2.515   9.398  1.6598 -1.6507  0.0975
  128MPD2    H3 1998   0.392   2.610   9.211  0.2790  0.1322  1.3863
  128MPD2     N 1999   0.806   2.705   9.023  0.2059  0.5018  0.0396
  128MPD2    H5 2000   0.904   2.720   9.045  1.0855  0.5038 -3.9693
  128MPD2    N1 2001   0.749   2.501   9.461  0.5391 -0.3822  0.1049
  128MPD2    H7 2002   0.679   2.489   9.533  1.9385 -2.3197  1.1343
  129TMC2    C1 2003   3.323   2.817   1.179  0.7881  0.6807  0.4646
  129TMC2    C2 2004   3.278   2.691   1.201  0.5743  1.3087  0.1099
  129TMC2    C3 2005   3.145   2.670   1.228 -0.5474 -0.0122 -0.5423
  129TMC2    C4 2006   3.236   2.921   1.172 -0.1448 -0.7990 -0.1585
  129TMC2    C5 2007   3.106   2.897   1.203 -0.7185  0.2950  0.2766
  129TMC2    C6 2008   3.056   2.777   1.239 -0.3100 -0.0343 -0.0018
  129TMC2     C 2009   3.455   2.829   1.120 -0.0524  0.1397 -0.1086
  129TMC2     O 2010   3.523   2.722   1.119  0.1675  0.2524  0.1849
  129TMC2     H 2011   3.349   2.610   1.200 -1.3592 -0.3974  0.7781
  129TMC2    H1 2012   3.264   3.025   1.160 -4.3000  0.2061 -1.3461
  129TMC2    H2 2013   2.952   2.757   1.259  0.0754 -0.1044  1.9313
  129TMC2    C7 2014   3.012   3.005   1.199  0.2964  0.0915 -0.5132
  129TMC2    C8 2015   3.103   2.537   1.262  0.3300  0.3533 -0.3690
  129TMC2    O1 2016   2.903   2.965   1.163 -0.1971 -0.3554  0.2670
  129TMC2    O2 2017   3.008   2.508   1.335 -0.0923 -0.0554 -0.1247
  129TMC2    O5 2018   3.166   2.449   1.187 -0.2022 -0.0354 -0.5185
  129TMC2    H5 2019   3.223   2.488   1.117 -0.7002 -1.4135 -1.6758
  130MPD2     C 2020   3.709   2.910   1.005 -0.0022  0.1800  0.7143
  130MPD2    C1 2021   3.598   2.996   1.009 -0.0889  0.3637 -0.6290
  130MPD2    C2 2022   3.611   3.131   0.973 -0.3420 -0.6411  0.4436
  130MPD2    C3 2023   3.723   3.169   0.905  0.0550  0.7826 -0.5480
  130MPD2    C4 2024   3.826   3.080   0.876  0.2708 -0.1337 -0.0576
  130MPD2    C5 2025   3.819   2.960   0.932  0.1573 -0.2728 -0.5262
  130MPD2     H 2026   3.527   3.193   1.003 -1.7286 -2.6923  0.7906
  130MPD2    H1 2027   3.911   3.099   0.810 -0.3942  1.7423 -0.3949
  130MPD2    H2 2028   3.713   2.809   1.044  0.5543 -0.7363 -1.7178
  130MPD2    H3 2029   3.903   2.893   0.914  0.9033  0.2938  0.7566
  130MPD2     N 2030   3.725   3.304   0.853  0.3123 -0.0839  0.0274
  130MPD2    H5 2031   3.643   3.364   0.865 -1.4421 -2.3225 -0.7750
  130MPD2    N1 2032   3.478   2.956   1.074 -0.6186 -0.8205 -0.9727
  130MPD2    H7 2033   3.406   3.027   1.084 -0.1185 -0.2238 -1.6361
  131TMC2    C1 2034   3.875   2.967  10.440  0.0792  0.0385  0.4080
  131TMC2    C2 2035   3.786   3.049  10.494  0.3372  0.3937 -0.3813
  131TMC2    C3 2036   3.839   3.140  10.581  0.7741 -0.6668  0.0032
  131TMC2    C4 2037   4.008   2.962  10.469  0.2502 -0.7591  0.2218
  131TMC2    C5 2038   4.060   3.062  10.547 -0.4448  0.0114  0.0836
  131TMC2    C6 2039   3.976   3.147  10.600  0.7251  0.4701  0.2601
  131TMC2     C 2040   3.835   2.858  10.354  0.5229  0.0046  0.5335
  131TMC2     O 2041   3.916   2.818  10.269  0.5749  0.5235 -0.4745
  131TMC2     H 2042   3.686   3.046  10.452 -0.3706 -1.9040  1.4594
  131TMC2    H1 2043   4.077   2.892  10.422  2.5705  0.1439  2.3081
  131TMC2    H2 2044   4.020   3.229  10.655 -1.4782  1.5069  0.5048
  131TMC2    C7 2045   4.201   3.082  10.547 -0.4025 -0.6655 -0.3981
  131TMC2    C8 2046   3.761   3.207  10.681  0.0817  0.4628  0.3293
  131TMC2    O1 2047   4.268   2.985  10.582  0.0227  0.0472 -0.2985
  131TMC2    O2 2048   3.792   3.315  10.725  0.3331  0.1641  0.1106
  131TMC2    O5 2049   3.627   3.182  10.674 -0.3050 -0.0409  0.0421
  131TMC2    H5 2050   3.606   3.089  10.653  0.1083 -0.0870 -0.1747
  132MPD2     C 2051   3.531   2.653  10.382 -0.1505  0.0801 -1.0632
  132MPD2    C1 2052   3.648   2.692  10.330  0.1727  0.5353  0.0531
  132MPD2    C2 2053   3.700   2.625  10.220  0.2039  0.1286  0.8115
  132MPD2    C3 2054   3.623   2.530  10.156  0.6280 -0.3798  0.2833
  132MPD2    C4 2055   3.504   2.485  10.218 -1.1774  0.3870  0.0575
  132MPD2    C5 2056   3.458   2.555  10.329 -0.3231 -1.0840  0.0232
  132MPD2     H 2057   3.796   2.656  10.180  0.0949 -0.5024  0.0674
  132MPD2    H1 2058   3.434   2.430  10.156 -1.5192 -0.2954  1.0539
  132MPD2    H2 2059   3.489   2.706  10.466  1.1390  1.7028 -1.4309
  132MPD2    H3 2060   3.358   2.536  10.367 -0.4688 -2.0486 -0.8347
  132MPD2     N 2061   3.674   2.474  10.030  0.0427  0.5113 -0.6183
  132MPD2    H5 2062   3.759   2.522  10.002  1.4192 -1.4323  0.2991
  132MPD2    N1 2063   3.719   2.802  10.394 -0.3187 -0.1655  0.1805
  132MPD2    H7 2064   3.670   2.835  10.477 -2.9553 -1.3793 -0.8788
  133TMC2    C1 2065   3.499   4.522   9.708  0.3964  0.9317 -0.0607
  133TMC2    C2 2066   3.592   4.470   9.794  0.4375  0.4079  0.1695
  133TMC2    C3 2067   3.650   4.562   9.877  0.0607 -0.1036 -0.1280
  133TMC2    C4 2068   3.471   4.658   9.696 -0.3326  0.6492  0.4351
  133TMC2    C5 2069   3.532   0.009   9.779 -0.5523  0.6009 -0.4787
  133TMC2    C6 2070   3.625   4.701   9.870  0.7594 -0.5716  0.2170
  133TMC2     C 2071   3.423   4.427   9.632 -0.5641  0.3220  0.4580
  133TMC2     O 2072   3.417   4.313   9.667 -0.6493  0.0899  0.2458
  133TMC2     H 2073   3.625   4.367   9.788  0.1172  0.2376  1.3027
  133TMC2    H1 2074   3.375   4.690   9.657  0.3625 -0.4594 -2.2107
  133TMC2    H2 2075   3.683   0.042   9.919 -1.0569  1.1722 -0.4037
  133TMC2    C7 2076   3.498   0.153   9.787 -0.4267 -0.1441 -0.2360
  133TMC2    C8 2077   3.768   4.525   9.930 -0.0307  0.2679 -0.7972
  133TMC2    O1 2078   3.524   0.220   9.885 -0.1596 -0.1253 -0.4116
  133TMC2    O2 2079   3.824   4.417   9.901  0.0889  0.2160  0.2391
  133TMC2    O5 2080   3.819   4.623  10.007  0.0135 -1.2993  0.7235
  133TMC2    H5 2081   3.752   4.674  10.058  0.4957  0.9355 -0.8897
  134MPD2     C 2082   3.251   4.514   9.322  0.5536  0.5015  0.5650
  134MPD2    C1 2083   3.286   4.430   9.425  0.4651  0.2144  1.3489
  134MPD2    C2 2084   3.236   4.303   9.434  0.0723  0.1217  0.5046
  134MPD2    C3 2085   3.166   4.253   9.321  0.8254 -0.3897 -0.1496
  134MPD2    C4 2086   3.123   4.342   9.228  0.4389 -0.2622 -0.5948
  134MPD2    C5 2087   3.168   4.470   9.228 -0.2126  0.0826 -0.1136
  134MPD2     H 2088   3.246   4.245   9.524 -0.2363 -0.7353 -0.0173
  134MPD2    H1 2089   3.068   4.312   9.140 -0.5650  1.1875 -0.4631
  134MPD2    H2 2090   3.279   4.619   9.324  0.8112  0.3942  2.5846
  134MPD2    H3 2091   3.130   4.532   9.147 -0.3374  1.2514  0.8295
  134MPD2     N 2092   3.130   4.119   9.310  0.6586 -0.3969 -0.0684
  134MPD2    H5 2093   3.076   4.099   9.226  0.6172  1.5817 -0.5023
  134MPD2    N1 2094   3.366   4.490   9.524 -0.8801  0.4868  0.6316
  134MPD2    H7 2095   3.393   4.584   9.496 -0.6135  0.6124  1.2947
  135TMC2    C1 2096   1.407   4.491   9.493 -0.1815  0.1940  0.1269
  135TMC2    C2 2097   1.327   4.531   9.601 -0.5740  0.1087 -0.0707
  135TMC2    C3 2098   1.226   4.450   9.648  0.4223  0.3880  0.6091
  135TMC2    C4 2099   1.385   4.369   9.439  0.6292  0.2830 -0.9491
  135TMC2    C5 2100   1.287   4.289   9.492 -0.3709 -0.4802  0.0846
  135TMC2    C6 2101   1.203   4.329   9.594  0.3607 -0.0699  0.5362
  135TMC2     C 2102   1.506   4.586   9.436 -0.4092  0.3083  0.4086
  135TMC2     O 2103   1.483   4.700   9.467 -0.1220  0.5523 -0.0764
  135TMC2     H 2104   1.343   4.627   9.648 -0.6330 -0.2368  0.6648
  135TMC2    H1 2105   1.451   4.325   9.365  0.7120  2.7072 -2.3359
  135TMC2    H2 2106   1.135   4.265   9.650 -0.2280  0.4130  0.3746
  135TMC2    C7 2107   1.257   4.168   9.416 -0.3365  0.0961  1.3038
  135TMC2    C8 2108   1.143   4.502   9.754  0.1208 -0.4880  0.3922
  135TMC2    O1 2109   1.334   4.116   9.334  0.4053 -0.9479 -0.2192
  135TMC2    O2 2110   1.117   4.434   9.849  0.3824 -0.3629  0.8362
  135TMC2    O5 2111   1.131   4.636   9.746 -0.1476 -0.2609  0.4176
  135TMC2    H5 2112   1.125   4.670   9.654 -0.0964 -1.2754  0.0380
  136MPD2     C 2113   1.707   4.734   9.270  0.7196 -0.6463  0.1045
  136MPD2    C1 2114   1.713   4.599   9.303 -0.2251 -0.0597 -0.0101
  136MPD2    C2 2115   1.825   4.523   9.282 -0.0417  0.2863 -0.7319
  136MPD2    C3 2116   1.937   4.582   9.226 -0.2441  0.7677 -0.4829
  136MPD2    C4 2117   1.936   4.722   9.207 -0.4376 -0.2102 -0.4136
  136MPD2    C5 2118   1.821   0.060   9.234 -0.0376 -0.5034 -0.2098
  136MPD2     H 2119   1.823   4.418   9.308  1.6583  0.8090  1.5271
  136MPD2    H1 2120   2.019   0.044   9.169 -1.8937  1.5455 -0.9179
  136MPD2    H2 2121   1.620   0.062   9.278 -0.7555 -2.5757 -0.6577
  136MPD2    H3 2122   1.822   0.165   9.207  0.3816 -0.6641 -0.8122
  136MPD2     N 2123   2.048   4.497   9.191  0.4364 -0.0938  0.1362
  136MPD2    H5 2124   2.039   4.403   9.227 -1.2792  0.0775  0.1547
  136MPD2    N1 2125   1.609   4.528   9.362  0.6768  0.4789  0.5504
  136MPD2    H7 2126   1.622   4.428   9.372 -0.2101  0.1139 -2.1324
  137TMC2    C1 2127   0.036   3.409   9.079 -0.4154  0.0374 -0.3278
  137TMC2    C2 2128   4.711   3.344   8.973  0.2082  0.2042  0.2147
  137TMC2    C3 2129   4.593   3.401   8.931  0.7198  0.8203 -0.7710
  137TMC2    C4 2130   4.703   3.500   9.152 -0.3261  0.0487 -0.4761
  137TMC2    C5 2131   4.582   3.542   9.109  0.1812 -0.0443  0.1403
  137TMC2    C6 2132   4.531   3.504   8.990  0.1834 -0.3426 -0.6230
  137TMC2     C 2133   0.173   3.376   9.121  0.0526  0.4347 -0.6022
  137TMC2     O 2134   0.206   3.393   9.238 -0.3064  0.0700  0.4419
  137TMC2     H 2135   0.004   3.248   8.932 -1.0258 -0.1397  0.1479
  137TMC2    H1 2136   0.006   3.543   9.244 -1.4281 -0.4783  0.2293
  137TMC2    H2 2137   4.426   3.526   8.974  0.5058  0.6401 -1.3678
  137TMC2    C7 2138   4.532   3.676   9.156 -0.2206 -0.2791 -0.3595
  137TMC2    C8 2139   4.521   3.346   8.816  0.6771  0.7545 -0.2231
  137TMC2    O1 2140   4.489   3.753   9.074  0.5568  0.1497 -0.4177
  137TMC2    O2 2141   4.555   3.245   8.754  0.3556  0.0586 -0.5572
  137TMC2    O5 2142   4.514   3.461   8.744 -0.7385 -0.2896 -0.3860
  137TMC2    H5 2143   4.489   3.538   8.798  3.2279  0.2920  0.5914
  138MPD2     C 2144   0.400   3.216   8.876 -0.1571  0.0189 -0.0024
  138MPD2    C1 2145   0.354   3.247   9.000  0.4368  0.8942  0.2867
  138MPD2    C2 2146   0.409   3.185   9.115  0.4283  0.3254  0.0478
  138MPD2    C3 2147   0.525   3.115   9.107  0.3198 -0.1669  0.1192
  138MPD2    C4 2148   0.579   3.096   8.977 -0.7410  0.4064  0.0043
  138MPD2    C5 2149   0.511   3.134   8.866 -0.6529 -0.0769  0.1674
  138MPD2     H 2150   0.360   3.191   9.212 -1.5203  1.5335 -1.0201
  138MPD2    H1 2151   0.669   3.037   8.969  0.1456  1.7595  0.0196
  138MPD2    H2 2152   0.353   3.264   8.792  0.0684  1.8422  0.9120
  138MPD2    H3 2153   0.558   3.114   8.770  3.0743  4.8348  0.9388
  138MPD2     N 2154   0.584   3.065   9.229 -0.3848  0.1018  0.5850
  138MPD2    H5 2155   0.544   3.089   9.319  1.2655  1.2642  1.0091
  138MPD2    N1 2156   0.238   3.323   9.008  0.3260  0.9093  0.3872
  138MPD2    H7 2157   0.203   3.360   8.920 -1.2089  0.1693  0.6949
  139TMC2    C1 2158   0.176   1.748  13.466  0.4459 -0.0471  0.3454
  139TMC2    C2 2159   0.134   1.706  13.339  0.3991  0.0479  0.3977
  139TMC2    C3 2160   0.005   1.731  13.300 -0.3254 -0.1079  0.1884
  139TMC2    C4 2161   0.088   1.799  13.558  0.3455  0.4086 -0.1718
  139TMC2    C5 2162   4.695   1.825  13.506 -0.0044  0.1006  0.1708
  139TMC2    C6 2163   4.652   1.797  13.382 -0.2849  0.0641  0.0629
  139TMC2     C 2164   0.313   1.743  13.501  0.3281 -0.0207  0.6613
  139TMC2     O 2165   0.378   1.650  13.467 -0.1281  0.1664  0.4204
  139TMC2     H 2166   0.196   1.645  13.275  1.6437 -0.1400  1.7923
  139TMC2    H1 2167   0.117   1.823  13.660 -0.4328  0.0062  0.1455
  139TMC2    H2 2168   4.561   1.840  13.341 -0.9599 -0.0761  1.4308
  139TMC2    C7 2169   4.598   1.897  13.585  0.0443  0.4674 -0.7309
  139TMC2    C8 2170   4.680   1.664  13.182  0.2484 -0.0690  0.0686
  139TMC2    O1 2171   4.509   1.954  13.519 -0.4381 -0.2707 -0.5749
  139TMC2    O2 2172   0.007   1.612  13.088 -0.2608 -0.1766  1.1673
  139TMC2    O5 2173   4.545   1.680  13.187  0.1008 -0.1289  0.0547
  139TMC2    H5 2174   4.502   1.700  13.273  0.0077 -0.3584  0.0604
  140MPD2     C 2175   0.474   1.956  13.754  0.3347  0.3459  0.4575
  140MPD2    C1 2176   0.472   1.865  13.656  0.1253  0.0692  0.2640
  140MPD2    C2 2177   0.584   1.799  13.620  0.2380 -0.0346  0.0314
  140MPD2    C3 2178   0.706   1.810  13.691  0.2111  0.3904 -0.2817
  140MPD2    C4 2179   0.708   1.909  13.781 -0.4876 -0.9303  1.0370
  140MPD2    C5 2180   0.592   1.978  13.818 -0.5395  0.4921 -0.1241
  140MPD2     H 2181   0.577   1.725  13.541 -1.2003 -1.7734  1.7890
  140MPD2    H1 2182   0.798   1.952  13.823  0.1266  0.8325 -2.1506
  140MPD2    H2 2183   0.390   2.022  13.773  1.4463  2.0029 -0.3614
  140MPD2    H3 2184   0.614   2.059  13.886 -0.5283  0.4000 -0.0189
  140MPD2     N 2185   0.824   1.738  13.665  0.2566  0.3845 -0.3753
  140MPD2    H5 2186   0.837   1.688  13.578 -0.6158  0.4417 -0.5367
  140MPD2    N1 2187   0.347   1.843  13.590 -0.0203 -0.5519 -0.3330
  140MPD2    H7 2188   0.265   1.902  13.604  1.3456  0.2540  4.1475
  141TMC2    C1 2189   1.060   3.185  14.568  0.0689 -0.4036 -0.0339
  141TMC2    C2 2190   1.104   3.068  14.626  0.1939 -0.6541  0.6974
  141TMC2    C3 2191   1.130   3.072  14.761  0.0045  0.6475  0.2870
  141TMC2    C4 2192   1.052   3.298  14.642  0.1115 -0.0910 -0.4319
  141TMC2    C5 2193   1.091   3.300  14.769  0.4074 -0.5408  0.5474
  141TMC2    C6 2194   1.122   3.188  14.838 -0.3829 -0.6833  0.0405
  141TMC2     C 2195   1.033   3.190  14.425  0.7879  0.4701 -0.2864
  141TMC2     O 2196   1.049   3.300  14.373 -0.5691 -0.1918  0.1935
  141TMC2     H 2197   1.124   2.982  14.563 -0.5394 -1.5451  1.6924
  141TMC2    H1 2198   1.031   3.390  14.588  0.1376  2.3255  3.7386
  141TMC2    H2 2199   1.150   3.186  14.942  1.3862  0.3791 -0.4129
  141TMC2    C7 2200   1.098   3.423  14.846  0.3560 -0.3940  0.6032
  141TMC2    C8 2201   1.162   2.949  14.824  0.8981  0.2140  0.8484
  141TMC2    O1 2202   1.056   3.415  14.958  0.1408  0.7199 -0.1445
  141TMC2    O2 2203   1.198   2.948  14.940 -0.2918  0.1820  0.1015
  141TMC2    O5 2204   1.056   2.870  14.782 -0.4539 -0.0515  0.2425
  141TMC2    H5 2205   1.013   2.912  14.705 -2.0028  1.4956  1.9414
  142TMC2    C1 2206   3.606   1.386   9.627 -0.6960  0.5482 -0.9399
  142TMC2    C2 2207   3.564   1.431   9.505 -0.7292 -0.0460 -0.3632
  142TMC2    C3 2208   3.639   1.523   9.439 -0.1329  0.0095  0.4542
  142TMC2    C4 2209   3.731   1.430   9.677  0.5369  0.5713  0.3025
  142TMC2    C5 2210   3.806   1.520   9.609  0.4098 -0.3650 -0.2908
  142TMC2    C6 2211   3.757   1.569   9.493  0.3179 -0.3811  0.0901
  142TMC2     C 2212   3.517   1.305   9.707 -0.8360 -0.7384  0.5371
  142TMC2     O 2213   3.444   1.228   9.643 -0.6540  0.5673  0.2793
  142TMC2     H 2214   3.464   1.401   9.474 -0.2303 -1.5795 -0.4904
  142TMC2    H1 2215   3.772   1.389   9.768  0.9040  1.9253  0.7345
  142TMC2    H2 2216   3.815   1.647   9.446 -1.0988  0.5062 -0.1832
  142TMC2    C7 2217   3.954   1.540   9.640 -1.2198  0.2442  0.1563
  142TMC2    C8 2218   3.600   1.563   9.299  0.5520 -0.3741  0.0301
  142TMC2    O1 2219   3.992   1.653   9.634  0.4376  0.5892  0.6227
  142TMC2    O2 2220   3.496   1.551   9.237 -0.4164 -0.0118  0.0259
  142TMC2    O5 2221   3.717   1.566   9.238 -0.3424 -0.3886  0.1355
  142TMC2    H5 2222   3.794   1.537   9.292 -0.6898 -0.7176  0.4611
  143MPD2     C 2223   3.383   1.134  10.176 -0.1548  0.5048  0.6641
  143MPD2    C1 2224   3.383   1.068  10.054  0.8160 -0.3755 -0.0725
  143MPD2    C2 2225   3.432   1.130   9.941 -0.3877  0.0150  0.7995
  143MPD2    C3 2226   3.481   1.260   9.951  0.4490  0.5816  0.1336
  143MPD2    C4 2227   3.473   1.320  10.071 -0.6210  0.2528 -0.4442
  143MPD2    C5 2228   3.431   1.259  10.182  0.2029  0.1464 -1.1320
  143MPD2     H 2229   3.430   1.073   9.849  0.9122  1.1894  0.0394
  143MPD2    H1 2230   3.499   1.425  10.079  1.1622 -0.1874 -0.4003
  143MPD2    H2 2231   3.354   1.089  10.270  1.1192 -1.3353  0.1789
  143MPD2    H3 2232   3.429   1.320  10.272  1.8787  0.0580 -1.0431
  143MPD2     N 2233   3.517   1.342   9.840  0.5786  0.7731  0.3721
  143MPD2    H5 2234   3.555   1.434   9.862 -2.3881  1.7512  1.4657
  143MPD2    N1 2235   3.322   0.941  10.054 -0.8484  0.5385 -0.0560
  143MPD2    H7 2236   3.286   0.923  10.147 -0.6082  0.8074  0.0881
  144TMC2    C1 2237   1.731   0.690   0.372  0.4358 -0.2305  0.3907
  144TMC2    C2 2238   1.814   0.606   0.303  0.0678 -0.1885  0.0492
  144TMC2    C3 2239   1.951   0.619   0.323 -0.4209 -0.0837 -0.1135
  144TMC2    C4 2240   1.775   0.788   0.458 -0.4114 -0.4859 -0.2779
  144TMC2    C5 2241   1.909   0.784   0.488  0.5096  0.3000  0.3488
  144TMC2    C6 2242   1.997   0.694   0.424 -0.6250 -0.2831 -0.2613
  144TMC2     C 2243   1.595   0.678   0.328  0.7256  0.3997  0.2016
  144TMC2     O 2244   1.576   0.640   0.216  0.0804 -0.0409 -0.1166
  144TMC2     H 2245   1.778   0.538   0.226 -1.0735 -1.9218  2.1256
  144TMC2    H1 2246   1.709   0.868   0.490  1.1910  0.9972 -0.6649
  144TMC2    H2 2247   2.103   0.692   0.444 -0.9664  1.0057  1.7070
  144TMC2    C7 2248   1.960   0.863   0.596  0.0155  0.0198  0.2431
  144TMC2    C8 2249   2.039   0.504   0.278  0.4738 -0.1621 -0.5838
  144TMC2    O1 2250   2.081   0.856   0.604 -0.2022  0.0172 -0.3912
  144TMC2    O2 2251   2.046   0.410   0.361 -0.5214 -0.3650  0.1881
  144TMC2    O5 2252   2.006   0.482   0.145  0.5463  0.0467  0.1576
  144TMC2    H5 2253   1.981   0.573   0.119  0.9960  0.9028  2.6955
  145MPD2     C 2254   1.075   0.754   0.373 -0.5976 -0.6852  0.1820
  145MPD2    C1 2255   1.159   0.745   0.260  0.0292  0.1622  0.4659
  145MPD2    C2 2256   1.297   0.737   0.277  0.0217  1.0865  0.8457
  145MPD2    C3 2257   1.356   0.742   0.402  0.0342 -0.7744  0.8552
  145MPD2    C4 2258   1.275   0.767   0.507  0.7745 -0.3880 -0.5093
  145MPD2    C5 2259   1.142   0.771   0.491  0.0168  0.5374  0.1972
  145MPD2     H 2260   1.351   0.743   0.183  0.8823 -2.5655  1.1037
  145MPD2    H1 2261   1.319   0.769   0.606  1.7839  3.9174 -1.0569
  145MPD2    H2 2262   0.969   0.775   0.382 -0.6171 -0.7463  0.0861
  145MPD2    H3 2263   1.085   0.795   0.580 -2.3862  3.3792 -2.1206
  145MPD2     N 2264   1.494   0.726   0.422 -0.1854  0.1593  0.4254
  145MPD2    H5 2265   1.520   0.733   0.520  0.5656  0.4294  0.2086
  145MPD2    N1 2266   1.107   0.758   0.130  0.5193  0.0252 -0.2019
  145MPD2    H7 2267   1.175   0.744   0.057 -1.3277 -0.9287 -1.7286
  146TMC2    C1 2268   3.162   3.786  11.946 -0.3787  0.7289  0.1347
  146TMC2    C2 2269   3.072   3.837  11.852  0.2229 -0.0869 -0.0495
  146TMC2    C3 2270   3.112   3.937  11.769  0.5079  0.2212  0.0381
  146TMC2    C4 2271   3.295   3.823  11.943  0.3103  0.3639  0.5029
  146TMC2    C5 2272   3.327   3.916  11.848 -0.6130  0.1537  0.1143
  146TMC2    C6 2273   3.237   3.986  11.768 -0.0279  0.3811 -0.2526
  146TMC2     C 2274   3.106   3.678  12.032  0.4585  0.4217 -0.2215
  146TMC2     O 2275   3.004   3.626  11.993 -0.6507 -0.9880  0.1296
  146TMC2     H 2276   2.971   3.798  11.843 -0.4093  1.6795 -0.4624
  146TMC2    H1 2277   3.356   3.758  12.005  2.6270  1.1782 -0.9039
  146TMC2    H2 2278   3.253   4.078  11.714  0.9607  1.4392  1.8100
  146TMC2    C7 2279   3.472   3.926  11.820  0.4661 -0.8100  0.0444
  146TMC2    C8 2280   3.019   4.048  11.765 -0.1548 -0.0728  0.2540
  146TMC2    O1 2281   3.508   3.983  11.718 -0.1964  0.0590  0.2827
  146TMC2    O2 2282   3.005   4.091  11.881  0.2436  0.2966 -0.1840
  146TMC2    O5 2283   2.922   3.988  11.693 -0.1723  0.4636  0.2596
  146TMC2    H5 2284   2.957   3.977  11.602  1.7935 -0.4924  1.1276
  147MPD2     C 2285   3.960   3.875  11.947  0.1230 -0.3444  0.2868
  147MPD2    C1 2286   3.888   3.856  12.059  0.0775 -0.0475 -0.0652
  147MPD2    C2 2287   3.751   3.863  12.053  0.0462  0.4441  0.7608
  147MPD2    C3 2288   3.688   3.883  11.933  0.8424 -0.1077 -0.4043
  147MPD2    C4 2289   3.766   3.894  11.819  0.8209  0.5782 -0.1073
  147MPD2    C5 2290   3.900   3.892  11.827  0.9140 -0.3407 -0.2512
  147MPD2     H 2291   3.690   3.861  12.143 -2.1268  0.3050 -0.7207
  147MPD2    H1 2292   3.726   3.911  11.719 -1.8552 -3.4978  0.2773
  147MPD2    H2 2293   4.069   3.870  11.950  0.0908 -1.3351 -0.1000
  147MPD2    H3 2294   3.963   3.913  11.741 -0.5452 -0.1957 -1.3069
  147MPD2     N 2295   3.548   3.881  11.925  0.1570 -0.2112 -0.1566
  147MPD2    H5 2296   3.494   3.869  12.010  2.0121 -0.7340  0.9384
  147MPD2    N1 2297   3.961   3.845  12.181  0.5521 -0.7106 -0.7499
  147MPD2    H7 2298   4.062   3.837  12.180  0.7117  1.7472 -2.8341
  148TMC2    C1 2299   3.289   2.534  11.182 -0.3627 -0.0850  0.5681
  148TMC2    C2 2300   3.405   2.558  11.259 -0.0792  0.4481  0.2660
  148TMC2    C3 2301   3.507   2.465  11.246 -0.1781  0.7920  0.3506
  148TMC2    C4 2302   3.271   2.413  11.118 -0.2186 -0.0167  0.1086
  148TMC2    C5 2303   3.375   2.322  11.122  0.3197  0.3069  0.2322
  148TMC2    C6 2304   3.498   2.349  11.173 -0.3770 -0.8955 -0.2665
  148TMC2     C 2305   3.199   2.646  11.162 -0.3563  0.0924 -0.3993
  148TMC2     O 2306   3.208   2.749  11.233 -0.5635 -0.3079  0.0500
  148TMC2     H 2307   3.411   2.642  11.328  2.4654 -0.9766  1.8092
  148TMC2    H1 2308   3.191   2.402  11.046 -1.7564 -4.3194  2.4491
  148TMC2    H2 2309   3.582   2.283  11.157  1.1998  0.3248  2.9677
  148TMC2    C7 2310   3.388   2.264  10.991  0.0322 -0.5199 -0.0039
  148TMC2    C8 2311   3.599   2.478  11.357  0.3035  0.3932  0.7200
  148TMC2    O1 2312   3.292   2.202  10.947  0.1582 -0.2057 -0.4103
  148TMC2    O2 2313   3.678   2.573  11.366  0.0832  0.5135  0.0160
  148TMC2    O5 2314   3.628   2.353  11.381 -0.4185  0.0794  0.7023
  148TMC2    H5 2315   3.547   2.298  11.369  0.0497  0.1512 -2.9645
  149MPD2     C 2316   3.031   2.862  11.016  0.0528  0.5731  0.0371
  149MPD2    C1 2317   3.026   2.721  10.989 -0.6887  0.0496 -0.3957
  149MPD2    C2 2318   2.948   2.673  10.882 -0.0941 -0.2708  0.4938
  149MPD2    C3 2319   2.893   2.760  10.788  1.1315  0.3551  0.0834
  149MPD2    C4 2320   2.899   2.900  10.817  0.2726 -0.2343  0.0752
  149MPD2    C5 2321   2.966   2.948  10.929 -0.4700  0.8806  0.3523
  149MPD2     H 2322   2.952   2.566  10.867  0.2927 -0.3540  1.1745
  149MPD2    H1 2323   2.848   2.962  10.745 -0.9663  0.6196  1.6628
  149MPD2    H2 2324   3.086   2.906  11.099  0.9354  0.6564 -0.5985
  149MPD2    H3 2325   2.958   3.052  10.956 -0.8646  1.2310 -1.1331
  149MPD2     N 2326   2.822   2.716  10.675  0.0744 -0.2051 -0.6333
  149MPD2    H5 2327   2.783   2.793  10.622 -0.5716 -0.9997 -1.3062
  149MPD2    N1 2328   3.105   2.623  11.061  0.1849 -0.1084 -0.2704
  149MPD2    H7 2329   3.103   2.527  11.030 -1.4765  0.1330 -0.8887
  150TMC2    C1 2330   0.400   1.864  12.294 -1.1320 -0.2414  0.1784
  150TMC2    C2 2331   0.323   1.972  12.266  0.0298 -0.1918 -0.3232
  150TMC2    C3 2332   0.390   2.087  12.251  0.5925  0.0966  0.6119
  150TMC2    C4 2333   0.537   1.868  12.310 -0.2894 -0.2509  0.7016
  150TMC2    C5 2334   0.599   1.985  12.288 -0.1313  0.5856  0.4464
  150TMC2    C6 2335   0.527   2.103  12.266  0.6256 -0.2831 -0.8287
  150TMC2     C 2336   0.336   1.728  12.282  0.3528  0.8420  0.0355
  150TMC2     O 2337   0.415   1.637  12.299  0.2424  0.2276  0.3036
  150TMC2     H 2338   0.215   1.971  12.261 -0.1010 -0.7250  2.4825
  150TMC2    H1 2339   0.591   1.776  12.328 -0.2612 -0.3432  0.1371
  150TMC2    H2 2340   0.567   2.204  12.265 -1.3183  0.5073  0.4406
  150TMC2    C7 2341   0.746   1.987  12.282  0.0410  0.1748  0.0174
  150TMC2    C8 2342   0.322   2.207  12.208  0.8052  0.5503  0.7598
  150TMC2    O1 2343   0.804   2.070  12.214  0.3022  0.1005  0.2913
  150TMC2    O2 2344   0.361   2.265  12.109  0.0296  0.9658  0.3561
  150TMC2    O5 2345   0.215   2.229  12.285  0.8701 -0.1549 -0.4448
  150TMC2    H5 2346   0.225   2.189  12.374  0.0302  1.4277  0.3665
  151MPD2     C 2347   0.003   1.409  12.056 -0.2879  0.1864 -0.5224
  151MPD2    C1 2348   4.695   1.536  12.035  0.6540 -0.1549 -0.0077
  151MPD2    C2 2349   0.037   1.639  12.088 -0.3382  0.1875 -0.0177
  151MPD2    C3 2350   0.152   1.608  12.163  0.3105 -0.1988 -0.1338
  151MPD2    C4 2351   0.181   1.483  12.201 -0.0596  0.7712 -0.2921
  151MPD2    C5 2352   0.111   1.382  12.135 -0.6576 -0.2242  0.4923
  151MPD2     H 2353   0.017   1.744  12.069 -2.3056  0.4217  3.1994
  151MPD2    H1 2354   0.263   1.454  12.265 -1.1986 -1.3541  0.2192
  151MPD2    H2 2355   4.682   1.320  12.033 -1.2245  0.2594  1.5122
  151MPD2    H3 2356   0.132   1.278  12.157 -3.2257 -1.6907 -3.9511
  151MPD2     N 2357   0.224   1.726  12.203  0.2682 -0.3095  0.0247
  151MPD2    H5 2358   0.187   1.812  12.164  1.1488  0.5408  1.0744
  151MPD2    N1 2359   4.583   1.548  11.944 -0.0865  0.1218 -0.0463
  151MPD2    H7 2360   4.554   1.463  11.896 -1.8626  0.8257 -0.2305
  152TMC2    C1 2361   0.307   1.778  12.728  0.8607  0.4948 -0.3929
  152TMC2    C2 2362   0.302   1.703  12.837 -0.1277  0.9132 -0.2466
  152TMC2    C3 2363   0.398   1.730  12.928 -0.8238  0.3288 -0.8841
  152TMC2    C4 2364   0.409   1.869  12.704  0.0712  0.1122 -0.4138
  152TMC2    C5 2365   0.511   1.884  12.794  0.4231  0.1960  0.5783
  152TMC2    C6 2366   0.502   1.818  12.917  0.7911  0.9161  0.7842
  152TMC2     C 2367   0.222   1.740  12.614 -0.8743 -0.2642  0.1361
  152TMC2     O 2368   0.187   1.831  12.539  0.1313  0.1334  0.0788
  152TMC2     H 2369   0.229   1.628  12.866  0.1515  1.1091  0.9865
  152TMC2    H1 2370   0.408   1.912  12.604 -1.4257 -1.8105 -1.2383
  152TMC2    H2 2371   0.566   1.826  13.003 -0.0799  2.0048  1.3206
  152TMC2    C7 2372   0.623   1.967  12.752  0.2543  0.4369 -0.7751
  152TMC2    C8 2373   0.409   1.636  13.034 -0.5510  0.6470 -0.3025
  152TMC2    O1 2374   0.648   1.971  12.634 -0.2544  0.0757 -0.4278
  152TMC2    O2 2375   0.316   1.587  13.095  0.3861  0.0979 -0.0040
  152TMC2    O5 2376   0.519   1.573  12.996 -0.0429 -0.3073 -0.3635
  152TMC2    H5 2377   0.558   1.607  12.913 -0.0517 -1.6953 -0.9392
  153MPD2     C 2378   0.081   1.397  12.536  0.0821  0.2398  0.6371
  153MPD2    C1 2379   0.090   1.539  12.536 -0.0719  0.2254 -0.3094
  153MPD2    C2 2380   4.726   1.618  12.478  0.0671  0.0494 -0.3854
  153MPD2    C3 2381   4.623   1.555  12.414  0.2709  0.1281  0.0914
  153MPD2    C4 2382   4.614   1.417  12.410  0.8124  0.7450 -0.5927
  153MPD2    C5 2383   4.716   1.344  12.459  0.0656  0.3917  0.3413
  153MPD2     H 2384   4.730   1.726  12.479  2.2326 -0.0354  1.9956
  153MPD2    H1 2385   4.542   1.365  12.348  1.0426  0.7719 -0.8825
  153MPD2    H2 2386   0.159   1.335  12.578 -1.4827 -2.1217  0.0745
  153MPD2    H3 2387   4.716   1.236  12.465  0.5952  0.5338  2.6290
  153MPD2     N 2388   4.521   1.640  12.365 -0.0709  0.8102  0.4433
  153MPD2    H5 2389   4.540   1.739  12.367  4.7517 -0.1248  0.5348
  153MPD2    N1 2390   0.189   1.604  12.619  0.0006 -0.9161 -0.7136
  153MPD2    H7 2391   0.237   1.531  12.671 -2.9908 -0.5962  2.4595
  154TMC2    C1 2392   2.463   2.250   0.370 -0.7096 -0.1511 -0.4829
  154TMC2    C2 2393   2.502   2.124   0.415 -0.1298  0.4370 -0.1388
  154TMC2    C3 2394   2.603   2.054   0.350  0.2067  1.3610 -0.3179
  154TMC2    C4 2395   2.522   2.321   0.267  0.1137  0.2207 -0.6701
  154TMC2    C5 2396   2.615   2.247   0.205  0.3750  0.3527  0.1598
  154TMC2    C6 2397   2.657   2.116   0.241  0.1311  0.2891 -0.9998
  154TMC2     C 2398   2.359   2.321   0.458  0.1766 -0.3991  0.0829
  154TMC2     O 2399   2.303   2.250   0.538  0.1192 -0.3548 -0.5490
  154TMC2     H 2400   2.450   2.075   0.496  0.5068  2.2694  1.3689
  154TMC2    H1 2401   2.480   2.413   0.228  0.5472  0.5588 -0.3447
  154TMC2    H2 2402   2.725   2.063   0.176 -1.3245  0.7394 -2.8949
  154TMC2    C7 2403   2.654   2.304   0.078  0.1960  0.1325 -0.6170
  154TMC2    C8 2404   2.617   1.904   0.349 -0.1302  0.6294 -0.2224
  154TMC2    O1 2405   2.667   2.427   0.079  0.4910 -0.0737  0.0807
  154TMC2    O2 2406   2.717   1.848   0.304 -0.7419  0.5358 -0.7286
  154TMC2    O5 2407   2.497   1.855   0.314 -0.1114  0.3430 -0.2116
  154TMC2    H5 2408   2.426   1.916   0.345 -0.6715 -0.5981  0.3324
  155MPD2     C 2409   2.319   2.681   0.493  0.6985  0.1555  0.0588
  155MPD2    C1 2410   2.296   2.554   0.531  0.4995  0.3301  0.1659
  155MPD2    C2 2411   2.214   2.519   0.635  0.5189 -0.4555  0.9221
  155MPD2    C3 2412   2.147   2.625   0.705  0.0806 -0.5286 -0.4461
  155MPD2    C4 2413   2.174   2.753   0.672  0.6696  0.3604  0.0752
  155MPD2    C5 2414   2.256   2.780   0.567 -0.1288 -0.4427  0.3409
  155MPD2     H 2415   2.177   2.419   0.653 -1.0877 -0.6739 -3.4679
  155MPD2    H1 2416   2.121   2.841   0.707  0.1676 -0.8847  2.4558
  155MPD2    H2 2417   2.368   2.697   0.398 -1.9157 -1.4376 -1.5471
  155MPD2    H3 2418   2.262   2.882   0.532 -0.6115 -0.1575  1.0946
  155MPD2     N 2419   2.039   2.593   0.791  0.2131  0.3622 -0.2232
  155MPD2    H5 2420   2.025   2.494   0.809  0.7645  0.0383 -1.5459
  155MPD2    N1 2421   2.362   2.457   0.448  0.0251 -0.0303  0.3857
  155MPD2    H7 2422   2.422   2.505   0.382  0.9474 -2.0625 -0.2614
  156TMC2    C1 2423   0.800   3.916  11.550 -0.4022  0.1224 -0.2736
  156TMC2    C2 2424   0.839   3.803  11.476  0.6879 -0.6972  0.0960
  156TMC2    C3 2425   0.809   3.793  11.346 -0.5297  0.2081 -0.3596
  156TMC2    C4 2426   0.725   4.019  11.489  0.5607  0.4462 -0.3544
  156TMC2    C5 2427   0.736   4.023  11.349  0.7783  0.0079 -0.0444
  156TMC2    C6 2428   0.765   3.907  11.282 -1.4839 -0.1567 -0.5884
  156TMC2     C 2429   0.865   3.935  11.684 -0.1544 -0.8775 -0.0689
  156TMC2     O 2430   0.936   3.845  11.723  0.2676  0.3332 -0.1272
  156TMC2     H 2431   0.906   3.730  11.519  2.6054  0.4944 -0.8756
  156TMC2    H1 2432   0.705   4.112  11.542 -1.1668 -0.9221  1.4134
  156TMC2    H2 2433   0.775   3.909  11.174 -0.9287 -0.0925 -0.5354
  156TMC2    C7 2434   0.679   4.138  11.288  0.4510  0.1426 -0.2038
  156TMC2    C8 2435   0.876   3.688  11.267  0.0768  0.3176 -0.4390
  156TMC2    O1 2436   0.650   4.235  11.359 -0.5848  0.4089 -0.4899
  156TMC2    O2 2437   0.904   3.719  11.153  0.3766 -0.0999 -0.0164
  156TMC2    O5 2438   0.825   3.575  11.319  0.0873 -0.0759 -0.0439
  156TMC2    H5 2439   0.784   3.584  11.408  2.7336 -1.4095  1.3089
  157MPD2     C 2440   0.977   4.053  11.930 -0.1504  0.0287  0.3278
  157MPD2    C1 2441   0.852   4.088  11.880 -0.5361 -0.3528 -0.0444
  157MPD2    C2 2442   0.765   4.147  11.966 -0.6329 -0.0756 -0.5181
  157MPD2    C3 2443   0.805   4.197  12.087  0.9961 -0.2943  0.2606
  157MPD2    C4 2444   0.936   4.178  12.129 -0.5147  0.2244 -0.5946
  157MPD2    C5 2445   1.018   4.102  12.048 -0.3844  0.4468  0.2616
  157MPD2     H 2446   0.661   4.156  11.936 -0.9940  0.7823  1.0104
  157MPD2    H1 2447   0.979   4.226  12.217 -0.8080  3.1668 -2.0689
  157MPD2    H2 2448   1.049   3.991  11.877 -1.3173 -0.6380 -0.4755
  157MPD2    H3 2449   1.116   4.074  12.084  0.6531  1.7944 -1.5444
  157MPD2     N 2450   0.708   4.256  12.173  0.6148 -0.1848  0.4440
  157MPD2    H5 2451   0.612   4.254  12.138  0.2520  0.1459  1.4342
  157MPD2    N1 2452   0.808   4.038  11.760  0.4486 -0.2281  0.3141
  157MPD2    H7 2453   0.728   4.091  11.728  2.6360  1.4823 -2.2337
  158TMC2    C1 2454   0.410   2.688  13.112 -0.6728 -0.5779  0.0313
  158TMC2    C2 2455   0.448   2.667  12.985  0.2695  0.9686 -0.2266
  158TMC2    C3 2456   0.380   2.728  12.888 -0.5111 -0.3079  0.3632
  158TMC2    C4 2457   0.304   2.768  13.149 -0.3225 -0.3274  0.1438
  158TMC2    C5 2458   0.233   2.824  13.047 -0.1312 -0.7674  0.0621
  158TMC2    C6 2459   0.279   2.810  12.914  0.3157 -0.0606 -0.3210
  158TMC2     C 2460   0.476   2.616  13.214 -0.0580  0.0046 -0.0408
  158TMC2     O 2461   0.508   2.503  13.197 -0.3083  0.4343  0.3627
  158TMC2     H 2462   0.517   2.585  12.964  0.9951  0.9731  2.0869
  158TMC2    H1 2463   0.267   2.773  13.251  0.4309  1.6746  0.3347
  158TMC2    H2 2464   0.230   2.849  12.826  1.6892  1.2388 -0.5238
  158TMC2    C7 2465   0.101   2.871  13.053 -0.2583 -0.7146  0.0879
  158TMC2    C8 2466   0.435   2.716  12.755 -0.0257  0.7666  0.0722
  158TMC2    O1 2467   0.059   2.917  12.948 -0.6073  0.0871  0.0290
  158TMC2    O2 2468   0.546   2.678  12.736  0.2372 -0.4780  0.3997
  158TMC2    O5 2469   0.323   2.700  12.681 -0.2031  0.3666 -0.5963
  158TMC2    H5 2470   0.236   2.720  12.723 -0.1400 -1.5566  0.4496
  159MPD2     C 2471   0.736   2.589  13.655 -0.2724  0.7627 -0.4717
  159MPD2    C1 2472   0.655   2.705  13.657 -0.0993  0.3505 -0.1694
  159MPD2    C2 2473   0.579   2.731  13.543 -0.7269 -0.0680  0.5946
  159MPD2    C3 2474   0.586   2.648  13.435 -0.4783  0.1979  0.2909
  159MPD2    C4 2475   0.671   2.541  13.426  0.2492  0.4908 -0.7983
  159MPD2    C5 2476   0.744   2.511  13.541  0.1863 -0.3002 -0.9094
  159MPD2     H 2477   0.509   2.814  13.534 -1.1602 -0.5455 -0.4373
  159MPD2    H1 2478   0.675   2.480  13.336  0.5991 -1.4053  0.4974
  159MPD2    H2 2479   0.802   2.552  13.733 -1.0618 -1.5865 -0.9374
  159MPD2    H3 2480   0.809   2.424  13.535  1.4297  0.5837 -0.3727
  159MPD2     N 2481   0.504   2.691  13.325 -0.0537  0.0294  0.5668
  159MPD2    H5 2482   0.446   2.772  13.343 -1.1865 -0.4546 -0.8814
  159MPD2    N1 2483   0.651   2.781  13.776  0.7396 -0.1943 -0.4772
  159MPD2    H7 2484   0.709   2.747  13.852  0.5223 -3.1695 -1.6453
  160TMC2    C1 2485   0.668   3.388   0.816 -0.4903 -0.8827  0.1521
  160TMC2    C2 2486   0.604   3.484   0.897 -0.1351 -0.3259 -0.5878
  160TMC2    C3 2487   0.665   3.519   1.013 -0.3309 -0.1158  0.8513
  160TMC2    C4 2488   0.792   3.347   0.845 -0.5237  0.3758  0.2511
  160TMC2    C5 2489   0.851   3.381   0.963  0.1959  0.5166  0.1008
  160TMC2    C6 2490   0.783   3.463   1.051 -0.3897  0.7359 -0.0213
  160TMC2     C 2491   0.620   3.368   0.678 -0.3581 -0.2828  0.3349
  160TMC2     O 2492   0.703   3.371   0.592  0.2413 -0.6874 -0.1029
  160TMC2     H 2493   0.507   3.521   0.864  0.6722  0.8676 -1.6215
  160TMC2    H1 2494   0.839   3.287   0.768 -1.8673  1.5874 -1.5471
  160TMC2    H2 2495   0.819   3.490   1.149  0.9378 -1.4765  0.1054
  160TMC2    C7 2496   0.972   3.312   1.011 -0.6491 -0.8085 -0.2373
  160TMC2    C8 2497   0.592   3.601   1.110 -0.4489  0.2915  0.1759
  160TMC2    O1 2498   1.032   3.367   1.103  0.4132  0.1739 -0.1858
  160TMC2    O2 2499   0.633   3.626   1.225 -0.0426  1.2134 -0.2855
  160TMC2    O5 2500   0.535   3.696   1.038  0.2331 -0.4960  0.1080
  160TMC2    H5 2501   0.543   3.690   0.940 -0.3689 -1.7014  0.1270
  161MPD2     C 2502   0.453   3.470   0.443  0.2154  1.2034 -0.4250
  161MPD2    C1 2503   0.404   3.409   0.553 -0.8560 -0.3513  0.2577
  161MPD2    C2 2504   0.267   3.390   0.576 -0.1014  0.2808  0.5628
  161MPD2    C3 2505   0.177   3.431   0.472  0.1327 -0.0919  0.1187
  161MPD2    C4 2506   0.235   3.477   0.352  0.5859  0.5880  0.3964
  161MPD2    C5 2507   0.371   3.493   0.343 -0.4958 -0.5837 -0.4664
  161MPD2     H 2508   0.223   3.360   0.670 -2.3349 -0.7954 -0.8462
  161MPD2    H1 2509   0.174   3.494   0.265  0.7729  1.6373  0.4702
  161MPD2    H2 2510   0.561   3.485   0.442  0.5907 -1.2838  2.0235
  161MPD2    H3 2511   0.414   3.518   0.247 -2.3007  2.5638 -0.4675
  161MPD2     N 2512   0.043   3.397   0.489  0.3434  0.3565  0.6784
  161MPD2    H5 2513   0.021   3.358   0.581  0.8653  0.0485  0.6665
  161MPD2    N1 2514   0.489   3.381   0.670 -0.0048  0.6891  0.2422
  161MPD2    H7 2515   0.434   3.365   0.753 -0.6957 -3.6486 -1.0582
  162TMC2    C1 2516   2.289   3.526   0.354  0.5672 -0.4773  0.3243
  162TMC2    C2 2517   2.326   3.650   0.383  0.4630  0.3338 -0.0009
  162TMC2    C3 2518   2.252   3.711   0.474  0.5001  0.5235  0.0780
  162TMC2    C4 2519   2.183   3.469   0.419 -0.5121 -0.4631  0.1410
  162TMC2    C5 2520   2.116   3.533   0.520 -0.8114  0.3623 -0.4742
  162TMC2    C6 2521   2.146   3.662   0.550 -0.1013  0.1468  0.4185
  162TMC2     C 2522   2.384   3.440   0.285 -0.2947  0.2077  0.3821
  162TMC2     O 2523   2.495   3.481   0.262  0.4413  0.3324  0.1211
  162TMC2     H 2524   2.414   3.693   0.336 -0.3111  1.8320 -0.0917
  162TMC2    H1 2525   2.147   3.369   0.397 -1.8235  0.2786 -1.1012
  162TMC2    H2 2526   2.092   3.731   0.613 -0.5910  1.1327 -1.0943
  162TMC2    C7 2527   2.010   3.466   0.597 -0.4973 -0.0371  0.3319
  162TMC2    C8 2528   2.295   3.839   0.506 -0.0936  0.0070 -0.3413
  162TMC2    O1 2529   1.960   3.366   0.546  0.0681  0.5160 -0.1713
  162TMC2    O2 2530   2.336   3.915   0.418 -0.5055 -0.4995 -0.3395
  162TMC2    O5 2531   2.318   3.839   0.641  0.5308 -0.1221 -0.0352
  162TMC2    H5 2532   2.301   3.754   0.688  0.5502  0.2236  0.6009
  163MPD2     C 2533   2.542   2.972   0.095  0.2691  0.2145 -0.3733
  163MPD2    C1 2534   2.594   3.103   0.076 -0.3644 -0.1048 -0.5813
  163MPD2    C2 2535   2.525   3.216   0.118 -0.6767 -0.2704 -0.6203
  163MPD2    C3 2536   2.415   3.197   0.200 -0.1038  0.6020  0.5078
  163MPD2    C4 2537   2.368   3.066   0.227  0.5136 -0.6421  0.3444
  163MPD2    C5 2538   2.429   2.959   0.171  0.0127 -0.0176  0.2882
  163MPD2     H 2539   2.572   3.313   0.107  1.0293 -0.7436  2.5573
  163MPD2    H1 2540   2.284   3.042   0.291 -0.7339  0.0343 -1.0345
  163MPD2    H2 2541   2.585   2.885   0.045  0.1502  0.1388 -0.3446
  163MPD2    H3 2542   2.394   2.862   0.203 -3.6081  1.3469  0.4438
  163MPD2     N 2543   2.342   3.307   0.269  0.2645  0.0090  0.2744
  163MPD2    H5 2544   2.265   3.276   0.328  0.2607  0.9138  0.7475
  163MPD2    N1 2545   2.716   3.111   0.007 -0.1413  0.0449  0.4526
  163MPD2    H7 2546   2.778   3.031  17.740  1.2529  1.1388  0.2684
  164TMC2    C1 2547   3.976   2.722  10.772 -0.4132  0.7014 -0.3985
  164TMC2    C2 2548   4.097   2.724  10.837 -0.0494  0.1361 -0.2875
  164TMC2    C3 2549   4.116   2.822  10.935  0.1346 -0.6859  0.0687
  164TMC2    C4 2550   3.871   2.807  10.812  0.7615  0.5300  0.7440
  164TMC2    C5 2551   3.890   2.896  10.914  0.2189  0.9806 -0.4400
  164TMC2    C6 2552   4.013   2.902  10.978 -0.4784  0.4832  0.0864
  164TMC2     C 2553   3.952   2.640  10.655 -0.5330  0.1341 -0.1070
  164TMC2     O 2554   3.833   2.628  10.636 -0.4277 -0.2182 -0.8043
  164TMC2     H 2555   4.183   2.663  10.809 -1.2966 -1.1534 -1.2870
  164TMC2    H1 2556   3.778   2.818  10.759 -0.0002  0.9392  2.1642
  164TMC2    H2 2557   4.033   2.974  11.057  0.3453 -0.0562  0.3666
  164TMC2    C7 2558   3.766   2.946  10.972 -0.1442  0.5549 -0.5480
  164TMC2    C8 2559   4.252   2.875  10.972 -0.0991  0.5205 -0.2735
  164TMC2    O1 2560   3.677   2.966  10.895 -0.1047  0.2314 -0.0794
  164TMC2    O2 2561   4.269   2.914  11.084 -0.0312 -0.1318  0.3217
  164TMC2    O5 2562   4.342   2.862  10.874 -0.2750 -0.6947 -0.2434
  164TMC2    H5 2563   4.305   2.823  10.792 -0.9019  0.1573 -0.3711
  165TMC2    C1 2564   4.419   0.410   0.681 -0.1008 -0.1010 -0.3864
  165TMC2    C2 2565   4.505   0.317   0.641 -0.0003  0.4274 -0.1504
  165TMC2    C3 2566   4.630   0.365   0.592 -1.0785  0.0449 -0.5398
  165TMC2    C4 2567   4.455   0.542   0.699  0.1702  0.1075 -0.6315
  165TMC2    C5 2568   4.565   0.586   0.638 -0.7287 -0.5151 -0.1696
  165TMC2    C6 2569   4.651   0.497   0.577 -0.2809  0.2783  0.0854
  165TMC2     C 2570   4.288   0.357   0.724 -0.0315  0.5051 -0.0091
  165TMC2     O 2571   4.278   0.238   0.751 -0.0295  0.5867 -0.2044
  165TMC2     H 2572   4.479   0.213   0.626  0.4803  0.3012 -0.1099
  165TMC2    H1 2573   4.382   0.611   0.738 -0.0590 -0.9393  0.7945
  165TMC2    H2 2574   0.013   0.533   0.549 -1.1132 -0.1137 -3.2847
  165TMC2    C7 2575   4.624   0.702   0.692 -0.8061  0.3135 -0.5479
  165TMC2    C8 2576   4.711   0.269   0.516 -0.6435  0.4811 -0.6387
  165TMC2    O1 2577   4.724   0.748   0.640  0.4839  0.5267  0.5796
  165TMC2    O2 2578   0.030   0.174   0.564 -0.1563  0.1622  0.1433
  165TMC2    O5 2579   0.021   0.332   0.408 -0.0515  0.2936 -0.4635
  165TMC2    H5 2580   4.692   0.400   0.382 -1.0007 -0.5271 -0.2652
  166MPD2     C 2581   3.775   0.459   0.785  0.2193 -0.1256  0.3890
  166MPD2    C1 2582   3.843   0.338   0.804  0.0369 -0.9181  0.2782
  166MPD2    C2 2583   3.980   0.326   0.780  0.3285 -0.8614 -0.2152
  166MPD2    C3 2584   4.047   0.438   0.722 -0.4185 -0.0656 -0.1943
  166MPD2    C4 2585   3.978   0.552   0.691 -0.2963  0.3469 -0.1904
  166MPD2    C5 2586   3.847   0.562   0.728  0.3931  0.2778  0.4876
  166MPD2     H 2587   4.038   0.238   0.804  0.5796 -0.5158  0.4591
  166MPD2    H1 2588   4.023   0.639   0.645 -2.0702  2.3496  1.8474
  166MPD2    H2 2589   3.673   0.474   0.817  0.5084  0.6354  0.9716
  166MPD2    H3 2590   3.795   0.653   0.701 -1.5147 -0.4526  1.6694
  166MPD2     N 2591   4.187   0.449   0.707 -0.0257 -0.2225  0.2270
  166MPD2    H5 2592   4.213   0.538   0.664  0.9382  0.2395  1.7448
  166MPD2    N1 2593   3.772   0.232   0.859  0.3993  0.0655  0.5583
  166MPD2    H7 2594   3.677   0.247   0.893 -0.8163 -1.0829 -2.3682
  167TMC2    C1 2595   3.403   2.486  12.544  0.7303 -0.2288  0.3183
  167TMC2    C2 2596   3.312   2.476  12.648  0.1497  0.1472  0.0793
  167TMC2    C3 2597   3.345   2.404  12.758  0.1574 -0.2595 -0.4653
  167TMC2    C4 2598   3.517   2.408  12.551 -0.5595 -0.8403 -0.1958
  167TMC2    C5 2599   3.539   2.324  12.658  0.0184 -0.2906  0.9442
  167TMC2    C6 2600   3.457   2.332  12.767 -0.0211 -0.5867 -0.1684
  167TMC2     C 2601   3.388   2.591  12.441 -0.4524 -0.2234 -0.1649
  167TMC2     O 2602   3.492   2.619  12.382 -0.4033 -0.4768 -0.6739
  167TMC2     H 2603   3.213   2.522  12.644  0.7067  1.3166 -0.3847
  167TMC2    H1 2604   3.585   2.413  12.467 -0.5882  0.7722 -0.1173
  167TMC2    H2 2605   3.471   2.260  12.846 -0.0824 -0.5444 -0.1185
  167TMC2    C7 2606   3.609   2.194  12.631  0.6362  0.0344 -0.4501
  167TMC2    C8 2607   3.255   2.394  12.866 -0.0669  0.3292 -0.2944
  167TMC2    O1 2608   3.590   2.106  12.711  0.3307 -0.2252 -0.3412
  167TMC2    O2 2609   3.280   2.316  12.956 -1.0221 -0.6005  0.1495
  167TMC2    O5 2610   3.185   2.501  12.868 -0.2075  0.0196 -0.2174
  167TMC2    H5 2611   3.194   2.568  12.797 -0.2237 -1.3181 -1.4745
  168MPD2     C 2612   3.300   2.767  12.217 -0.1485  0.6565  0.2473
  168MPD2    C1 2613   3.213   2.686  12.290  0.7072 -0.1068 -0.1258
  168MPD2    C2 2614   3.086   2.664  12.245  0.0989 -0.1587 -0.3500
  168MPD2    C3 2615   3.036   2.717  12.131 -0.0995 -0.5565 -0.1333
  168MPD2    C4 2616   3.127   2.786  12.055  0.6771 -0.1951 -0.5247
  168MPD2    C5 2617   3.257   2.808  12.097  0.2238 -0.3678 -0.0460
  168MPD2     H 2618   3.020   2.605  12.309  0.3663 -0.0611  0.0149
  168MPD2    H1 2619   3.106   2.828  11.958 -3.7174 -0.1677  0.4339
  168MPD2    H2 2620   3.401   2.786  12.249 -0.0669  0.2809  0.2126
  168MPD2    H3 2621   3.331   2.844  12.026 -0.5364  1.1359 -0.0628
  168MPD2     N 2622   2.904   2.706  12.085 -0.3190  0.3113  0.1660
  168MPD2    H5 2623   2.887   2.736  11.989  2.2994  2.2328  0.3047
  168MPD2    N1 2624   3.255   2.606  12.401 -0.5698 -0.0255  0.4488
  168MPD2    H7 2625   3.190   2.548  12.452  0.9033 -0.3783  1.9022
  169MPD1     C 2626   4.536   2.810  10.034  0.5552  0.3083 -0.0219
  169MPD1    C1 2627   4.549   2.711  10.125 -0.5912  0.6756  0.2755
  169MPD1    C2 2628   4.637   2.617  10.087  0.1694 -0.0597  0.2487
  169MPD1    C3 2629   4.731   2.633   9.994 -0.1142  0.3786 -0.0324
  169MPD1    C4 2630   4.732   2.749   9.924 -0.1179  0.5693 -0.7021
  169MPD1    C5 2631   4.633   2.837   9.939  0.1100  0.5241  0.0209
  169MPD1     H 2632   4.639   2.523  10.143 -0.2783 -0.1472  0.1147
  169MPD1    H1 2633   0.072   2.772   9.850  0.3204 -2.4202 -1.1641
  169MPD1    H2 2634   4.454   2.880  10.035 -0.1155 -0.4693 -0.2983
  169MPD1    H3 2635   4.634   2.930   9.883  0.7280  0.8182  0.5132
  169MPD1     N 2636   0.095   2.531   9.989 -0.1414 -0.6355  0.1022
  169MPD1    H5 2637   0.100   2.461  10.062  0.3974 -1.0686 -0.3494
  169MPD1    N1 2638   4.457   2.693  10.230  0.1722  0.2384  0.0434
  169MPD1    H6 2639   4.486   2.640  10.312  2.3441  1.4033  0.0294
  169MPD1    H7 2640   4.447   2.787  10.267 -0.8680 -0.0398  0.4474
  170MPD1     C 2641   3.189   4.658  13.079 -0.2773 -0.0040 -0.1695
  170MPD1    C1 2642   3.246   4.634  13.202  0.0707 -0.7590 -0.5178
  170MPD1    C2 2643   3.288   0.008  13.280 -1.0251 -0.2925  0.4186
  170MPD1    C3 2644   3.279   0.137  13.234  0.7037 -0.2931  0.3434
  170MPD1    C4 2645   3.234   0.156  13.106 -0.2001  0.7648  0.8041
  170MPD1    C5 2646   3.189   0.046  13.035  0.4327  0.6240 -0.4905
  170MPD1     H 2647   3.318   4.729  13.383  0.6292 -1.4067 -0.2336
  170MPD1    H1 2648   3.222   0.250  13.055  0.3578  0.0257 -0.6851
  170MPD1    H2 2649   3.142   4.580  13.020 -0.8320 -0.2113  0.5322
  170MPD1    H3 2650   3.165   0.062  12.931 -0.3732  1.0387 -0.2462
  170MPD1     N 2651   3.321   0.236  13.320  0.5151  0.4079 -0.3436
  170MPD1    H5 2652   3.366   0.204  13.405 -0.2752 -1.6054 -0.6986
  170MPD1    N1 2653   3.263   4.503  13.247  0.5146 -0.3480 -0.2593
  170MPD1    H6 2654   3.327   4.491  13.325  0.8622 -1.0007 -0.6399
  170MPD1    H7 2655   3.307   4.448  13.173  1.1141 -0.8774  0.4806
  171MPD1     C 2656   2.050   1.569  16.155 -0.0769  0.7364  0.1644
  171MPD1    C1 2657   2.051   1.430  16.144 -0.7486 -0.1135  0.1424
  171MPD1    C2 2658   2.172   1.364  16.140  0.3577  0.3691 -0.8080
  171MPD1    C3 2659   2.284   1.435  16.116  0.7730 -0.7305  0.5496
  171MPD1    C4 2660   2.278   1.577  16.093  0.0952 -0.8869 -0.7091
  171MPD1    C5 2661   2.161   1.641  16.118 -0.6256  0.5368 -0.3327
  171MPD1     H 2662   2.178   1.256  16.146 -0.2973  0.3168 -1.0447
  171MPD1    H1 2663   2.364   1.640  16.077 -1.1628  1.3426  1.2615
  171MPD1    H2 2664   1.958   1.625  16.167  0.9009  1.8639  2.2847
  171MPD1    H3 2665   2.163   1.749  16.108  0.7998  0.4889 -0.4802
  171MPD1     N 2666   2.414   1.378  16.101 -0.0773 -0.1545  0.3400
  171MPD1    H5 2667   2.488   1.441  16.071  0.7245 -1.7788 -1.0724
  171MPD1    N1 2668   1.930   1.365  16.169 -0.2596 -0.0564  0.1248
  171MPD1    H6 2669   1.934   1.268  16.138  0.0285  0.1735 -0.5630
  171MPD1    H7 2670   1.847   1.417  16.139  0.5233  1.2974  0.2979
  172MPD1     C 2671   2.833   2.003   0.934  0.0960 -0.2670  0.3355
  172MPD1    C1 2672   2.851   1.867   0.919 -0.4426  0.5119 -0.2254
  172MPD1    C2 2673   2.767   1.801   0.829 -0.1214 -0.2952 -0.4162
  172MPD1    C3 2674   2.662   1.861   0.757 -0.1065  0.5566  0.7596
  172MPD1    C4 2675   2.645   1.994   0.779 -0.8517  0.2390 -0.0773
  172MPD1    C5 2676   2.737   2.059   0.864  0.4781 -0.1574 -0.5184
  172MPD1     H 2677   2.791   1.698   0.805  0.0051 -0.6881  1.3870
  172MPD1    H1 2678   2.560   2.051   0.744 -3.4098 -1.2164  3.7840
  172MPD1    H2 2679   2.898   2.061   0.998 -2.0373  1.3583  1.0082
  172MPD1    H3 2680   2.719   2.165   0.883 -0.0405 -0.1142 -1.2812
  172MPD1     N 2681   2.569   1.802   0.668 -0.2493 -1.1724  0.0912
  172MPD1    H5 2682   2.483   1.856   0.666  0.4579 -0.0566 -0.5712
  172MPD1    N1 2683   2.968   1.808   0.974  0.2137 -0.4913 -0.3077
  172MPD1    H6 2684   2.945   1.713   1.002 -2.2011 -0.1353 -1.0785
  172MPD1    H7 2685   3.004   1.855   1.056 -2.7667 -0.3499  0.9460
  173MPD1     C 2686   3.087   1.289  14.026  0.7072 -0.5597  0.5581
  173MPD1    C1 2687   3.094   1.161  13.978 -0.1184 -0.2528  0.5193
  173MPD1    C2 2688   3.057   1.054  14.058  0.0863 -0.2353 -0.6067
  173MPD1    C3 2689   2.998   1.080  14.175 -0.9689  0.0783  0.1203
  173MPD1    C4 2690   2.975   1.208  14.217  0.0362  0.6887  0.1474
  173MPD1    C5 2691   3.027   1.311  14.147  0.0035 -0.7549  0.0613
  173MPD1     H 2692   3.071   0.949  14.035 -0.4605 -0.2505 -0.8629
  173MPD1    H1 2693   2.919   1.226  14.308 -0.3826 -1.1933  0.2495
  173MPD1    H2 2694   3.131   1.375  13.976  1.7146 -0.8697  0.9246
  173MPD1    H3 2695   3.017   1.412  14.184  1.6199 -0.9679  1.0843
  173MPD1     N 2696   2.976   0.976  14.266  0.5960 -0.4735 -0.0751
  173MPD1    H5 2697   3.008   0.886  14.232 -1.5297 -1.4512  0.5363
  173MPD1    N1 2698   3.161   1.135  13.860  0.1157 -0.3298  0.2210
  173MPD1    H6 2699   3.137   1.039  13.837  1.5904 -0.4083 -0.9505
  173MPD1    H7 2700   3.142   1.200  13.785  3.1637  0.1008 -0.1940
  174MPD1     C 2701   3.551   0.455  14.221  0.0553  0.5583 -0.3051
  174MPD1    C1 2702   3.517   0.406  14.345  0.1951  0.3457  1.3036
  174MPD1    C2 2703   3.402   0.455  14.403 -0.0966  1.0301 -0.1144
  174MPD1    C3 2704   3.323   0.546  14.331 -0.2788  0.3695 -0.0068
  174MPD1    C4 2705   3.358   0.588  14.209 -0.5568 -0.0834  0.1351
  174MPD1    C5 2706   3.472   0.548  14.164 -0.6579  0.8764  0.4997
  174MPD1     H 2707   3.361   0.414  14.494 -0.6547 -0.2608 -0.9375
  174MPD1    H1 2708   3.290   0.642  14.144  0.4229  0.7043 -0.2374
  174MPD1    H2 2709   3.642   0.422  14.170  0.3917  0.2960  0.4640
  174MPD1    H3 2710   3.499   0.570  14.061 -0.4064 -0.6654  0.2351
  174MPD1     N 2711   3.192   0.581  14.373  0.2171 -0.8536 -0.2100
  174MPD1    H5 2712   3.141   0.641  14.310  3.2603  1.7044 -0.2285
  174MPD1    N1 2713   3.582   0.293  14.395  0.1713 -0.1508 -0.5470
  174MPD1    H6 2714   3.565   0.271  14.493 -0.3075 -2.2931 -1.1180
  174MPD1    H7 2715   3.683   0.306  14.390  0.1856  0.4784  1.2232
  175MPD1     C 2716   1.846   1.243  15.543  0.3610  0.4592  0.9524
  175MPD1    C1 2717   1.927   1.194  15.642  0.1194 -0.0760  0.0878
  175MPD1    C2 2718   1.881   1.172  15.766 -0.7725 -0.1757  0.9940
  175MPD1    C3 2719   1.747   1.190  15.787 -0.0244 -0.8021  0.1937
  175MPD1    C4 2720   1.662   1.217  15.682 -1.1205  0.2829  0.1688
  175MPD1    C5 2721   1.712   1.249  15.559  0.0338  0.7520 -0.0188
  175MPD1     H 2722   1.943   1.145  15.850  0.4259 -0.6545 -0.0339
  175MPD1    H1 2723   1.558   1.237  15.702 -1.1986  0.7592 -0.6839
  175MPD1    H2 2724   1.881   1.275  15.446  2.6588 -1.0957  1.2560
  175MPD1    H3 2725   1.652   1.290  15.479 -0.0636  0.5156 -0.0644
  175MPD1     N 2726   1.683   1.174  15.915  0.0497  0.1592  0.5891
  175MPD1    H5 2727   1.583   1.190  15.918  0.1399  1.0113 -1.2352
  175MPD1    N1 2728   2.066   1.188  15.613  0.1165 -0.1453 -0.0162
  175MPD1    H6 2729   2.077   1.162  15.516  2.5399 -2.1410  0.7928
  175MPD1    H7 2730   2.115   1.116  15.666 -0.0520 -0.4449 -0.2687
  176MPD1     C 2731   4.016   3.373  15.806  0.3258 -0.3931 -0.2532
  176MPD1    C1 2732   3.968   3.287  15.906 -0.5258  0.1672  0.4653
  176MPD1    C2 2733   3.909   3.338  16.013 -0.2100 -0.4905 -0.4036
  176MPD1    C3 2734   3.902   3.475  16.029 -0.3372 -0.4224 -0.1380
  176MPD1    C4 2735   3.972   3.555  15.948  0.3403  0.2948 -0.8607
  176MPD1    C5 2736   4.025   3.508  15.830  0.0521  0.5082 -0.2631
  176MPD1     H 2737   3.869   3.265  16.082 -1.2126  1.4246  1.0290
  176MPD1    H1 2738   3.978   3.663  15.960 -1.8850  0.4396 -1.0118
  176MPD1    H2 2739   4.069   3.333  15.720  0.3530  2.1931 -1.4161
  176MPD1    H3 2740   4.066   3.578  15.759 -0.1763  0.2503 -0.6513
  176MPD1     N 2741   3.825   3.525  16.138 -0.2693  0.1044 -0.5564
  176MPD1    H5 2742   3.760   3.467  16.190  0.4216 -0.5512 -0.4249
  176MPD1    N1 2743   3.991   3.147  15.893 -0.3486 -0.3125 -0.0515
  176MPD1    H6 2744   3.998   3.111  15.798  4.2613  2.8879 -0.9501
  176MPD1    H7 2745   3.933   3.096  15.958 -0.6801 -0.3135 -0.3480
  177MPD1     C 2746   1.054   2.953   7.958  0.0680  1.2080 -0.2225
  177MPD1    C1 2747   1.066   3.068   8.033  0.7328 -0.2515 -0.5123
  177MPD1    C2 2748   1.064   3.053   8.173  0.8352 -0.4562  0.0644
  177MPD1    C3 2749   1.005   2.936   8.220  0.1339  0.1712  0.2568
  177MPD1    C4 2750   0.974   2.824   8.137  1.1541 -0.4472  0.6514
  177MPD1    C5 2751   1.015   2.828   8.012  0.3441  0.3021  0.1288
  177MPD1     H 2752   1.074   3.136   8.240 -3.4576 -0.5090  0.7951
  177MPD1    H1 2753   0.933   2.731   8.174 -0.7257  0.3473  0.5866
  177MPD1    H2 2754   1.077   2.954   7.852 -0.9656  0.1369 -0.4671
  177MPD1    H3 2755   1.018   2.738   7.952  1.6473 -0.4657  1.3569
  177MPD1     N 2756   0.991   2.933   8.364 -0.1718  0.1554  0.5357
  177MPD1    H5 2757   1.011   3.022   8.409 -2.1227  0.9009 -0.0810
  177MPD1    N1 2758   1.115   3.185   7.967  0.6535 -0.2630  0.2781
  177MPD1    H6 2759   1.073   3.208   7.878  0.5327  0.1095  0.4308
  177MPD1    H7 2760   1.088   3.271   8.015  1.4387 -0.3655  0.9137
  178MPD1     C 2761   3.689   0.515  16.863  0.0043 -0.0934  0.7481
  178MPD1    C1 2762   3.642   0.408  16.936 -0.0232 -0.2850 -0.2388
  178MPD1    C2 2763   3.721   0.288  16.939 -0.0629  0.5080  0.5574
  178MPD1    C3 2764   3.847   0.280  16.879  0.8250 -0.2950  0.2588
  178MPD1    C4 2765   3.891   0.393  16.814  0.3259  1.0260  0.2345
  178MPD1    C5 2766   3.810   0.500  16.801 -0.9046 -0.2334 -0.9953
  178MPD1     H 2767   3.682   0.203  16.993  1.1376  0.7589  1.8065
  178MPD1    H1 2768   3.982   0.390  16.755 -1.0917  0.7710 -1.9333
  178MPD1    H2 2769   3.631   0.603  16.841  0.6636 -0.1645 -1.2599
  178MPD1    H3 2770   3.841   0.578  16.732  0.1003  0.8233  0.6507
  178MPD1     N 2771   3.933   0.166  16.875 -0.0641  0.0057 -0.3874
  178MPD1    H5 2772   4.028   0.177  16.842  1.2941  0.1408  3.6157
  178MPD1    N1 2773   3.542   0.424  17.036 -0.4350 -0.0699  0.0732
  178MPD1    H6 2774   3.470   0.487  16.999 -0.5086  0.9562  1.9547
  178MPD1    H7 2775   3.493   0.336  17.051  1.8876 -1.1407  1.3806
  179MPD1     C 2776   3.837   2.847  16.240  0.4785  0.3508 -0.1171
  179MPD1    C1 2777   3.804   2.835  16.106  0.2149 -0.1903 -0.1660
  179MPD1    C2 2778   3.789   2.706  16.059 -0.1645  0.0629 -0.1433
  179MPD1    C3 2779   3.807   2.598  16.141  1.0760  0.3329  0.3875
  179MPD1    C4 2780   3.835   2.610  16.278 -0.5469 -0.1247 -0.5659
  179MPD1    C5 2781   3.850   2.738  16.325  0.0796  0.4218 -0.7880
  179MPD1     H 2782   3.769   2.693  15.954 -0.0445 -2.0434  0.0928
  179MPD1    H1 2783   3.872   2.534  16.347 -1.4731  0.1515  0.2216
  179MPD1    H2 2784   3.856   2.946  16.280  0.3965  0.5102 -0.4736
  179MPD1    H3 2785   3.884   2.755  16.427 -0.3893  0.1678 -0.5872
  179MPD1     N 2786   3.802   2.465  16.091 -0.3169 -0.2634  0.3874
  179MPD1    H5 2787   3.828   2.391  16.156 -1.6819  0.1911  1.4475
  179MPD1    N1 2788   3.803   2.942  16.021 -0.3616 -0.7823 -0.1105
  179MPD1    H6 2789   3.775   2.924  15.925  0.8434 -0.6756 -0.4869
  179MPD1    H7 2790   3.749   3.021  16.055 -1.3587 -0.9199 -1.3625
  180MPD1     C 2791   2.558   4.163  14.529  0.0324 -0.7712  0.0566
  180MPD1    C1 2792   2.695   4.179  14.531 -0.2632 -0.2259 -0.0860
  180MPD1    C2 2793   2.763   4.081  14.460  0.5036 -0.2184 -0.3144
  180MPD1    C3 2794   2.698   3.981  14.390 -0.3850 -0.1892  0.3804
  180MPD1    C4 2795   2.564   3.973  14.394  0.1879  0.5973 -0.3208
  180MPD1    C5 2796   2.494   4.072  14.461 -0.1467 -0.6032 -0.7486
  180MPD1     H 2797   2.871   4.093  14.455  0.5289 -1.0276 -1.6239
  180MPD1    H1 2798   2.510   3.888  14.355  0.6588  0.5399 -0.8371
  180MPD1    H2 2799   2.498   4.240  14.577  0.5955  0.8516 -1.8671
  180MPD1    H3 2800   2.386   4.060  14.459 -0.2535  0.2512  0.0335
  180MPD1     N 2801   2.780   3.890  14.313 -0.4799  0.1605 -0.1118
  180MPD1    H5 2802   2.879   3.910  14.318 -0.9283  2.0449  1.3628
  180MPD1    N1 2803   2.753   4.283  14.602 -0.2420 -0.2118 -0.1667
  180MPD1    H6 2804   2.698   4.290  14.687  1.3146  2.3267  0.6274
  180MPD1    H7 2805   2.853   4.269  14.614  0.0770  2.2326  0.0851
  181MPD1     C 2806   0.476   0.176  10.476 -0.0297 -0.7278 -0.1860
  181MPD1    C1 2807   0.478   0.306  10.524  0.6717  0.0644 -1.0818
  181MPD1    C2 2808   0.589   0.381  10.501  0.8833 -0.8112  0.2225
  181MPD1    C3 2809   0.683   0.336  10.407 -0.0120  0.8312 -0.8845
  181MPD1    C4 2810   0.677   0.213  10.355  0.1234  0.4735  0.2858
  181MPD1    C5 2811   0.573   0.128  10.394 -0.1093  0.7312  0.1407
  181MPD1     H 2812   0.607   0.475  10.552 -2.0151 -1.6497  2.8251
  181MPD1    H1 2813   0.743   0.179  10.277 -1.1789 -0.3743 -0.4602
  181MPD1    H2 2814   0.396   0.113  10.513 -0.0226  0.3043  1.5985
  181MPD1    H3 2815   0.567   0.026  10.356  2.3135  0.0582  1.6083
  181MPD1     N 2816   0.791   0.418  10.365  0.3034  0.3070  0.5405
  181MPD1    H5 2817   0.860   0.376  10.304 -0.3793  1.3894 -0.9619
  181MPD1    N1 2818   0.386   0.349  10.618  0.9400 -0.8104 -0.0165
  181MPD1    H6 2819   0.371   0.449  10.612  0.6374 -0.8046  0.8773
  181MPD1    H7 2820   0.292   0.310  10.607  0.6410  0.3080 -1.3210
  182MPD1     C 2821   0.338   0.562   1.353  0.1071  0.3174  0.0499
  182MPD1    C1 2822   0.260   0.568   1.238  0.1000 -0.2818 -0.1315
  182MPD1    C2 2823   0.311   0.523   1.115 -0.8587 -0.2467  0.5627
  182MPD1    C3 2824   0.433   0.467   1.100 -0.4801 -0.6153  0.1456
  182MPD1    C4 2825   0.514   0.457   1.215 -0.6080  0.5791 -0.2245
  182MPD1    C5 2826   0.465   0.503   1.340  0.2981 -0.2152  0.5333
  182MPD1     H 2827   0.240   0.517   1.033 -0.7146 -1.0098  0.4959
  182MPD1    H1 2828   0.604   0.397   1.207  1.3797  3.5299 -0.0413
  182MPD1    H2 2829   0.297   0.591   1.449  0.4454 -1.5498  0.7562
  182MPD1    H3 2830   0.531   0.492   1.426  0.9791 -1.3541 -0.1359
  182MPD1     N 2831   0.488   0.417   0.977 -0.6306 -0.0058 -0.1368
  182MPD1    H5 2832   0.585   0.389   0.976 -0.1673  1.6554 -0.3523
  182MPD1    N1 2833   0.129   0.616   1.247 -0.4321  0.3663  0.1257
  182MPD1    H6 2834   0.100   0.671   1.167 -0.7402 -1.6354 -1.1397
  182MPD1    H7 2835   0.114   0.678   1.326  1.2034  0.0913  0.6698
  183MPD1     C 2836   2.214   0.593   9.308  0.5154 -0.8471  0.0348
  183MPD1    C1 2837   2.203   0.733   9.271  0.0368 -0.8165  0.1421
  183MPD1    C2 2838   2.299   0.823   9.312  0.0292 -0.7248 -0.3510
  183MPD1    C3 2839   2.410   0.779   9.381 -0.4184  0.0649 -0.0874
  183MPD1    C4 2840   2.420   0.642   9.410 -0.2920 -0.2484 -0.2318
  183MPD1    C5 2841   2.317   0.554   9.381 -0.2082 -0.5671  0.4066
  183MPD1     H 2842   2.296   0.929   9.289  1.1615 -1.1638 -2.5034
  183MPD1    H1 2843   2.509   0.612   9.464  0.1487  0.7954 -0.3770
  183MPD1    H2 2844   2.142   0.524   9.265  0.3374  0.1396 -1.2579
  183MPD1    H3 2845   2.331   0.448   9.401 -0.4286 -0.1922  2.6143
  183MPD1     N 2846   2.509   0.861   9.441  0.0056  0.1427  0.8506
  183MPD1    H5 2847   2.577   0.812   9.498 -1.3558  1.0685  3.2663
  183MPD1    N1 2848   2.096   0.773   9.184  0.4291 -0.1108  0.3321
  183MPD1    H6 2849   2.069   0.871   9.187  0.4226 -0.1413  1.5972
  183MPD1    H7 2850   2.015   0.711   9.182 -0.1435  0.5689  2.0405
  184MPD1     C 2851   1.288   2.387  10.383  0.4223  0.3521  0.0094
  184MPD1    C1 2852   1.176   2.442  10.335  0.1938 -0.8383  0.0893
  184MPD1    C2 2853   1.184   2.527  10.229  0.1598 -0.0648  0.5733
  184MPD1    C3 2854   1.302   2.565  10.170  0.2235  0.7856 -0.5055
  184MPD1    C4 2855   1.419   2.504  10.215 -0.2487  0.4763  0.1421
  184MPD1    C5 2856   1.408   2.414  10.323 -0.4283 -0.3051  0.1133
  184MPD1     H 2857   1.087   2.565  10.200 -0.3136 -0.0145  2.1920
  184MPD1    H1 2858   1.520   2.518  10.177  0.6162 -1.2506  1.8249
  184MPD1    H2 2859   1.288   2.315  10.464  2.2696  1.5115  1.0411
  184MPD1    H3 2860   1.496   2.368  10.365  0.3958  2.5564  1.5174
  184MPD1     N 2861   1.320   2.657  10.069 -0.5075 -0.5605  0.4842
  184MPD1    H5 2862   1.408   2.671  10.021 -1.4097 -1.3536 -1.3976
  184MPD1    N1 2863   1.053   2.400  10.382 -0.3300  0.2242  0.0842
  184MPD1    H6 2864   0.977   2.468  10.382 -0.9411 -0.4630  0.2579
  184MPD1    H7 2865   1.057   2.353  10.473  1.5438 -0.7865 -0.5328
  185MPD1     C 2866   1.238   2.868   9.024  0.7520 -1.0777 -0.2722
  185MPD1    C1 2867   1.184   2.768   9.109 -0.1798 -0.3196 -0.7361
  185MPD1    C2 2868   1.184   2.789   9.245  0.7232 -0.1264 -0.5048
  185MPD1    C3 2869   1.258   2.897   9.300  0.4321  0.5437  0.1956
  185MPD1    C4 2870   1.310   2.996   9.215  0.0018 -0.5768 -0.6659
  185MPD1    C5 2871   1.296   2.979   9.079  0.4945 -0.3239 -0.0692
  185MPD1     H 2872   1.130   2.716   9.304  1.3599 -1.9115 -2.1324
  185MPD1    H1 2873   1.370   3.081   9.246 -0.1637 -0.7964  0.2488
  185MPD1    H2 2874   1.229   2.859   8.916  2.3591 -0.6343 -0.4415
  185MPD1    H3 2875   1.336   3.042   9.000 -0.9192  1.2315  0.4518
  185MPD1     N 2876   1.273   2.914   9.441 -0.0045 -0.1148  0.5377
  185MPD1    H5 2877   1.331   2.997   9.453 -1.9310  0.8650  3.0065
  185MPD1    N1 2878   1.100   2.674   9.050 -0.3099  0.5131  0.4165
  185MPD1    H6 2879   1.103   2.586   9.102 -0.8628 -1.3684 -2.7632
  185MPD1    H7 2880   1.143   2.638   8.966 -1.0075 -0.7330  0.5896
  186MPD1     C 2881   4.655   2.227  15.877  0.1923 -0.1126  0.2519
  186MPD1    C1 2882   4.557   2.207  15.974 -0.2174  0.0591  0.2924
  186MPD1    C2 2883   4.492   2.320  16.027 -0.9053 -0.4471  0.5285
  186MPD1    C3 2884   4.527   2.448  15.988  0.9814 -0.0307 -0.1923
  186MPD1    C4 2885   4.630   2.460  15.896  0.0067  0.4874  0.3405
  186MPD1    C5 2886   4.687   2.348  15.839  0.5956  0.6841  0.6522
  186MPD1     H 2887   4.422   2.294  16.105  0.6506  0.1572  2.1104
  186MPD1    H1 2888   4.663   2.557  15.859  0.2365  0.3834  0.2746
  186MPD1    H2 2889   4.708   2.143  15.833  0.8171 -0.9261  2.5960
  186MPD1    H3 2890   0.031   2.371  15.769 -0.1816  1.6165  0.0758
  186MPD1     N 2891   4.477   2.568  16.045  0.1741 -0.1470 -0.2675
  186MPD1    H5 2892   4.500   2.656  16.000  2.5418 -1.5665 -1.8865
  186MPD1    N1 2893   4.535   2.083  16.035 -0.0000  0.1966  0.2867
  186MPD1    H6 2894   4.575   2.002  15.988 -0.1756  0.3851 -0.1919
  186MPD1    H7 2895   4.438   2.064  16.058  0.1513 -0.6573  0.1987
  187MPD1     C 2896   2.412   0.477   0.284 -0.3409  0.4455  0.1038
  187MPD1    C1 2897   2.379   0.593   0.232 -0.6880 -0.3519  0.0982
  187MPD1    C2 2898   2.364   0.595   0.091  0.1074  0.4454  0.2024
  187MPD1    C3 2899   2.393   0.485   0.014  0.5168  0.1902 -0.7235
  187MPD1    C4 2900   2.430   0.367   0.077 -0.0429  0.0946  0.4863
  187MPD1    C5 2901   2.444   0.361   0.215 -0.2665  0.2692 -0.2669
  187MPD1     H 2902   2.329   0.686   0.044  0.8663  0.6097 -0.0489
  187MPD1    H1 2903   2.453   0.279   0.017  0.9576  1.0564 -0.5504
  187MPD1    H2 2904   2.423   0.466   0.391  1.0994  1.6139  0.0814
  187MPD1    H3 2905   2.476   0.272   0.267 -1.8566  0.3361  0.8338
  187MPD1     N 2906   2.368   0.477  17.615  0.4980 -0.3222  0.5630
  187MPD1    H5 2907   2.389   0.390  17.566  1.1252  0.0242  0.2198
  187MPD1    N1 2908   2.332   0.695   0.313 -0.6030  0.0432 -0.1371
  187MPD1    H6 2909   2.327   0.785   0.265  1.2295  0.6091  0.7456
  187MPD1    H7 2910   2.358   0.713   0.410  0.1346  0.3535 -0.3934
  188MPD1     C 2911   3.277   4.671  10.698 -0.0010  0.1945 -0.1975
  188MPD1    C1 2912   3.328   4.559  10.757 -0.5378 -0.2474 -0.1066
  188MPD1    C2 2913   3.373   4.462  10.667 -0.0649  0.8308 -0.2490
  188MPD1    C3 2914   3.362   4.469  10.525  0.1409  0.1577 -0.4396
  188MPD1    C4 2915   3.302   4.584  10.478  0.9424 -0.0578 -0.0256
  188MPD1    C5 2916   3.268   4.685  10.561 -0.4008 -0.8955  0.6107
  188MPD1     H 2917   3.412   4.378  10.723  1.3991  0.3575 -1.9776
  188MPD1    H1 2918   3.296   4.607  10.373 -0.7347  2.2814  0.5966
  188MPD1    H2 2919   3.266   0.029  10.751  2.2946 -0.7936  2.0102
  188MPD1    H3 2920   3.238   0.044  10.517 -0.2858 -0.9670  0.3789
  188MPD1     N 2921   3.391   4.368  10.433 -0.9180  0.2655  0.2364
  188MPD1    H5 2922   3.372   4.386  10.334  1.1105  2.6269  0.2977
  188MPD1    N1 2923   3.374   4.556  10.894  0.0271  0.1794  0.1111
  188MPD1    H6 2924   3.303   4.598  10.954 -0.4903 -1.7647  0.8371
  188MPD1    H7 2925   3.381   4.464  10.936 -0.2352 -0.4743 -1.2679
  189MPD1     C 2926   0.540   0.889   0.665  0.7758  1.2327 -0.0190
  189MPD1    C1 2927   0.430   0.814   0.694  0.1625 -0.5348 -0.1946
  189MPD1    C2 2928   0.311   0.823   0.613  0.0412  0.2287 -0.2885
  189MPD1    C3 2929   0.304   0.902   0.506  0.3479  0.0169 -0.6664
  189MPD1    C4 2930   0.427   0.956   0.467 -0.1400  0.5521 -0.5345
  189MPD1    C5 2931   0.540   0.952   0.544 -0.3256 -0.1684 -0.3636
  189MPD1     H 2932   0.220   0.767   0.635 -2.0620  3.2316 -1.3313
  189MPD1    H1 2933   0.418   1.025   0.384 -0.2391  0.2707 -0.7606
  189MPD1    H2 2934   0.627   0.898   0.730  1.3203 -0.1076 -0.5723
  189MPD1    H3 2935   0.626   1.009   0.513 -0.9798  1.8396  1.5666
  189MPD1     N 2936   0.178   0.928   0.446 -0.3044  0.2574 -0.4850
  189MPD1    H5 2937   0.100   0.879   0.491 -0.6969  0.0810 -1.3510
  189MPD1    N1 2938   0.427   0.756   0.818  0.4610  0.7375 -0.2663
  189MPD1    H6 2939   0.365   0.676   0.826  1.6767  0.1530  3.4298
  189MPD1    H7 2940   0.520   0.736   0.854  0.3326  0.9410  0.1830
  190MPD1     C 2941   3.549   3.661  14.971 -1.1172  0.2975  0.5022
  190MPD1    C1 2942   3.573   3.793  14.987 -0.6286 -0.6576  0.5157
  190MPD1    C2 2943   3.672   3.832  15.079 -0.1353  0.4427  0.1576
  190MPD1    C3 2944   3.703   3.740  15.176 -0.8563 -0.1620  0.0233
  190MPD1    C4 2945   3.676   3.605  15.155 -0.4619 -0.1629  0.2956
  190MPD1    C5 2946   3.596   3.571  15.055  0.3420  0.3810  0.9052
  190MPD1     H 2947   3.707   3.934  15.089 -0.6358  0.5645  0.6602
  190MPD1    H1 2948   3.722   3.526  15.212  0.0938 -0.7141 -0.9030
  190MPD1    H2 2949   3.481   3.631  14.892 -0.6908  0.8650 -0.0932
  190MPD1    H3 2950   3.579   3.465  15.040  0.2463  0.9189 -2.7934
  190MPD1     N 2951   3.783   3.787  15.289  0.0903  0.6573 -0.3156
  190MPD1    H5 2952   3.806   3.886  15.288  3.2808 -0.0542  1.4294
  190MPD1    N1 2953   3.520   3.881  14.894  0.3308 -0.5713  0.1707
  190MPD1    H6 2954   3.535   3.978  14.924 -1.3865 -0.6297  1.1949
  190MPD1    H7 2955   3.421   3.867  14.878  0.1505  1.8944 -0.8978
  191MPD1     C 2956   2.691   0.589  13.050  0.6160  0.2181 -0.1255
  191MPD1    C1 2957   2.782   0.675  12.993  0.0996 -0.3903  0.3461
  191MPD1    C2 2958   2.725   0.794  12.958 -0.8857 -0.5784 -0.4253
  191MPD1    C3 2959   2.593   0.822  12.974 -0.5489  0.1643  0.0565
  191MPD1    C4 2960   2.512   0.744  13.054 -0.4207  0.3191  0.7594
  191MPD1    C5 2961   2.569   0.623  13.087 -0.2811  0.8618 -0.0083
  191MPD1     H 2962   2.786   0.859  12.896  0.9411 -0.0426  1.9432
  191MPD1    H1 2963   2.410   0.771  13.081 -0.3931 -0.3425  1.5248
  191MPD1    H2 2964   2.712   0.485  13.071 -2.4464 -0.2977  0.2337
  191MPD1    H3 2965   2.510   0.551  13.143 -1.1306  1.5129 -0.0645
  191MPD1     N 2966   2.539   0.952  12.936  0.3783 -0.3083 -0.3275
  191MPD1    H5 2967   2.612   1.015  12.904  0.6843 -0.8637 -0.7203
  191MPD1    N1 2968   2.891   0.614  12.927  0.0402  0.2077 -0.8013
  191MPD1    H6 2969   2.972   0.674  12.912  0.7257 -0.3730  0.6153
  191MPD1    H7 2970   2.929   0.535  12.978 -0.5822  0.3558 -0.1236
  192MPD1     C 2971   1.840   1.439  13.391  0.4154 -0.2928 -0.6675
  192MPD1    C1 2972   1.805   1.467  13.256  1.1567  0.1826 -0.0887
  192MPD1    C2 2973   1.901   1.469  13.162  0.4841  0.0317 -0.1037
  192MPD1    C3 2974   2.028   1.427  13.191 -0.6306 -0.3736 -0.2384
  192MPD1    C4 2975   2.068   1.419  13.325  0.0591 -0.0671 -0.0753
  192MPD1    C5 2976   1.967   1.420  13.420  0.1296  0.0395  0.0387
  192MPD1     H 2977   1.869   1.474  13.058  0.7647  0.6592 -0.1583
  192MPD1    H1 2978   2.171   1.395  13.350 -0.3645 -2.2688 -0.5022
  192MPD1    H2 2979   1.787   1.435  13.486 -2.0137 -0.7658 -2.0471
  192MPD1    H3 2980   1.989   1.425  13.526 -1.8255 -2.2287  0.5477
  192MPD1     N 2981   2.122   1.388  13.092 -0.1247  0.3248 -0.3081
  192MPD1    H5 2982   2.207   1.349  13.132 -1.0859 -0.8677  0.5887
  192MPD1    N1 2983   1.668   1.482  13.215 -0.0385 -0.7535  0.1290
  192MPD1    H6 2984   1.662   1.548  13.139 -1.8070  0.1409  1.0210
  192MPD1    H7 2985   1.619   1.525  13.294 -0.6920 -1.3728  0.0692
  193MPD1     C 2986   2.464   1.004  16.403  0.3111 -0.0569 -0.6505
  193MPD1    C1 2987   2.574   0.966  16.338 -0.1291 -0.1191 -0.2948
  193MPD1    C2 2988   2.694   1.037  16.364 -0.4216  0.6992 -1.1339
  193MPD1    C3 2989   2.692   1.159  16.436  0.3481 -0.1597 -0.7354
  193MPD1    C4 2990   2.576   1.203  16.481  0.3773  0.1192  0.0281
  193MPD1    C5 2991   2.461   1.122  16.471 -0.3805  1.3053 -0.0139
  193MPD1     H 2992   2.789   1.011  16.319 -0.2887  1.7672 -1.4638
  193MPD1    H1 2993   2.566   1.298  16.533  0.2201  0.4486 -0.6062
  193MPD1    H2 2994   2.371   0.948  16.395 -0.1996  0.4209  1.9342
  193MPD1    H3 2995   2.373   1.167  16.514  0.8859  2.4397  1.3983
  193MPD1     N 2996   2.805   1.244  16.448 -0.1695 -0.5047  0.2846
  193MPD1    H5 2997   2.789   1.314  16.521  0.4608  0.4581 -0.5037
  193MPD1    N1 2998   2.574   0.842  16.271  0.3716  0.2885  0.8997
  193MPD1    H6 2999   2.646   0.846  16.199 -0.0087  1.5908  0.5847
  193MPD1    H7 3000   2.482   0.822  16.231  1.3295  0.7755 -1.5657
  194MPD1     C 3001   0.315   2.104  17.320  0.4335 -0.0563  0.1823
  194MPD1    C1 3002   0.314   2.210  17.405 -0.2926  0.0124  0.2085
  194MPD1    C2 3003   0.389   2.318  17.362 -0.5835  0.6315 -0.7910
  194MPD1    C3 3004   0.474   2.316  17.250 -0.5591 -0.1156 -0.5825
  194MPD1    C4 3005   0.482   2.199  17.182 -1.5445 -0.3415 -0.8659
  194MPD1    C5 3006   0.392   2.103  17.207 -0.6035  0.2197 -0.7413
  194MPD1     H 3007   0.375   2.416  17.406  0.8402  0.5188 -0.0978
  194MPD1    H1 3008   0.545   2.189  17.094 -1.1484  0.2484 -0.6474
  194MPD1    H2 3009   0.249   2.019  17.339 -0.5046  0.6118 -0.0842
  194MPD1    H3 3010   0.402   2.015  17.144  0.9156  0.2158 -0.4790
  194MPD1     N 3011   0.559   2.422  17.214 -0.1612 -0.3462 -0.3683
  194MPD1    H5 3012   0.602   2.407  17.123  0.6019 -4.3230  0.6436
  194MPD1    N1 3013   0.216   2.223  17.502 -0.5885 -0.0764  0.5305
  194MPD1    H6 3014   0.256   2.280  17.576 -0.0564 -0.3184  0.4276
  194MPD1    H7 3015   0.186   2.133  17.539 -0.6378 -0.0984  0.4373
  195MPD1     C 3016   3.099   4.694  16.871 -0.3692  0.4643  0.6387
  195MPD1    C1 3017   3.179   4.582  16.849  0.0286 -0.3485  0.7367
  195MPD1    C2 3018   3.125   4.457  16.869 -0.0258  0.0690  0.1908
  195MPD1    C3 3019   2.989   4.441  16.910  0.3230 -0.5275 -0.7049
  195MPD1    C4 3020   2.917   4.555  16.935 -0.4504  0.3574 -0.3966
  195MPD1    C5 3021   2.970   4.680  16.915  0.2596 -0.4248  0.0192
  195MPD1     H 3022   3.172   4.361  16.852  0.2510  0.2587 -0.1142
  195MPD1    H1 3023   2.812   4.549  16.960  0.1365  0.6634  2.2285
  195MPD1    H2 3024   3.138   0.059  16.864 -1.3751  0.6857 -1.6027
  195MPD1    H3 3025   2.915   0.037  16.921  2.1109  0.4729  2.9622
  195MPD1     N 3026   2.910   4.315  16.924  0.1532 -0.2097 -0.4946
  195MPD1    H5 3027   2.812   4.324  16.947  0.9030 -2.2813  3.6032
  195MPD1    N1 3028   3.299   4.605  16.786 -0.3405 -0.3287 -0.0292
  195MPD1    H6 3029   3.372   4.544  16.822  1.3740  1.2061 -0.9252
  195MPD1    H7 3030   3.329   4.701  16.805  0.2356 -0.3287 -0.9568
  196MPD1     C 3031   1.618   4.268  17.417  0.6584 -0.7881  0.3539
  196MPD1    C1 3032   1.649   4.399  17.454  0.3118  0.3605  0.6554
  196MPD1    C2 3033   1.611   4.437  17.584 -0.5449  0.0860 -0.4582
  196MPD1    C3 3034   1.566   4.345  17.679 -0.8900 -0.9768 -0.1119
  196MPD1    C4 3035   1.541   4.213  17.643  0.0487  0.0665 -0.8877
  196MPD1    C5 3036   1.567   4.178  17.509 -0.0427 -0.6243  0.6826
  196MPD1     H 3037   1.626   4.540  17.614  1.8875  0.1817 -2.0048
  196MPD1    H1 3038   1.505   4.142  17.717 -2.1852 -0.3468 -2.3801
  196MPD1    H2 3039   1.632   4.239  17.314  2.7961  0.5488  0.2633
  196MPD1    H3 3040   1.538   4.081  17.469  0.6099  0.5511 -2.6837
  196MPD1     N 3041   1.539   4.380   0.067  0.6608  0.2257  0.1161
  196MPD1    H5 3042   1.504   4.304   0.125  1.5729  0.2126  0.6530
  196MPD1    N1 3043   1.689   4.495  17.361  0.3230 -0.0850  0.4758
  196MPD1    H6 3044   1.746   4.472  17.280 -1.4280 -1.1482 -0.4610
  196MPD1    H7 3045   1.701   4.593  17.387 -0.2206  0.9297 -3.0237
  197MPD1     C 3046   1.438   1.204  17.415 -0.3330  0.3074  0.1229
  197MPD1    C1 3047   1.559   1.225  17.480 -0.2753 -0.0693  0.3255
  197MPD1    C2 3048   1.646   1.319  17.433 -0.6356  0.0141 -0.1134
  197MPD1    C3 3049   1.633   1.377  17.303 -0.3277 -0.1695  0.6110
  197MPD1    C4 3050   1.530   1.323  17.225  0.0748 -0.7736 -0.4369
  197MPD1    C5 3051   1.437   1.237  17.284  0.2278 -0.5770  0.6560
  197MPD1     H 3052   1.729   1.348  17.497  1.6575 -4.4216 -1.0296
  197MPD1    H1 3053   1.524   1.344  17.119  0.0729  1.1376 -0.0517
  197MPD1    H2 3054   1.363   1.143  17.464 -0.7378  0.4223 -0.3569
  197MPD1    H3 3055   1.353   1.205  17.223 -0.0976  0.1737  0.7096
  197MPD1     N 3056   1.735   1.449  17.240 -0.1277  0.3782  0.0576
  197MPD1    H5 3057   1.729   1.459  17.139  1.4412  0.4080 -0.0405
  197MPD1    N1 3058   1.572   1.162  17.604 -0.3566  0.4737  1.0851
  197MPD1    H6 3059   1.668   1.129  17.611 -0.9111 -1.2953  0.4490
  197MPD1    H7 3060   1.514   1.079  17.612  1.3244 -0.8253 -0.3645
  198MPD1     C 3061   3.003   0.142  15.629  0.3493 -0.7433 -0.6565
  198MPD1    C1 3062   3.121   0.169  15.555  0.5269  0.3221  0.4229
  198MPD1    C2 3063   3.214   0.260  15.600  0.1421 -0.3990 -0.0156
  198MPD1    C3 3064   3.176   0.335  15.711  0.2150 -0.3359 -0.4657
  198MPD1    C4 3065   3.065   0.312  15.785  0.1062  0.3237  0.2695
  198MPD1    C5 3066   2.980   0.209  15.747  0.4152  0.3841 -0.1851
  198MPD1     H 3067   3.299   0.296  15.543 -0.9107 -1.2661 -2.1255
  198MPD1    H1 3068   3.029   0.357  15.877 -2.5842 -0.2363 -0.5247
  198MPD1    H2 3069   2.925   0.076  15.591 -0.4395  0.3145 -0.9040
  198MPD1    H3 3070   2.882   0.203  15.794  0.6294 -1.4984  0.0366
  198MPD1     N 3071   3.275   0.435  15.745 -0.0685 -0.6014 -0.2204
  198MPD1    H5 3072   3.357   0.449  15.687 -0.4983 -0.6025 -0.8281
  198MPD1    N1 3073   3.144   0.103  15.433  0.2655  0.1017  0.5215
  198MPD1    H6 3074   3.241   0.116  15.406  1.0318 -1.1906  2.6983
  198MPD1    H7 3075   3.127   0.003  15.437 -1.7729  0.4723  1.1861
  199MPD1     C 3076   1.582   1.746  10.177 -0.8973  0.2767  0.4606
  199MPD1    C1 3077   1.565   1.781  10.310  0.1735 -0.0785  0.7664
  199MPD1    C2 3078   1.440   1.773  10.371  0.1708  0.5737  0.0970
  199MPD1    C3 3079   1.346   1.699  10.308 -0.3563 -0.2037 -0.2051
  199MPD1    C4 3080   1.370   1.646  10.182 -0.3186  0.2653 -0.0415
  199MPD1    C5 3081   1.482   1.686  10.109 -0.0837  0.4383  0.0183
  199MPD1     H 3082   1.430   1.811  10.472 -0.5542  1.2336 -0.2240
  199MPD1    H1 3083   1.294   1.588  10.132  1.3456 -0.7253 -1.4110
  199MPD1    H2 3084   1.671   1.779  10.124 -2.2316  3.7922  0.4431
  199MPD1    H3 3085   1.493   1.659  10.005 -0.7030 -0.1352  0.0974
  199MPD1     N 3086   1.221   1.671  10.366  0.0943 -0.5542 -0.5529
  199MPD1    H5 3087   1.148   1.633  10.306  0.1370  0.1721 -1.0718
  199MPD1    N1 3088   1.673   1.839  10.379  0.1704 -0.5285 -0.0572
  199MPD1    H6 3089   1.674   1.789  10.469  0.8681  1.1132  0.8443
  199MPD1    H7 3090   1.767   1.818  10.345 -1.0826 -2.0467 -2.5644
  200MPD1     C 3091   4.148   1.423  15.028  0.3423 -0.5034  0.2539
  200MPD1    C1 3092   4.183   1.461  14.897  0.3274  0.0783  1.1554
  200MPD1    C2 3093   4.321   1.457  14.864  0.1095 -0.0860 -0.5980
  200MPD1    C3 3094   4.411   1.440  14.966 -0.1682  0.4881  0.4155
  200MPD1    C4 3095   4.371   1.433  15.101  0.4304 -0.1524 -0.0145
  200MPD1    C5 3096   4.240   1.421  15.136  0.3949 -0.2165 -0.3758
  200MPD1     H 3097   4.341   1.481  14.760  0.6530  2.3361  0.0767
  200MPD1    H1 3098   4.440   1.437  15.184 -0.8435  2.1426  0.9083
  200MPD1    H2 3099   4.045   1.409  15.059  0.1876  0.9425  0.3993
  200MPD1    H3 3100   4.218   1.412  15.242 -1.2501  0.2473 -0.6902
  200MPD1     N 3101   4.549   1.453  14.927 -0.5020 -0.7208  0.0687
  200MPD1    H5 3102   4.570   1.458  14.828 -1.6745 -0.5272 -0.1571
  200MPD1    N1 3103   4.089   1.447  14.791 -0.6737 -0.7262  0.4198
  200MPD1    H6 3104   4.107   1.496  14.704  1.0393  1.2378  1.8717
  200MPD1    H7 3105   4.001   1.476  14.833 -0.8632 -1.0203  0.2279
  201MPD1     C 3106   1.682   0.470  12.934  0.7208  0.1080 -0.2831
  201MPD1    C1 3107   1.660   0.351  12.866 -0.0710 -0.1655  0.0278
  201MPD1    C2 3108   1.758   0.250  12.891 -0.5920 -0.0884  0.6364
  201MPD1    C3 3109   1.856   0.266  12.982  0.1016  0.3057  0.1106
  201MPD1    C4 3110   1.863   0.388  13.055 -0.1537  0.3059 -0.2829
  201MPD1    C5 3111   1.779   0.487  13.024 -0.2484 -0.4495 -0.5045
  201MPD1     H 3112   1.752   0.164  12.825 -1.4665  0.4301  0.0302
  201MPD1    H1 3113   1.924   0.410  13.141 -1.2727  0.3956  0.4839
  201MPD1    H2 3114   1.614   0.553  12.915 -0.9441 -0.8599  1.4028
  201MPD1    H3 3115   1.791   0.584  13.071 -2.4255 -0.2482 -0.4034
  201MPD1     N 3116   1.951   0.160  13.011 -0.3633 -0.1621 -0.5038
  201MPD1    H5 3117   2.016   0.181  13.087 -0.5209  0.2604 -0.4869
  201MPD1    N1 3118   1.577   0.352  12.751 -0.4117 -0.5849  0.4878
  201MPD1    H6 3119   1.544   0.258  12.732 -0.7174 -0.2300 -0.7585
  201MPD1    H7 3120   1.497   0.415  12.746  1.5031  1.8052  0.0340
  202MPD1     C 3121   2.716   4.597   9.118 -0.4466  0.1018  0.2573
  202MPD1    C1 3122   2.711   4.729   9.171 -0.4477  0.1014 -0.3175
  202MPD1    C2 3123   2.751   0.004   9.304 -0.0215 -0.3192 -0.5565
  202MPD1    C3 3124   2.766   4.632   9.391 -0.7363 -0.9020  0.5233
  202MPD1    C4 3125   2.752   4.503   9.336  0.4191 -0.7302 -0.4445
  202MPD1    C5 3126   2.735   4.485   9.200  0.4314 -0.4202 -0.2712
  202MPD1     H 3127   2.769   0.100   9.351 -0.8096 -0.6610  0.4445
  202MPD1    H1 3128   2.772   4.419   9.402 -1.1179 -0.6645  0.1039
  202MPD1    H2 3129   2.701   4.573   9.013  0.7227  0.8866 -0.0921
  202MPD1    H3 3130   2.737   4.388   9.153 -2.2558 -0.7512  0.3178
  202MPD1     N 3131   2.791   4.642   9.535 -0.6128 -0.1789 -0.2558
  202MPD1    H5 3132   2.819   4.561   9.589  1.2176  0.7618  0.2027
  202MPD1    N1 3133   2.725   0.104   9.088 -0.5452 -0.0359 -0.5146
  202MPD1    H6 3134   2.665   0.093   9.006 -0.1557  0.0686 -0.8148
  202MPD1    H7 3135   2.715   0.189   9.143  0.5558  1.6104 -2.8569
  203MPD1     C 3136   1.383   0.857  12.830  0.2605  0.1585  0.2612
  203MPD1    C1 3137   1.411   0.759  12.928 -0.1675 -0.0766  0.0276
  203MPD1    C2 3138   1.363   0.627  12.908  0.5148  0.6266  0.1228
  203MPD1    C3 3139   1.294   0.587  12.792 -0.3021 -0.0926  0.3675
  203MPD1    C4 3140   1.273   0.679  12.686  0.3192 -0.1259  0.0031
  203MPD1    C5 3141   1.318   0.810  12.715 -0.2045 -0.1411 -0.9233
  203MPD1     H 3142   1.383   0.547  12.978 -0.0181 -0.5344 -1.0608
  203MPD1    H1 3143   1.205   0.649  12.607 -1.0808  1.6366  0.5421
  203MPD1    H2 3144   1.401   0.964  12.835 -1.7811  0.5112  0.0670
  203MPD1    H3 3145   1.285   0.883  12.641  0.2762  0.9824 -0.0294
  203MPD1     N 3146   1.243   0.458  12.780  0.1739  0.6979  0.1059
  203MPD1    H5 3147   1.219   0.410  12.867 -1.2623  0.9504 -0.1532
  203MPD1    N1 3148   1.463   0.798  13.050 -0.0038 -0.2796  0.0680
  203MPD1    H6 3149   1.514   0.724  13.096 -0.0985 -0.4056 -0.0283
  203MPD1    H7 3150   1.508   0.890  13.050 -0.8153  0.1248 -1.5776
  204MPD1     C 3151   0.602   2.040   0.300 -0.1980  0.5324  0.2143
  204MPD1    C1 3152   0.632   1.910   0.312  0.2704  0.0018 -0.4913
  204MPD1    C2 3153   0.619   1.826   0.201  0.4947  0.5201  0.4802
  204MPD1    C3 3154   0.574   1.875   0.081 -0.0819 -0.1903 -0.3504
  204MPD1    C4 3155   0.554   2.015   0.070 -0.4984  0.3702  0.5128
  204MPD1    C5 3156   0.568   2.097   0.182 -0.2916 -0.8050  0.6090
  204MPD1     H 3157   0.640   1.720   0.208 -0.1936  0.4453  1.2495
  204MPD1    H1 3158   0.518   2.059  17.721 -1.9036 -1.8843 -0.0269
  204MPD1    H2 3159   0.610   2.100   0.390 -1.2049 -0.3309  0.8795
  204MPD1    H3 3160   0.542   2.202   0.177 -2.0422 -1.3056 -0.5982
  204MPD1     N 3161   0.551   1.787  17.717 -0.4116  0.2134 -0.5063
  204MPD1    H5 3162   0.599   1.698  17.731 -1.8812 -0.2715  1.4333
  204MPD1    N1 3163   0.638   1.857   0.439 -0.0919 -0.1019 -0.2774
  204MPD1    H6 3164   0.689   1.926   0.493 -0.1283  0.7323 -1.3275
  204MPD1    H7 3165   0.693   1.771   0.436  2.0282  1.1835  1.4283
  205MPD1     C 3166   0.875   0.032   0.370 -0.1566  0.2945  0.1329
  205MPD1    C1 3167   0.916   0.161   0.360 -0.0135 -0.6715  0.8861
  205MPD1    C2 3168   0.849   0.251   0.271  0.1444 -0.1850  0.2586
  205MPD1    C3 3169   0.752   0.201   0.185 -0.0629 -0.4900  0.3164
  205MPD1    C4 3170   0.722   0.068   0.195 -0.8521  0.5286  0.9556
  205MPD1    C5 3171   0.768   4.721   0.291 -0.3103 -0.1649  0.7534
  205MPD1     H 3172   0.858   0.358   0.285  0.9859 -0.3039  0.6511
  205MPD1    H1 3173   0.657   0.024   0.120  0.6520 -0.5654  0.2794
  205MPD1    H2 3174   0.926   4.703   0.439 -0.5758  0.5539  0.6923
  205MPD1    H3 3175   0.731   4.620   0.304 -2.1818  0.3668 -0.3492
  205MPD1     N 3176   0.706   0.282   0.076 -0.1542 -0.2626  0.0215
  205MPD1    H5 3177   0.625   0.246   0.026  0.1301 -0.2976 -0.4110
  205MPD1    N1 3178   1.005   0.222   0.450 -0.2725  0.2017  0.2252
  205MPD1    H6 3179   1.048   0.308   0.416 -1.3734  0.2233 -1.0738
  205MPD1    H7 3180   1.076   0.160   0.490 -0.0230 -0.3025 -0.9886
  206MPD1     C 3181   1.024   4.027  17.000 -0.1186 -0.2596  0.1832
  206MPD1    C1 3182   0.994   3.894  16.983  0.2606  0.1890  0.3206
  206MPD1    C2 3183   0.913   3.864  16.873 -0.5779  0.4598 -0.1644
  206MPD1    C3 3184   0.847   3.960  16.803  0.4507 -0.1140 -0.7207
  206MPD1    C4 3185   0.863   4.092  16.836 -0.0991  0.7670 -0.0789
  206MPD1    C5 3186   0.963   4.122  16.923  0.2638  0.5033 -0.4118
  206MPD1     H 3187   0.908   3.759  16.848  1.4979  0.6550 -1.3328
  206MPD1    H1 3188   0.814   4.173  16.785 -2.9770 -1.5312 -0.9476
  206MPD1    H2 3189   1.099   4.054  17.074  1.2084  0.4427 -1.4244
  206MPD1    H3 3190   0.984   4.228  16.935  0.4116  0.3333  0.8290
  206MPD1     N 3191   0.763   3.928  16.691  0.6052  0.0234 -0.1595
  206MPD1    H5 3192   0.702   4.003  16.660 -1.3942 -1.8380 -0.7605
  206MPD1    N1 3193   1.062   3.788  17.051  0.2855  0.5003  0.2043
  206MPD1    H6 3194   1.009   3.702  17.044  1.7427 -0.4034  0.2969
  206MPD1    H7 3195   1.086   3.810  17.148  1.0811 -0.5007  0.2319
  207MPD1     C 3196   3.112   4.678   9.640  0.1888 -0.0116  0.0354
  207MPD1    C1 3197   3.078   0.065   9.577  0.0362  0.2633 -0.3391
  207MPD1    C2 3198   3.076   0.177   9.663 -0.1375 -0.2340 -0.7513
  207MPD1    C3 3199   3.122   0.174   9.797  0.5872  0.0021  0.0728
  207MPD1    C4 3200   3.159   0.052   9.849  0.4758  0.0379 -0.4032
  207MPD1    C5 3201   3.145   4.680   9.768 -0.8137  0.2309 -0.3167
  207MPD1     H 3202   3.054   0.275   9.622  1.2141  0.4221  0.0702
  207MPD1    H1 3203   3.183   0.037   9.954 -1.5042  2.3970  0.3843
  207MPD1    H2 3204   3.135   4.587   9.586 -3.2007 -0.3202 -0.8762
  207MPD1    H3 3205   3.159   4.580   9.809  1.4624  0.8768  0.5127
  207MPD1     N 3206   3.132   0.291   9.874 -0.1754  0.9669 -0.2845
  207MPD1    H5 3207   3.169   0.267   9.966 -3.6696  1.0145  1.1633
  207MPD1    N1 3208   3.071   0.074   9.438  0.1861  0.4607  0.2461
  207MPD1    H6 3209   3.026   4.730   9.393  2.8660  0.4976 -2.4292
  207MPD1    H7 3210   3.016   0.157   9.417  1.0106  0.8756 -0.2622
  208MPD1     C 3211   0.698   3.570  17.717  0.3736 -0.0031 -0.9287
  208MPD1    C1 3212   0.717   3.641  17.596  0.0690 -0.0326 -0.3680
  208MPD1    C2 3213   0.663   3.766  17.595  0.4573  0.5984 -0.4830
  208MPD1    C3 3214   0.601   3.822  17.699  0.8115 -0.0812 -0.1805
  208MPD1    C4 3215   0.578   3.748   0.071 -0.0817  0.3745  0.0969
  208MPD1    C5 3216   0.636   3.627   0.081 -0.0089  0.3181 -0.3413
  208MPD1     H 3217   0.682   3.819  17.503 -1.1067  3.0985  0.6206
  208MPD1    H1 3218   0.509   3.784   0.147  1.8936  0.4483  1.8486
  208MPD1    H2 3219   0.735   3.470  17.737 -1.6601 -0.8747 -1.5182
  208MPD1    H3 3220   0.630   3.562   0.168  1.2398  0.5335 -0.0986
  208MPD1     N 3221   0.542   3.949  17.698 -0.6361  0.3015 -0.2280
  208MPD1    H5 3222   0.500   3.983   0.042  2.2810  0.2086  1.2109
  208MPD1    N1 3223   0.809   3.583  17.502 -0.3958  0.4400  0.1483
  208MPD1    H6 3224   0.831   3.484  17.496  1.2940  1.0308 -3.0391
  208MPD1    H7 3225   0.824   3.632  17.414 -2.8367  2.1735  0.7006
  209MPD1     C 3226   2.818   0.135  11.567  0.5369  0.1411  0.0116
  209MPD1    C1 3227   2.809   0.107  11.431 -0.0051  0.4285  0.2295
  209MPD1    C2 3228   2.844   0.212  11.344 -0.4834  0.3124 -0.6454
  209MPD1    C3 3229   2.863   0.339  11.393 -0.8378  0.0116 -0.8344
  209MPD1    C4 3230   2.846   0.362  11.523  0.0648 -0.2249 -0.0586
  209MPD1    C5 3231   2.818   0.262  11.613  0.3039  0.6482 -0.4735
  209MPD1     H 3232   2.858   0.196  11.238 -1.0933 -1.7553 -0.4164
  209MPD1    H1 3233   2.856   0.462  11.564 -0.2338 -0.4332  0.5327
  209MPD1    H2 3234   2.811   0.054  11.639 -1.8257 -1.0548 -1.5726
  209MPD1    H3 3235   2.826   0.273  11.720 -0.3255 -1.8693 -0.1709
  209MPD1     N 3236   2.907   0.432  11.295 -0.0193 -0.2444 -0.1587
  209MPD1    H5 3237   2.903   0.409  11.196  0.7826  0.3357 -0.3298
  209MPD1    N1 3238   2.794   4.709  11.391  0.4726  0.0070  0.0161
  209MPD1    H6 3239   2.749   4.642  11.454  1.0408 -0.0975  0.3175
  209MPD1    H7 3240   2.752   4.706  11.299  3.1995 -0.4067 -1.2020
  210MPD1     C 3241   3.376   1.299  11.493 -0.1623  0.4749  0.0496
  210MPD1    C1 3242   3.385   1.295  11.360  0.3046 -0.6341  0.0998
  210MPD1    C2 3243   3.322   1.189  11.293  0.2036  0.0320  0.6785
  210MPD1    C3 3244   3.266   1.086  11.361 -0.2429  0.2260 -0.6846
  210MPD1    C4 3245   3.268   1.086  11.498  0.6342  0.5828  1.0824
  210MPD1    C5 3246   3.315   1.198  11.560  0.2356 -0.1258 -0.0738
  210MPD1     H 3247   3.336   1.190  11.185  4.4622 -0.7170  1.2078
  210MPD1    H1 3248   3.222   1.014  11.564  0.1567  1.5940  1.8535
  210MPD1    H2 3249   3.408   1.385  11.551  0.4631 -0.2507  0.7751
  210MPD1    H3 3250   3.303   1.203  11.668  0.9024 -1.8886  0.0811
  210MPD1     N 3251   3.203   0.979  11.297  0.0356 -0.0565  0.2370
  210MPD1    H5 3252   3.158   0.908  11.353 -0.4756 -0.5117 -0.7537
  210MPD1    N1 3253   3.424   1.407  11.284 -0.1257  0.0354 -0.2185
  210MPD1    H6 3254   3.502   1.459  11.325  0.3251 -0.5408 -0.3385
  210MPD1    H7 3255   3.445   1.388  11.186 -1.2979  2.4318 -0.9319
  211MPD1     C 3256   1.404   0.005  16.418  0.8654  0.0894 -0.7975
  211MPD1    C1 3257   1.346   0.001  16.294 -0.4816 -0.4420 -1.0554
  211MPD1    C2 3258   1.226   0.065  16.273 -0.2012 -0.5824 -0.1420
  211MPD1    C3 3259   1.186   0.159  16.369  0.0538 -0.5678  0.5314
  211MPD1    C4 3260   1.256   0.176  16.486  0.9338 -0.3453 -0.6860
  211MPD1    C5 3261   1.373   0.102  16.507 -0.2807 -0.6719  0.3178
  211MPD1     H 3262   1.181   0.067  16.175  0.5104 -0.9333 -0.4787
  211MPD1    H1 3263   1.224   0.247  16.562 -1.8346 -0.4379 -1.7644
  211MPD1    H2 3264   1.493   4.688  16.452  1.4546  1.2497 -0.5273
  211MPD1    H3 3265   1.430   0.114  16.598 -0.4016  0.9706  0.1716
  211MPD1     N 3266   1.084   0.248  16.329  0.2644  0.0893  0.4703
  211MPD1    H5 3267   1.034   0.223  16.245  1.5831 -0.9590  0.0049
  211MPD1    N1 3268   1.394   4.647  16.199 -0.6985 -0.1153 -0.5251
  211MPD1    H6 3269   1.496   4.642  16.206 -0.5963  2.1640 -0.4043
  211MPD1    H7 3270   1.357   4.655  16.104 -0.9634  0.3908 -0.3786
  212MPD1     C 3271   0.454   3.836  16.897  0.0266  0.5853  0.2231
  212MPD1    C1 3272   0.503   3.712  16.926  0.3290 -0.3441  0.1276
  212MPD1    C2 3273   0.402   3.619  16.948 -0.8200 -0.4609  0.1253
  212MPD1    C3 3274   0.264   3.640  16.920 -0.4437  0.1922  0.0455
  212MPD1    C4 3275   0.231   3.773  16.896 -0.1913  0.5062  0.1951
  212MPD1    C5 3276   0.323   3.872  16.894 -0.1848 -0.3681 -1.0806
  212MPD1     H 3277   0.440   3.521  16.974 -0.9467 -0.1689  1.4401
  212MPD1    H1 3278   0.126   3.800  16.888 -0.7658 -1.3902  1.4014
  212MPD1    H2 3279   0.527   3.916  16.899 -0.4848  1.0127  2.4389
  212MPD1    H3 3280   0.285   3.972  16.876 -2.1871 -0.8521  0.3825
  212MPD1     N 3281   0.159   3.550  16.930 -0.5275  0.4302 -0.3995
  212MPD1    H5 3282   0.072   3.587  16.895 -1.2360  1.8281  2.7847
  212MPD1    N1 3283   0.642   3.685  16.951  0.9222 -0.0785 -0.4319
  212MPD1    H6 3284   0.669   3.587  16.951 -0.2742 -0.4294 -4.1901
  212MPD1    H7 3285   0.704   3.721  16.878 -0.1460  1.7915 -0.4331
  213MPD1     C 3286   3.443   4.555  15.204 -0.1331  0.3112 -0.0633
  213MPD1    C1 3287   3.335   4.642  15.174  0.2973  0.4725  0.0954
  213MPD1    C2 3288   3.221   4.603  15.239  0.2210 -0.7318 -0.2634
  213MPD1    C3 3289   3.198   4.474  15.290 -0.4626  0.2396  0.4159
  213MPD1    C4 3290   3.300   4.386  15.294 -0.3724 -1.0776 -0.2289
  213MPD1    C5 3291   3.420   4.428  15.250  0.2316  0.3422  0.5415
  213MPD1     H 3292   3.142   4.675  15.225  0.6172 -0.2363  0.0894
  213MPD1    H1 3293   3.290   4.281  15.321 -2.2300 -0.9863 -0.5575
  213MPD1    H2 3294   3.539   4.583  15.163  0.3715  1.5639  1.9937
  213MPD1    H3 3295   3.504   4.360  15.242 -0.8220 -0.5038 -3.1236
  213MPD1     N 3296   3.061   4.445  15.333 -0.0953  0.1688  0.4066
  213MPD1    H5 3297   2.997   4.523  15.340 -2.2852 -1.5389 -0.7124
  213MPD1    N1 3298   3.355   0.042  15.145  0.0490  0.2628 -0.3898
  213MPD1    H6 3299   3.270   0.089  15.115  2.3151  3.4775 -1.7633
  213MPD1    H7 3300   3.433   0.063  15.083  0.4466  1.2934  0.4634
  214MPD1     C 3301   2.424   3.927  14.984  1.0277  0.1274  0.3401
  214MPD1    C1 3302   2.395   4.062  14.998 -0.0365  0.1938  0.2951
  214MPD1    C2 3303   2.453   4.128  15.105 -0.0736 -0.3226 -0.2343
  214MPD1    C3 3304   2.518   4.064  15.207 -0.5039 -0.3368  0.8829
  214MPD1    C4 3305   2.526   3.923  15.202 -0.0724 -0.5985 -0.1936
  214MPD1    C5 3306   2.479   3.860  15.088  0.2187  0.0813 -0.0807
  214MPD1     H 3307   2.428   4.233  15.114 -0.0079 -0.3120 -0.1762
  214MPD1    H1 3308   2.578   3.852  15.266  0.9943  1.5664  1.3784
  214MPD1    H2 3309   2.392   3.873  14.896 -1.7789  1.9620  0.2273
  214MPD1    H3 3310   2.492   3.753  15.075  0.6901 -0.0821  1.6943
  214MPD1     N 3311   2.572   4.132  15.317  0.3425 -0.0571  1.2699
  214MPD1    H5 3312   2.617   4.072  15.384  1.0763 -1.4375 -0.4502
  214MPD1    N1 3313   2.336   4.134  14.889  0.3638 -0.1510  0.5852
  214MPD1    H6 3314   2.300   4.224  14.921 -4.1904 -0.8418 -2.7420
  214MPD1    H7 3315   2.261   4.077  14.852  2.7553 -2.6978 -0.3625
  215MPD1     C 3316   2.693   0.141  10.949  0.1052  0.6851  0.0563
  215MPD1    C1 3317   2.623   0.121  11.067  0.7630  0.0229 -0.0436
  215MPD1    C2 3318   2.590   0.229  11.145 -0.0194  0.6757 -0.1005
  215MPD1    C3 3319   2.605   0.363  11.103  0.3414  0.2849  0.5490
  215MPD1    C4 3320   2.652   0.378  10.976  0.0849 -0.1475 -0.6970
  215MPD1    C5 3321   2.699   0.272  10.905 -0.6171  0.7880 -0.5267
  215MPD1     H 3322   2.547   0.225  11.244  0.5016  0.1204  0.1056
  215MPD1    H1 3323   2.675   0.476  10.936 -0.7319  0.0607 -0.6480
  215MPD1    H2 3324   2.718   0.059  10.883 -1.4547 -0.8527  1.3714
  215MPD1    H3 3325   2.744   0.284  10.807 -3.9063  1.6100 -1.9515
  215MPD1     N 3326   2.593   0.476  11.189 -0.1139 -0.1039  0.2596
  215MPD1    H5 3327   2.545   0.445  11.272  0.8157 -2.3887 -0.0417
  215MPD1    N1 3328   2.615   4.723  11.102 -0.0694 -0.0170  0.3779
  215MPD1    H6 3329   2.609   4.655  11.027 -2.5572 -2.0490  2.4237
  215MPD1    H7 3330   2.540   4.706  11.169  0.1094 -0.9798  0.3426
  216MPD1     C 3331   0.521   3.092  16.694  0.0112  0.2144  0.3932
  216MPD1    C1 3332   0.460   3.138  16.812 -0.2721 -0.3858 -0.4885
  216MPD1    C2 3333   0.422   3.040  16.908 -0.4393  0.6174 -0.0630
  216MPD1    C3 3334   0.442   2.905  16.878  0.5060 -0.1376 -0.1546
  216MPD1    C4 3335   0.479   2.859  16.751  0.1670 -0.0040  0.3986
  216MPD1    C5 3336   0.520   2.958  16.661 -0.7890 -0.4577  0.1507
  216MPD1     H 3337   0.390   3.074  17.006  2.6619  1.3222  0.7062
  216MPD1    H1 3338   0.485   2.754  16.723 -2.1901 -0.0500 -0.0077
  216MPD1    H2 3339   0.538   3.166  16.617 -0.7318  1.4383  1.4138
  216MPD1    H3 3340   0.543   2.930  16.559 -0.4101  1.1891 -0.2115
  216MPD1     N 3341   0.399   2.816  16.980  0.4954 -0.0433  0.3643
  216MPD1    H5 3342   0.377   2.869  17.064  0.8095 -0.8911  0.9972
  216MPD1    N1 3343   0.473   3.271  16.850  0.4604 -0.6370  0.3185
  216MPD1    H6 3344   0.462   3.337  16.773 -0.0008 -0.2563  0.7040
  216MPD1    H7 3345   0.391   3.295  16.906 -1.1865 -0.9494 -1.9779
  217MPD1     C 3346   2.798   4.666   8.551 -0.6698  0.3754  0.0041
  217MPD1    C1 3347   2.826   4.530   8.593  0.1912 -0.3103 -0.3205
  217MPD1    C2 3348   2.738   4.474   8.679 -0.3506  0.5724 -0.0515
  217MPD1    C3 3349   2.631   4.542   8.734  0.4818 -0.0717  0.0371
  217MPD1    C4 3350   2.611   4.667   8.701 -0.0855 -0.2681  1.2152
  217MPD1    C5 3351   2.700   4.731   8.616 -0.0059  0.0744  1.0004
  217MPD1     H 3352   2.759   4.370   8.703  0.9212  1.0598  0.9925
  217MPD1    H1 3353   2.525   4.718   8.741 -1.3271 -2.1400  0.9032
  217MPD1    H2 3354   2.863   4.714   8.479  0.6809 -2.8889 -0.9905
  217MPD1    H3 3355   2.673   0.098   8.594 -1.7701 -0.3613  1.0870
  217MPD1     N 3356   2.547   4.492   8.833 -0.2789 -0.1515  0.6506
  217MPD1    H5 3357   2.486   4.565   8.869 -1.1337  0.5254 -2.1662
  217MPD1    N1 3358   2.910   4.448   8.516 -0.0858  0.2179  0.3187
  217MPD1    H6 3359   2.984   4.507   8.479 -0.3567  0.6077  0.3862
  217MPD1    H7 3360   2.947   4.364   8.559 -1.0867  1.2630  3.2746
  218MPD1     C 3361   1.963   0.941  13.330  0.0982 -0.1753  0.2229
  218MPD1    C1 3362   1.963   0.982  13.205 -0.1958 -0.1816  0.8268
  218MPD1    C2 3363   1.992   0.895  13.101 -0.1203 -0.5435 -0.5625
  218MPD1    C3 3364   2.046   0.770  13.132 -0.1291  0.0896 -0.0647
  218MPD1    C4 3365   2.052   0.730  13.267 -0.2657  0.6583  0.2751
  218MPD1    C5 3366   2.006   0.814  13.360 -0.1173 -1.0031 -0.4276
  218MPD1     H 3367   1.993   0.928  12.998 -0.1824 -1.8817 -0.9914
  218MPD1    H1 3368   2.080   0.630  13.298 -1.9743  0.0982 -0.0173
  218MPD1    H2 3369   1.927   0.992  13.419 -0.0934 -0.6150  0.3999
  218MPD1    H3 3370   2.006   0.777  13.462  3.2552 -2.0011 -0.7639
  218MPD1     N 3371   2.088   0.688  13.023 -0.2258 -0.1553  0.2646
  218MPD1    H5 3372   2.065   0.705  12.926  0.9334 -1.3596 -0.2335
  218MPD1    N1 3373   1.892   1.105  13.173  0.1731  0.0701 -0.9257
  218MPD1    H6 3374   1.888   1.180  13.242  1.0756 -0.8169  0.0818
  218MPD1    H7 3375   1.936   1.142  13.089  0.7433  1.7186  0.0965
  219MPD1     C 3376   2.457   1.050  12.429 -0.0402  0.5314 -0.2452
  219MPD1    C1 3377   2.562   0.973  12.473  0.1674  0.3635  0.7847
  219MPD1    C2 3378   2.525   0.850  12.531  0.2330 -0.3746  0.2417
  219MPD1    C3 3379   2.393   0.807  12.545 -0.2707  0.0786 -0.2898
  219MPD1    C4 3380   2.294   0.889  12.503  0.5580 -0.1140 -0.2086
  219MPD1    C5 3381   2.328   1.005  12.437 -0.1813 -0.4587 -0.5945
  219MPD1     H 3382   2.609   0.794  12.571  0.1124 -0.7323  0.0030
  219MPD1    H1 3383   2.190   0.862  12.519  0.3550  1.5847  1.3514
  219MPD1    H2 3384   2.477   1.150  12.391  0.2745  0.6206  0.1582
  219MPD1    H3 3385   2.247   1.067  12.401  0.9126  0.3365 -1.6978
  219MPD1     N 3386   2.363   0.690  12.621  0.3883  0.1611 -0.0123
  219MPD1    H5 3387   2.264   0.669  12.634  1.1061 -3.5296 -0.5859
  219MPD1    N1 3388   2.688   1.028  12.495 -0.1422  0.0131 -0.1353
  219MPD1    H6 3389   2.765   0.962  12.486 -1.1013 -1.0308 -0.7995
  219MPD1    H7 3390   2.697   1.114  12.441 -2.4874  1.0178  1.0291
  220MPD1     C 3391   2.345   1.350   9.681  0.0441  0.4993  0.7586
  220MPD1    C1 3392   2.309   1.217   9.723 -0.0711 -0.3884 -0.5246
  220MPD1    C2 3393   2.379   1.172   9.830  0.4490  0.1200  0.1497
  220MPD1    C3 3394   2.476   1.236   9.887  0.1564  0.4771  0.2765
  220MPD1    C4 3395   2.512   1.361   9.843  0.0307  0.4402 -0.3319
  220MPD1    C5 3396   2.444   1.419   9.743 -0.5137  0.1667  0.5243
  220MPD1     H 3397   2.343   1.080   9.876 -2.1731  0.5538 -1.0127
  220MPD1    H1 3398   2.599   1.416   9.877  1.3457 -1.6289 -0.3537
  220MPD1    H2 3399   2.298   1.401   9.598 -0.4221 -1.2393 -0.0430
  220MPD1    H3 3400   2.477   1.521   9.724  1.1065 -0.6952 -1.3159
  220MPD1     N 3401   2.548   1.174   9.991  0.4020 -0.9628 -0.3099
  220MPD1    H5 3402   2.516   1.079  10.006 -3.6302  0.5696  0.6110
  220MPD1    N1 3403   2.194   1.150   9.679 -0.4473  0.0929 -0.9731
  220MPD1    H6 3404   2.157   1.184   9.590 -0.2060  0.7548 -0.8217
  220MPD1    H7 3405   2.187   1.049   9.689  0.0474  0.2623  0.9025
  221MPD1     C 3406   4.669   0.975  15.936 -0.2195  0.2539 -0.7729
  221MPD1    C1 3407   4.669   0.859  15.864 -0.0791  0.1269 -0.2040
  221MPD1    C2 3408   0.029   0.770  15.895 -0.2417 -0.6648 -0.2531
  221MPD1    C3 3409   0.141   0.805  15.966 -0.2925  0.2616 -0.0970
  221MPD1    C4 3410   0.136   0.923  16.039  0.2375  0.0317 -0.2335
  221MPD1    C5 3411   0.031   1.005  16.018 -0.4361  0.4959 -0.2253
  221MPD1     H 3412   0.017   0.671  15.851  0.0659  0.3862 -2.6759
  221MPD1    H1 3413   0.222   0.945  16.101 -0.5010  3.0088 -0.2783
  221MPD1    H2 3414   4.584   1.043  15.940  0.0017  0.5959 -1.8359
  221MPD1    H3 3415   0.019   1.101  16.068  1.9403 -0.0081  1.3112
  221MPD1     N 3416   0.258   0.728  15.985 -0.2978  0.0226  0.7158
  221MPD1    H5 3417   0.315   0.753  16.065  3.0979  0.3504 -1.7912
  221MPD1    N1 3418   4.548   0.808  15.801 -0.2220  0.3149 -0.3370
  221MPD1    H6 3419   4.502   0.882  15.749  1.4547  0.8997 -1.0158
  221MPD1    H7 3420   4.569   0.731  15.738  0.9345  0.3514  0.0048
  222MPD1     C 3421   3.477   3.140   0.344  0.3028  0.3503 -0.6223
  222MPD1    C1 3422   3.355   3.198   0.310  0.3990  0.5115  0.7282
  222MPD1    C2 3423   3.356   3.304   0.217 -0.2360 -0.2249  0.0949
  222MPD1    C3 3424   3.466   3.340   0.149  0.1091 -0.0699  0.1795
  222MPD1    C4 3425   3.584   3.270   0.180 -0.2951 -0.0801 -0.8464
  222MPD1    C5 3426   3.592   3.165   0.270 -0.3141 -0.1008  0.4967
  222MPD1     H 3427   3.263   3.353   0.190 -0.7497 -0.9198  0.6048
  222MPD1    H1 3428   3.676   3.289   0.126  0.8227 -1.0884  0.6816
  222MPD1    H2 3429   3.490   3.076   0.431 -3.5135 -1.6552 -1.5265
  222MPD1    H3 3430   3.690   3.126   0.294 -0.2109 -1.0052 -1.3966
  222MPD1     N 3431   3.473   3.450   0.056  0.4430  0.4324 -0.7407
  222MPD1    H5 3432   3.557   3.457  17.742  0.6462  2.0922 -0.2271
  222MPD1    N1 3433   3.249   3.182   0.396 -0.0419 -0.2653 -0.1466
  222MPD1    H6 3434   3.249   3.091   0.443 -0.0885  0.6029  1.5580
  222MPD1    H7 3435   3.173   3.200   0.331  0.7999 -1.2531 -1.4008
  223MPD1     C 3436   2.922   4.275   0.199  0.3943  0.5225  0.3623
  223MPD1    C1 3437   2.945   4.153   0.262 -0.1334 -0.2258 -0.0551
  223MPD1    C2 3438   3.035   4.062   0.204  0.4630 -0.7167  0.3184
  223MPD1    C3 3439   3.099   4.089   0.082  1.5251  0.1947 -0.3497
  223MPD1    C4 3440   3.069   4.204   0.020  0.0501 -0.0452  0.5933
  223MPD1    C5 3441   2.984   4.293   0.076  0.2419 -0.0654 -0.1382
  223MPD1     H 3442   3.057   3.981   0.273 -1.6965 -0.4327  1.3338
  223MPD1    H1 3443   3.112   4.222  17.664  0.0502  2.5023  1.0497
  223MPD1    H2 3444   2.861   4.355   0.240 -2.1270 -0.4571 -1.5029
  223MPD1    H3 3445   2.967   4.383   0.019 -1.4890  0.9093  1.9109
  223MPD1     N 3446   3.186   3.990   0.028 -0.2905  0.2744  0.2186
  223MPD1    H5 3447   3.190   3.908   0.087  0.5193  2.2465  2.8920
  223MPD1    N1 3448   2.905   4.137   0.397  0.5724  0.4260  0.2239
  223MPD1    H6 3449   2.811   4.176   0.400 -0.0588 -1.0255 -0.5563
  223MPD1    H7 3450   2.897   4.040   0.426 -3.4717  1.2035  1.7825
  224MPD1     C 3451   1.934   1.257   9.361  0.0027 -0.2499 -0.7796
  224MPD1    C1 3452   2.045   1.187   9.394 -0.1330 -0.1460  0.2656
  224MPD1    C2 3453   2.031   1.051   9.434 -0.4420 -0.6757  0.2026
  224MPD1    C3 3454   1.913   0.980   9.399 -0.3192 -0.1515  0.3119
  224MPD1    C4 3455   1.805   1.049   9.338 -0.5340  0.2760 -0.2623
  224MPD1    C5 3456   1.824   1.185   9.320  1.0557 -0.6994  0.6585
  224MPD1     H 3457   2.117   0.997   9.473 -0.9673 -1.3275  0.4542
  224MPD1    H1 3458   1.718   1.012   9.284  0.5224 -0.4467 -1.4796
  224MPD1    H2 3459   1.930   1.365   9.352 -2.6915 -0.2427  0.3301
  224MPD1    H3 3460   1.748   1.245   9.272  0.8390 -0.5904  1.1396
  224MPD1     N 3461   1.885   0.857   9.442  0.2148 -0.5951  0.9381
  224MPD1    H5 3462   1.801   0.813   9.407 -1.4772  1.2395  2.6890
  224MPD1    N1 3463   2.168   1.250   9.427 -0.2933 -0.6160  0.6274
  224MPD1    H6 3464   2.259   1.204   9.429 -0.0237 -0.0901  0.3726
  224MPD1    H7 3465   2.175   1.344   9.389  0.9381 -0.4385  1.2771
  225MPD1     C 3466   2.781   1.573  12.092 -0.1100 -0.0582 -1.1593
  225MPD1    C1 3467   2.748   1.681  12.163 -0.0216  0.1171  0.3937
  225MPD1    C2 3468   2.611   1.683  12.204  0.7432 -0.6019  0.5578
  225MPD1    C3 3469   2.522   1.577  12.183  0.4204  0.0715  0.0112
  225MPD1    C4 3470   2.566   1.476  12.110  0.0712 -0.2653 -0.2769
  225MPD1    C5 3471   2.690   1.470  12.059  0.0497  0.3703  0.1841
  225MPD1     H 3472   2.569   1.774  12.246 -0.5068 -0.6472 -0.5693
  225MPD1    H1 3473   2.505   1.393  12.075 -1.1397  0.0820  0.9900
  225MPD1    H2 3474   2.886   1.573  12.062  0.1100 -1.2730 -0.3848
  225MPD1    H3 3475   2.721   1.376  12.014  1.2945  1.3614 -1.0329
  225MPD1     N 3476   2.383   1.572  12.221  0.2286  0.3674  0.5428
  225MPD1    H5 3477   2.327   1.495  12.189  0.3364  1.0297 -1.2123
  225MPD1    N1 3478   2.832   1.796  12.160  0.8099 -0.0987  0.5272
  225MPD1    H6 3479   2.811   1.862  12.235 -2.3795  0.0088 -0.4484
  225MPD1    H7 3480   2.931   1.779  12.142  0.3936  0.7877 -2.6515
  226MPD1     C 3481   3.357   2.837   9.851 -0.9798  0.0413 -0.6829
  226MPD1    C1 3482   3.370   2.744   9.948 -0.1735  1.2332 -0.0967
  226MPD1    C2 3483   3.344   2.612   9.922 -0.1217 -0.2824 -1.0460
  226MPD1    C3 3484   3.320   2.567   9.795  0.2621 -0.1674  0.3462
  226MPD1    C4 3485   3.309   2.659   9.696  0.4872  0.1952  0.3333
  226MPD1    C5 3486   3.332   2.790   9.723  0.3492  0.5889 -0.4569
  226MPD1     H 3487   3.347   2.541  10.003  1.1486  1.4751  0.4583
  226MPD1    H1 3488   3.290   2.630   9.593  0.5820  1.1464  0.0500
  226MPD1    H2 3489   3.368   2.944   9.866  0.5436 -0.1388 -0.4934
  226MPD1    H3 3490   3.314   2.854   9.637  2.0937  2.1638  0.3342
  226MPD1     N 3491   3.291   2.428   9.785  0.2730 -0.5180 -0.0432
  226MPD1    H5 3492   3.307   2.373   9.869 -1.2264  0.5323  0.9291
  226MPD1    N1 3493   3.377   2.789  10.078 -0.4747 -0.0064  0.2214
  226MPD1    H6 3494   3.421   2.717  10.135 -0.3232 -1.6560 -1.9755
  226MPD1    H7 3495   3.432   2.874  10.088  1.1117 -0.7676 -2.0967
  227MPD1     C 3496   3.214   1.592  10.297  0.1313 -0.1523 -0.1056
  227MPD1    C1 3497   3.169   1.542  10.178  0.3990  0.2157 -0.0172
  227MPD1    C2 3498   3.154   1.632  10.072 -1.2209  0.0957 -0.2848
  227MPD1    C3 3499   3.221   1.754  10.076 -0.6370  0.0092 -0.0548
  227MPD1    C4 3500   3.271   1.797  10.196 -0.6723 -1.0112 -0.7301
  227MPD1    C5 3501   3.265   1.720  10.304  0.3355  0.3613  0.3617
  227MPD1     H 3502   3.095   1.592   9.990 -1.4493  1.6681 -0.8992
  227MPD1    H1 3503   3.313   1.896  10.210  1.1345 -2.0507  1.2048
  227MPD1    H2 3504   3.217   1.535  10.390  1.0762 -0.9562 -0.6211
  227MPD1    H3 3505   3.295   1.764  10.399  0.0089 -0.1715  0.7135
  227MPD1     N 3506   3.208   1.836   9.962  0.2967  0.4103 -0.5104
  227MPD1    H5 3507   3.162   1.794   9.882 -1.8213  1.8526 -0.0602
  227MPD1    N1 3508   3.111   1.415  10.171  0.1910  0.1702  0.6593
  227MPD1    H6 3509   3.166   1.347  10.224  0.5403  0.1451  0.2694
  227MPD1    H7 3510   3.088   1.387  10.076  0.7944  0.8837  0.3033
  228MPD1     C 3511   0.127   3.784  12.545 -0.1522  0.6689 -0.5652
  228MPD1    C1 3512   0.060   3.871  12.454 -0.5475 -0.2086  0.3999
  228MPD1    C2 3513   4.657   3.868  12.444  0.0850 -0.0039  0.3120
  228MPD1    C3 3514   4.585   3.782  12.528 -0.7824  0.0749 -0.7226
  228MPD1    C4 3515   4.655   3.705  12.620  0.8811  0.2438 -0.7545
  228MPD1    C5 3516   0.055   3.710  12.632 -1.0883 -0.8328  0.6142
  228MPD1     H 3517   4.618   3.923  12.359 -0.2170  0.3803  0.7009
  228MPD1    H1 3518   4.604   3.656  12.701 -0.6507  1.6525 -0.8638
  228MPD1    H2 3519   0.235   3.778  12.549 -0.3649 -3.2564 -0.6163
  228MPD1    H3 3520   0.098   3.650  12.712  2.3637 -0.3730 -0.8718
  228MPD1     N 3521   4.446   3.762  12.534 -0.0339  0.1546  0.1782
  228MPD1    H5 3522   4.417   3.686  12.595 -0.9714  1.1899  1.0246
  228MPD1    N1 3523   0.132   3.938  12.357  0.2072  0.2859  0.4112
  228MPD1    H6 3524   0.232   3.954  12.369  0.5972 -1.9066  0.2045
  228MPD1    H7 3525   0.081   4.017  12.318 -0.5708 -0.8291 -0.8152
  229MPD1     C 3526   3.164   2.924  15.202  0.7214  0.0362  0.5829
  229MPD1    C1 3527   3.187   2.833  15.098  1.0566  0.1747 -0.4983
  229MPD1    C2 3528   3.296   2.745  15.112  0.0131 -0.2173  0.2956
  229MPD1    C3 3529   3.382   2.741  15.226  0.4962  0.0667 -0.3417
  229MPD1    C4 3530   3.356   2.841  15.321 -0.2249 -0.5884 -0.0640
  229MPD1    C5 3531   3.253   2.932  15.304 -0.5747  0.2742 -0.3196
  229MPD1     H 3532   3.324   2.691  15.022  1.1501  1.4505 -0.3551
  229MPD1    H1 3533   3.421   2.862  15.406 -0.7886  0.6950  0.0532
  229MPD1    H2 3534   3.084   2.997  15.199  0.4746 -0.2449  0.4013
  229MPD1    H3 3535   3.258   3.012  15.376 -0.6197 -0.2421  0.2534
  229MPD1     N 3536   3.495   2.653  15.229  0.0236  0.0491 -0.4482
  229MPD1    H5 3537   3.547   2.657  15.316  0.1132  1.2368 -0.5546
  229MPD1    N1 3538   3.116   2.841  14.979  0.1488 -0.3818 -0.8213
  229MPD1    H6 3539   3.028   2.891  14.988 -0.6703 -1.4834 -2.5075
  229MPD1    H7 3540   3.086   2.750  14.943  1.1673 -0.6681 -0.9353
  230MPD1     C 3541   4.373   2.540  15.632 -0.0164  0.7104 -0.0960
  230MPD1    C1 3542   4.344   2.416  15.584  0.3403  0.8201 -0.1726
  230MPD1    C2 3543   4.235   2.402  15.487 -0.5569  0.0865 -0.2032
  230MPD1    C3 3544   4.166   2.511  15.446  0.8685 -0.6876  0.0188
  230MPD1    C4 3545   4.197   2.635  15.490 -0.7296  0.8883 -0.3145
  230MPD1    C5 3546   4.303   2.650  15.579 -0.6005 -0.2452  1.1090
  230MPD1     H 3547   4.200   2.305  15.455  3.2894 -1.3972  0.0670
  230MPD1    H1 3548   4.154   2.726  15.450  1.3193  1.1649 -1.8583
  230MPD1    H2 3549   4.453   2.554  15.704  2.9600 -1.1179 -3.0514
  230MPD1    H3 3550   4.320   2.750  15.617 -3.3807  0.7012 -0.1054
  230MPD1     N 3551   4.061   2.486  15.347  0.2559  0.2414 -0.8884
  230MPD1    H5 3552   4.064   2.396  15.302  0.7430 -1.0481  1.7112
  230MPD1    N1 3553   4.401   2.299  15.646  0.7731  0.9695  0.0110
  230MPD1    H6 3554   4.421   2.226  15.578  2.9043  1.4476  0.1347
  230MPD1    H7 3555   4.484   2.312  15.703  1.4089  3.3010 -1.4883
  231MPD1     C 3556   1.955   4.056  15.425 -0.3503  0.5740  0.2397
  231MPD1    C1 3557   1.887   4.111  15.320  0.4179 -0.0672 -0.4147
  231MPD1    C2 3558   1.946   4.228  15.264 -0.3098 -0.1200  0.1262
  231MPD1    C3 3559   2.050   4.301  15.316 -0.1363 -0.0985  0.2021
  231MPD1    C4 3560   2.123   4.237  15.415  0.1122  0.5922 -0.5489
  231MPD1    C5 3561   2.066   4.127  15.468  0.5621  0.5049 -0.2455
  231MPD1     H 3562   1.894   4.270  15.178 -0.3227  0.6404  0.5028
  231MPD1    H1 3563   2.212   4.282  15.458  2.0030  0.1282 -4.0102
  231MPD1    H2 3564   1.926   3.974  15.490 -0.5326  0.1474 -0.3858
  231MPD1    H3 3565   2.106   4.090  15.562  0.8569  0.3414 -0.4337
  231MPD1     N 3566   2.101   4.405  15.242 -0.2568 -0.4226  0.7785
  231MPD1    H5 3567   2.063   4.409  15.148 -0.7576  2.2422  1.0944
  231MPD1    N1 3568   1.801   4.025  15.244  0.3834 -0.4474 -0.0587
  231MPD1    H6 3569   1.737   4.082  15.190  1.3039  0.9720  0.3635
  231MPD1    H7 3570   1.739   3.961  15.294  0.8871 -0.4665  0.5376
  232MPD1     C 3571   4.309   2.030   0.412  0.6206  0.5891  0.2568
  232MPD1    C1 3572   4.209   2.097   0.338 -0.3484  0.0903  0.0089
  232MPD1    C2 3573   4.118   2.022   0.268  0.2561 -0.7937 -0.3690
  232MPD1    C3 3574   4.116   1.883   0.284 -0.3688 -0.2604 -0.2471
  232MPD1    C4 3575   4.202   1.821   0.377 -0.5158 -0.5135  0.3158
  232MPD1    C5 3576   4.302   1.895   0.431 -0.3067 -0.4251 -0.4211
  232MPD1     H 3577   4.045   2.073   0.207  1.2833 -1.3654 -2.0750
  232MPD1    H1 3578   4.203   1.714   0.390 -2.1061 -0.4789  0.6301
  232MPD1    H2 3579   4.391   2.080   0.464 -0.3793  0.3918  2.0120
  232MPD1    H3 3580   4.384   1.852   0.487 -0.7864 -1.7017 -0.7161
  232MPD1     N 3581   4.010   1.813   0.221 -0.0836 -0.1257  0.5100
  232MPD1    H5 3582   3.944   1.872   0.171 -0.3027 -1.6399 -1.0013
  232MPD1    N1 3583   4.217   2.236   0.306  0.2906  0.4138 -0.1009
  232MPD1    H6 3584   4.248   2.296   0.382  0.3595 -0.6903  0.7356
  232MPD1    H7 3585   4.119   2.265   0.297 -1.2596 -5.8084 -3.1978
  233MPD1     C 3586   4.021   0.435  17.133  0.1109  0.1122 -0.1749
  233MPD1    C1 3587   4.103   0.522  17.199 -0.5467 -0.1412  0.1459
  233MPD1    C2 3588   4.205   0.478  17.280 -0.5547  0.7480 -0.0201
  233MPD1    C3 3589   4.224   0.342  17.308  0.0321 -0.0367  0.2820
  233MPD1    C4 3590   4.137   0.256  17.251  0.3428  0.9620 -0.3709
  233MPD1    C5 3591   4.034   0.303  17.168  0.0815 -0.2837 -0.1963
  233MPD1     H 3592   4.271   0.553  17.322  1.4650 -0.6899 -0.5955
  233MPD1    H1 3593   4.140   0.148  17.264  0.1883  1.2436  1.9943
  233MPD1    H2 3594   3.933   0.463  17.077  0.0375 -0.6403 -0.4370
  233MPD1    H3 3595   3.962   0.230  17.136  0.0201 -0.9147  1.3730
  233MPD1     N 3596   4.336   0.287  17.374 -0.0785  0.3514 -0.7014
  233MPD1    H5 3597   4.339   0.187  17.395 -0.2267  0.6683  0.8520
  233MPD1    N1 3598   4.095   0.655  17.175 -0.0796 -0.5228 -0.4871
  233MPD1    H6 3599   3.999   0.688  17.171  1.3241  3.5973 -0.1333
  233MPD1    H7 3600   4.151   0.705  17.244 -0.2769 -1.6416  0.4931
  234MPD1     C 3601   2.724   4.048  10.685  0.4886 -0.2303 -0.2635
  234MPD1    C1 3602   2.667   3.971  10.585  0.6991 -0.0210  0.2785
  234MPD1    C2 3603   2.612   4.035  10.476 -0.5704 -0.3432 -0.4454
  234MPD1    C3 3604   2.611   4.172  10.461 -0.1285 -0.1347 -0.3891
  234MPD1    C4 3605   2.658   4.243  10.572  0.2656 -0.1303 -0.5876
  234MPD1    C5 3606   2.713   4.183  10.681 -0.1092  0.1446 -0.2358
  234MPD1     H 3607   2.580   3.970  10.396 -1.5238 -1.3612  0.7732
  234MPD1    H1 3608   2.680   4.349  10.561 -2.7990  0.5955  0.4361
  234MPD1    H2 3609   2.770   3.997  10.769 -1.6065  0.9475  1.6270
  234MPD1    H3 3610   2.758   4.241  10.761  0.9306 -1.2896  0.2279
  234MPD1     N 3611   2.561   4.238  10.343  0.3388 -0.2425  0.2449
  234MPD1    H5 3612   2.529   4.182  10.264  0.0874  1.2455 -0.7124
  234MPD1    N1 3613   2.688   3.839  10.581  0.2297  0.4868 -0.7586
  234MPD1    H6 3614   2.610   3.777  10.564  1.0331 -0.3586 -1.3625
  234MPD1    H7 3615   2.738   3.799  10.661  0.8117 -0.7957 -1.7706
  235MPD1     C 3616   3.308   1.681   9.516  0.3152  0.4187 -0.0733
  235MPD1    C1 3617   3.360   1.675   9.649 -0.3436 -0.7128  0.4317
  235MPD1    C2 3618   3.444   1.778   9.695  0.0991 -0.6490  0.9374
  235MPD1    C3 3619   3.473   1.888   9.607 -0.4286 -0.1470  0.2560
  235MPD1    C4 3620   3.435   1.887   9.475  0.0307  0.0526 -0.1841
  235MPD1    C5 3621   3.354   1.785   9.434 -0.5056  0.6886  0.4426
  235MPD1     H 3622   3.474   1.779   9.799 -1.4910 -2.8652  1.4152
  235MPD1    H1 3623   3.437   1.980   9.420 -2.7582 -1.1078 -2.2744
  235MPD1    H2 3624   3.237   1.611   9.473 -0.8435  1.4728  0.1048
  235MPD1    H3 3625   3.294   1.802   9.346 -2.1893  0.1547  1.4939
  235MPD1     N 3626   3.549   1.995   9.656 -0.3199  0.0393  0.4725
  235MPD1    H5 3627   3.575   1.992   9.754  0.0300 -1.9082  0.3102
  235MPD1    N1 3628   3.297   1.593   9.745  0.0695 -0.5363  0.3871
  235MPD1    H6 3629   3.367   1.570   9.815 -0.6187 -1.7826  0.6735
  235MPD1    H7 3630   3.266   1.503   9.708 -0.2052  0.2361 -1.2703
  236MPD1     C 3631   2.652   3.202  10.005  0.1534  0.1542  0.0680
  236MPD1    C1 3632   2.647   3.086   9.934 -0.5593  0.3782 -0.6517
  236MPD1    C2 3633   2.659   2.961  10.005 -0.8943 -0.6394  0.1336
  236MPD1    C3 3634   2.720   2.966  10.125  0.1070  0.7126  0.0983
  236MPD1    C4 3635   2.731   3.087  10.190  0.5198  0.1025 -0.0853
  236MPD1    C5 3636   2.691   3.203  10.133  0.5830 -0.7656  0.1739
  236MPD1     H 3637   2.652   2.866   9.952  1.0125  0.1497 -1.5469
  236MPD1    H1 3638   2.747   3.085  10.297 -0.6577 -1.4737  0.0671
  236MPD1    H2 3639   2.633   3.303   9.971 -1.2130 -0.3257 -0.5560
  236MPD1    H3 3640   2.705   3.293  10.192  0.7888 -1.2258  0.8257
  236MPD1     N 3641   2.757   2.848  10.199  0.1880 -0.3992  0.4439
  236MPD1    H5 3642   2.807   2.869  10.285 -0.3001 -0.3173  0.7095
  236MPD1    N1 3643   2.584   3.075   9.811  0.0165  0.1027  0.1526
  236MPD1    H6 3644   2.630   2.999   9.761  2.5186  0.9882  1.1002
  236MPD1    H7 3645   2.592   3.161   9.758 -1.3432 -0.3015 -0.7310
  237MPD1     C 3646   2.495   1.739  15.473 -0.1417  0.1974  0.5043
  237MPD1    C1 3647   2.554   1.626  15.508  0.1234 -0.2768 -0.6057
  237MPD1    C2 3648   2.527   1.504  15.448  1.2381 -0.4032  0.3783
  237MPD1    C3 3649   2.429   1.501  15.350 -0.5612 -0.3295  0.2858
  237MPD1    C4 3650   2.366   1.616  15.321 -0.3212  1.0324  0.3640
  237MPD1    C5 3651   2.400   1.731  15.379 -0.1800  0.0360  0.2275
  237MPD1     H 3652   2.592   1.421  15.473  1.6680  0.5578  2.5253
  237MPD1    H1 3653   2.291   1.613  15.243  0.5789  0.8690 -0.4961
  237MPD1    H2 3654   2.511   1.833  15.525  0.9030  0.5046 -0.3784
  237MPD1    H3 3655   2.356   1.822  15.339  1.0879  1.5387  2.2350
  237MPD1     N 3656   2.390   1.385  15.279  0.2595 -0.8917  0.2572
  237MPD1    H5 3657   2.305   1.397  15.223  1.6627  3.4832 -0.9368
  237MPD1    N1 3658   2.627   1.626  15.632  0.0925  0.3491  0.6117
  237MPD1    H6 3659   2.704   1.560  15.622 -1.5771 -1.5155 -0.0159
  237MPD1    H7 3660   2.673   1.715  15.649  0.5356  0.3686 -0.7173
  238MPD1     C 3661   4.452   4.133  14.949 -0.3970  0.5540 -0.0167
  238MPD1    C1 3662   4.367   4.068  15.031 -0.0365 -0.1352 -0.1716
  238MPD1    C2 3663   4.234   4.084  14.999  0.0372 -0.0231  0.0384
  238MPD1    C3 3664   4.195   4.176  14.902 -0.3180  0.9001  0.5935
  238MPD1    C4 3665   4.281   4.260  14.835 -0.2077  0.8529 -0.5007
  238MPD1    C5 3666   4.408   4.226  14.852 -0.6365 -0.3618 -0.8187
  238MPD1     H 3667   4.165   4.025  15.058 -0.0430  0.4025  0.3669
  238MPD1    H1 3668   4.254   4.317  14.747  2.7573  0.4581 -1.6801
  238MPD1    H2 3669   4.558   4.109  14.960 -0.1282  2.8608  2.5805
  238MPD1    H3 3670   4.479   4.263  14.780  1.6699  0.2222  1.7234
  238MPD1     N 3671   4.057   4.199  14.872  0.2134  0.0642  0.4807
  238MPD1    H5 3672   4.045   4.263  14.794  0.5241 -0.1554  0.2538
  238MPD1    N1 3673   4.420   3.961  15.112 -0.1561  0.0399  0.1707
  238MPD1    H6 3674   4.509   3.992  15.153  0.2250 -0.9250  0.0666
  238MPD1    H7 3675   4.355   3.949  15.189  1.9121  1.1113  2.1020
  239MPD1     C 3676   4.187   0.156  14.730  0.8790  0.0652  0.1143
  239MPD1    C1 3677   4.057   0.189  14.775  0.1724  0.0551  0.3849
  239MPD1    C2 3678   3.985   0.285  14.704  0.6577  0.0451  0.0794
  239MPD1    C3 3679   4.047   0.354  14.600 -0.0641 -0.1991  0.0514
  239MPD1    C4 3680   4.176   0.321  14.551 -0.2201 -0.2583  0.1083
  239MPD1    C5 3681   4.241   0.216  14.621 -0.7543  0.0124  0.1228
  239MPD1     H 3682   3.880   0.300  14.723  0.6862  2.3286 -1.5047
  239MPD1    H1 3683   4.218   0.356  14.457 -0.5786  1.0510  0.4440
  239MPD1    H2 3684   4.242   0.071  14.770  2.8535  0.6865 -1.2830
  239MPD1    H3 3685   4.334   0.180  14.577 -0.7311  1.7408 -1.2231
  239MPD1     N 3686   3.979   0.446  14.522  0.4120  0.3395 -0.3092
  239MPD1    H5 3687   4.027   0.494  14.447  0.8838  1.2172  0.5487
  239MPD1    N1 3688   3.998   0.102  14.867 -0.0167  0.0062 -0.3920
  239MPD1    H6 3689   3.920   0.143  14.918 -0.4456 -1.5666  0.1935
  239MPD1    H7 3690   4.062   0.060  14.933 -0.6877 -0.2043  0.1271
  240MPD1     C 3691   4.215   4.690  14.214 -0.3407 -0.0251 -0.3406
  240MPD1    C1 3692   4.202   4.689  14.356  0.2939  0.4075  0.3967
  240MPD1    C2 3693   4.078   4.710  14.419 -1.1878 -0.6902 -0.4969
  240MPD1    C3 3694   3.959   4.714  14.342  0.0421  0.3687  0.7993
  240MPD1    C4 3695   3.977   4.730  14.206  0.6182 -1.1574 -0.6250
  240MPD1    C5 3696   4.102   4.731  14.143 -0.9986  0.4862 -0.2109
  240MPD1     H 3697   4.071   4.679  14.523  1.1238  0.1610 -0.0732
  240MPD1    H1 3698   3.895   0.010  14.137  0.0059 -2.3182 -0.1702
  240MPD1    H2 3699   4.314   4.679  14.171 -0.0933  2.7958 -0.4891
  240MPD1    H3 3700   4.108   4.727  14.034  1.6928  0.6746 -0.0530
  240MPD1     N 3701   3.828   4.705  14.406  0.0785  0.6254  0.2610
  240MPD1    H5 3702   3.827   4.690  14.507  0.1998 -0.7351  0.0485
  240MPD1    N1 3703   4.322   4.694  14.428  0.2096  0.3679  0.2017
  240MPD1    H6 3704   4.395   4.636  14.388 -1.0414 -1.2102  0.1852
  240MPD1    H7 3705   4.307   4.668  14.526  0.9360 -0.5587  0.0696
  241MPD1     C 3706   3.698   0.242  15.210 -0.1163  0.4815 -0.6204
  241MPD1    C1 3707   3.706   0.104  15.186  0.2789 -0.6022  0.1513
  241MPD1    C2 3708   3.657   0.054  15.065 -0.9274 -0.1203  0.3001
  241MPD1    C3 3709   3.627   0.142  14.967  0.2422 -0.7354  0.1731
  241MPD1    C4 3710   3.619   0.280  14.994 -0.0044  0.0822  0.3596
  241MPD1    C5 3711   3.659   0.327  15.116  0.0573  0.4612 -0.9462
  241MPD1     H 3712   3.644   4.684  15.048 -1.9765  0.0865 -0.1898
  241MPD1    H1 3713   3.569   0.338  14.917  2.7558  2.6282  0.4777
  241MPD1    H2 3714   3.723   0.281  15.308  0.4089 -1.0159 -0.1662
  241MPD1    H3 3715   3.640   0.431  15.143 -1.9926 -0.7610  2.3260
  241MPD1     N 3716   3.595   0.098  14.830  0.4340 -0.3278  0.0105
  241MPD1    H5 3717   3.576   0.178  14.770  3.3278 -1.2004 -2.0933
  241MPD1    N1 3718   3.732   0.019  15.294 -0.4495 -0.5363  0.2483
  241MPD1    H6 3719   3.754   4.658  15.273 -0.0084 -0.1759 -0.9389
  241MPD1    H7 3720   3.794   0.054  15.367  1.9002 -1.0594 -1.4977
  242MPD1     C 3721   3.498   3.874  15.884  0.0836  0.6622 -0.1058
  242MPD1    C1 3722   3.405   3.890  15.788  0.0143 -0.3005  0.1874
  242MPD1    C2 3723   3.396   3.781  15.705 -0.0923  0.3176  0.0612
  242MPD1    C3 3724   3.500   3.689  15.703  0.0242  1.2279  0.7161
  242MPD1    C4 3725   3.594   3.690  15.803  0.0301 -0.6244  0.5960
  242MPD1    C5 3726   3.600   3.790  15.896 -0.1266  0.0238 -0.5582
  242MPD1     H 3727   3.310   3.773  15.640 -0.9605 -4.2996  1.8015
  242MPD1    H1 3728   3.679   3.622  15.802  0.1191 -0.5038 -0.0187
  242MPD1    H2 3729   3.503   3.946  15.965 -0.5040  1.1877 -0.5376
  242MPD1    H3 3730   3.666   3.780  15.981  1.7706  0.7032 -1.9639
  242MPD1     N 3731   3.503   3.581  15.610  0.5814 -0.2714  0.2749
  242MPD1    H5 3732   3.570   3.509  15.635 -0.1583 -1.1576 -0.2874
  242MPD1    N1 3733   3.297   3.986  15.797 -0.2441  0.6235  0.9286
  242MPD1    H6 3734   3.338   4.072  15.833  1.0158  0.0155  0.9700
  242MPD1    H7 3735   3.261   3.998  15.703 -0.1263 -0.0677  0.7909
  243MPD1     C 3736   4.025   1.937  17.549  0.3588  0.8428 -0.2625
  243MPD1    C1 3737   4.135   2.018  17.567 -0.4211  0.0109  0.1780
  243MPD1    C2 3738   4.259   1.944  17.561  0.3153 -0.6619 -0.3788
  243MPD1    C3 3739   4.271   1.809  17.550  0.2711  0.4603  0.8061
  243MPD1    C4 3740   4.156   1.738  17.546 -0.1949 -0.3320  0.1191
  243MPD1    C5 3741   4.036   1.799  17.548 -0.6408 -0.2200 -0.0437
  243MPD1     H 3742   4.352   2.000  17.570  0.5355 -1.3183  1.3361
  243MPD1    H1 3743   4.156   1.630  17.539  3.4745 -0.2912 -0.4987
  243MPD1    H2 3744   3.920   1.964  17.555  0.5651  1.2823  1.4803
  243MPD1    H3 3745   3.945   1.740  17.539 -0.7824 -0.5291  3.3384
  243MPD1     N 3746   4.403   1.753  17.548 -0.8699  0.2287  0.5354
  243MPD1    H5 3747   4.483   1.813  17.564 -0.6040 -0.2050  0.8467
  243MPD1    N1 3748   4.121   2.156  17.568 -0.0517  0.0852  0.4657
  243MPD1    H6 3749   4.028   2.176  17.605 -0.2633 -0.6666  0.3385
  243MPD1    H7 3750   4.194   2.197  17.625  0.9941 -0.8349 -0.2176
  244MPD1     C 3751   0.394   1.520   0.356  0.6577  0.3983 -0.4489
  244MPD1    C1 3752   0.356   1.397   0.315 -0.2013  0.6104 -0.6114
  244MPD1    C2 3753   0.283   1.391   0.197 -0.2936  0.3310  0.3126
  244MPD1    C3 3754   0.256   1.508   0.118 -0.0570  0.4093  0.1736
  244MPD1    C4 3755   0.313   1.627   0.158  0.0068  0.2660 -0.8422
  244MPD1    C5 3756   0.385   1.629   0.277  0.1677 -0.0574 -0.0358
  244MPD1     H 3757   0.245   1.293   0.170 -0.5171  1.0134 -1.9282
  244MPD1    H1 3758   0.286   1.723   0.116  0.0826  0.2911 -0.8340
  244MPD1    H2 3759   0.448   1.534   0.449  0.5843 -1.0498 -0.1923
  244MPD1    H3 3760   0.416   1.722   0.324 -2.5536  0.8198  0.0413
  244MPD1     N 3761   0.178   1.494   0.002 -0.1010 -0.2527 -0.1286
  244MPD1    H5 3762   0.150   1.398  17.724  0.4213 -0.8671  1.9896
  244MPD1    N1 3763   0.358   1.291   0.406  0.5734 -0.1589 -0.4091
  244MPD1    H6 3764   0.357   1.198   0.363 -0.2135 -0.2852 -0.1322
  244MPD1    H7 3765   0.432   1.294   0.475 -0.3848 -0.2750  0.6304
  245MPD1     C 3766   1.732   2.030  14.049  0.3571  0.3513 -0.2711
  245MPD1    C1 3767   1.868   2.055  14.027  0.1332 -0.8896  0.2573
  245MPD1    C2 3768   1.900   2.148  13.920  0.8253  0.0180 -0.2375
  245MPD1    C3 3769   1.798   2.220  13.853 -0.6227  0.1493  0.1716
  245MPD1    C4 3770   1.664   2.179  13.869 -0.0066  0.4657  0.6124
  245MPD1    C5 3771   1.635   2.088  13.967 -0.0721 -0.1854 -0.1535
  245MPD1     H 3772   2.001   2.181  13.899 -0.2753  4.7622  1.8475
  245MPD1    H1 3773   1.584   2.225  13.814  1.1608  1.0878 -0.5601
  245MPD1    H2 3774   1.708   1.962  14.131  1.1862  2.2608  1.5720
  245MPD1    H3 3775   1.536   2.060  14.001  0.0492  1.2925  1.3950
  245MPD1     N 3776   1.839   2.317  13.761  0.1385 -0.1396 -0.2481
  245MPD1    H5 3777   1.939   2.327  13.754 -0.0865  2.7682  0.7393
  245MPD1    N1 3778   1.971   2.001  14.107  0.0622 -0.7789  0.0557
  245MPD1    H6 3779   1.941   1.904  14.110 -0.6273 -0.6323 -2.0204
  245MPD1    H7 3780   2.063   2.007  14.064 -0.2479 -3.3326 -0.9940
  246MPD1     C 3781   3.340   0.573   9.526  0.2055  0.5287  0.6497
  246MPD1    C1 3782   3.331   0.462   9.440  0.1783  0.1769  0.0458
  246MPD1    C2 3783   3.359   0.337   9.489  0.2135  0.2841  0.4883
  246MPD1    C3 3784   3.428   0.326   9.614  0.8746  0.1004  0.1086
  246MPD1    C4 3785   3.443   0.441   9.693  0.5493 -0.6096 -0.3927
  246MPD1    C5 3786   3.400   0.557   9.648 -0.8108  0.1191 -0.5795
  246MPD1     H 3787   3.333   0.249   9.432 -1.1471  0.7418  0.4009
  246MPD1    H1 3788   3.510   0.440   9.778 -1.1238 -0.1256  0.9235
  246MPD1    H2 3789   3.314   0.675   9.500 -2.7533 -0.3816  0.0547
  246MPD1    H3 3790   3.432   0.646   9.700  1.0232 -0.6726 -0.3368
  246MPD1     N 3791   3.448   0.191   9.660  0.0366  0.2679  1.2149
  246MPD1    H5 3792   3.438   0.115   9.593  0.2085 -1.1577  2.8062
  246MPD1    N1 3793   3.263   0.480   9.325  0.1532  0.3817  0.4011
  246MPD1    H6 3794   3.283   0.414   9.250 -0.4696 -1.0178  1.4572
  246MPD1    H7 3795   3.279   0.570   9.282  1.7577 -1.4294 -2.8031
  247MPD1     C 3796   1.485   3.281  16.813 -0.0736  0.5484 -0.1001
  247MPD1    C1 3797   1.494   3.208  16.929  0.6817  0.2589  0.5514
  247MPD1    C2 3798   1.547   3.080  16.912  0.5496  0.5613  0.3156
  247MPD1    C3 3799   1.557   3.020  16.785 -0.0299 -0.5893 -0.3364
  247MPD1    C4 3800   1.553   3.104  16.674  0.2491  1.1195 -0.0436
  247MPD1    C5 3801   1.518   3.237  16.689  0.5262 -0.1906  0.0103
  247MPD1     H 3802   1.573   3.028  17.003 -1.5358  1.7150  1.5680
  247MPD1    H1 3803   1.562   3.059  16.576  0.1601  1.2952 -0.1318
  247MPD1    H2 3804   1.460   3.386  16.807 -0.7267  0.5080  1.7213
  247MPD1    H3 3805   1.510   3.299  16.601  2.0292 -2.2314 -1.5660
  247MPD1     N 3806   1.578   2.877  16.765 -0.7155  0.0605  0.0072
  247MPD1    H5 3807   1.595   2.844  16.670 -0.5986  0.2855 -0.0495
  247MPD1    N1 3808   1.482   3.277  17.056  0.1447  0.3237  0.1082
  247MPD1    H6 3809   1.401   3.337  17.069  0.4844  1.3774 -2.5267
  247MPD1    H7 3810   1.493   3.218  17.138 -0.8699 -1.3718 -0.9567
  248MPD1     C 3811   2.882   2.272  17.370 -0.6206  0.6550 -0.1612
  248MPD1    C1 3812   2.843   2.142  17.396  0.4642 -0.0069  0.0598
  248MPD1    C2 3813   2.760   2.130  17.507 -0.1507  0.4881 -0.4706
  248MPD1    C3 3814   2.739   2.238  17.597  0.2975 -0.1795 -0.2950
  248MPD1    C4 3815   2.790   2.362  17.569 -0.1990 -0.2161  0.0359
  248MPD1    C5 3816   2.845   2.378  17.448  0.1067  0.4044  0.3234
  248MPD1     H 3817   2.714   2.035  17.533 -0.5623  0.4327 -1.3955
  248MPD1    H1 3818   2.768   2.449  17.629 -3.2378 -1.3131  0.4935
  248MPD1    H2 3819   2.924   2.294  17.272 -0.3599 -0.8814 -0.3994
  248MPD1    H3 3820   2.884   2.474  17.415 -1.5204  1.1114  0.4784
  248MPD1     N 3821   2.674   2.213  17.717 -0.6974 -0.2535  0.4993
  248MPD1    H5 3822   2.653   2.114  17.723 -0.4689 -0.3356 -0.0897
  248MPD1    N1 3823   2.872   2.043  17.302 -0.8711  0.4221  1.0867
  248MPD1    H6 3824   2.938   2.078  17.233 -0.0826 -1.2088  1.0164
  248MPD1    H7 3825   2.783   2.022  17.258  0.6772 -3.0987 -0.3929
  249MPD1     C 3826   3.381   0.883  10.709  0.2961  0.3364 -0.5959
  249MPD1    C1 3827   3.487   0.969  10.674 -0.4048 -0.1118 -0.8879
  249MPD1    C2 3828   3.556   0.961  10.552 -0.4821  0.1784 -0.2995
  249MPD1    C3 3829   3.526   0.858  10.467 -0.5726  0.6304  0.3158
  249MPD1    C4 3830   3.420   0.774  10.499  0.0051  0.0800 -0.8423
  249MPD1    C5 3831   3.352   0.793  10.614 -0.3909 -0.0495 -0.2421
  249MPD1     H 3832   3.626   1.038  10.522  0.6180 -0.5898  0.2778
  249MPD1    H1 3833   3.385   0.691  10.440 -0.3146  0.9803 -1.9152
  249MPD1    H2 3834   3.341   0.882  10.810 -0.4002 -1.4525 -0.9026
  249MPD1    H3 3835   3.281   0.715  10.641  2.1919 -2.8076 -1.4070
  249MPD1     N 3836   3.591   0.852  10.347  0.2147  0.5729 -0.0768
  249MPD1    H5 3837   3.660   0.925  10.332  0.5168  0.2504 -0.2573
  249MPD1    N1 3838   3.534   1.055  10.776  0.0112 -0.1369 -0.2823
  249MPD1    H6 3839   3.583   1.139  10.746 -2.3933  0.2460 -3.1378
  249MPD1    H7 3840   3.459   1.094  10.832  1.0412  1.7099 -0.2068
  250MPD2     C 3841   0.775   0.790  13.415  0.5402 -0.2931 -0.1756
  250MPD2    C1 3842   0.652   0.846  13.380  0.5813  0.0359 -0.1473
  250MPD2    C2 3843   0.581   0.787  13.275  0.0356  0.3737  0.1226
  250MPD2    C3 3844   0.622   0.674  13.205  0.7314  0.0013 -0.0328
  250MPD2    C4 3845   0.744   0.623  13.248 -0.4839  0.3917  0.0182
  250MPD2    C5 3846   0.822   0.686  13.338 -0.4057  0.2843 -0.4921
  250MPD2     H 3847   0.480   0.824  13.261 -0.2690 -0.1913  0.7760
  250MPD2    H1 3848   0.794   0.541  13.199  0.5654  1.7049 -1.1097
  250MPD2    H2 3849   0.837   0.819  13.499  0.7494  0.7938 -0.7136
  250MPD2    H3 3850   0.918   0.643  13.365  0.6092  2.7437 -0.1969
  250MPD2     N 3851   0.538   0.617  13.107 -0.7058 -0.3648  0.5116
  250MPD2    H5 3852   0.567   0.527  13.071 -2.2876 -0.8924  0.5714
  250MPD2    N1 3853   0.603   0.946  13.464  0.4299  0.4999 -0.2180
  250MPD2    H7 3854   0.638   0.954  13.559 -1.9265 -1.3621  0.8304
  251TMC3    C1 3855   0.491   1.123  13.526 -0.0676 -0.2128  0.2284
  251TMC3    C2 3856   0.373   1.195  13.515  0.3416  1.0318  0.2933
  251TMC3    C3 3857   0.373   1.322  13.559  1.0299 -0.1883  0.0686
  251TMC3    C4 3858   0.613   1.182  13.570 -0.0572 -0.6123 -0.8191
  251TMC3    C5 3859   0.608   1.316  13.605 -0.6268  0.0767  0.3594
  251TMC3    C6 3860   0.486   1.383  13.608 -0.0949 -0.8049 -0.1096
  251TMC3     C 3861   0.495   1.016  13.432 -0.1740 -0.0458 -0.2635
  251TMC3     O 3862   0.443   1.042  13.324 -0.0211  0.1739  0.3637
  251TMC3     H 3863   0.285   1.148  13.473  1.4761  0.5011 -1.4600
  251TMC3    H1 3864   0.711   1.135  13.573 -0.6813 -1.9942 -1.8745
  251TMC3    H2 3865   0.479   1.486  13.640 -1.2446 -1.0781  0.5157
  251TMC3    C7 3866   0.718   1.384  13.553  0.7379  0.3506  0.1121
  251TMC3    C8 3867   0.245   1.393  13.584  0.1966 -0.2417  0.4348
  251TMC3    O1 3868   0.821   1.382  13.616 -0.0016 -0.1103 -0.0253
  251TMC3    O2 3869   0.228   1.433  13.697  0.0740  0.0672  0.1012
  252TMC3    C1 3870   0.267   2.402   9.899  0.3617  0.2149  0.4558
  252TMC3    C2 3871   0.381   2.392   9.828  0.0420 -0.3313 -0.7199
  252TMC3    C3 3872   0.461   2.279   9.832  0.2759  0.4755  0.2333
  252TMC3    C4 3873   0.233   2.297   9.977 -0.4103 -0.0845  0.2910
  252TMC3    C5 3874   0.300   2.180   9.973  0.3272 -0.4782 -0.1191
  252TMC3    C6 3875   0.414   2.172   9.901  0.1890  0.2005 -0.1853
  252TMC3     C 3876   0.181   2.513   9.885 -0.4385  0.2004  0.2080
  252TMC3     O 3877   0.200   2.591   9.794  0.3064  0.3204  0.6832
  252TMC3     H 3878   0.412   2.476   9.767  1.5701  0.5916  1.2926
  252TMC3    H1 3879   0.134   2.295  10.022 -1.4966 -0.3992 -2.1412
  252TMC3    H2 3880   0.467   2.080   9.882 -0.8175  0.1606 -2.8125
  252TMC3    C7 3881   0.245   2.065  10.048  0.3943 -0.0748  0.1950
  252TMC3    C8 3882   0.573   2.270   9.744 -0.4695  0.9216  0.0058
  252TMC3    O1 3883   0.124   2.056  10.067  0.2706 -0.1989 -0.2476
  252TMC3    O2 3884   0.565   2.337   9.643 -0.4770 -0.5843 -0.0433
  253MPD2     C 3885   1.725   0.938  15.148  0.4049  0.0686 -0.7855
  253MPD2    C1 3886   1.587   0.927  15.143 -0.3446  0.4143 -0.0476
  253MPD2    C2 3887   1.518   0.942  15.258 -0.4197  0.2648 -0.6452
  253MPD2    C3 3888   1.582   0.959  15.384  0.1108 -0.9402  0.4512
  253MPD2    C4 3889   1.718   0.965  15.387  0.4283  0.0427 -0.1914
  253MPD2    C5 3890   1.786   0.965  15.266  0.2187 -0.4969 -0.1526
  253MPD2     H 3891   1.411   0.925  15.260 -0.3813  0.1766  0.6216
  253MPD2    H1 3892   1.781   0.968  15.475 -1.0405  0.9363  0.8282
  253MPD2    H2 3893   1.778   0.916  15.056  0.8754 -0.7909 -0.2930
  253MPD2    H3 3894   1.894   0.962  15.271  0.2279  1.2209  0.7648
  253MPD2     N 3895   1.519   0.961  15.508 -0.7516 -0.0441  0.1824
  253MPD2    H5 3896   1.569   0.939  15.593  0.3955  1.7323 -0.0124
  253MPD2    N1 3897   1.511   0.893  15.031 -0.4653  0.1354 -0.2175
  253MPD2    H7 3898   1.411   0.884  15.042 -0.3544  2.3629  2.4212
  254TMC3    C1 3899   1.338   0.994  15.658 -0.5716 -0.1176  0.5718
  254TMC3    C2 3900   1.205   1.030  15.680 -0.7851 -0.1126 -0.5288
  254TMC3    C3 3901   1.144   1.003  15.799  0.3262 -0.7782  0.2224
  254TMC3    C4 3902   1.413   0.936  15.756 -0.5262 -0.4620 -0.7061
  254TMC3    C5 3903   1.347   0.913  15.877 -0.4424  1.1984 -0.3523
  254TMC3    C6 3904   1.213   0.938  15.896 -0.0832 -0.3882 -0.2634
  254TMC3     C 3905   1.389   1.005  15.523  0.2546  0.4638 -0.1455
  254TMC3     O 3906   1.311   1.050  15.438 -0.4078 -0.9413  0.3959
  254TMC3     H 3907   1.143   1.075  15.604 -2.1022 -3.0164 -1.2019
  254TMC3    H1 3908   1.520   0.917  15.750 -0.4876 -0.2209 -0.7616
  254TMC3    H2 3909   1.170   0.919  15.994 -0.2240 -0.0489 -0.2585
  254TMC3    C7 3910   1.409   0.867  16.001  0.1303 -0.5175  0.7653
  254TMC3    C8 3911   1.027   1.078  15.845 -0.0811  0.0206 -0.5294
  254TMC3    O1 3912   1.370   0.902  16.111 -0.1228 -0.2868  0.5139
  254TMC3    O2 3913   1.000   1.059  15.962  0.1348 -0.0293  0.5143
  255MPD2     C 3914   0.461   3.016  10.041  0.5216 -0.4412  0.3785
  255MPD2    C1 3915   0.516   3.054   9.922  0.8018 -0.3104 -0.3080
  255MPD2    C2 3916   0.509   2.974   9.818  0.4452 -0.1956  0.2665
  255MPD2    C3 3917   0.444   2.852   9.823 -0.5805  0.5859  0.1845
  255MPD2    C4 3918   0.393   2.818   9.948 -0.2593 -0.3285  0.0993
  255MPD2    C5 3919   0.393   2.898  10.055  0.3581  0.2163  0.3608
  255MPD2     H 3920   0.540   3.010   9.720  1.4969 -2.2024 -0.1471
  255MPD2    H1 3921   0.334   2.728   9.959 -1.8555  1.0022  2.4302
  255MPD2    H2 3922   0.467   3.084  10.125 -0.4936  1.8306 -1.3841
  255MPD2    H3 3923   0.345   2.872  10.148  0.2117 -0.3817  0.1211
  255MPD2     N 3924   0.427   2.760   9.713 -0.1043 -0.9666  0.0624
  255MPD2    H5 3925   0.363   2.684   9.733 -2.9345  1.5112  0.4528
  255MPD2    N1 3926   0.564   3.185   9.922  0.6555 -0.1490 -0.2230
  255MPD2    H7 3927   0.549   3.230  10.012 -0.6329 -0.1796 -0.4224
  256TMC3    C1 3928   0.708   3.363   9.862  0.5773 -0.0805  0.3891
  256TMC3    C2 3929   0.778   3.419   9.757 -0.1105 -0.3348 -0.2115
  256TMC3    C3 3930   0.799   3.555   9.758  0.1280  0.1665 -0.3893
  256TMC3    C4 3931   0.659   3.436   9.962 -0.5684  0.3186  0.3203
  256TMC3    C5 3932   0.673   3.576   9.954 -0.5328 -0.0587  0.4021
  256TMC3    C6 3933   0.744   3.641   9.855  0.6498  0.2536 -0.6388
  256TMC3     C 3934   0.645   3.242   9.826  0.1432 -0.6770 -0.3511
  256TMC3     O 3935   0.675   3.191   9.721  0.3962 -0.3176 -0.2315
  256TMC3     H 3936   0.816   3.368   9.669 -1.9767 -3.3220  0.7255
  256TMC3    H1 3937   0.592   3.388  10.032 -1.1980 -1.1534 -1.2720
  256TMC3    H2 3938   0.741   3.749   9.846  0.5755  0.3963  1.0210
  256TMC3    C7 3939   0.567   3.648  10.009 -0.0050  0.1133  0.0049
  256TMC3    C8 3940   0.848   3.602   9.627 -0.2232  0.1761 -0.2365
  256TMC3    O1 3941   0.454   3.596  10.002 -0.3629 -0.0289 -0.1974
  256TMC3    O2 3942   0.815   3.527   9.531 -0.0357  0.5204  0.1577
  257MPD2     C 3943   3.664   1.117  13.110 -0.3003 -0.3239  0.6226
  257MPD2    C1 3944   3.572   1.038  13.053 -0.6384  0.6319 -0.0131
  257MPD2    C2 3945   3.513   0.935  13.126 -0.4179  0.2251 -0.1907
  257MPD2    C3 3946   3.536   0.936  13.260  0.0334 -0.3067 -0.8876
  257MPD2    C4 3947   3.622   1.021  13.322  0.4485 -0.3360  0.3982
  257MPD2    C5 3948   3.690   1.110  13.244  0.1502  0.0684 -0.2719
  257MPD2     H 3949   3.433   0.875  13.086  0.4684 -0.0477 -1.5480
  257MPD2    H1 3950   3.634   1.033  13.429 -1.8167 -0.3264  0.6537
  257MPD2    H2 3951   3.706   1.197  13.050 -0.0652 -0.3972  0.6862
  257MPD2    H3 3952   3.746   1.190  13.290  0.7960 -1.3426  1.4088
  257MPD2     N 3953   3.462   0.838  13.321 -1.0349  0.1947 -0.1244
  257MPD2    H5 3954   3.412   0.775  13.259  0.1072 -1.0420  0.2247
  257MPD2    N1 3955   3.539   1.063  12.919  0.2397  0.3394  0.2362
  257MPD2    H7 3956   3.593   1.132  12.868  2.0977 -1.7399 -0.6043
  258TMC3    C1 3957   3.443   0.661  13.472 -0.3162  0.2200 -0.6112
  258TMC3    C2 3958   3.386   0.583  13.374  0.6880 -0.1775 -0.3180
  258TMC3    C3 3959   3.364   0.453  13.403 -0.4639  0.1080  0.3369
  258TMC3    C4 3960   3.494   0.607  13.588  0.6578 -0.0819 -0.7252
  258TMC3    C5 3961   3.482   0.470  13.608  1.3136 -0.1810 -0.3761
  258TMC3    C6 3962   3.408   0.396  13.518 -0.4496 -1.1637  0.0278
  258TMC3     C 3963   3.470   0.805  13.452 -0.5837  0.0645  0.1145
  258TMC3     O 3964   3.507   0.879  13.542 -0.1003 -0.2712 -0.1671
  258TMC3     H 3965   3.343   0.618  13.281  0.7738 -0.3868 -0.4367
  258TMC3    H1 3966   3.536   0.678  13.658 -1.4906  1.3096 -0.8526
  258TMC3    H2 3967   3.391   0.290  13.537  2.3679 -1.5206  0.6185
  258TMC3    C7 3968   3.543   0.409  13.722 -0.4137  0.3192 -0.2858
  258TMC3    C8 3969   3.318   0.372  13.293  0.3240 -0.0463  0.5512
  258TMC3    O1 3970   3.493   0.297  13.744 -0.2712 -0.3199 -0.3446
  258TMC3    O2 3971   3.278   0.425  13.192  0.0602 -0.1840  0.0178
  259MPD2     C 3972   2.836   2.673   0.977  0.8436 -0.1518  0.2178
  259MPD2    C1 3973   2.847   2.538   0.988 -0.2241  0.5056  0.4048
  259MPD2    C2 3974   2.931   2.470   0.901 -0.4029  0.4975 -0.6918
  259MPD2    C3 3975   2.992   2.535   0.794 -0.3762  0.5251  0.3915
  259MPD2    C4 3976   2.978   2.672   0.786  0.6046  0.0081 -1.0436
  259MPD2    C5 3977   2.898   2.733   0.874 -0.2866  0.3520 -0.1833
  259MPD2     H 3978   2.939   2.362   0.908 -0.2760  0.6800  2.2025
  259MPD2    H1 3979   3.035   2.730   0.715  0.1274  0.4216 -1.0892
  259MPD2    H2 3980   2.786   2.736   1.050 -2.7137 -0.9261 -1.5243
  259MPD2    H3 3981   2.908   2.841   0.883 -0.6311  0.4874 -1.4429
  259MPD2     N 3982   3.077   2.458   0.706  0.0250  0.0109 -0.1679
  259MPD2    H5 3983   3.080   2.357   0.715  2.7513  0.2001  0.9265
  259MPD2    N1 3984   2.783   2.477   1.094  0.3134  0.3581  0.6446
  259MPD2    H7 3985   2.710   2.535   1.133  0.0951  2.0043 -2.1926
  260TMC3    C1 3986   3.231   2.429   0.528 -0.2055  0.1106 -0.5860
  260TMC3    C2 3987   3.286   2.480   0.414  0.0179 -0.3962 -0.4130
  260TMC3    C3 3988   3.410   2.431   0.380  0.3897 -0.3766  0.5577
  260TMC3    C4 3989   3.295   2.341   0.610  0.2657  0.6770  0.2557
  260TMC3    C5 3990   3.418   2.296   0.567  0.7354  0.1800 -0.8836
  260TMC3    C6 3991   3.482   2.353   0.469  0.5884 -0.4746  0.1899
  260TMC3     C 3992   3.143   2.520   0.604 -0.5229 -0.0608 -0.0625
  260TMC3     O 3993   3.133   2.635   0.557  0.4132 -0.1712 -0.2444
  260TMC3     H 3994   3.221   2.529   0.342  0.7711  1.2253  0.0074
  260TMC3    H1 3995   3.263   2.321   0.712 -1.6794  0.4270 -0.3927
  260TMC3    H2 3996   3.583   2.321   0.446  2.1799  3.6964  1.2642
  260TMC3    C7 3997   3.403   2.153   0.538  0.1927 -0.1113 -0.0969
  260TMC3    C8 3998   3.406   2.392   0.241  0.3796  0.4979 -0.2589
  260TMC3    O1 3999   3.476   2.102   0.451 -0.6442  0.1881 -0.4116
  260TMC3    O2 4000   3.353   2.463   0.154 -0.2380  0.1774  0.8048
  261MPD2     C 4001   4.494   0.808  12.740 -0.1642 -0.5590  0.3474
  261MPD2    C1 4002   4.566   0.707  12.675 -0.4334 -0.2479  0.1758
  261MPD2    C2 4003   4.507   0.660  12.558  0.0558  0.3031 -0.2261
  261MPD2    C3 4004   4.376   0.691  12.515 -0.0796  0.1701  0.0863
  261MPD2    C4 4005   4.303   0.771  12.592  0.4265 -0.7761  0.3846
  261MPD2    C5 4006   4.366   0.837  12.696 -0.0154 -0.4295  0.4734
  261MPD2     H 4007   4.562   0.587  12.499  1.1686  1.3396 -0.4714
  261MPD2    H1 4008   4.199   0.796  12.575  0.3456 -1.8832 -0.6740
  261MPD2    H2 4009   4.523   0.864  12.828 -0.2726 -0.9972  0.6645
  261MPD2    H3 4010   4.306   0.909  12.751  2.6446 -0.0530  2.8589
  261MPD2     N 4011   4.327   0.644  12.389 -0.0815 -0.2176  0.5723
  261MPD2    H5 4012   4.392   0.581  12.343  0.8004  1.7153 -0.8575
  261MPD2    N1 4013   4.698   0.662  12.703  0.1842 -0.0353 -0.1601
  261MPD2    H7 4014   0.007   0.596  12.640 -2.0969 -0.4147 -1.3697
  262TMC3    C1 4015   4.206   0.630  12.184  0.2568  0.1462 -0.3783
  262TMC3    C2 4016   4.131   0.718  12.109 -0.3852  0.1501 -0.3256
  262TMC3    C3 4017   4.171   0.731  11.978 -0.2887 -0.0088 -0.5130
  262TMC3    C4 4018   4.306   0.556  12.135  0.2441  0.1840 -0.4431
  262TMC3    C5 4019   4.351   0.589  12.008 -0.4732 -0.0043 -0.3746
  262TMC3    C6 4020   4.281   0.676  11.926  0.5705  0.3488 -0.6176
  262TMC3     C 4021   4.211   0.679  12.322 -0.0110  0.2776 -0.1359
  262TMC3     O 4022   4.141   0.772  12.360  0.3862  0.0569 -0.1440
  262TMC3     H 4023   4.042   0.766  12.148  1.5457  2.8088  0.7101
  262TMC3    H1 4024   4.367   0.486  12.190  1.4833  0.6238 -1.2446
  262TMC3    H2 4025   4.321   0.732  11.842  2.3436  0.5614  0.3759
  262TMC3    C7 4026   4.495   0.561  11.975  0.4965  0.4613  0.7939
  262TMC3    C8 4027   4.143   0.856  11.922 -0.8653 -0.2876  0.0569
  262TMC3    O1 4028   4.557   0.508  12.064 -0.4733  0.3331  0.0367
  262TMC3    O2 4029   4.123   0.950  11.994  0.4062  0.2460 -0.2264
  263MPD2     C 4030   1.123   3.992  11.274  0.0537 -0.2444  0.3616
  263MPD2    C1 4031   1.109   4.120  11.335  0.0874  1.0141  0.1968
  263MPD2    C2 4032   1.069   4.224  11.254 -0.3224 -0.4070  0.3120
  263MPD2    C3 4033   1.062   4.202  11.122  0.0256  0.0993  0.1499
  263MPD2    C4 4034   1.088   4.075  11.070 -0.0233 -0.1940  0.3093
  263MPD2    C5 4035   1.100   3.963  11.144 -0.8214  0.3306  0.1953
  263MPD2     H 4036   1.069   4.325  11.293 -0.6485  0.2341 -1.3145
  263MPD2    H1 4037   1.080   4.068  10.962  1.4532 -1.2720  0.2596
  263MPD2    H2 4038   1.150   3.904  11.331  1.3635 -0.1854 -0.1837
  263MPD2    H3 4039   1.092   3.860  11.111 -0.4706 -0.2545  1.9266
  263MPD2     N 4040   1.046   4.318  11.040 -0.3991  0.4798  0.5962
  263MPD2    H5 4041   1.030   4.408  11.084  3.4059  1.7340 -0.4892
  263MPD2    N1 4042   1.141   4.128  11.474 -0.2319  0.4396 -0.0186
  263MPD2    H7 4043   1.182   4.047  11.519 -0.8619 -0.2332 -0.6554
  264TMC3    C1 4044   1.057   4.452  10.855 -0.2643  0.2628  0.0900
  264TMC3    C2 4045   0.945   4.520  10.893 -0.9754 -0.1888 -0.0779
  264TMC3    C3 4046   0.942   4.657  10.888 -1.1205  0.2127 -0.0271
  264TMC3    C4 4047   1.147   4.527  10.782 -0.1880  0.1933  0.6571
  264TMC3    C5 4048   1.142   4.665  10.776  0.9056 -0.5439  0.0249
  264TMC3    C6 4049   1.047   0.006  10.841  0.0175  0.1658 -0.5896
  264TMC3     C 4050   1.084   4.324  10.908  0.0086 -0.6450  0.7511
  264TMC3     O 4051   1.170   4.260  10.849  0.2242 -0.4956  0.8721
  264TMC3     H 4052   0.855   4.476  10.932 -0.8030 -1.3299 -0.9707
  264TMC3    H1 4053   1.236   4.471  10.755 -0.3938  0.6768 -1.0286
  264TMC3    H2 4054   1.038   0.113  10.833 -0.0653  0.3310  1.7533
  264TMC3    C7 4055   1.268   4.717  10.722 -0.0254 -0.4642 -0.5653
  264TMC3    C8 4056   0.866   4.718  10.994 -0.4250 -0.0201  0.7986
  264TMC3    O1 4057   1.328   4.651  10.639 -0.0288  0.1016 -0.0889
  264TMC3    O2 4058   0.778   4.644  11.045  0.0297  0.0153  0.1722
  265MPD2     C 4059   2.788   0.660  15.776  0.2120  0.7058 -0.0504
  265MPD2    C1 4060   2.784   0.777  15.700 -0.1511 -0.6187  0.2617
  265MPD2    C2 4061   2.822   0.767  15.562  0.1067  0.3104 -0.0773
  265MPD2    C3 4062   2.854   0.646  15.504  0.9403  0.1868  0.6621
  265MPD2    C4 4063   2.839   0.535  15.581 -0.0110  0.0514  0.3573
  265MPD2    C5 4064   2.823   0.544  15.718  0.2714 -0.2522 -0.2353
  265MPD2     H 4065   2.834   0.853  15.497  1.0508  0.2904  0.0729
  265MPD2    H1 4066   2.846   0.438  15.533  1.3634 -0.0185  0.7011
  265MPD2    H2 4067   2.767   0.653  15.882 -0.2264  1.0800 -0.1119
  265MPD2    H3 4068   2.801   0.451  15.769  0.6305  0.1079  0.5794
  265MPD2     N 4069   2.875   0.627  15.367 -0.0033 -0.3631  0.4097
  265MPD2    H5 4070   2.893   0.535  15.330 -0.1646  0.1051 -0.8380
  265MPD2    N1 4071   2.760   0.904  15.755 -0.2510 -0.0026 -0.0626
  265MPD2    H7 4072   2.763   0.987  15.697  0.1448  0.1208  0.1309
  266TMC3    C1 4073   2.681   1.063  15.903  0.3905  0.1811 -0.5684
  266TMC3    C2 4074   2.792   1.147  15.910 -0.3762  0.5443 -0.1645
  266TMC3    C3 4075   2.791   1.254  15.996 -0.4295 -0.0614  0.2859
  266TMC3    C4 4076   2.576   1.091  15.981 -0.3048  0.4561 -0.2360
  266TMC3    C5 4077   2.573   1.207  16.046  0.8213 -0.6324  0.0332
  266TMC3    C6 4078   2.683   1.286  16.066 -0.1119 -0.0574 -0.1111
  266TMC3     C 4079   2.707   0.926  15.882  0.4289 -0.0242 -0.4506
  266TMC3     O 4080   2.681   0.844  15.968  0.0760 -0.2652  0.3656
  266TMC3     H 4081   2.880   1.114  15.857 -1.2980 -0.7451 -0.9029
  266TMC3    H1 4082   2.495   1.020  15.989  0.6662 -0.6533 -0.3318
  266TMC3    H2 4083   2.683   1.375  16.128  0.0448  1.5173 -2.3801
  266TMC3    C7 4084   2.439   1.243  16.098 -0.5298  0.5490  0.6532
  266TMC3    C8 4085   2.915   1.329  16.011 -0.7575  0.1059 -0.7940
  266TMC3    O1 4086   2.359   1.154  16.110  0.2855  0.5636 -0.2495
  266TMC3    O2 4087   3.006   1.293  15.939  0.1674  0.2802  0.1432
  267MPD2     C 4088   0.078   2.569   0.148 -0.0603 -0.2479  0.3652
  267MPD2    C1 4089   0.149   2.673   0.083 -0.5107 -0.5149 -0.5563
  267MPD2    C2 4090   0.170   2.678  17.691  0.3754  0.3224  0.3865
  267MPD2    C3 4091   0.097   2.588  17.618  0.2071  0.1252  0.3142
  267MPD2    C4 4092   0.004   2.504  17.675  0.6307  0.6121  0.5229
  267MPD2    C5 4093   4.735   2.491   0.067  0.1173  0.5381 -0.0844
  267MPD2     H 4094   0.242   2.748  17.649 -0.0183 -0.1005 -1.0054
  267MPD2    H1 4095   4.680   2.431  17.622  2.2800 -0.7805  0.5483
  267MPD2    H2 4096   0.072   2.564   0.256  2.5504  2.0220  0.6049
  267MPD2    H3 4097   4.667   2.415   0.102 -1.7626  0.9252 -2.8655
  267MPD2     N 4098   0.107   2.577  17.478  0.5623  0.4489  0.2267
  267MPD2    H5 4099   0.047   2.509  17.432  0.2224  0.8381  0.0912
  267MPD2    N1 4100   0.208   2.770   0.172  0.6956 -0.2427  0.0785
  267MPD2    H7 4101   0.201   2.755   0.272 -0.5334  1.3623  0.2452
  268TMC3    C1 4102   0.317   2.971   0.238 -0.5312 -0.5609  0.5689
  268TMC3    C2 4103   0.356   3.098   0.199 -0.7014 -1.0749 -0.1840
  268TMC3    C3 4104   0.456   3.151   0.273  0.3930 -0.8857  0.1467
  268TMC3    C4 4105   0.349   2.912   0.358 -0.2734  0.0444 -0.1200
  268TMC3    C5 4106   0.444   2.982   0.433 -0.0670 -0.4030  0.0648
  268TMC3    C6 4107   0.499   3.101   0.392  0.1547 -0.2396 -0.2379
  268TMC3     C 4108   0.267   2.885   0.130 -0.4791  0.4775  0.1986
  268TMC3     O 4109   0.259   2.936   0.018  0.8831  0.1981 -0.1426
  268TMC3     H 4110   0.332   3.142   0.103 -0.5733 -1.9488 -0.6174
  268TMC3    H1 4111   0.316   2.812   0.384 -1.6535  0.2819 -0.9840
  268TMC3    H2 4112   0.576   3.152   0.448  0.0602 -0.6330  0.2566
  268TMC3    C7 4113   0.485   2.927   0.560  0.1168 -0.0339  0.1976
  268TMC3    C8 4114   0.560   3.226   0.199 -0.4779  0.3793 -0.3052
  268TMC3    O1 4115   0.601   2.930   0.590  0.2515  0.1221  0.4464
  268TMC3    O2 4116   0.644   3.287   0.265 -0.1271 -0.3734 -0.0765
  269MPD2     C 4117   0.812   1.280  15.422  0.5322  0.6280  0.6434
  269MPD2    C1 4118   0.718   1.347  15.497  0.2553 -0.1638  0.5520
  269MPD2    C2 4119   0.713   1.483  15.475 -0.8418 -0.2278  0.0593
  269MPD2    C3 4120   0.785   1.543  15.369  0.2576 -0.0538 -1.0000
  269MPD2    C4 4121   0.867   1.466  15.284 -0.8354  0.1608 -0.5992
  269MPD2    C5 4122   0.878   1.330  15.314  0.6644 -0.0915 -0.2660
  269MPD2     H 4123   0.648   1.542  15.539 -2.3075 -4.0219  2.1400
  269MPD2    H1 4124   0.922   1.511  15.201  0.1715  0.7170  0.3754
  269MPD2    H2 4125   0.830   1.174  15.438  0.8435  0.2262 -2.4549
  269MPD2    H3 4126   0.945   1.260  15.264  0.6814  0.1506 -0.5812
  269MPD2     N 4127   0.742   1.677  15.339 -0.0900  1.4329 -0.3022
  269MPD2    H5 4128   0.669   1.723  15.391  0.6983  0.3987  1.7031
  269MPD2    N1 4129   0.656   1.276  15.600 -0.0826  0.4456  0.0068
  269MPD2    H7 4130   0.678   1.177  15.605 -0.4842  0.4003  0.8050
  270TMC3    C1 4131   0.520   1.199  15.757  0.5736 -0.2637  0.4246
  270TMC3    C2 4132   0.393   1.149  15.758 -0.1131  0.3085 -0.0174
  270TMC3    C3 4133   0.377   1.018  15.779 -0.4791  0.1833 -0.1685
  270TMC3    C4 4134   0.626   1.120  15.785 -0.0764 -0.2301 -0.3531
  270TMC3    C5 4135   0.608   0.985  15.810  0.0814 -0.2913 -0.1727
  270TMC3    C6 4136   0.480   0.940  15.819 -0.1036 -0.2671 -0.0522
  270TMC3     C 4137   0.556   1.317  15.679  0.2218  0.1744  0.5826
  270TMC3     O 4138   0.486   1.419  15.677 -0.2929  0.4701 -0.2433
  270TMC3     H 4139   0.313   1.215  15.725 -0.8734  1.0007  3.1950
  270TMC3    H1 4140   0.726   1.160  15.798 -0.2448  1.5418 -4.5876
  270TMC3    H2 4141   0.464   0.836  15.844 -0.8533  0.1850  1.3322
  270TMC3    C7 4142   0.693   0.900  15.739  0.0233 -0.3304  0.2946
  270TMC3    C8 4143   0.299   0.947  15.680  0.9123  0.3348  0.0569
  270TMC3    O1 4144   0.808   0.947  15.725 -0.1513  0.3744 -0.5705
  270TMC3    O2 4145   0.347   0.838  15.649  0.1672 -0.1552  0.0333
  271MPD2     C 4146   4.493   1.186  13.856  0.0838 -0.0604 -0.4753
  271MPD2    C1 4147   4.414   1.150  13.965  0.2782 -0.0136 -0.2049
  271MPD2    C2 4148   4.278   1.177  13.958  0.8968  0.6131  0.5885
  271MPD2    C3 4149   4.221   1.223  13.837  0.5302  0.0000  0.1656
  271MPD2    C4 4150   4.303   1.263  13.736 -0.8628 -0.8521  0.6999
  271MPD2    C5 4151   4.436   1.244  13.745 -1.0679 -0.3108  0.4198
  271MPD2     H 4152   4.211   1.144  14.037  1.2501 -0.9374  0.2334
  271MPD2    H1 4153   4.269   1.278  13.635  1.2596  1.3559  0.3118
  271MPD2    H2 4154   4.597   1.159  13.840 -0.0864 -0.7752 -0.4086
  271MPD2    H3 4155   4.486   1.259  13.651 -1.1112 -0.9762  0.2923
  271MPD2     N 4156   4.080   1.243  13.814 -0.0232 -0.3516 -0.0304
  271MPD2    H5 4157   4.049   1.287  13.727 -1.5180  2.6630  1.9970
  271MPD2    N1 4158   4.467   1.085  14.081  0.4894  0.7999  0.1719
  271MPD2    H7 4159   4.403   1.037  14.143  0.2378  1.1496  0.1802
  272TMC3    C1 4160   4.639   0.985  14.226 -0.0602  0.2291 -0.1911
  272TMC3    C2 4161   0.033   0.944  14.238 -0.1872  0.1318 -0.0094
  272TMC3    C3 4162   0.066   0.871  14.353 -0.6238  0.0035 -0.2413
  272TMC3    C4 4163   4.547   0.977  14.326 -0.3513 -0.2112  0.2091
  272TMC3    C5 4164   4.587   0.914  14.439 -0.5531  0.1340 -0.2261
  272TMC3    C6 4165   4.712   0.859  14.454  0.2750 -0.0313  0.1615
  272TMC3     C 4166   4.607   1.076  14.111  0.0819  0.3811  0.7307
  272TMC3     O 4167   4.698   1.116  14.043  0.5551  0.2410 -0.5966
  272TMC3     H 4168   0.101   0.958  14.154 -0.8528 -0.3989 -0.6322
  272TMC3    H1 4169   4.462   1.044  14.322  0.6745  0.9657 -1.9975
  272TMC3    H2 4170   4.733   0.794  14.539  2.0647 -0.1927 -0.4053
  272TMC3    C7 4171   4.502   0.921  14.556  0.4247  0.3581 -0.1655
  272TMC3    C8 4172   0.173   0.776  14.327  0.2670 -0.3352 -0.7873
  272TMC3    O1 4173   4.389   0.970  14.533  0.2558  0.9874 -0.0887
  272TMC3    O2 4174   0.214   0.767  14.211 -0.4239 -0.2152  0.2083
  273MPD2     C 4175   1.552   3.198  11.904  0.1289 -0.2936 -0.4756
  273MPD2    C1 4176   1.625   3.314  11.904  1.3809 -0.0230 -0.5551
  273MPD2    C2 4177   1.708   3.344  11.798  0.2001 -0.2048 -0.5588
  273MPD2    C3 4178   1.719   3.262  11.690  0.1127 -0.0026  0.3336
  273MPD2    C4 4179   1.644   3.142  11.693  0.1142 -0.7946  0.4938
  273MPD2    C5 4180   1.555   3.111  11.797 -0.3336  0.1145  0.3330
  273MPD2     H 4181   1.781   3.423  11.806  0.8750 -0.7136 -1.6172
  273MPD2    H1 4182   1.642   3.087  11.600  0.4045 -0.5619  0.3514
  273MPD2    H2 4183   1.503   3.162  11.994  1.1400 -1.1529 -0.2644
  273MPD2    H3 4184   1.516   3.011  11.809 -0.0052  0.1133  1.3344
  273MPD2     N 4185   1.801   3.298  11.576  0.5099 -0.8683 -0.6334
  273MPD2    H5 4186   1.763   3.259  11.490 -0.6565  1.6624 -1.2524
  273MPD2    N1 4187   1.629   3.393  12.022 -0.0910 -1.0064  0.0284
  273MPD2    H7 4188   1.569   3.366  12.100 -1.3880  2.3301  0.2072
  274TMC3    C1 4189   1.905   3.476  11.450 -0.8930 -0.2577 -0.0750
  274TMC3    C2 4190   1.846   3.437  11.329 -0.1278  0.4247 -0.0789
  274TMC3    C3 4191   1.866   3.514  11.214  0.0207 -0.6936 -0.1653
  274TMC3    C4 4192   1.971   3.593  11.453 -0.3793  0.5043  0.3684
  274TMC3    C5 4193   1.976   3.674  11.338  0.1045 -0.1948 -0.0165
  274TMC3    C6 4194   1.932   3.641  11.218 -0.3421 -0.6947 -0.0428
  274TMC3     C 4195   1.895   3.407  11.572 -0.0148 -0.3203 -0.4280
  274TMC3     O 4196   1.933   3.470  11.666  0.1092  0.1184 -0.0591
  274TMC3     H 4197   1.823   3.331  11.319 -1.7010  0.5948  1.6537
  274TMC3    H1 4198   2.026   3.634  11.536 -1.6738  0.8233  1.0691
  274TMC3    H2 4199   1.931   3.721  11.144  1.9888 -1.3115 -0.7343
  274TMC3    C7 4200   1.980   3.821  11.362  0.2047 -0.6868 -0.0143
  274TMC3    C8 4201   1.799   3.473  11.092  0.6555 -0.1218 -0.2592
  274TMC3    O1 4202   2.010   3.888  11.265 -0.2838 -0.4537  0.2716
  274TMC3    O2 4203   1.717   3.383  11.099  0.7326  0.8662 -0.3012
  275MPD2     C 4204   1.210   2.163  14.614 -0.4789  0.2591  0.3120
  275MPD2    C1 4205   1.225   2.047  14.691 -0.3883 -0.1674  0.1491
  275MPD2    C2 4206   1.115   1.960  14.686 -0.7264  0.4529 -0.6880
  275MPD2    C3 4207   1.000   1.991  14.614  0.5872 -0.1969 -0.3150
  275MPD2    C4 4208   0.993   2.108  14.537 -0.6514 -0.1954 -0.1605
  275MPD2    C5 4209   1.094   2.196  14.542  0.5794  0.7003  0.3057
  275MPD2     H 4210   1.109   1.875  14.753  0.8075  1.1259  0.3068
  275MPD2    H1 4211   0.904   2.128  14.477 -0.2361 -1.3839 -1.1641
  275MPD2    H2 4212   1.281   2.245  14.602  0.5918 -0.6202  0.5680
  275MPD2    H3 4213   1.086   2.296  14.502  2.3351 -0.3057 -2.5494
  275MPD2     N 4214   0.904   1.884  14.605  0.4788  0.4669  0.7484
  275MPD2    H5 4215   0.811   1.917  14.580 -0.3168 -2.8960 -0.7198
  275MPD2    N1 4216   1.328   2.028  14.795 -0.1414  0.0665  0.0149
  275MPD2    H7 4217   1.319   1.946  14.854 -1.8001  0.6127  0.5037
  276TMC3    C1 4218   1.511   2.084  14.933  0.7363 -0.0826 -0.1833
  276TMC3    C2 4219   1.546   1.953  14.957  0.4962  0.1249 -0.1085
  276TMC3    C3 4220   1.635   1.935  15.053 -0.1717 -0.0115 -0.4184
  276TMC3    C4 4221   1.564   2.195  14.996 -0.3045 -0.1677  0.8710
  276TMC3    C5 4222   1.652   2.165  15.098  0.0517 -0.8203  0.0109
  276TMC3    C6 4223   1.699   2.041  15.121  0.0136  0.9493  0.2481
  276TMC3     C 4224   1.430   2.112  14.814 -0.3682 -0.0672 -0.0357
  276TMC3     O 4225   1.452   2.225  14.759  0.3591  0.2758  0.3901
  276TMC3     H 4226   1.502   1.881  14.888 -1.3424  1.6680 -0.5571
  276TMC3    H1 4227   1.518   2.292  14.991 -1.7965 -0.9129  0.0645
  276TMC3    H2 4228   1.776   2.028  15.196 -0.0151 -1.7518 -0.1846
  276TMC3    C7 4229   1.695   2.262  15.203 -0.2181 -0.1817 -0.9787
  276TMC3    C8 4230   1.689   1.805  15.076 -0.1394 -0.8375  0.0810
  276TMC3    O1 4231   1.751   2.220  15.300 -0.2412  0.9820 -0.2561
  276TMC3    O2 4232   1.791   1.814  15.144  0.2112 -0.3383 -0.3623
  277MPD2     C 4233   3.097   1.205  13.017  0.3135 -0.0469  0.0843
  277MPD2    C1 4234   2.964   1.215  13.036 -1.1166 -0.1034  0.0845
  277MPD2    C2 4235   2.898   1.110  13.103 -0.2384 -0.4731  0.4037
  277MPD2    C3 4236   2.974   1.010  13.147 -0.5539  0.1816 -0.1202
  277MPD2    C4 4237   3.106   1.000  13.124  0.1160  0.0028  0.5137
  277MPD2    C5 4238   3.164   1.108  13.067 -0.1316  0.4150 -0.3414
  277MPD2     H 4239   2.794   1.108  13.132 -0.2616 -1.3816  0.2575
  277MPD2    H1 4240   3.170   0.920  13.159  0.4819  0.2674  0.4529
  277MPD2    H2 4241   3.153   1.287  12.973 -0.6819  0.7665  0.3429
  277MPD2    H3 4242   3.269   1.099  13.041 -0.7417  0.8976 -2.9295
  277MPD2     N 4243   2.916   0.924  13.243 -0.2261 -0.1027 -0.5798
  277MPD2    H5 4244   2.817   0.937  13.264 -0.1039  0.6749 -0.5179
  277MPD2    N1 4245   2.889   1.336  13.011  0.0154 -0.0547 -0.3023
  277MPD2    H7 4246   2.946   1.417  12.989 -0.3451 -0.4555 -2.7230
  278TMC3    C1 4247   2.889   0.760  13.406 -0.0840  0.2077 -0.2593
  278TMC3    C2 4248   2.887   0.624  13.394  0.0680  0.5398  0.1901
  278TMC3    C3 4249   2.780   0.561  13.446 -0.3446  0.4444 -0.3388
  278TMC3    C4 4250   2.787   0.835  13.451 -0.1725 -0.2605 -0.3586
  278TMC3    C5 4251   2.675   0.767  13.479 -0.2164 -0.1712  0.2043
  278TMC3    C6 4252   2.665   0.630  13.483 -0.7521 -0.1883  0.2583
  278TMC3     C 4253   2.979   0.811  13.300  0.6008 -0.4216  0.2319
  278TMC3     O 4254   3.083   0.751  13.288  0.4556  0.1368 -0.0565
  278TMC3     H 4255   2.967   0.567  13.348 -0.5089 -0.0514 -0.0812
  278TMC3    H1 4256   2.789   0.941  13.476 -0.0858 -0.4219  0.3087
  278TMC3    H2 4257   2.576   0.577  13.514 -1.8681  0.8307 -1.1589
  278TMC3    C7 4258   2.568   0.849  13.533  0.6002  0.3290  0.2735
  278TMC3    C8 4259   2.771   0.414  13.424  0.0750 -0.4392 -0.6371
  278TMC3    O1 4260   2.609   0.949  13.588 -0.3001  0.1497  0.3536
  278TMC3    O2 4261   2.871   0.348  13.454  0.1835  0.7063 -0.6450
  279MPD2     C 4262   2.113   1.084   0.299 -0.9892  0.3925 -0.3913
  279MPD2    C1 4263   2.213   1.172   0.262 -0.2105  0.4625 -0.5906
  279MPD2    C2 4264   2.307   1.138   0.164  0.1561 -0.1020 -0.2349
  279MPD2    C3 4265   2.286   1.025   0.085 -0.2082  0.1705 -0.5938
  279MPD2    C4 4266   2.174   0.953   0.109 -0.4099 -0.1499  0.1276
  279MPD2    C5 4267   2.084   0.984   0.209 -0.0738 -0.1489  0.3231
  279MPD2     H 4268   2.386   1.209   0.144 -0.4719  0.6489 -0.0444
  279MPD2    H1 4269   2.155   0.868   0.045  3.4075 -1.1754  0.3654
  279MPD2    H2 4270   2.053   1.110   0.385  0.6708  2.0214  0.2806
  279MPD2    H3 4271   1.997   0.922   0.220  0.8306 -1.8271 -1.8195
  279MPD2     N 4272   2.348   0.987  17.706  0.4051  0.0889  0.1724
  279MPD2    H5 4273   2.313   0.900  17.665 -0.4689  0.2048  0.6628
  279MPD2    N1 4274   2.226   1.287   0.346 -0.0434 -0.3058 -0.2158
  279MPD2    H7 4275   2.167   1.290   0.429 -0.5631 -0.7733 -0.5666
  280TMC3    C1 4276   2.329   1.458   0.451 -0.6576 -0.1176 -0.1029
  280TMC3    C2 4277   2.447   1.504   0.506 -0.8989 -0.6912 -0.4242
  280TMC3    C3 4278   2.442   1.621   0.576 -0.0881 -0.2137  0.2617
  280TMC3    C4 4279   2.205   1.522   0.466 -0.2335 -0.0101  0.5929
  280TMC3    C5 4280   2.209   1.625   0.545  0.1400 -0.4915  0.3244
  280TMC3    C6 4281   2.320   1.676   0.607 -0.2440  0.3241 -0.3254
  280TMC3     C 4282   2.335   1.372   0.341  0.2685 -0.4080 -0.0856
  280TMC3     O 4283   2.415   1.387   0.251  0.4282 -0.8520  0.1643
  280TMC3     H 4284   2.542   1.476   0.462 -0.5712  0.0388 -0.1792
  280TMC3    H1 4285   2.121   1.485   0.409  2.7340 -3.5870 -1.4039
  280TMC3    H2 4286   2.326   1.764   0.670  0.4513  0.2362 -0.2724
  280TMC3    C7 4287   2.081   1.693   0.555 -0.4749  0.0215 -0.3812
  280TMC3    C8 4288   2.570   1.672   0.627  0.2825 -0.4788 -0.3156
  280TMC3    O1 4289   2.042   1.724   0.665  0.3026 -0.0723 -0.2736
  280TMC3    O2 4290   2.650   1.585   0.659 -0.4441  0.2797  0.0345
  281TMC3    C1 4291   1.024   1.639  13.717 -0.1280 -0.0004  0.4884
  281TMC3    C2 4292   1.096   1.681  13.606  0.6615  0.1128 -0.0956
  281TMC3    C3 4293   1.174   1.592  13.544  0.4147  0.2977 -0.0783
  281TMC3    C4 4294   1.033   1.507  13.766  0.0059  0.2207 -0.0587
  281TMC3    C5 4295   1.122   1.430  13.698  0.0388 -0.4069 -0.3013
  281TMC3    C6 4296   1.199   1.473  13.593  0.4994 -0.4015  0.4275
  281TMC3     C 4297   0.909   1.710  13.767 -0.2804  0.0282  0.1427
  281TMC3     O 4298   0.880   1.711  13.886 -0.5229 -0.5259 -0.6756
  281TMC3     H 4299   1.079   1.784  13.576 -0.8953 -0.2462 -0.4492
  281TMC3    H1 4300   0.983   1.475  13.857  0.1267  0.7513  0.1950
  281TMC3    H2 4301   1.258   1.408  13.529 -0.2275 -1.0780  0.4445
  281TMC3    C7 4302   1.157   1.307  13.769  0.3268  0.1956  0.0258
  281TMC3    C8 4303   1.204   1.599  13.401  0.0974  0.7000  0.1345
  281TMC3    O1 4304   1.276   1.270  13.765 -0.2055 -0.2851 -0.0880
  281TMC3    O2 4305   1.326   1.581  13.378  0.3072  0.2406  0.4955
  282MPD2     C 4306   2.949   2.586  15.050  0.4656 -0.1349 -0.0575
  282MPD2    C1 4307   2.857   2.684  15.077 -0.5894 -0.1907 -0.3682
  282MPD2    C2 4308   2.786   2.736  14.964  0.2349 -0.0493 -0.4116
  282MPD2    C3 4309   2.801   2.690  14.837  0.6463 -0.0065  0.3071
  282MPD2    C4 4310   2.898   2.592  14.814 -0.4418  0.5871  0.0359
  282MPD2    C5 4311   2.973   2.544  14.920  0.4247  0.3048  0.7837
  282MPD2     H 4312   2.705   2.807  14.976  0.3576  0.1705 -0.8762
  282MPD2    H1 4313   2.919   2.554  14.715 -1.3171 -0.3199  0.2084
  282MPD2    H2 4314   3.006   2.538  15.128  1.1354  0.3640 -0.2481
  282MPD2    H3 4315   3.052   2.471  14.906  0.6301  0.5514  0.6496
  282MPD2     N 4316   2.712   2.749  14.741  0.6891 -0.3777 -0.3917
  282MPD2    H5 4317   2.649   2.826  14.763 -0.8457 -1.3071 -1.5096
  282MPD2    N1 4318   2.847   2.725  15.213 -0.8624  0.0157 -1.0798
  282MPD2    H7 4319   2.895   2.676  15.287 -1.6919 -3.3488 -2.7974
  283TMC3    C1 4320   2.770   2.854  15.394  0.3845 -0.9877 -0.4105
  283TMC3    C2 4321   2.792   2.984  15.435  0.1282 -0.0519  0.0521
  283TMC3    C3 4322   2.781   3.009  15.569  0.4237 -0.1907 -0.4237
  283TMC3    C4 4323   2.730   2.757  15.484 -0.3227 -0.3829 -1.0049
  283TMC3    C5 4324   2.716   2.801  15.614  0.0180  0.1987  0.0951
  283TMC3    C6 4325   2.743   2.923  15.663  0.9773  0.4677 -0.7823
  283TMC3     C 4326   2.790   2.840  15.253  0.4681 -0.0910 -0.9495
  283TMC3     O 4327   2.739   2.919  15.182  0.2999  0.2003  0.5750
  283TMC3     H 4328   2.839   3.046  15.360 -0.2932  0.9069  0.5771
  283TMC3    H1 4329   2.719   2.651  15.463  0.3819 -0.7872  0.6789
  283TMC3    H2 4330   2.733   2.943  15.769  0.2417  1.0782 -0.9710
  283TMC3    C7 4331   2.618   2.731  15.694 -0.2300  0.7660  0.0430
  283TMC3    C8 4332   2.846   3.123  15.622  0.5743 -0.0149  0.3058
  283TMC3    O1 4333   2.654   2.722  15.814  0.3191  0.1377 -0.4080
  283TMC3    O2 4334   2.916   3.108  15.717 -0.0225  0.4350 -0.0812
  284MPD2     C 4335   0.448   1.234  12.163 -0.3680 -0.0077 -0.1645
  284MPD2    C1 4336   0.576   1.251  12.130 -0.2393 -0.3164 -0.0845
  284MPD2    C2 4337   0.685   1.251  12.217 -0.5552  0.1567  0.5582
  284MPD2    C3 4338   0.661   1.206  12.347  0.0320 -0.5891  0.2099
  284MPD2    C4 4339   0.534   1.184  12.384  0.8546  0.4989 -0.5791
  284MPD2    C5 4340   0.428   1.191  12.294 -0.2454  0.1239 -0.3225
  284MPD2     H 4341   0.785   1.280  12.188 -0.7985 -1.4818 -2.0010
  284MPD2    H1 4342   0.508   1.146  12.483  1.8987 -0.5098 -0.6948
  284MPD2    H2 4343   0.361   1.235  12.098  0.7827 -1.4386 -1.7331
  284MPD2    H3 4344   0.330   1.164  12.329 -0.6692  2.9859  0.6965
  284MPD2     N 4345   0.754   1.204  12.452  0.0021  0.0023 -0.7953
  284MPD2    H5 4346   0.718   1.163  12.538  0.4254  2.1300  0.3795
  284MPD2    N1 4347   0.609   1.289  11.998 -0.5114 -0.1259 -0.7498
  284MPD2    H7 4348   0.707   1.311  11.984 -0.0911 -0.2680  1.9783
  285TMC3    C1 4349   0.599   1.383  11.779 -0.6952 -0.0431  1.0401
  285TMC3    C2 4350   0.697   1.294  11.746 -0.0848 -0.2199  0.1687
  285TMC3    C3 4351   0.812   1.341  11.675  0.2746  0.3945 -0.0893
  285TMC3    C4 4352   0.600   1.510  11.744 -0.1449  0.3063 -0.1965
  285TMC3    C5 4353   0.705   1.547  11.666 -0.2200 -0.6937  0.1352
  285TMC3    C6 4354   0.812   1.472  11.630 -0.1710 -0.0109 -0.2521
  285TMC3     C 4355   0.528   1.347  11.901 -0.2213  0.4038  0.2825
  285TMC3     O 4356   0.419   1.402  11.921  0.4016 -0.2600 -0.0842
  285TMC3     H 4357   0.692   1.192  11.783 -1.2313 -0.5981 -1.0269
  285TMC3    H1 4358   0.526   1.577  11.787 -1.6845 -0.8177 -1.0821
  285TMC3    H2 4359   0.889   1.509  11.563 -0.1122  1.7183  0.7725
  285TMC3    C7 4360   0.716   1.685  11.648 -0.3885  0.2054  1.0102
  285TMC3    C8 4361   0.930   1.261  11.672  0.5863  0.1030 -0.0404
  285TMC3    O1 4362   0.826   1.712  11.598  0.1746 -0.3492 -0.6848
  285TMC3    O2 4363   0.918   1.140  11.696  0.2262 -0.2039 -0.8080
  286MPD2     C 4364   0.907   0.566   1.439 -0.1657  0.0906 -0.3233
  286MPD2    C1 4365   0.903   0.586   1.301 -0.2195  0.4097  0.7284
  286MPD2    C2 4366   0.966   0.496   1.222  0.4048  0.1234  0.0654
  286MPD2    C3 4367   1.028   0.383   1.283  0.1011 -0.1257  0.5715
  286MPD2    C4 4368   1.030   0.367   1.424 -0.0925  0.5332  0.9379
  286MPD2    C5 4369   0.973   0.465   1.495  0.2749 -0.3529  0.4593
  286MPD2     H 4370   0.964   0.511   1.115 -0.4656 -0.4027  0.0044
  286MPD2    H1 4371   1.077   0.284   1.475 -0.9496 -1.0031 -0.7846
  286MPD2    H2 4372   0.875   0.642   1.508 -0.0412  1.0554 -1.3306
  286MPD2    H3 4373   0.987   0.477   1.601 -0.3096  1.9473  0.2696
  286MPD2     N 4374   1.088   0.280   1.206  0.0699  0.1491  1.0779
  286MPD2    H5 4375   1.133   0.208   1.262  1.2376  0.9891  1.2137
  286MPD2    N1 4376   0.834   0.700   1.243 -0.8529  0.0748 -0.8388
  286MPD2    H7 4377   0.839   0.715   1.142  1.1644  0.8959 -0.6123
  287TMC3    C1 4378   1.168   0.160   1.020 -0.0585 -0.0370 -0.3562
  287TMC3    C2 4379   1.176   0.131   0.883 -0.6241  0.7202 -0.6074
  287TMC3    C3 4380   1.246   0.029   0.834  0.7146  0.3480  0.4732
  287TMC3    C4 4381   1.234   0.083   1.116 -0.3359  0.3368 -0.1252
  287TMC3    C5 4382   1.314   4.714   1.068  0.3859 -0.5893 -0.7214
  287TMC3    C6 4383   1.328   4.699   0.928  0.2276  1.4441 -0.1488
  287TMC3     C 4384   1.072   0.254   1.070  0.8755 -0.4040  0.8587
  287TMC3     O 4385   1.006   0.310   0.984  0.3017 -0.5052  0.2776
  287TMC3     H 4386   1.103   0.178   0.818  0.2954 -0.0514 -2.1988
  287TMC3    H1 4387   1.224   0.095   1.224 -0.8673 -0.9990 -0.0264
  287TMC3    H2 4388   1.390   4.613   0.902 -1.3297  0.1566  0.3782
  287TMC3    C7 4389   1.421   4.691   1.157  0.2397 -0.8585  0.5901
  287TMC3    C8 4390   1.220   4.720   0.704  0.8663 -0.5974 -0.1357
  287TMC3    O1 4391   1.456   0.045   1.235  0.1231 -0.2631  0.0723
  287TMC3    O2 4392   1.197   4.601   0.698  0.0493 -0.1335 -0.3316
  288TMC3    C1 4393   3.015   0.635  14.506  0.2613 -0.1959 -0.2077
  288TMC3    C2 4394   2.919   0.605  14.597 -0.1303  0.1318  0.0303
  288TMC3    C3 4395   2.808   0.689  14.601  0.1505 -0.5091 -0.5968
  288TMC3    C4 4396   3.000   0.753  14.429  0.4988  0.1584  0.2623
  288TMC3    C5 4397   2.895   0.838  14.447  0.3417  0.2171  0.5994
  288TMC3    C6 4398   2.797   0.805  14.537 -0.1781  0.3080  0.0065
  288TMC3     C 4399   3.125   0.541  14.484 -0.3472 -0.6681  0.5306
  288TMC3     O 4400   3.151   0.470  14.583  0.6339  0.4195 -0.1750
  288TMC3     H 4401   2.915   0.522  14.667  1.0630 -0.2484 -0.3589
  288TMC3    H1 4402   3.084   0.784  14.368 -0.1660 -0.7770 -1.1482
  288TMC3    H2 4403   2.713   0.871  14.555 -0.3287 -0.8724  3.7353
  288TMC3    C7 4404   2.896   0.971  14.382 -0.0739 -0.0847  0.0759
  288TMC3    C8 4405   2.719   0.686  14.718  0.2992 -0.4675 -0.1552
  288TMC3    O1 4406   2.829   1.059  14.435  0.0133 -0.2327 -0.4627
  288TMC3    O2 4407   2.695   0.790  14.778  0.3596 -0.6932 -0.5848
  289MPD2     C 4408   3.243   4.255  14.198 -0.3522  0.5211  0.3593
  289MPD2    C1 4409   3.211   4.365  14.271  0.3867  0.2048  0.5008
  289MPD2    C2 4410   3.077   4.384  14.295  0.0991 -0.1706 -0.0066
  289MPD2    C3 4411   2.976   4.321  14.225  0.3152  0.1497 -0.5453
  289MPD2    C4 4412   3.009   4.213  14.144 -1.0478 -0.0753  0.0732
  289MPD2    C5 4413   3.143   4.175  14.144  0.8913  0.6575 -0.0186
  289MPD2     H 4414   3.048   4.460  14.366 -0.4588 -1.1077  0.7751
  289MPD2    H1 4415   2.931   4.154  14.098 -0.6354  0.1262 -0.8991
  289MPD2    H2 4416   3.350   4.240  14.185 -0.9728 -1.0371 -2.9104
  289MPD2    H3 4417   3.170   4.082  14.095  0.5975 -0.2248  1.5081
  289MPD2     N 4418   2.838   4.363  14.215 -0.9588  0.6886 -0.2162
  289MPD2    H5 4419   2.777   4.305  14.157 -1.3704 -0.8533  1.7136
  289MPD2    N1 4420   3.317   4.441  14.337 -0.0563 -0.8797 -0.0567
  289MPD2    H7 4421   3.414   4.436  14.309 -0.2156  0.0230 -0.7864
  290TMC3    C1 4422   2.657   4.502  14.236  0.2145 -0.6777 -0.0050
  290TMC3    C2 4423   2.626   4.629  14.209  0.6549 -0.6446  0.5197
  290TMC3    C3 4424   2.529   4.663  14.125 -0.2947  0.3587 -0.2189
  290TMC3    C4 4425   2.585   4.395  14.190  0.2014  0.3280  0.1831
  290TMC3    C5 4426   2.488   4.425  14.099  1.0321 -0.1401  0.0374
  290TMC3    C6 4427   2.453   4.560  14.068  0.3474  0.0607  0.4445
  290TMC3     C 4428   2.796   4.483  14.271 -0.6142 -0.4462 -0.2447
  290TMC3     O 4429   2.857   4.573  14.326 -0.2318 -0.3997  0.3881
  290TMC3     H 4430   2.689   4.706  14.251  0.8605 -0.3886 -0.2626
  290TMC3    H1 4431   2.590   4.302  14.245 -0.4806  0.2791  0.1585
  290TMC3    H2 4432   2.376   4.580  13.994  0.7509  0.5557  0.1610
  290TMC3    C7 4433   2.364   4.344  14.098 -0.4357 -0.0806 -0.6511
  290TMC3    C8 4434   2.476   0.059  14.112 -0.7080 -0.2850 -0.2971
  290TMC3    O1 4435   2.255   4.394  14.081 -0.0109  0.3894 -0.3395
  290TMC3    O2 4436   2.416   0.081  14.009  0.1105 -0.2329 -0.6501
  291MPD2     C 4437   2.311   4.281  17.471 -0.3587 -0.3213  0.0166
  291MPD2    C1 4438   2.351   4.149  17.484  0.3363 -0.7863  0.5363
  291MPD2    C2 4439   2.426   4.097  17.379  0.4474  0.3069  0.1013
  291MPD2    C3 4440   2.460   4.178  17.270 -0.0455 -0.3367  0.4190
  291MPD2    C4 4441   2.425   4.309  17.263  0.3219 -0.1886  0.0372
  291MPD2    C5 4442   2.350   4.356  17.363  0.3339  0.4341 -0.7618
  291MPD2     H 4443   2.452   3.992  17.390  0.6147  0.5206  1.7070
  291MPD2    H1 4444   2.446   4.369  17.175 -0.3446  1.8194  1.2339
  291MPD2    H2 4445   2.239   4.323  17.540 -0.2119  0.6977 -0.4499
  291MPD2    H3 4446   2.318   4.459  17.369 -2.5713 -0.5682  0.4307
  291MPD2     N 4447   2.545   4.134  17.167  0.8367 -0.3730 -0.4039
  291MPD2    H5 4448   2.584   4.208  17.110  1.3966 -0.4798 -0.1544
  291MPD2    N1 4449   2.314   4.068  17.595 -0.1045 -0.5054  0.0009
  291MPD2    H7 4450   2.346   3.972  17.597 -1.9801 -1.1001  1.0989
  292TMC3    C1 4451   2.188   4.009   0.053  0.0581  1.1201 -0.1794
  292TMC3    C2 4452   2.142   4.066   0.166 -0.4297  0.4205 -0.5568
  292TMC3    C3 4453   2.080   3.981   0.259 -0.1085  0.4459  0.3535
  292TMC3    C4 4454   2.166   3.875   0.019  0.0188  0.0191 -0.5757
  292TMC3    C5 4455   2.112   3.792   0.118  0.8429 -0.5031 -0.4160
  292TMC3    C6 4456   2.066   3.842   0.236  0.0905 -0.9550 -0.6453
  292TMC3     C 4457   2.248   4.108  17.709 -0.0130 -0.4026  0.3936
  292TMC3     O 4458   2.226   4.221  17.740 -0.0943  0.0039  0.4199
  292TMC3     H 4459   2.157   4.172   0.185 -2.9025  0.6290  0.1609
  292TMC3    H1 4460   2.194   3.831  17.667 -0.3796 -1.1511 -0.1409
  292TMC3    H2 4461   2.050   3.774   0.319 -0.1938  0.3515  0.3781
  292TMC3    C7 4462   2.124   3.652   0.099  0.2648 -0.3256 -0.1432
  292TMC3    C8 4463   2.045   4.036   0.395 -0.4434  0.5872  0.0032
  292TMC3    O1 4464   2.219   3.612   0.036 -0.7105 -0.2284 -0.1465
  292TMC3    O2 4465   2.114   4.127   0.434 -0.0234  0.1220 -0.2394
  293MPD2     C 4466   3.800   0.809  12.650  0.7872 -0.1379  0.2594
  293MPD2    C1 4467   3.717   0.788  12.755  0.1558 -0.2347 -0.4456
  293MPD2    C2 4468   3.764   0.818  12.881  0.4421 -0.4669 -0.8675
  293MPD2    C3 4469   3.890   0.872  12.908  0.4277 -0.3860  0.2132
  293MPD2    C4 4470   3.968   0.887  12.795  0.0799 -0.0158 -0.9365
  293MPD2    C5 4471   3.927   0.849  12.675 -0.1378  0.5833 -0.7163
  293MPD2     H 4472   3.693   0.803  12.961  0.5780  0.2034 -0.6225
  293MPD2    H1 4473   4.069   0.926  12.791  0.1712 -0.3886 -2.3599
  293MPD2    H2 4474   3.776   0.783  12.548  1.3061  3.8336 -0.8753
  293MPD2    H3 4475   3.992   0.864  12.590 -0.9890 -1.5366 -1.7153
  293MPD2     N 4476   3.941   0.884  13.041 -0.0219  0.0566  0.1109
  293MPD2    H5 4477   3.879   0.874  13.120  1.1018 -3.2319  0.5460
  293MPD2    N1 4478   3.595   0.744  12.717 -0.7491 -0.3706  0.0553
  293MPD2    H7 4479   3.581   0.746  12.616 -2.2172  0.2588  0.2721
  294TMC3    C1 4480   3.381   0.647  12.728 -0.1996 -0.2616  0.2520
  294TMC3    C2 4481   3.304   0.541  12.771 -0.2409  0.4999  0.1059
  294TMC3    C3 4482   3.208   0.497  12.691  0.3408 -0.0916 -0.5620
  294TMC3    C4 4483   3.360   0.717  12.608  0.4401  0.2252 -0.4376
  294TMC3    C5 4484   3.251   0.677  12.537 -0.2118  0.5796 -0.3883
  294TMC3    C6 4485   3.179   0.565  12.574 -0.0218 -0.4943  0.6446
  294TMC3     C 4486   3.500   0.682  12.802 -0.0801 -0.0229 -0.6658
  294TMC3     O 4487   3.522   0.646  12.914 -0.0556  0.0104 -0.1568
  294TMC3     H 4488   3.329   0.489  12.863 -1.8173 -1.3302 -0.5072
  294TMC3    H1 4489   3.413   0.811  12.596  0.3980  0.1892 -0.9088
  294TMC3    H2 4490   3.109   0.522  12.503 -0.6755  1.8078 -0.1329
  294TMC3    C7 4491   3.194   0.765  12.437  0.4715 -0.1039 -0.1240
  294TMC3    C8 4492   3.140   0.374  12.733  0.4641  0.3296  0.4281
  294TMC3    O1 4493   3.094   0.735  12.381  0.0068  0.3378 -0.5995
  294TMC3    O2 4494   3.115   0.356  12.855 -0.2543  0.9574 -0.0892
  295MPD2     C 4495   4.471   3.800   0.433  0.0882  0.0809 -0.3458
  295MPD2    C1 4496   4.357   3.869   0.392  0.0491 -0.3667 -0.2304
  295MPD2    C2 4497   4.238   3.835   0.442  0.0202 -0.0430  0.0428
  295MPD2    C3 4498   4.225   3.732   0.527  0.1961  0.1947  0.0337
  295MPD2    C4 4499   4.331   3.669   0.581 -0.1441 -0.6109 -0.1395
  295MPD2    C5 4500   4.457   3.703   0.535  0.3730 -0.0815  0.7642
  295MPD2     H 4501   4.156   3.895   0.404 -0.0275  1.1290  1.9887
  295MPD2    H1 4502   4.327   3.594   0.659  0.1342  0.1287  0.5912
  295MPD2    H2 4503   4.564   3.807   0.378 -0.1445  0.0926 -0.7358
  295MPD2    H3 4504   4.540   3.656   0.587  0.1877 -0.8489  0.3665
  295MPD2     N 4505   4.104   3.692   0.586  0.5326 -0.3941  0.6013
  295MPD2    H5 4506   4.113   3.610   0.645 -1.7165  0.9937  2.8738
  295MPD2    N1 4507   4.365   3.964   0.294  0.4033  0.3210  0.3092
  295MPD2    H7 4508   4.275   4.004   0.273 -0.3102 -2.2157 -1.3934
  296TMC3    C1 4509   3.885   3.694   0.639 -0.6309 -0.3501 -0.1534
  296TMC3    C2 4510   3.786   3.768   0.694 -0.0722 -0.3289 -0.7484
  296TMC3    C3 4511   3.702   3.705   0.784  0.3779  0.6643  0.8297
  296TMC3    C4 4512   3.897   3.560   0.659 -0.1464 -0.4715 -0.1979
  296TMC3    C5 4513   3.801   3.501   0.737 -0.5881 -0.1036  0.0049
  296TMC3    C6 4514   3.700   3.571   0.801 -0.0029  0.2995 -0.0101
  296TMC3     C 4515   3.989   3.762   0.574 -0.2372  0.5771 -0.1594
  296TMC3     O 4516   3.969   3.879   0.544 -0.5439  0.4527 -0.0146
  296TMC3     H 4517   3.773   3.872   0.666 -2.4024 -0.2842  0.5901
  296TMC3    H1 4518   3.962   3.497   0.601 -0.2085  2.3221 -3.3284
  296TMC3    H2 4519   3.629   3.532   0.873 -0.5662 -0.0523 -0.7578
  296TMC3    C7 4520   3.821   3.362   0.770 -0.8531  0.2620  0.3488
  296TMC3    C8 4521   3.589   3.772   0.840  0.1680 -0.2619 -0.0862
  296TMC3    O1 4522   3.921   3.314   0.722  0.0258  0.2714 -0.2482
  296TMC3    O2 4523   3.499   3.704   0.881 -0.2423 -0.2801  0.6016
  297MPD2     C 4524   2.063   1.194  16.657  0.4164 -0.1563  0.4829
  297MPD2    C1 4525   2.041   1.265  16.541  0.3137  1.0230  0.3305
  297MPD2    C2 4526   2.126   1.356  16.489 -0.3025 -0.1763  0.1980
  297MPD2    C3 4527   2.238   1.391  16.558  0.1206 -0.2279 -0.1650
  297MPD2    C4 4528   2.263   1.327  16.680  0.5633 -0.4646 -0.5607
  297MPD2    C5 4529   2.177   1.225  16.729 -1.1691 -0.3899  0.0732
  297MPD2     H 4530   2.109   1.415  16.400  0.3046  1.1627  0.9709
  297MPD2    H1 4531   2.348   1.355  16.741 -1.9154 -0.5018  2.8678
  297MPD2    H2 4532   1.999   1.114  16.692 -0.8416  0.4924 -0.3232
  297MPD2    H3 4533   2.190   1.183  16.827 -0.5425 -0.3868 -0.0073
  297MPD2     N 4534   2.311   1.496  16.506 -0.7092 -0.0073  0.0808
  297MPD2    H5 4535   2.279   1.535  16.418  1.7380  0.7361 -0.4837
  297MPD2    N1 4536   1.928   1.238  16.455 -0.0820 -0.6432 -0.3277
  297MPD2    H7 4537   1.914   1.295  16.372 -0.2098  1.2687  1.0225
  298TMC3    C1 4538   1.721   1.163  16.382  0.1277 -0.3524  0.6861
  298TMC3    C2 4539   1.728   1.101  16.258  0.8162  0.3473 -0.1678
  298TMC3    C3 4540   1.659   1.147  16.152 -0.1595  0.0642  0.2353
  298TMC3    C4 4541   1.648   1.275  16.399  0.4511 -0.5057  0.6665
  298TMC3    C5 4542   1.573   1.316  16.292 -0.9233  0.6915  0.0579
  298TMC3    C6 4543   1.582   1.258  16.167 -0.7627  0.2633  0.0456
  298TMC3     C 4544   1.827   1.143  16.475  0.0553 -0.0433  0.5423
  298TMC3     O 4545   1.823   1.050  16.554  0.3523  0.5455 -0.4860
  298TMC3     H 4546   1.781   1.007  16.253 -2.2969 -1.4547  0.2368
  298TMC3    H1 4547   1.651   1.334  16.490  1.4147 -1.1413  1.0475
  298TMC3    H2 4548   1.528   1.302  16.083  0.8661  1.7733 -0.2099
  298TMC3    C7 4549   1.520   1.446  16.308  0.3181  0.0463  0.1202
  298TMC3    C8 4550   1.742   1.135  16.034  0.3067  0.2466 -0.2715
  298TMC3    O1 4551   1.579   1.526  16.377 -0.3652  0.1108  0.4476
  298TMC3    O2 4552   1.856   1.100  16.055 -0.0810  0.3208  0.1494
  299MPD2     C 4553   2.472   1.358  10.394  0.0844  0.1383 -0.1118
  299MPD2    C1 4554   2.446   1.292  10.511  0.5020  0.8305  0.0244
  299MPD2    C2 4555   2.371   1.179  10.501  0.4140 -0.3593  0.0126
  299MPD2    C3 4556   2.323   1.130  10.384  0.4502 -0.2065 -0.0876
  299MPD2    C4 4557   2.343   1.206  10.266 -0.5008 -0.7101  0.0218
  299MPD2    C5 4558   2.419   1.319  10.279  0.0956 -0.5694  1.0272
  299MPD2     H 4559   2.339   1.124  10.589  0.9190 -0.1062  0.3549
  299MPD2    H1 4560   2.295   1.165  10.177 -0.3077 -0.9871  0.0458
  299MPD2    H2 4561   2.521   1.454  10.385  0.2156  0.1752  0.9853
  299MPD2    H3 4562   2.433   1.391  10.199  2.0191 -1.5540  0.4907
  299MPD2     N 4563   2.241   1.016  10.366  0.1102  0.5881 -0.6594
  299MPD2    H5 4564   2.197   1.016  10.275 -0.3241  0.1379 -0.4533
  299MPD2    N1 4565   2.501   1.346  10.630 -0.6157  0.8927 -0.3437
  299MPD2    H7 4566   2.559   1.430  10.626  1.9860 -0.9297 -0.9489
  300TMC3    C1 4567   2.116   0.823  10.443  0.1496 -0.1633 -0.8078
  300TMC3    C2 4568   2.003   0.877  10.387  0.8371 -0.2987  0.0192
  300TMC3    C3 4569   1.891   0.836  10.449 -0.1145 -0.0859  0.5666
  300TMC3    C4 4570   2.112   0.728  10.543 -0.5283  0.1916  0.0137
  300TMC3    C5 4571   1.995   0.703  10.603 -0.2989  0.0480 -0.1339
  300TMC3    C6 4572   1.880   0.755  10.563 -0.6642  0.5646 -0.1030
  300TMC3     C 4573   2.238   0.915  10.456 -0.1432  0.6706  0.3228
  300TMC3     O 4574   2.292   0.904  10.567 -0.0735 -0.3722  0.1494
  300TMC3     H 4575   2.000   0.947  10.304  2.7170  0.6005  0.7211
  300TMC3    H1 4576   2.204   0.692  10.588 -0.5567 -0.3547 -0.3720
  300TMC3    H2 4577   1.791   0.728  10.617  2.1030 -3.2600  2.5336
  300TMC3    C7 4578   1.992   0.590  10.698  0.0911 -0.1414  0.0818
  300TMC3    C8 4579   1.793   0.941  10.447 -0.0743  0.0066  0.2298
  300TMC3    O1 4580   2.086   0.513  10.700  0.0604  0.3773 -0.1448
  300TMC3    O2 4581   1.678   0.911  10.421  0.0989 -0.0094  0.2364
  301MPD2     C 4582   3.897   3.780   0.175  0.1732 -0.6468  0.5050
  301MPD2    C1 4583   3.870   3.670   0.247  0.1815  0.1771  0.2114
  301MPD2    C2 4584   3.976   3.584   0.271 -0.6861  0.4043  0.1400
  301MPD2    C3 4585   4.105   3.605   0.222  0.0561 -0.2247  0.1387
  301MPD2    C4 4586   4.128   3.721   0.154 -0.2756  0.4892  0.8148
  301MPD2    C5 4587   4.022   3.808   0.137 -1.0227  0.0123  0.0478
  301MPD2     H 4588   3.940   3.491   0.314 -1.0818  0.2931 -0.4331
  301MPD2    H1 4589   4.216   3.734   0.092 -0.3142 -0.5935  0.5406
  301MPD2    H2 4590   3.826   3.859   0.152  0.6509 -0.5436 -0.5987
  301MPD2    H3 4591   4.038   3.891   0.069 -0.0185 -0.5741 -0.4256
  301MPD2     N 4592   4.215   3.519   0.250  0.2592  0.0209  0.1689
  301MPD2    H5 4593   4.305   3.555   0.223  1.6395 -1.2111  3.0889
  301MPD2    N1 4594   3.734   3.645   0.298 -0.1624 -0.8385  0.4410
  301MPD2    H7 4595   3.729   3.558   0.350  1.1271 -0.3607  1.3673
  302TMC3    C1 4596   4.325   3.358   0.394  0.1292  0.0703 -0.1040
  302TMC3    C2 4597   4.446   3.413   0.370 -0.1098 -0.2175  0.2453
  302TMC3    C3 4598   4.552   3.367   0.438 -0.0719  0.4644 -0.0573
  302TMC3    C4 4599   4.308   3.252   0.479 -0.1190  0.2386 -1.1715
  302TMC3    C5 4600   4.419   3.219   0.555 -0.4219 -0.2583 -0.0516
  302TMC3    C6 4601   4.540   3.271   0.534 -0.1879  0.3277  0.0626
  302TMC3     C 4602   4.201   3.407   0.335  0.5131 -0.6053  0.2621
  302TMC3     O 4603   4.099   3.356   0.375  0.1037  0.1111 -0.8088
  302TMC3     H 4604   4.458   3.491   0.296 -1.8273  0.6204  0.8427
  302TMC3    H1 4605   4.213   3.201   0.489 -1.2090  2.3970 -0.7044
  302TMC3    H2 4606   4.626   3.220   0.575  0.9011  1.2421 -1.0868
  302TMC3    C7 4607   4.406   3.120   0.657 -0.7218  0.3816  0.2529
  302TMC3    C8 4608   4.678   3.423   0.401  0.1066 -0.0952 -0.7390
  302TMC3    O1 4609   4.493   3.114   0.740 -0.3124 -0.3136 -0.4692
  302TMC3    O2 4610   4.685   3.477   0.292 -0.7115 -0.5722  0.1932
  303MPD2     C 4611   0.039   0.053  11.107 -0.2073 -0.3104  0.1541
  303MPD2    C1 4612   4.731   0.084  10.984 -0.2713 -0.1637  0.3761
  303MPD2    C2 4613   0.042   0.200  10.920 -0.2147  0.4323  0.1540
  303MPD2    C3 4614   0.138   0.278  10.974  0.3355 -0.0886 -0.2807
  303MPD2    C4 4615   0.175   0.246  11.102  0.1001 -0.8205 -0.3155
  303MPD2    C5 4616   0.131   0.137  11.168 -0.1167 -0.0249  0.0388
  303MPD2     H 4617   4.736   0.235  10.827  1.8978  0.3407 -0.8232
  303MPD2    H1 4618   0.241   0.311  11.158 -0.3959 -0.8035  0.2471
  303MPD2    H2 4619   0.010   4.702  11.164  3.1376  0.7931  3.5466
  303MPD2    H3 4620   0.167   0.115  11.268 -1.1408 -0.4846  0.3026
  303MPD2     N 4621   0.178   0.405  10.918  0.0766 -0.3271 -0.0793
  303MPD2    H5 4622   0.253   0.453  10.967 -2.2997  1.4527  1.8813
  303MPD2    N1 4623   4.632   0.001  10.929 -0.0469  0.1908  0.1877
  303MPD2    H7 4624   4.584   4.668  10.986  1.6743 -1.1383  0.0073
  304TMC3    C1 4625   4.452   4.686  10.800 -0.2950 -0.4906 -0.6479
  304TMC3    C2 4626   4.362   4.686  10.904 -0.0408  0.3818 -0.1968
  304TMC3    C3 4627   4.231   4.643  10.874 -0.0304 -0.1912  0.5299
  304TMC3    C4 4628   4.409   4.641  10.671 -0.1088 -0.5743  0.3223
  304TMC3    C5 4629   4.275   4.596  10.653  0.2042 -0.8593  0.2677
  304TMC3    C6 4630   4.194   4.584  10.757 -0.1755 -0.0374 -1.1637
  304TMC3     C 4631   4.577   0.020  10.811 -0.3992  0.5672  0.2532
  304TMC3     O 4632   4.621   0.079  10.715  0.2619  0.0118  0.7277
  304TMC3     H 4633   4.387   4.720  11.004  1.1898  1.0316 -0.7234
  304TMC3    H1 4634   4.475   4.655  10.587 -0.3682  1.2396  0.4176
  304TMC3    H2 4635   4.094   4.545  10.740 -0.4286 -0.0271  0.3474
  304TMC3    C7 4636   4.203   4.651  10.537 -0.1772 -0.0467  0.2050
  304TMC3    C8 4637   4.125   4.732  10.916 -1.0463  0.6834 -0.1808
  304TMC3    O1 4638   4.263   4.649  10.428 -0.1576  0.4923  0.2006
  304TMC3    O2 4639   4.021   0.013  10.852  0.1227  0.4746 -0.0489
  305MPD2     C 4640   3.228   3.191  13.991 -0.4986  0.2321  0.0082
  305MPD2    C1 4641   3.133   3.090  14.001 -0.1105 -0.1320 -0.6348
  305MPD2    C2 4642   3.123   3.003  13.893 -0.2941 -0.1644  0.1919
  305MPD2    C3 4643   3.194   3.010  13.777  0.1637  0.0424 -0.1764
  305MPD2    C4 4644   3.292   3.103  13.768  0.2195  0.1926 -0.1913
  305MPD2    C5 4645   3.301   3.198  13.870 -0.4216 -0.1731  0.2653
  305MPD2     H 4646   3.050   2.923  13.892 -2.3289  1.6996  0.5985
  305MPD2    H1 4647   3.354   3.124  13.682  1.6086 -0.0503  0.7536
  305MPD2    H2 4648   3.244   3.265  14.068 -1.2470 -0.8133  1.1569
  305MPD2    H3 4649   3.369   3.282  13.860  3.7717 -3.6046  0.3122
  305MPD2     N 4650   3.187   2.921  13.670 -0.3954  0.3007 -0.0744
  305MPD2    H5 4651   3.253   2.923  13.594 -1.0721 -1.6458 -0.7194
  305MPD2    N1 4652   3.098   3.072  14.139  1.0478  0.2814 -0.4608
  305MPD2    H7 4653   3.148   3.135  14.201  3.2510 -1.1463 -0.7793
  306TMC3    C1 4654   3.056   2.919  14.317 -0.3849 -0.6636 -0.3730
  306TMC3    C2 4655   3.078   2.784  14.333  0.1419  0.6029 -0.0640
  306TMC3    C3 4656   3.113   2.751  14.461 -0.7028 -0.3984 -0.0101
  306TMC3    C4 4657   3.050   3.015  14.414  1.0145 -0.3449  0.0730
  306TMC3    C5 4658   3.083   2.968  14.537  0.0346 -0.0171  0.1050
  306TMC3    C6 4659   3.121   2.840  14.562 -0.0591 -0.6138  0.3386
  306TMC3     C 4660   3.026   2.959  14.180  0.6922 -0.0607  0.1419
  306TMC3     O 4661   2.966   2.867  14.122 -0.1077  0.7677  0.0616
  306TMC3     H 4662   3.094   2.712  14.253 -1.4143 -0.1267  0.3001
  306TMC3    H1 4663   3.017   3.116  14.394  1.6271  0.1475  1.5258
  306TMC3    H2 4664   3.132   2.811  14.665 -0.3575 -0.1053  0.5164
  306TMC3    C7 4665   2.997   3.034  14.640 -0.3975  0.0940 -0.3509
  306TMC3    C8 4666   3.193   2.629  14.471  0.2284 -0.8127  0.5877
  306TMC3    O1 4667   2.881   3.048  14.612 -0.7212  0.0016  0.0431
  306TMC3    O2 4668   3.170   2.545  14.385  0.2182  0.1573  0.1705
  307MPD2     C 4669   1.028   1.324   1.020 -0.4111  0.2916  0.2695
  307MPD2    C1 4670   0.950   1.436   1.016 -0.1133 -0.3948  0.4200
  307MPD2    C2 4671   0.868   1.457   1.118 -0.3037 -0.0489 -0.3609
  307MPD2    C3 4672   0.850   1.369   1.224 -0.0842 -0.0844  0.4942
  307MPD2    C4 4673   0.922   1.254   1.230 -0.1549 -0.4305 -0.0263
  307MPD2    C5 4674   1.015   1.239   1.122  1.0096  0.3200  0.0579
  307MPD2     H 4675   0.799   1.541   1.113 -1.4612 -0.8975  1.1319
  307MPD2    H1 4676   0.907   1.178   1.306 -1.0245  0.4489  0.6906
  307MPD2    H2 4677   1.098   1.308   0.939  0.1412 -3.3403  1.4457
  307MPD2    H3 4678   1.076   1.150   1.116 -1.1446 -1.1623  0.1606
  307MPD2     N 4679   0.754   1.395   1.321 -0.1019  0.7318  0.5165
  307MPD2    H5 4680   0.708   1.485   1.307 -0.5413  0.4663  0.2613
  307MPD2    N1 4681   0.966   1.538   0.915 -0.5570 -0.0150 -0.2567
  307MPD2    H7 4682   0.918   1.626   0.931 -2.0417 -0.9789  0.6858
  308TMC3    C1 4683   0.384   1.305   1.315 -0.6812  0.1652 -0.8428
  308TMC3    C2 4684   0.347   1.433   1.325  1.0730 -0.3394 -0.7475
  308TMC3    C3 4685   0.420   1.516   1.400  0.1093  0.1769 -0.2101
  308TMC3    C4 4686   0.489   1.255   1.395 -0.2965 -0.4094  0.2524
  308TMC3    C5 4687   0.572   1.344   1.460 -0.9860 -0.2957  0.0279
  308TMC3    C6 4688   0.535   1.475   1.465  0.0906  0.1847 -0.2246
  308TMC3     C 4689   0.383   1.260   1.176 -0.0679  0.1838 -0.0262
  308TMC3     O 4690   0.492   1.227   1.128 -0.7116  0.0794  0.2394
  308TMC3     H 4691   0.260   1.465   1.268 -1.0924 -2.4168  1.3976
  308TMC3    H1 4692   0.517   1.151   1.380  0.1134 -0.1003 -1.1387
  308TMC3    H2 4693   0.597   1.547   1.516  0.3850  0.6163 -1.1789
  308TMC3    C7 4694   0.707   1.313   1.421  0.3398  0.2232 -0.2768
  308TMC3    C8 4695   0.393   1.657   1.392 -0.2724 -0.2781  0.1235
  308TMC3    O1 4696   0.743   1.200   1.449 -0.2242 -0.1017 -0.3655
  308TMC3    O2 4697   0.428   1.720   1.487  0.0286 -0.0492  0.1320
  309MPD2     C 4698   4.650   1.107  17.297  0.6103 -0.4091 -0.0912
  309MPD2    C1 4699   4.571   1.148  17.192  0.0609  0.1648  0.2356
  309MPD2    C2 4700   4.448   1.197  17.218  0.1927  0.0985 -0.4745
  309MPD2    C3 4701   4.401   1.215  17.344 -0.6747  0.2309 -0.0058
  309MPD2    C4 4702   4.486   1.185  17.445  0.6892  0.2295 -0.0205
  309MPD2    C5 4703   4.607   1.128  17.425 -0.7396 -0.0325 -0.2271
  309MPD2     H 4704   4.399   1.242  17.132 -0.4710 -4.5652 -2.5190
  309MPD2    H1 4705   4.461   1.212  17.547 -0.9788 -0.9408 -0.1292
  309MPD2    H2 4706   0.018   1.078  17.284 -0.8790 -5.3407 -1.1020
  309MPD2    H3 4707   4.662   1.108  17.516  0.2915  0.1919 -0.7960
  309MPD2     N 4708   4.272   1.275  17.380  0.1026 -0.3235  0.4383
  309MPD2    H5 4709   4.269   1.298  17.478  1.2262  1.4529  0.0661
  309MPD2    N1 4710   4.607   1.144  17.056  0.4479 -0.0021 -0.1076
  309MPD2    H7 4711   4.529   1.161  16.994  0.6683 -4.5379 -1.5954
  310TMC3    C1 4712   4.736   1.105  16.870 -0.5659 -0.5895  0.4498
  310TMC3    C2 4713   4.673   1.208  16.802  0.0810  0.1559  0.1206
  310TMC3    C3 4714   4.732   1.252  16.682  0.6311  0.2014 -1.2636
  310TMC3    C4 4715   0.119   1.052  16.828 -0.0457 -0.6915 -0.7869
  310TMC3    C5 4716   0.170   1.096  16.707  0.2691  0.9300  0.3945
  310TMC3    C6 4717   0.117   1.197  16.633 -0.0198 -0.6000  0.8229
  310TMC3     C 4718   4.727   1.097  17.013 -0.1859 -1.3728  0.3479
  310TMC3     O 4719   0.094   1.061  17.074  0.1447  0.5445 -0.0579
  310TMC3     H 4720   4.576   1.244  16.836  0.4189  1.3620 -0.2061
  310TMC3    H1 4721   0.156   0.966  16.882 -0.1113  1.4359  2.6867
  310TMC3    H2 4722   0.147   1.211  16.530  0.4786 -0.3714  1.0041
  310TMC3    C7 4723   0.304   1.051  16.680  0.1751 -0.1248 -0.3253
  310TMC3    C8 4724   4.659   1.341  16.591 -0.1208 -0.3622 -0.2360
  310TMC3    O1 4725   0.344   0.951  16.740 -0.6311 -0.1774 -0.2886
  310TMC3    O2 4726   4.537   1.338  16.594 -0.4518 -0.2469 -0.1097
  311MPD2     C 4727   2.058   2.250  13.411  0.3921 -0.3321 -0.1967
  311MPD2    C1 4728   1.988   2.340  13.333  0.1350 -0.4756  0.2696
  311MPD2    C2 4729   1.854   2.339  13.320 -0.4145  0.6201 -0.5843
  311MPD2    C3 4730   1.779   2.252  13.394  0.4704 -0.6925  0.0190
  311MPD2    C4 4731   1.851   2.167  13.475  0.0150 -0.2672  0.2717
  311MPD2    C5 4732   1.986   2.155  13.476 -0.2008  0.0434 -0.4150
  311MPD2     H 4733   1.813   2.412  13.251  1.9175  1.3316 -1.2153
  311MPD2    H1 4734   1.802   2.093  13.538 -0.8852  1.3009  1.3947
  311MPD2    H2 4735   2.164   2.257  13.433  0.3106  0.7971 -0.1527
  311MPD2    H3 4736   2.032   2.081  13.541 -2.2120 -0.0313  0.9210
  311MPD2     N 4737   1.636   2.261  13.385 -0.7106 -0.6323 -0.1318
  311MPD2    H5 4738   1.594   2.333  13.327  0.5270  1.0760  1.0966
  311MPD2    N1 4739   2.053   2.440  13.258  0.7606 -1.0951  0.5966
  311MPD2    H7 4740   1.994   2.515  13.222  2.3359 -0.0229  0.2695
  312TMC3    C1 4741   1.407   2.192  13.418  0.3827 -0.4050  0.0799
  312TMC3    C2 4742   1.376   2.209  13.284  0.4783  0.8872 -0.2120
  312TMC3    C3 4743   1.245   2.204  13.251 -0.6654  0.1216  0.0831
  312TMC3    C4 4744   1.314   2.175  13.514  0.1370  0.0448  0.9840
  312TMC3    C5 4745   1.190   2.165  13.470  0.0249  0.2755 -0.0040
  312TMC3    C6 4746   1.146   2.179  13.338  0.1499  0.0022  0.7207
  312TMC3     C 4747   1.548   2.181  13.459 -0.2369 -0.8284  0.2493
  312TMC3     O 4748   1.577   2.088  13.534 -0.4701 -0.2474  0.0203
  312TMC3     H 4749   1.456   2.214  13.211 -0.2668  1.0993 -1.0160
  312TMC3    H1 4750   1.342   2.149  13.615 -0.8551  1.6205  1.6667
  312TMC3    H2 4751   1.041   2.197  13.320  0.8807  2.2858 -1.3230
  312TMC3    C7 4752   1.086   2.196  13.569  0.1818 -0.0661  0.2465
  312TMC3    C8 4753   1.214   2.203  13.109 -0.0351 -0.4457 -0.8670
  312TMC3    O1 4754   0.974   2.159  13.543 -0.4336  0.2157 -0.5943
  312TMC3    O2 4755   1.284   2.274  13.037  0.0963 -0.0325 -0.0071
  313MPD2     C 4756   1.118   1.607  11.309 -0.0014  0.2849 -0.2300
  313MPD2    C1 4757   1.216   1.687  11.250  0.2050  0.3200 -0.7682
  313MPD2    C2 4758   1.334   1.621  11.221 -0.3947  0.9587 -0.3043
  313MPD2    C3 4759   1.351   1.483  11.228 -0.2092 -0.4072 -0.2912
  313MPD2    C4 4760   1.253   1.409  11.283 -0.7378  0.1958  0.3525
  313MPD2    C5 4761   1.133   1.468  11.316  0.0772 -0.1634 -0.1783
  313MPD2     H 4762   1.405   1.690  11.178  1.5073 -0.0275  1.2574
  313MPD2    H1 4763   1.257   1.304  11.310 -1.0592 -0.4656 -2.1466
  313MPD2    H2 4764   1.023   1.650  11.341 -0.2373 -0.3353 -0.0888
  313MPD2    H3 4765   1.054   1.411  11.364  1.7166 -2.2090  0.1157
  313MPD2     N 4766   1.470   1.427  11.194  0.4430  0.5857  0.1366
  313MPD2    H5 4767   1.543   1.496  11.183  0.2932  0.5587 -1.0573
  313MPD2    N1 4768   1.213   1.826  11.240 -0.3515 -0.2360 -0.0891
  313MPD2    H7 4769   1.303   1.862  11.211 -1.1485  1.6868 -0.1705
  314TMC3    C1 4770   1.136   2.046  11.227  1.1085 -0.8487  0.4864
  314TMC3    C2 4771   1.266   2.083  11.244  0.1145  0.5221  0.4488
  314TMC3    C3 4772   1.329   2.151  11.140  0.8281 -0.7089  0.4000
  314TMC3    C4 4773   1.061   2.088  11.122 -0.8741  0.4728 -0.5102
  314TMC3    C5 4774   1.128   2.157  11.019  1.0270  0.2444  0.4028
  314TMC3    C6 4775   1.262   2.190  11.024  0.0932  0.0496  0.0568
  314TMC3     C 4776   1.104   1.903  11.259  0.2527 -0.1460 -0.9598
  314TMC3     O 4777   0.983   1.867  11.253  0.3317 -0.0955  0.4126
  314TMC3     H 4778   1.317   2.045  11.332  1.6343 -1.6119 -1.3602
  314TMC3    H1 4779   0.966   2.036  11.113  1.1737 -3.4947  1.0960
  314TMC3    H2 4780   1.306   2.256  10.951  0.5221 -0.2935  0.0047
  314TMC3    C7 4781   1.057   2.147  10.894  0.0373 -0.2476 -0.4909
  314TMC3    C8 4782   1.465   2.202  11.149 -0.3641  0.3531  0.6087
  314TMC3    O1 4783   0.942   2.135  10.911  0.4684  0.5563 -0.1080
  314TMC3    O2 4784   1.507   2.269  11.054  0.2218  0.8545  0.8680
  315MPD2     C 4785   0.866   1.311  17.382 -0.1146 -0.3250  0.6887
  315MPD2    C1 4786   0.965   1.248  17.453  0.6777  0.1592  0.9867
  315MPD2    C2 4787   1.078   1.318  17.489 -0.4905  0.3427 -0.3150
  315MPD2    C3 4788   1.105   1.443  17.432  0.4738  0.6390 -0.5333
  315MPD2    C4 4789   1.003   1.506  17.357 -0.0082  0.4545  0.0875
  315MPD2    C5 4790   0.880   1.440  17.337 -0.9739 -1.1873  0.1149
  315MPD2     H 4791   1.152   1.271  17.551 -2.0845  1.6975  2.6103
  315MPD2    H1 4792   1.025   1.605  17.321 -1.2381 -0.0349 -2.0182
  315MPD2    H2 4793   0.770   1.262  17.373 -0.8091  1.6638 -2.4554
  315MPD2    H3 4794   0.807   1.493  17.277  2.3621  0.6895 -2.3315
  315MPD2     N 4795   1.238   1.496  17.451 -0.2377  0.0791  0.2446
  315MPD2    H5 4796   1.305   1.443  17.507 -0.1432  2.7575  2.7122
  315MPD2    N1 4797   0.957   1.112  17.492  0.5755 -0.2821  0.3291
  315MPD2    H7 4798   1.031   1.079  17.553  1.5678 -0.5334 -1.0016
  316TMC3    C1 4799   1.418   1.636  17.454  0.0132 -0.6627  0.1754
  316TMC3    C2 4800   1.465   1.595  17.573  0.2647  0.1341  0.4368
  316TMC3    C3 4801   1.575   1.654  17.625  0.0975 -0.3015  0.1092
  316TMC3    C4 4802   1.493   1.717  17.376  0.1292  0.5540  0.7364
  316TMC3    C5 4803   1.602   1.779  17.425 -0.9437  0.3273 -0.2056
  316TMC3    C6 4804   1.645   1.747  17.554  0.3584  0.3818 -0.7530
  316TMC3     C 4805   1.289   1.607  17.396  0.2080  0.4887  0.5381
  316TMC3     O 4806   1.244   1.679  17.311 -0.0840 -0.2395  0.3160
  316TMC3     H 4807   1.408   1.533  17.642  2.6113 -1.6571  0.7507
  316TMC3    H1 4808   1.466   1.718  17.271  0.2584  0.8276  0.7059
  316TMC3    H2 4809   1.720   1.809  17.601  0.0454 -0.5319  0.9641
  316TMC3    C7 4810   1.677   1.871  17.345 -0.2171 -0.3216 -0.2160
  316TMC3    C8 4811   1.570   1.654   0.030  0.4482 -0.2278 -0.6261
  316TMC3    O1 4812   1.787   1.899  17.392  0.4096 -0.0024  0.2454
  316TMC3    O2 4813   1.460   1.650   0.083 -0.4231 -0.2621  0.0653
  317MPD2     C 4814   3.037   3.517  12.272  0.7976  0.6116 -0.0272
  317MPD2    C1 4815   3.127   3.619  12.273  0.5871  0.0972  0.1146
  317MPD2    C2 4816   3.191   3.656  12.387  0.3361 -0.4905 -0.1437
  317MPD2    C3 4817   3.162   3.599  12.509 -0.1724  0.1357 -0.3593
  317MPD2    C4 4818   3.077   3.493  12.514 -0.9291 -0.0061 -0.2404
  317MPD2    C5 4819   3.010   3.460  12.394  0.4789  0.6484 -0.1298
  317MPD2     H 4820   3.266   3.734  12.392 -1.5329  1.1825  1.2260
  317MPD2    H1 4821   3.060   3.429  12.600 -0.1121  0.5593  0.3389
  317MPD2    H2 4822   2.987   3.481  12.183  1.0796 -0.8975  0.4230
  317MPD2    H3 4823   2.947   3.372  12.390  0.0099  0.9649  0.2928
  317MPD2     N 4824   3.222   3.649  12.624 -0.5219  0.3553 -0.2465
  317MPD2    H5 4825   3.277   3.732  12.602  1.4279 -0.5862  1.0036
  317MPD2    N1 4826   3.164   3.684  12.155 -0.3694 -0.0693  0.8490
  317MPD2    H7 4827   3.244   3.745  12.171 -0.8585  1.0164 -0.8241
  318TMC3    C1 4828   3.323   3.657  12.839  0.0365 -0.0557 -0.7537
  318TMC3    C2 4829   3.316   3.640  12.977  0.1027  0.8113  0.0110
  318TMC3    C3 4830   3.420   3.686  13.062  0.2408  0.5056 -0.4739
  318TMC3    C4 4831   3.437   3.713  12.785  0.3763 -0.7842  0.1421
  318TMC3    C5 4832   3.539   3.748  12.873 -0.6637  0.4485 -0.1449
  318TMC3    C6 4833   3.537   3.725  13.008  0.8437  0.2638 -0.0130
  318TMC3     C 4834   3.227   3.598  12.750 -1.3807  0.3876  0.0919
  318TMC3     O 4835   3.166   3.503  12.798 -0.0587  0.4394  0.1968
  318TMC3     H 4836   3.230   3.595  13.026  0.7745  0.8766  1.2473
  318TMC3    H1 4837   3.462   3.715  12.680  4.2033 -0.6069  1.0553
  318TMC3    H2 4838   3.601   3.783  13.073  1.2898  0.5704 -0.7307
  318TMC3    C7 4839   3.660   3.800  12.811 -0.9407  0.3109 -0.2382
  318TMC3    C8 4840   3.393   3.705  13.205  0.2845  0.5021 -0.6388
  318TMC3    O1 4841   3.645   3.845  12.695 -0.4476 -0.8057  0.3713
  318TMC3    O2 4842   3.471   3.757  13.280 -0.0519  0.3936 -0.3360
  319MPD2     C 4843   3.261   1.073  16.812 -0.2297  0.0098 -0.1896
  319MPD2    C1 4844   3.180   0.974  16.857 -0.2494 -0.2949 -0.0958
  319MPD2    C2 4845   3.115   0.891  16.771  0.5511  0.3719  0.7617
  319MPD2    C3 4846   3.129   0.915  16.634 -0.5673  0.1646 -0.3599
  319MPD2    C4 4847   3.206   1.020  16.587 -0.2315 -0.0381 -0.6105
  319MPD2    C5 4848   3.270   1.098  16.681 -0.5212  0.1512  0.3266
  319MPD2     H 4849   3.065   0.801  16.806  3.2693 -1.1768  0.6170
  319MPD2    H1 4850   3.216   1.047  16.482  1.0235  1.5413 -0.0743
  319MPD2    H2 4851   3.321   1.143  16.870  1.6599 -0.4633 -1.5779
  319MPD2    H3 4852   3.334   1.180  16.651 -2.6386  1.8654  0.5262
  319MPD2     N 4853   3.065   0.831  16.533 -0.1674  0.7324  0.0258
  319MPD2    H5 4854   3.076   0.859  16.436 -0.7860 -1.2285 -0.5940
  319MPD2    N1 4855   3.165   0.944  16.996  0.0238  0.3304  1.2461
  319MPD2    H7 4856   3.105   0.870  17.030 -0.7972  0.6510  0.4957
  320TMC3    C1 4857   2.959   0.658  16.424 -0.4937  0.1420  0.2018
  320TMC3    C2 4858   2.926   0.750  16.332 -0.0679 -0.2445  0.2480
  320TMC3    C3 4859   2.939   0.709  16.204  0.9191  0.3049 -0.7163
  320TMC3    C4 4860   2.994   0.527  16.396 -1.3991 -0.6035 -0.9939
  320TMC3    C5 4861   2.987   0.489  16.266 -0.4128  0.3372 -0.4537
  320TMC3    C6 4862   2.968   0.577  16.167  0.1274  0.3035 -0.1783
  320TMC3     C 4863   3.006   0.709  16.556 -0.0041  0.2223 -0.1580
  320TMC3     O 4864   3.034   0.625  16.645  0.4035 -0.1117 -0.0301
  320TMC3     H 4865   2.887   0.851  16.345  2.0091  0.7394 -1.1891
  320TMC3    H1 4866   3.019   0.450  16.469 -1.0747  1.7013  1.3170
  320TMC3    H2 4867   2.972   0.528  16.070  0.0630 -0.5865  0.2756
  320TMC3    C7 4868   3.059   0.375  16.224  0.3413 -0.7419  0.1597
  320TMC3    C8 4869   2.996   0.810  16.114  0.2629  0.7589  0.1995
  320TMC3    O1 4870   3.017   0.315  16.125 -0.2125  0.3245  0.0886
  320TMC3    O2 4871   3.023   0.913  16.173 -0.3372 -0.1911 -0.0771
  321TMC3    C1 4872   3.226   0.930  17.220  0.4415 -0.2659  0.8551
  321TMC3    C2 4873   3.199   0.800  17.219  0.0311 -1.0951 -0.0612
  321TMC3    C3 4874   3.216   0.721  17.332  0.1604 -0.2755 -0.3232
  321TMC3    C4 4875   3.291   0.982  17.326  0.3316  0.7207 -0.6181
  321TMC3    C5 4876   3.306   0.906  17.443 -0.1729 -0.4063 -0.8941
  321TMC3    C6 4877   3.260   0.777  17.450 -0.7867  0.7817 -0.1152
  321TMC3     C 4878   3.251   0.995  17.095  0.6647 -0.0634  0.1445
  321TMC3     O 4879   3.332   1.090  17.094 -0.3179  0.2154 -0.2200
  321TMC3     H 4880   3.156   0.741  17.138  1.6899 -0.3954 -1.4511
  321TMC3    H1 4881   3.331   1.083  17.322  0.0394  0.8106 -1.2290
  321TMC3    H2 4882   3.271   0.708  17.533  3.5828  1.8721  0.1933
  321TMC3    C7 4883   3.443   0.913  17.499  0.3535  0.4636  0.4778
  321TMC3    C8 4884   3.263   0.587  17.310 -0.7037 -0.3202 -0.6618
  321TMC3    O1 4885   3.455   0.831  17.590  0.1060  0.0674  0.2461
  321TMC3    O2 4886   3.219   0.517  17.223  0.1799  0.4294  0.4973
  322MPD2     C 4887   2.463   2.322  13.663  0.6609 -0.3369 -0.4867
  322MPD2    C1 4888   2.510   2.273  13.786  0.0378  0.0300  0.7968
  322MPD2    C2 4889   2.519   2.135  13.797 -1.4010  0.3352  0.8153
  322MPD2    C3 4890   2.500   2.053  13.690  0.2033 -0.0874  0.3796
  322MPD2    C4 4891   2.463   2.105  13.570 -0.6490 -0.0447 -0.2280
  322MPD2    C5 4892   2.442   2.238  13.559  0.4074  0.3476  0.4414
  322MPD2     H 4893   2.549   2.089  13.891 -1.4805 -3.0269 -0.8301
  322MPD2    H1 4894   2.449   2.049  13.479 -1.4633 -0.0513 -0.0914
  322MPD2    H2 4895   2.445   2.428  13.652 -3.3065 -0.9684 -0.0927
  322MPD2    H3 4896   2.418   2.272  13.458 -2.5476  0.3822  1.1662
  322MPD2     N 4897   2.533   1.914  13.712 -0.0480  0.3550  0.2026
  322MPD2    H5 4898   2.546   1.894  13.810  2.3391 -0.3209 -0.2508
  322MPD2    N1 4899   2.553   2.364  13.888 -0.4136  0.1358  0.1071
  322MPD2    H7 4900   2.572   2.457  13.850 -1.8806  0.2532 -0.3508
  323TMC3    C1 4901   2.635   2.427  14.110  0.2472 -0.7259 -0.2433
  323TMC3    C2 4902   2.729   2.497  14.046  1.0796  0.4012  0.4108
  323TMC3    C3 4903   2.848   2.505  14.106  0.0588 -0.4335 -0.0727
  323TMC3    C4 4904   2.648   2.380  14.238 -0.3445  0.2452  0.6036
  323TMC3    C5 4905   2.770   2.390  14.295  0.1997 -0.1772  0.2343
  323TMC3    C6 4906   2.876   2.447  14.233  0.3999  0.0212 -0.6188
  323TMC3     C 4907   2.570   2.327  14.023 -0.6275  0.1673  0.6956
  323TMC3     O 4908   2.533   2.217  14.070 -0.0724 -0.0999 -0.1578
  323TMC3     H 4909   2.705   2.554  13.957 -0.4746  0.4646  0.8755
  323TMC3    H1 4910   2.569   2.322  14.283 -2.0946  1.4001 -0.9261
  323TMC3    H2 4911   2.975   2.456  14.277 -0.4711  0.0741  1.3252
  323TMC3    C7 4912   2.789   2.310  14.416  0.7347  0.3571  0.4369
  323TMC3    C8 4913   2.964   2.502  14.016 -0.3607  0.2746 -1.1732
  323TMC3    O1 4914   2.709   2.220  14.429  0.2092 -0.3909 -0.3563
  323TMC3    O2 4915   3.077   2.503  14.063 -0.8588 -0.5702  1.0446
  324MPD2     C 4916   4.447   3.184  14.136 -0.5254 -0.8377 -0.6227
  324MPD2    C1 4917   4.431   3.277  14.241  0.9102  0.6283 -0.1733
  324MPD2    C2 4918   4.314   3.271  14.318 -0.6472 -0.1136 -0.1504
  324MPD2    C3 4919   4.215   3.178  14.283 -0.1271  0.0099  0.5419
  324MPD2    C4 4920   4.228   3.092  14.174  0.2973  0.4550  0.2989
  324MPD2    C5 4921   4.350   3.090  14.107 -0.2837  0.2820  0.5743
  324MPD2     H 4922   4.292   3.346  14.393 -0.6906 -0.7334  0.4655
  324MPD2    H1 4923   4.156   3.014  14.153  0.4465 -0.2659  2.5106
  324MPD2    H2 4924   4.525   3.194  14.061  0.7489  0.5393  0.8949
  324MPD2    H3 4925   4.365   3.011  14.034  1.3100  0.7082  0.4282
  324MPD2     N 4926   4.092   3.159  14.355 -0.1573 -0.2656 -0.1383
  324MPD2    H5 4927   4.028   3.086  14.326  2.2730 -2.1794 -0.7296
  324MPD2    N1 4928   4.517   3.384  14.264 -0.4820  0.0509 -0.9085
  324MPD2    H7 4929   4.492   3.443  14.343 -0.3167 -0.4681 -0.4713
  325TMC3    C1 4930   3.928   3.183  14.509  0.3583  0.1898 -0.0981
  325TMC3    C2 4931   3.893   3.055  14.488  0.3516  0.3970  0.1014
  325TMC3    C3 4932   3.762   3.019  14.483 -0.5322 -0.4352 -0.7933
  325TMC3    C4 4933   3.828   3.281  14.532 -0.3622  0.0738 -0.0106
  325TMC3    C5 4934   3.698   3.238  14.527 -0.4320 -0.1288  0.2094
  325TMC3    C6 4935   3.662   3.107  14.499 -0.7901 -1.2049  0.2685
  325TMC3     C 4936   4.055   3.230  14.465  0.1661  0.6237  0.2925
  325TMC3     O 4937   4.102   3.328  14.517  0.1485  0.0088  0.3700
  325TMC3     H 4938   3.968   2.977  14.496  2.2226  2.0784 -1.2466
  325TMC3    H1 4939   3.857   3.384  14.548 -1.1040  0.3574 -0.5209
  325TMC3    H2 4940   3.557   3.089  14.482 -0.6490  0.0845 -2.0400
  325TMC3    C7 4941   3.596   3.333  14.500  0.1269 -0.0522 -0.7210
  325TMC3    C8 4942   3.748   2.945  14.362 -0.8450 -0.2013  0.2245
  325TMC3    O1 4943   3.495   3.294  14.439  0.7207  0.3454  0.3175
  325TMC3    O2 4944   3.848   2.935  14.292 -0.0795  0.3869 -0.5948
  326MPD2     C 4945   1.350   3.694  11.241  0.0688 -0.2889 -0.6654
  326MPD2    C1 4946   1.390   3.740  11.119  0.2154  0.6184  0.2576
  326MPD2    C2 4947   1.503   3.821  11.112 -0.4488  0.6668  0.3935
  326MPD2    C3 4948   1.573   3.850  11.231  0.8002 -0.2623  0.1969
  326MPD2    C4 4949   1.535   3.790  11.346 -0.3059 -0.8961  0.1145
  326MPD2    C5 4950   1.420   3.718  11.355 -0.0068 -0.8609  0.2551
  326MPD2     H 4951   1.526   3.857  11.012 -1.7105  0.8485  0.1658
  326MPD2    H1 4952   1.569   3.812  11.446  0.5817 -2.6483  0.2069
  326MPD2    H2 4953   1.257   3.639  11.248  1.1594 -1.9108  1.0894
  326MPD2    H3 4954   1.387   3.680  11.451  0.9050 -1.5506  0.2947
  326MPD2     N 4955   1.687   3.938  11.233  0.6137 -0.6884 -0.2794
  326MPD2    H5 4956   1.712   3.988  11.318 -0.4347 -1.2723  0.3736
  326MPD2    N1 4957   1.318   3.710  10.994  0.6615 -0.6117  0.1811
  326MPD2    H7 4958   1.349   3.760  10.911  2.2816 -0.3602  0.9190
  327TMC3    C1 4959   1.153   3.597  10.854 -0.0398 -0.5708 -0.2649
  327TMC3    C2 4960   1.129   3.714  10.802  0.1847 -0.0803 -0.0813
  327TMC3    C3 4961   1.129   3.731  10.664  0.2347 -0.0822 -0.5693
  327TMC3    C4 4962   1.206   3.492  10.777 -0.7400 -0.7810 -0.5345
  327TMC3    C5 4963   1.235   3.518  10.644 -0.2350 -0.0738 -0.1008
  327TMC3    C6 4964   1.193   3.636  10.584  0.5781  0.2939  0.8030
  327TMC3     C 4965   1.220   3.611  10.980  0.4162 -0.3095  0.2980
  327TMC3     O 4966   1.220   3.512  11.055 -0.3616 -0.2636  0.4948
  327TMC3     H 4967   1.118   3.801  10.867 -1.4935  1.6799 -2.7046
  327TMC3    H1 4968   1.228   3.407  10.841  0.1657 -0.3508 -0.2731
  327TMC3    H2 4969   1.221   3.657  10.481 -0.4006 -0.9360  0.2803
  327TMC3    C7 4970   1.364   3.481  10.610 -0.0107 -0.4446 -0.6393
  327TMC3    C8 4971   1.098   3.858  10.604  0.4786  0.2722  1.1262
  327TMC3    O1 4972   1.398   3.518  10.498  0.4763  0.5953  0.4096
  327TMC3    O2 4973   1.141   3.886  10.492  0.2582 -0.2023  0.2230
  328MPD2     C 4974   3.670   4.289  16.491 -0.4801 -0.4294 -0.3639
  328MPD2    C1 4975   3.572   4.209  16.439  0.6659 -0.3129 -0.0556
  328MPD2    C2 4976   3.442   4.263  16.453  0.4902 -0.1715  0.7696
  328MPD2    C3 4977   3.408   4.375  16.532 -0.8191  0.1989  0.5484
  328MPD2    C4 4978   3.512   4.434  16.603  0.5557 -0.1340  0.5695
  328MPD2    C5 4979   3.638   4.391  16.579  0.2879 -0.0055 -0.2349
  328MPD2     H 4980   3.365   4.213  16.394  0.3222  0.5011  0.4194
  328MPD2    H1 4981   3.501   4.524  16.663  1.0890  0.5139 -0.3033
  328MPD2    H2 4982   3.772   4.256  16.474  0.4463  2.4884 -0.3943
  328MPD2    H3 4983   3.722   4.446  16.619 -0.8732  0.8754  0.9834
  328MPD2     N 4984   3.279   4.421  16.545  0.1124  0.5767 -0.4107
  328MPD2    H5 4985   3.265   4.500  16.607 -2.0139  0.6471 -0.9761
  328MPD2    N1 4986   3.600   4.089  16.378  0.5152  0.9500  0.3963
  328MPD2    H7 4987   3.694   4.052  16.379  0.9683  2.0976 -0.5296
  329TMC3    C1 4988   3.563   3.867  16.314 -0.5666  0.6232  0.2691
  329TMC3    C2 4989   3.482   3.777  16.362 -1.0550  0.1272  0.0503
  329TMC3    C3 4990   3.512   3.645  16.360  0.5436 -0.6311 -0.5818
  329TMC3    C4 4991   3.688   3.831  16.276 -0.2225 -0.2968  0.1853
  329TMC3    C5 4992   3.714   3.695  16.260 -0.3832  0.1297 -0.0629
  329TMC3    C6 4993   3.627   3.600  16.302  0.4091  0.0827 -0.4804
  329TMC3     C 4994   3.513   4.001  16.327 -0.1879 -0.6997 -0.1043
  329TMC3     O 4995   3.391   4.007  16.298 -0.5647  0.2030  0.7713
  329TMC3     H 4996   3.392   3.817  16.406 -0.3149  0.5552  1.1658
  329TMC3    H1 4997   3.759   3.908  16.247  0.8622 -0.6045  2.0320
  329TMC3    H2 4998   3.657   3.496  16.305  2.8421  0.8278  1.5338
  329TMC3    C7 4999   3.828   3.661  16.173 -0.1372 -0.6915  0.3238
  329TMC3    C8 5000   3.418   3.544  16.423  0.4921 -0.3051 -0.5891
  329TMC3    O1 5001   3.905   3.756  16.153 -0.4781 -0.0755 -0.5471
  329TMC3    O2 5002   3.461   3.430  16.440 -0.0557 -0.0517  0.9446
  330TMC3    C1 5003   1.043   2.953   8.781 -0.1372 -0.3917 -0.0009
  330TMC3    C2 5004   0.957   2.882   8.863  0.7625 -0.2677 -0.2012
  330TMC3    C3 5005   0.868   2.791   8.811  0.4379 -0.4743  0.2011
  330TMC3    C4 5006   1.042   2.940   8.645  0.4684  0.2591  0.3946
  330TMC3    C5 5007   0.948   2.848   8.590 -0.1486  0.0890 -0.3277
  330TMC3    C6 5008   0.855   2.778   8.678  0.3462 -0.4244  0.9826
  330TMC3     C 5009   1.069   3.089   8.822 -0.2706  0.5810 -0.2486
  330TMC3     O 5010   1.161   3.151   8.766 -0.6440 -0.1394  0.0425
  330TMC3     H 5011   0.960   2.894   8.971  0.9548 -2.1022 -0.0091
  330TMC3    H1 5012   1.107   2.996   8.579 -0.3192 -0.2388 -0.8130
  330TMC3    H2 5013   0.789   2.706   8.632 -1.7229  2.3988 -0.4518
  330TMC3    C7 5014   0.940   2.834   8.441 -0.0875 -0.4301  0.0585
  330TMC3    C8 5015   0.767   2.744   8.897 -0.3393 -0.4546  0.2206
  330TMC3    O1 5016   0.902   2.726   8.398 -0.0180  0.5897  0.6582
  330TMC3    O2 5017   0.657   2.733   8.837 -0.3338  0.0674  0.2127
  331MPD2     C 5018   3.951   2.406  12.601 -0.5113 -0.2295  0.3502
  331MPD2    C1 5019   3.955   2.400  12.465  0.2813 -0.1321 -0.1284
  331MPD2    C2 5020   4.013   2.292  12.404 -0.0161 -0.0331 -0.3120
  331MPD2    C3 5021   4.065   2.193  12.480  0.6603  0.2720  0.9428
  331MPD2    C4 5022   4.057   2.195  12.622 -0.1301 -0.8512  0.1291
  331MPD2    C5 5023   4.005   2.306  12.677  0.5957  0.4695 -0.5844
  331MPD2     H 5024   4.025   2.292  12.296  0.2605  1.5750 -0.2779
  331MPD2    H1 5025   4.092   2.114  12.684 -0.4600  0.0290  1.4507
  331MPD2    H2 5026   3.909   2.490  12.655 -0.6299  1.0561 -1.7375
  331MPD2    H3 5027   3.996   2.311  12.785  0.1955 -1.7534 -0.5108
  331MPD2     N 5028   4.129   2.091  12.400 -0.2843 -0.5981 -0.7149
  331MPD2    H5 5029   4.150   2.115  12.304  0.2249 -2.4627 -1.0517
  331MPD2    N1 5030   3.921   2.497  12.376  0.2633 -0.2555 -0.5414
  331MPD2    H7 5031   3.962   2.484  12.284  1.3139  1.2576 -0.3010
  332TMC3    C1 5032   4.208   1.884  12.343 -0.3133 -0.1241  0.2727
  332TMC3    C2 5033   4.136   1.886  12.232 -0.8136  0.0644 -0.1681
  332TMC3    C3 5034   4.157   1.798  12.136  0.2070 -0.1118  0.5119
  332TMC3    C4 5035   4.304   1.793  12.364  0.4241 -0.3019 -0.0010
  332TMC3    C5 5036   4.342   1.710  12.256  0.8484 -0.4117 -0.2701
  332TMC3    C6 5037   4.263   1.708  12.144 -0.6240  0.3421  0.4102
  332TMC3     C 5038   4.166   1.972  12.445 -0.1620 -0.3323  0.4785
  332TMC3     O 5039   4.182   1.929  12.562 -0.0610 -1.0007  0.0654
  332TMC3     H 5040   4.051   1.953  12.225 -0.5601  0.3716 -0.3059
  332TMC3    H1 5041   4.363   1.794  12.455 -3.5986  0.1111  2.6065
  332TMC3    H2 5042   4.294   1.647  12.060  0.4633  1.2417  0.1584
  332TMC3    C7 5043   4.420   1.598  12.285 -0.0959 -0.0414 -0.5687
  332TMC3    C8 5044   4.126   1.859  12.003  0.3448  0.0230  0.2372
  332TMC3    O1 5045   4.395   1.495  12.227 -0.1615  0.4378 -0.2865
  332TMC3    O2 5046   4.135   1.983  12.003 -0.4702 -0.2135 -0.0477
  333MPD2     C 5047   4.564   2.581  10.903 -0.0569 -0.5915  0.1130
  333MPD2    C1 5048   4.556   2.549  10.764 -0.0607  0.5409  0.9514
  333MPD2    C2 5049   4.450   2.470  10.724 -0.0394  0.7724  0.2994
  333MPD2    C3 5050   4.348   2.423  10.809  0.2506  0.4379  0.2305
  333MPD2    C4 5051   4.349   2.469  10.945  0.1584  0.0476  0.4244
  333MPD2    C5 5052   4.459   2.544  10.981 -0.4435  0.6975 -0.3416
  333MPD2     H 5053   4.452   2.436  10.622 -1.9685  2.4208 -0.2907
  333MPD2    H1 5054   4.271   2.442  11.014 -0.3928  0.2313 -0.1269
  333MPD2    H2 5055   4.648   2.635  10.944  0.1415 -2.1762  1.7636
  333MPD2    H3 5056   4.464   2.571  11.085  0.5628  0.6188 -0.3664
  333MPD2     N 5057   4.250   2.333  10.753 -0.6549 -0.0320 -0.4918
  333MPD2    H5 5058   4.258   2.316  10.653 -0.5436  0.1514 -0.5146
  333MPD2    N1 5059   4.656   2.590  10.677 -0.1366 -0.1888 -0.3556
  333MPD2    H7 5060   0.008   2.622  10.716 -0.8752  0.5067  0.7138
  334TMC3    C1 5061   0.055   2.629  10.505 -0.5852 -0.2846 -0.1711
  334TMC3    C2 5062   0.157   2.572  10.569  0.7947  1.4170  0.8005
  334TMC3    C3 5063   0.281   2.628  10.534 -0.7420  0.4495  0.7714
  334TMC3    C4 5064   0.062   2.741  10.427  0.5864 -0.2387 -0.4323
  334TMC3    C5 5065   0.180   2.808  10.410 -0.2837  0.2593 -0.1569
  334TMC3    C6 5066   0.292   2.747  10.464 -0.2389  0.1918  0.2885
  334TMC3     C 5067   4.659   2.579  10.541 -0.4429  0.8020  0.1056
  334TMC3     O 5068   4.561   2.592  10.468  0.3188  0.0567  0.3038
  334TMC3     H 5069   0.143   2.482  10.627  0.4857  2.0335  1.6862
  334TMC3    H1 5070   4.707   2.776  10.381  0.0477  1.3795  1.8395
  334TMC3    H2 5071   0.387   2.799  10.467 -0.5337  0.8229 -1.3886
  334TMC3    C7 5072   0.189   2.948  10.364 -0.6151  0.8619 -0.7001
  334TMC3    C8 5073   0.396   2.549  10.575 -0.0069 -0.0441  0.4902
  334TMC3    O1 5074   0.278   3.012  10.411  0.0816 -0.4289  0.3069
  334TMC3    O2 5075   0.369   2.456  10.654 -0.3154 -0.5267 -0.0544
  335TMC3    C1 5076   4.009   4.692  16.912  1.6888  0.2801  0.2939
  335TMC3    C2 5077   3.985   4.573  16.841 -0.2120 -0.0967 -0.4464
  335TMC3    C3 5078   4.103   4.508  16.807 -0.1815  0.0900 -0.1674
  335TMC3    C4 5079   4.139   4.728  16.954 -0.2890 -0.1239  0.4166
  335TMC3    C5 5080   4.248   4.659  16.918  0.0328 -0.4433 -0.0825
  335TMC3    C6 5081   4.230   4.555  16.837  0.3752  0.0764 -0.8009
  335TMC3     C 5082   3.899   0.046  16.921  0.0009  0.0090 -0.4355
  335TMC3     O 5083   3.797   0.008  16.975  0.5958  0.2236 -0.1267
  335TMC3     H 5084   3.882   4.545  16.823 -0.8621  1.0800  1.3755
  335TMC3    H1 5085   4.156   0.080  17.015  0.5112  0.8768 -1.2179
  335TMC3    H2 5086   4.316   4.507  16.792  1.5074 -0.0335  1.4827
  335TMC3    C7 5087   4.386   4.701  16.943  0.4111  0.4959  0.5945
  335TMC3    C8 5088   4.100   4.402  16.715 -0.5350  0.7683 -0.2444
  335TMC3    O1 5089   4.471   4.616  16.933 -0.3854  0.3424 -0.0922
  335TMC3    O2 5090   4.197   4.390  16.641 -0.2649 -0.1724 -0.1438
  336MPD2     C 5091   3.931   1.706  16.225  0.1901 -0.3896  0.1721
  336MPD2    C1 5092   3.902   1.715  16.091 -0.2621 -0.4235 -1.1086
  336MPD2    C2 5093   3.876   1.603  16.019  0.4420 -0.1765  0.2074
  336MPD2    C3 5094   3.901   1.472  16.066  0.4104  0.1845 -0.6218
  336MPD2    C4 5095   3.927   1.465  16.200  0.4004  0.0046  0.1399
  336MPD2    C5 5096   3.944   1.576  16.275  0.2324  0.5869  0.4127
  336MPD2     H 5097   3.842   1.621  15.918 -1.2923 -0.9664  0.6481
  336MPD2    H1 5098   3.935   1.371  16.254 -1.1474 -1.8315 -2.8361
  336MPD2    H2 5099   3.962   1.789  16.288  0.1630 -0.0200 -0.3106
  336MPD2    H3 5100   3.954   1.567  16.382 -0.3851 -0.8431  0.3445
  336MPD2     N 5101   3.880   1.353  15.988 -0.3879  0.4587  0.0486
  336MPD2    H5 5102   3.868   1.271  16.047 -0.4947  0.0254 -0.5694
  336MPD2    N1 5103   3.872   1.839  16.030 -0.7281  0.7156  0.1486
  336MPD2    H7 5104   3.829   1.837  15.938 -0.5036  2.3254 -0.0006
  337TMC3    C1 5105   3.800   2.061  16.016  0.0983 -0.1207 -0.7605
  337TMC3    C2 5106   3.697   2.012  15.934 -0.4249  0.6123  0.9562
  337TMC3    C3 5107   3.620   2.110  15.868  0.2068 -0.3714 -0.2993
  337TMC3    C4 5108   3.830   2.193  16.022 -0.7936  0.7240  0.1784
  337TMC3    C5 5109   3.742   2.279  15.951 -0.5727 -0.2182 -0.0250
  337TMC3    C6 5110   3.642   2.239  15.877 -0.1331 -0.7153 -0.4184
  337TMC3     C 5111   3.888   1.964  16.083 -0.2871  0.2121 -0.1676
  337TMC3     O 5112   3.960   2.006  16.176 -0.2973  0.7248 -0.4685
  337TMC3     H 5113   3.673   1.907  15.942  0.9327  0.1767 -0.9066
  337TMC3    H1 5114   3.914   2.234  16.077 -0.6865  1.4307 -0.5060
  337TMC3    H2 5115   3.585   2.320  15.834  0.2351 -1.2678 -1.9575
  337TMC3    C7 5116   3.761   2.424  15.965 -0.0065  0.3042  0.3188
  337TMC3    C8 5117   3.479   2.061  15.832 -0.8494 -0.0456  0.2896
  337TMC3    O1 5118   3.710   2.488  15.872  0.3149 -0.5371  0.1129
  337TMC3    O2 5119   3.449   1.947  15.871 -0.0598 -0.1896  0.2786
  338MPD2     C 5120   4.008   0.810   1.016  0.6910 -0.2313 -0.0572
  338MPD2    C1 5121   3.979   0.880   0.898 -0.5980 -0.9021  0.8421
  338MPD2    C2 5122   3.850   0.903   0.865 -0.0863  0.1223  0.2534
  338MPD2    C3 5123   3.742   0.861   0.941  0.1473  0.0156  0.2661
  338MPD2    C4 5124   3.774   0.796   1.060 -0.7177  0.0108 -0.2221
  338MPD2    C5 5125   3.904   0.771   1.094  0.7575 -0.1529  0.8249
  338MPD2     H 5126   3.833   0.957   0.772  1.1611  1.2555  0.6729
  338MPD2    H1 5127   3.694   0.751   1.117 -1.4445  1.2307 -0.2738
  338MPD2    H2 5128   4.108   0.776   1.037  0.9136 -1.0819 -2.5089
  338MPD2    H3 5129   3.924   0.713   1.183  0.1869  1.3992  1.9596
  338MPD2     N 5130   3.611   0.872   0.903  0.1772 -0.2509 -0.0929
  338MPD2    H5 5131   3.609   0.909   0.808  0.9835  1.4014  0.5459
  338MPD2    N1 5132   4.077   0.916   0.806 -0.0963 -0.2339  0.6684
  338MPD2    H7 5133   4.047   0.976   0.729  1.2047  0.0552  0.3929
  339TMC3    C1 5134   3.387   0.891   0.896  0.0331 -0.1860 -0.4468
  339TMC3    C2 5135   3.265   0.840   0.917  0.6794  0.3724  0.2827
  339TMC3    C3 5136   3.160   0.854   0.825 -0.6851  0.6803 -0.1984
  339TMC3    C4 5137   3.417   0.969   0.783 -0.5383  0.3751  0.3668
  339TMC3    C5 5138   3.308   0.978   0.692 -0.2972 -0.4149  0.2391
  339TMC3    C6 5139   3.184   0.920   0.705 -0.1253 -0.0847  0.2248
  339TMC3     C 5140   3.497   0.853   0.974  0.0955  0.6404 -0.0809
  339TMC3     O 5141   3.481   0.810   1.088 -0.3666  0.1884 -0.1195
  339TMC3     H 5142   3.235   0.799   1.012  0.7291 -2.6728 -1.0183
  339TMC3    H1 5143   3.507   1.022   0.756  0.0731  0.2374  2.1361
  339TMC3    H2 5144   3.118   0.908   0.620  1.6871 -1.6020 -0.9572
  339TMC3    C7 5145   3.338   1.062   0.581 -0.4418  0.1956  0.2158
  339TMC3    C8 5146   3.022   0.822   0.859 -0.0848  0.4440 -0.1711
  339TMC3    O1 5147   3.456   1.068   0.546  0.4209 -0.3665  0.3806
  339TMC3    O2 5148   2.948   0.799   0.765  0.1156  0.5217 -0.3463
  340MPD2     C 5149   0.291   4.034  10.214  0.0306 -0.2149 -0.6858
  340MPD2    C1 5150   0.250   3.935  10.122  0.0243  0.0243  0.3349
  340MPD2    C2 5151   0.348   3.859  10.056 -0.0440  0.3794 -0.1262
  340MPD2    C3 5152   0.478   3.862  10.097 -0.3615 -0.0442  0.1375
  340MPD2    C4 5153   0.514   3.971  10.171  0.2012 -0.0128 -0.5721
  340MPD2    C5 5154   0.430   4.059  10.233 -0.7981 -0.3167  0.3151
  340MPD2     H 5155   0.314   3.775   9.996 -1.4939 -0.8866  2.4391
  340MPD2    H1 5156   0.621   3.987  10.180  0.1715 -0.1110 -0.0102
  340MPD2    H2 5157   0.228   4.110  10.259  1.0995  0.7933 -0.8884
  340MPD2    H3 5158   0.466   4.139  10.297 -1.4565 -0.6838  1.1615
  340MPD2     N 5159   0.590   3.776  10.060 -0.3272  0.9841  0.2627
  340MPD2    H5 5160   0.683   3.817  10.063  1.0314 -2.0009 -1.0592
  340MPD2    N1 5161   0.120   3.898  10.098  0.2984 -0.4050 -0.0499
  340MPD2    H7 5162   0.105   3.826  10.029 -1.5828 -0.2655  0.2250
  341TMC3    C1 5163   4.627   3.901  10.130  0.3465  0.4171  0.0337
  341TMC3    C2 5164   4.554   3.823  10.217  0.2452  0.7974  0.8463
  341TMC3    C3 5165   4.457   3.745  10.171  0.1427 -0.1883  0.2781
  341TMC3    C4 5166   4.613   3.891   9.994 -0.3550 -0.4093  0.5467
  341TMC3    C5 5167   4.508   3.816   9.949 -0.1619 -0.5829 -0.5953
  341TMC3    C6 5168   4.439   3.738  10.036 -0.3532  0.5951 -0.0353
  341TMC3     C 5169   0.017   3.948  10.169  0.7883  0.1953 -0.2264
  341TMC3     O 5170   0.016   4.007  10.278 -0.2280  0.5551  0.0736
  341TMC3     H 5171   4.585   3.825  10.320  0.5337 -3.8012  0.8361
  341TMC3    H1 5172   4.657   3.958   9.921 -2.1256  0.9081  0.6711
  341TMC3    H2 5173   4.350   3.691   9.994  1.0051 -4.0585  2.2234
  341TMC3    C7 5174   4.502   3.787   9.805  0.1901 -0.3199  0.2280
  341TMC3    C8 5175   4.411   3.624  10.238  0.3304  0.0382 -0.6826
  341TMC3    O1 5176   4.474   3.673   9.772  0.6480 -0.0774  0.2558
  341TMC3    O2 5177   4.303   3.581  10.209 -0.1029 -0.1004 -0.3681
  342MPD2     C 5178   2.286   2.124   0.035 -0.2927  0.1706  0.8337
  342MPD2    C1 5179   2.316   2.166  17.648 -0.1847 -0.1997  0.8622
  342MPD2    C2 5180   2.299   2.302  17.607 -0.5265  0.6150 -0.5098
  342MPD2    C3 5181   2.259   2.391  17.698 -0.5849 -0.7440 -0.2009
  342MPD2    C4 5182   2.217   2.345   0.081  0.1908 -0.4105  0.1954
  342MPD2    C5 5183   2.228   2.214   0.119  0.0096 -0.1756 -0.2103
  342MPD2     H 5184   2.294   2.331  17.503 -0.9914  1.5832 -0.2177
  342MPD2    H1 5185   2.181   2.414   0.156  2.9476  0.9005  0.3166
  342MPD2    H2 5186   2.289   2.021   0.068  1.2093 -0.2310 -0.5150
  342MPD2    H3 5187   2.195   2.184   0.218  1.3101  2.2991  0.9823
  342MPD2     N 5188   2.234   2.530  17.667  0.3446  0.6389  0.2689
  342MPD2    H5 5189   2.175   2.576  17.736  2.3581  2.4642  0.7801
  342MPD2    N1 5190   2.369   2.071  17.554  0.2821 -0.1613  0.5619
  342MPD2    H7 5191   2.396   2.109  17.464  0.5035  2.1239  1.5955
  343TMC3    C1 5192   2.451   1.855  17.482 -0.2475 -0.4299 -0.8464
  343TMC3    C2 5193   2.519   1.905  17.374 -0.6044  0.0619  0.2351
  343TMC3    C3 5194   2.538   1.822  17.266 -0.4143 -0.4623 -0.4057
  343TMC3    C4 5195   2.413   1.721  17.482 -0.1185  0.4691 -0.0527
  343TMC3    C5 5196   2.429   1.649  17.365  0.1063 -0.2510  0.1788
  343TMC3    C6 5197   2.497   1.693  17.259 -0.0397  0.3161  0.2939
  343TMC3     C 5198   2.386   1.937  17.586  0.0011 -0.4689  0.4292
  343TMC3     O 5199   2.355   1.867  17.682 -0.5314  0.1740  0.2181
  343TMC3     H 5200   2.542   2.010  17.372  1.3919 -0.3841 -0.1476
  343TMC3    H1 5201   2.354   1.686  17.566 -1.7992  1.0031 -1.0104
  343TMC3    H2 5202   2.543   1.629  17.184  0.3604  1.4914 -0.4786
  343TMC3    C7 5203   2.352   1.531  17.333 -0.4579  0.2770 -0.4214
  343TMC3    C8 5204   2.590   1.892  17.150  0.3950  0.5811 -0.3846
  343TMC3    O1 5205   2.345   1.501  17.214 -0.1966 -0.1411 -0.0409
  343TMC3    O2 5206   2.628   2.006  17.172  0.1191  0.0531  0.4399
  344MPD2     C 5207   2.774   1.944  10.888 -0.0424  1.2680  0.4775
  344MPD2    C1 5208   2.772   1.850  10.788 -1.0042 -0.1950 -0.2480
  344MPD2    C2 5209   2.796   1.887  10.659  0.1698  0.1158 -0.1071
  344MPD2    C3 5210   2.827   2.019  10.619  0.0150 -0.4430 -0.2966
  344MPD2    C4 5211   2.836   2.101  10.728  0.1045 -0.1190  0.5273
  344MPD2    C5 5212   2.814   2.071  10.862  0.5764 -0.0528 -0.4883
  344MPD2     H 5213   2.782   1.816  10.578  0.1587 -0.6057  0.5297
  344MPD2    H1 5214   2.864   2.204  10.712 -0.2664 -0.2360 -0.8548
  344MPD2    H2 5215   2.760   1.922  10.993 -2.2159 -1.6910 -0.4481
  344MPD2    H3 5216   2.841   2.138  10.943 -0.0964 -1.3428  0.8089
  344MPD2     N 5217   2.893   2.057  10.500  0.4582 -0.2700  0.9643
  344MPD2    H5 5218   2.950   2.140  10.504  0.4630 -0.1980 -0.7992
  344MPD2    N1 5219   2.738   1.713  10.820  0.8429 -0.0249 -0.0990
  344MPD2    H7 5220   2.708   1.650  10.747 -0.1036  0.7593 -0.3827
  345TMC3    C1 5221   3.006   2.027  10.290  0.4249  0.1768 -0.5239
  345TMC3    C2 5222   3.121   2.022  10.367 -0.4581 -0.0912  0.3856
  345TMC3    C3 5223   3.215   2.113  10.366 -0.2493  0.1018 -0.3481
  345TMC3    C4 5224   2.991   2.140  10.215 -0.1913  0.3962  0.2677
  345TMC3    C5 5225   3.102   2.222  10.201  0.1126 -0.2600  0.5138
  345TMC3    C6 5226   3.210   2.213  10.274 -0.4224 -0.0395 -0.3168
  345TMC3     C 5227   2.884   1.992  10.377  0.6970  0.1131 -0.1339
  345TMC3     O 5228   2.824   1.888  10.346 -0.1154 -0.1804 -0.2765
  345TMC3     H 5229   3.112   1.953  10.450  0.1508 -0.3674  0.2181
  345TMC3    H1 5230   2.900   2.167  10.164 -0.1489 -1.0452 -0.5790
  345TMC3    H2 5231   3.277   2.298  10.274 -0.3477 -0.0995 -2.4069
  345TMC3    C7 5232   3.093   2.344  10.129  0.2930 -0.7616 -0.3792
  345TMC3    C8 5233   3.297   2.131  10.482 -0.2151 -0.7550  0.5984
  345TMC3    O1 5234   3.169   2.438  10.156 -0.3650  0.0241 -0.7321
  345TMC3    O2 5235   3.273   2.054  10.578 -0.1603 -0.2359  0.0707
  346MPD2     C 5236   3.186   3.274  13.475  0.5637 -0.7964  0.3799
  346MPD2    C1 5237   3.272   3.354  13.541  0.3513  0.4194  0.3575
  346MPD2    C2 5238   3.217   3.436  13.634  0.0888 -0.6148  0.3143
  346MPD2    C3 5239   3.086   3.431  13.678  0.6941  0.9098 -0.2521
  346MPD2    C4 5240   2.999   3.347  13.608 -0.3291  0.0298 -0.2003
  346MPD2    C5 5241   3.054   3.272  13.506 -0.1163 -0.1868 -0.4915
  346MPD2     H 5242   3.288   3.508  13.675 -0.3409  0.7984 -1.3930
  346MPD2    H1 5243   2.895   3.340  13.636  0.3637 -0.2073  2.3568
  346MPD2    H2 5244   3.224   3.223  13.387  0.5695  0.9186 -0.6070
  346MPD2    H3 5245   2.984   3.206  13.456 -0.5591 -0.2332  0.1804
  346MPD2     N 5246   3.061   3.509  13.795 -0.4488 -1.1879 -0.2011
  346MPD2    H5 5247   3.145   3.549  13.837  0.4462 -0.6026 -2.5045
  346MPD2    N1 5248   3.406   3.366  13.493 -0.4444  0.4238  0.1146
  346MPD2    H7 5249   3.469   3.437  13.529  0.5197 -0.5338  0.3405
  347TMC3    C1 5250   2.945   3.584  13.991  0.3800  0.0657  0.0625
  347TMC3    C2 5251   3.048   3.556  14.073 -0.3156 -0.8272  0.2600
  347TMC3    C3 5252   3.042   3.601  14.203 -1.0112 -0.2981  0.5502
  347TMC3    C4 5253   2.838   3.661  14.040 -0.7570  0.2239  1.0259
  347TMC3    C5 5254   2.841   3.707  14.173  0.2664  0.4314  0.0097
  347TMC3    C6 5255   2.943   3.681  14.256  1.6014 -0.1235  0.6673
  347TMC3     C 5256   2.939   3.525  13.856 -0.7324  1.0110 -0.1374
  347TMC3     O 5257   2.823   3.504  13.812 -0.4240  0.0215  0.1839
  347TMC3     H 5258   3.133   3.493  14.048 -0.7858 -1.3842  0.0629
  347TMC3    H1 5259   2.762   3.675  13.964 -2.9422  1.0022  3.3839
  347TMC3    H2 5260   2.941   3.704  14.362  0.7575  1.0164  0.3948
  347TMC3    C7 5261   2.739   3.798  14.221  0.2881  0.1176  0.3000
  347TMC3    C8 5262   3.155   3.569  14.279 -0.6364  0.7692 -0.5824
  347TMC3    O1 5263   2.622   3.776  14.180  0.0199 -0.0491  0.6987
  347TMC3    O2 5264   3.212   3.467  14.248 -0.2354  0.4357  0.3644
  348MPD2     C 5265   1.815   3.184  12.254 -0.2763  0.0569  0.6808
  348MPD2    C1 5266   1.804   3.095  12.148 -0.3867 -1.0347  0.0348
  348MPD2    C2 5267   1.883   3.112  12.031  1.0488 -0.0546 -0.7591
  348MPD2    C3 5268   1.970   3.218  12.031 -0.8362 -0.0047 -0.7220
  348MPD2    C4 5269   1.979   3.306  12.136 -0.1727  0.2594  0.3529
  348MPD2    C5 5270   1.889   3.293  12.238 -0.0074  0.3181 -0.0039
  348MPD2     H 5271   1.883   3.037  11.953 -3.0089  0.1002 -0.9479
  348MPD2    H1 5272   2.053   3.386  12.138  1.7778 -1.4291 -3.4523
  348MPD2    H2 5273   1.772   3.169  12.353  1.1686 -2.7214  0.8665
  348MPD2    H3 5274   1.905   3.359  12.323  0.6335  1.9095 -1.3597
  348MPD2     N 5275   2.053   3.221  11.920  0.6191  0.9527 -0.8164
  348MPD2    H5 5276   2.039   3.156  11.843  1.7995 -0.0212 -0.1933
  348MPD2    N1 5277   1.737   2.972  12.159 -0.3337  0.1586  0.3037
  348MPD2    H7 5278   1.726   2.916  12.075  1.0707 -0.7954  0.7726
  349TMC3    C1 5279   1.617   2.798  12.268  0.5605 -0.3106 -0.2278
  349TMC3    C2 5280   1.595   2.721  12.380 -0.0293 -0.1571  0.3275
  349TMC3    C3 5281   1.572   2.588  12.371  0.6791 -0.0038 -0.0820
  349TMC3    C4 5282   1.589   2.743  12.143  0.4005 -0.4674  0.2973
  349TMC3    C5 5283   1.565   2.610  12.134 -0.7760  0.0812  0.3434
  349TMC3    C6 5284   1.558   2.535  12.249 -0.1522 -0.8310 -0.0499
  349TMC3     C 5285   1.676   2.928  12.274 -0.5795  1.2348  0.1791
  349TMC3     O 5286   1.661   2.975  12.387 -0.0012 -0.0743  0.1827
  349TMC3     H 5287   1.627   2.757  12.478  0.7043 -1.7138  0.6693
  349TMC3    H1 5288   1.576   2.794  12.048 -1.6698 -1.7366 -0.0930
  349TMC3    H2 5289   1.513   2.437  12.239  3.4401 -2.7443  2.9241
  349TMC3    C7 5290   1.513   2.553  12.016 -0.4724 -0.4416 -0.1183
  349TMC3    C8 5291   1.638   2.503  12.467 -0.3777  0.3704 -0.7812
  349TMC3    O1 5292   1.419   2.471  12.022 -0.5519 -0.4012 -0.1240
  349TMC3    O2 5293   1.684   2.394  12.427  0.8724 -0.3430  0.5202
  350MPD2     C 5294   1.187   1.214  10.410  0.0483 -0.0865 -0.2902
  350MPD2    C1 5295   1.227   1.096  10.467  0.2830  0.7221 -0.5681
  350MPD2    C2 5296   1.325   1.098  10.559  0.9882 -0.5953  0.2218
  350MPD2    C3 5297   1.377   1.221  10.594  0.0456 -0.1205  0.1970
  350MPD2    C4 5298   1.344   1.341  10.531  0.2883 -0.0180 -0.4537
  350MPD2    C5 5299   1.257   1.334  10.431  0.0937  0.1153  0.0225
  350MPD2     H 5300   1.355   1.009  10.613  0.1090  0.2104  2.0495
  350MPD2    H1 5301   1.391   1.438  10.545 -0.2639  0.6468 -3.0738
  350MPD2    H2 5302   1.110   1.224  10.334 -1.6918 -3.3898  1.0718
  350MPD2    H3 5303   1.234   1.420  10.368  1.2630  0.2417 -0.2218
  350MPD2     N 5304   1.480   1.216  10.687 -0.0052  0.0182  0.2146
  350MPD2    H5 5305   1.519   1.127  10.715 -1.3806 -0.1903  1.4780
  350MPD2    N1 5306   1.175   0.974  10.442 -0.0002  1.0865 -0.0848
  350MPD2    H7 5307   1.225   0.890  10.470  0.5377  1.0100 -1.2713
  351TMC3    C1 5308   1.045   0.814  10.341 -0.2179  0.8890 -0.5539
  351TMC3    C2 5309   1.154   0.761  10.273  0.4718  0.1436  0.4609
  351TMC3    C3 5310   1.149   0.626  10.245  0.0980  0.3912 -0.4710
  351TMC3    C4 5311   0.937   0.742  10.383 -0.3757  0.1214  0.4024
  351TMC3    C5 5312   0.931   0.616  10.333 -0.0755  0.0072  0.0224
  351TMC3    C6 5313   1.041   0.553  10.270 -0.3460  0.2795 -0.4182
  351TMC3     C 5314   1.063   0.950  10.372  0.6309 -0.8108 -0.1520
  351TMC3     O 5315   0.979   1.031  10.337  0.1250  0.5978  0.1794
  351TMC3     H 5316   1.221   0.833  10.229 -1.5909  1.1896 -0.9923
  351TMC3    H1 5317   0.863   0.798  10.439 -2.1362 -0.2263 -1.5486
  351TMC3    H2 5318   1.022   0.448  10.247 -0.6969 -0.3442  2.6873
  351TMC3    C7 5319   0.805   0.551  10.375  0.2958 -0.5080 -0.0236
  351TMC3    C8 5320   1.240   0.583  10.139  0.1210 -0.2972  0.2377
  351TMC3    O1 5321   0.722   0.629  10.422 -0.2517 -0.0091 -0.3645
  351TMC3    O2 5322   1.312   0.672  10.096 -0.4811 -0.2756  0.8156
  352MPD2     C 5323   2.682   3.897   0.393  0.3671 -0.2952  0.8132
  352MPD2    C1 5324   2.757   3.878   0.279 -0.2270 -0.3924 -0.3823
  352MPD2    C2 5325   2.869   3.796   0.295 -0.0556  0.5371 -0.5245
  352MPD2    C3 5326   2.923   3.772   0.416  0.1136 -0.0479 -0.1459
  352MPD2    C4 5327   2.848   3.787   0.531  0.0150 -0.2575  0.7806
  352MPD2    C5 5328   2.731   3.852   0.517 -0.2546  0.2806 -0.3773
  352MPD2     H 5329   2.923   3.784   0.203  1.9398  1.0695  0.5717
  352MPD2    H1 5330   2.880   3.757   0.630  1.4686  1.0667  0.7185
  352MPD2    H2 5331   2.588   3.946   0.374  1.4330  1.0240 -1.1102
  352MPD2    H3 5332   2.665   3.867   0.601  1.5229  1.9912  0.6825
  352MPD2     N 5333   3.050   3.708   0.424 -0.6137 -0.3514  0.7443
  352MPD2    H5 5334   3.074   3.671   0.516 -0.2967 -0.0488  0.7829
  352MPD2    N1 5335   2.698   3.913   0.156 -0.1797  0.0012  0.1403
  352MPD2    H7 5336   2.632   3.990   0.162  0.6907  0.7882 -0.6459
  353TMC3    C1 5337   3.274   3.668   0.381 -0.2526  0.5179 -0.4869
  353TMC3    C2 5338   3.381   3.723   0.315  0.3024  0.0164  0.9597
  353TMC3    C3 5339   3.506   3.679   0.358  0.4240 -0.3257 -0.4027
  353TMC3    C4 5340   3.285   3.579   0.474  0.2175  0.3828  0.0586
  353TMC3    C5 5341   3.407   3.539   0.515 -0.2793  0.3196 -0.0846
  353TMC3    C6 5342   3.519   3.591   0.459  0.4203 -0.2491  0.4019
  353TMC3     C 5343   3.148   3.711   0.330  0.5360  0.0075  0.4252
  353TMC3     O 5344   3.150   3.768   0.222  0.6089  0.4862  0.3456
  353TMC3     H 5345   3.379   3.803   0.242  0.0021 -1.7021 -0.8945
  353TMC3    H1 5346   3.196   3.527   0.506  0.9531  1.1168  3.3079
  353TMC3    H2 5347   3.613   3.575   0.511  0.8727 -0.3147 -0.4376
  353TMC3    C7 5348   3.419   3.422   0.608 -0.4866  0.8229 -0.2322
  353TMC3    C8 5349   3.619   3.730   0.290 -0.7080 -0.5847  0.3451
  353TMC3    O1 5350   3.529   3.368   0.607  0.2394  0.0270  0.4815
  353TMC3    O2 5351   3.613   3.831   0.219 -0.4604  0.3895  0.3706
  354TMC3    C1 5352   0.588   4.189  13.377 -0.0003  0.0421  1.0357
  354TMC3    C2 5353   0.567   4.320  13.348 -0.6269 -0.1103  0.1405
  354TMC3    C3 5354   0.600   4.361  13.217 -0.2925 -0.1104  0.2813
  354TMC3    C4 5355   0.630   4.098  13.283  0.6043  0.2630  0.2796
  354TMC3    C5 5356   0.669   4.142  13.158 -0.1078  0.3925  0.8858
  354TMC3    C6 5357   0.655   4.274  13.127  0.4707 -0.0048  0.2183
  354TMC3     C 5358   0.605   4.142  13.517  0.4817  0.4519  0.2913
  354TMC3     O 5359   0.631   4.021  13.534  0.0619 -0.0721  0.7785
  354TMC3     H 5360   0.541   4.397  13.420  2.1196  2.1508 -1.2412
  354TMC3    H1 5361   0.672   4.005  13.319 -0.2708 -1.3532 -2.8284
  354TMC3    H2 5362   0.692   4.307  13.031  0.9449 -2.1719 -0.3371
  354TMC3    C7 5363   0.766   4.061  13.096 -0.5250 -0.4205 -0.0786
  354TMC3    C8 5364   0.615   4.499  13.182  0.9490 -0.7086 -0.8930
  354TMC3    O1 5365   0.748   3.942  13.114  0.2339 -0.6124 -0.0378
  354TMC3    O2 5366   0.588   4.521  13.068 -0.1670 -0.7394  0.7285
  355MPD2     C 5367   1.119   0.128  12.065 -1.1182 -0.4567 -0.7074
  355MPD2    C1 5368   1.240   0.125  11.995  0.6289  0.2083 -0.2281
  355MPD2    C2 5369   1.339   0.214  12.024  0.5100  0.0368 -0.1085
  355MPD2    C3 5370   1.320   0.315  12.110 -0.2800  0.3656 -0.8068
  355MPD2    C4 5371   1.199   0.325  12.176  0.3069  0.0880  0.0559
  355MPD2    C5 5372   1.100   0.235  12.150  0.4579  0.0546 -0.0464
  355MPD2     H 5373   1.426   0.200  11.961  0.6518  0.4234  0.0021
  355MPD2    H1 5374   1.177   0.411  12.239 -0.5847  1.4304 -2.1021
  355MPD2    H2 5375   1.041   0.056  12.044  1.0267 -2.5748 -1.4976
  355MPD2    H3 5376   1.004   0.257  12.194  0.7670  0.8224  0.2408
  355MPD2     N 5377   1.411   0.423  12.124 -0.0974  0.5449  0.2268
  355MPD2    H5 5378   1.383   0.507  12.172 -0.9675  0.6589 -0.4773
  355MPD2    N1 5379   1.248   0.027  11.893  0.6285 -0.4884  0.3664
  355MPD2    H7 5380   1.186   4.687  11.916  3.2215 -1.8849  2.6816
  356TMC3    C1 5381   1.574   0.584  12.047  0.3219  0.3219 -0.1837
  356TMC3    C2 5382   1.676   0.608  11.958 -0.0880  0.4578 -0.2028
  356TMC3    C3 5383   1.732   0.733  11.962  0.2794 -0.6246 -0.1313
  356TMC3    C4 5384   1.530   0.678  12.139  0.7130 -0.0820 -0.1627
  356TMC3    C5 5385   1.590   0.801  12.134  0.4310 -0.0773 -0.1284
  356TMC3    C6 5386   1.688   0.835  12.041 -0.1032  0.0499 -0.2882
  356TMC3     C 5387   1.517   0.449  12.039  0.2179  0.3410 -0.3040
  356TMC3     O 5388   1.557   0.379  11.950 -0.0921  0.2474  0.5469
  356TMC3     H 5389   1.725   0.526  11.905  0.2346  2.0021 -2.2677
  356TMC3    H1 5390   1.460   0.652  12.218  1.7316 -0.0911  0.7345
  356TMC3    H2 5391   1.728   0.936  12.034 -2.2849  0.6881 -3.4516
  356TMC3    C7 5392   1.524   0.912  12.213  0.2398 -0.0421  0.1484
  356TMC3    C8 5393   1.846   0.744  11.872  0.1160 -0.1411  0.7189
  356TMC3    O1 5394   1.417   0.886  12.263 -0.0468 -0.1855 -0.0858
  356TMC3    O2 5395   1.863   0.647  11.806 -0.2127  0.2316 -0.5465
  357MPD2     C 5396   0.327   0.682   0.218 -0.1667  0.2682  0.1809
  357MPD2    C1 5397   0.331   0.546   0.239  0.4299 -0.7343 -0.0375
  357MPD2    C2 5398   0.264   0.467   0.155 -0.1690  0.3925  0.2851
  357MPD2    C3 5399   0.190   0.523   0.049 -0.3312 -0.4820 -0.3413
  357MPD2    C4 5400   0.186   0.661   0.032  0.3171  0.2220 -0.1069
  357MPD2    C5 5401   0.262   0.739   0.113 -0.6595 -0.0530  0.7987
  357MPD2     H 5402   0.265   0.359   0.166 -1.0498  0.3600  0.0872
  357MPD2    H1 5403   0.116   0.705  17.705  0.7911  0.6525 -0.3136
  357MPD2    H2 5404   0.377   0.754   0.282  0.0896 -0.9061  1.3198
  357MPD2    H3 5405   0.266   0.846   0.104  1.2755  0.0047  2.4075
  357MPD2     N 5406   0.112   0.448  17.706 -0.0193 -0.1815 -0.2308
  357MPD2    H5 5407   0.059   0.500  17.637  2.3746 -0.1814 -2.0641
  357MPD2    N1 5408   0.401   0.503   0.355 -0.2811  0.8539  0.1969
  357MPD2    H7 5409   0.444   0.583   0.400  0.3497  0.8697 -0.4208
  358TMC3    C1 5410   0.505   0.355   0.508  0.0451  0.1936 -0.1206
  358TMC3    C2 5411   0.569   0.235   0.511  0.0100 -0.0814 -0.5774
  358TMC3    C3 5412   0.594   0.181   0.638 -0.0414  0.0402 -0.3138
  358TMC3    C4 5413   0.470   0.417   0.620  0.0408  0.0629 -0.2054
  358TMC3    C5 5414   0.493   0.368   0.742 -0.9844  0.1002 -0.1053
  358TMC3    C6 5415   0.554   0.243   0.755  0.3480 -0.6386 -0.2206
  358TMC3     C 5416   0.424   0.371   0.386 -0.2342 -0.0746  0.0406
  358TMC3     O 5417   0.399   0.268   0.323  0.2357 -0.7554 -0.0688
  358TMC3     H 5418   0.595   0.181   0.420 -0.7523 -0.8571 -0.3275
  358TMC3    H1 5419   0.413   0.509   0.610  0.9591  0.5454 -1.0109
  358TMC3    H2 5420   0.552   0.188   0.849 -2.4301  0.9328  0.6237
  358TMC3    C7 5421   0.422   0.432   0.853 -0.3545  0.0557  1.1316
  358TMC3    C8 5422   0.619   0.044   0.652 -0.2007  0.8027 -0.2982
  358TMC3    O1 5423   0.323   0.494   0.825 -0.3209  0.6537  0.4973
  358TMC3    O2 5424   0.691   0.004   0.738  0.5651 -0.3336  0.0080
  359MPD2     C 5425   1.056   3.798  12.200 -0.1462 -0.6123 -0.7912
  359MPD2    C1 5426   1.140   3.691  12.239  0.5325 -0.8410 -0.3452
  359MPD2    C2 5427   1.082   3.574  12.287 -0.1645 -0.4761 -0.3472
  359MPD2    C3 5428   0.947   3.571  12.321 -0.1247  0.1517 -0.7995
  359MPD2    C4 5429   0.872   3.677  12.284  0.3358 -0.3038 -0.0779
  359MPD2    C5 5430   0.921   3.783  12.214 -0.4009 -0.0705 -0.0988
  359MPD2     H 5431   1.143   3.486  12.303  0.6539  0.1569  0.0525
  359MPD2    H1 5432   0.765   3.667  12.290 -0.0933  1.9633 -4.0537
  359MPD2    H2 5433   1.087   3.890  12.151  0.2750  0.3910  1.3524
  359MPD2    H3 5434   0.846   3.856  12.183  1.7196  2.7192  1.3489
  359MPD2     N 5435   0.881   3.464  12.381  0.2118 -0.2884  0.4619
  359MPD2    H5 5436   0.782   3.476  12.401  0.5785  2.0498  0.9234
  359MPD2    N1 5437   1.280   3.682  12.217  0.2225 -0.4506 -0.1701
  359MPD2    H7 5438   1.331   3.607  12.264 -0.1622  0.4774  1.7155
  360TMC3    C1 5439   1.501   3.739  12.135  0.5371 -0.1054  0.2897
  360TMC3    C2 5440   1.582   3.839  12.175  0.2924  0.7033  0.2300
  360TMC3    C3 5441   1.706   3.798  12.187 -0.1742  0.4182  0.2933
  360TMC3    C4 5442   1.537   3.609  12.137  0.0120  0.0519  0.3080
  360TMC3    C5 5443   1.666   3.571  12.166 -0.3292 -0.4666 -0.0878
  360TMC3    C6 5444   1.750   3.670  12.187  0.2523 -0.3710  0.2815
  360TMC3     C 5445   1.358   3.773  12.143 -0.5493  0.3068  0.0317
  360TMC3     O 5446   1.321   3.863  12.068  0.3863 -0.3091  0.3752
  360TMC3     H 5447   1.545   3.940  12.190 -1.2884 -0.3261  3.1590
  360TMC3    H1 5448   1.455   3.541  12.118 -0.5609 -0.2050  3.6466
  360TMC3    H2 5449   1.854   3.651  12.207 -0.2305 -1.1496  2.0670
  360TMC3    C7 5450   1.707   3.506  12.044  0.0250  0.8617 -0.4122
  360TMC3    C8 5451   1.804   3.909  12.206 -0.1053  0.0195 -0.1720
  360TMC3    O1 5452   1.785   3.569  11.972 -0.9683  0.0544 -0.6963
  360TMC3    O2 5453   1.745   4.006  12.252 -0.3099  0.0575  0.2718
  361MPD2     C 5454   3.214   2.626  16.639  0.4686 -0.6220 -0.8142
  361MPD2    C1 5455   3.188   2.689  16.763 -0.5735 -0.0245  0.4410
  361MPD2    C2 5456   3.272   2.675  16.873  0.2929 -0.0558 -0.1000
  361MPD2    C3 5457   3.391   2.605  16.854  0.2890  0.3095 -0.0129
  361MPD2    C4 5458   3.414   2.550  16.726  0.5076 -0.0800  0.3592
  361MPD2    C5 5459   3.329   2.558  16.625  0.8950 -0.2827  0.0047
  361MPD2     H 5460   3.258   2.728  16.966  1.8164  1.8173 -0.9317
  361MPD2    H1 5461   3.505   2.496  16.703 -0.3247 -1.7693  1.0481
  361MPD2    H2 5462   3.152   2.647  16.552 -0.2973 -2.4827 -0.7145
  361MPD2    H3 5463   3.349   2.514  16.527 -2.1192  0.4164 -0.9384
  361MPD2     N 5464   3.479   2.574  16.958  0.0436 -0.0997  0.3813
  361MPD2    H5 5465   3.561   2.515  16.948  1.6051  2.4043 -1.4311
  361MPD2    N1 5466   3.071   2.775  16.780  0.1195  0.5331  0.0633
  361MPD2    H7 5467   3.009   2.797  16.703 -2.4499 -2.0398  1.3528
  362TMC3    C1 5468   2.896   2.875  16.882  0.6266  0.1562  0.3304
  362TMC3    C2 5469   2.807   2.860  16.985 -0.2135  1.1105  0.9890
  362TMC3    C3 5470   2.679   2.891  16.953 -0.5291 -0.1365  0.4423
  362TMC3    C4 5471   2.854   2.907  16.752  0.3031 -0.9325  0.5662
  362TMC3    C5 5472   2.721   2.905  16.727 -0.1891  0.5321  0.4112
  362TMC3    C6 5473   2.626   2.906  16.828 -0.2267 -0.6642  0.1358
  362TMC3     C 5474   3.024   2.816  16.904  0.3073 -0.1915  0.0950
  362TMC3     O 5475   3.071   2.822  17.017 -0.1431 -0.1705 -0.4555
  362TMC3     H 5476   2.845   2.844  17.085  1.7581  0.8245  0.2088
  362TMC3    H1 5477   2.924   2.934  16.674  0.8652 -0.4816  1.2222
  362TMC3    H2 5478   2.521   2.922  16.807 -0.6505  1.3838  3.8155
  362TMC3    C7 5479   2.683   2.942  16.591 -0.3711 -0.1824  0.4089
  362TMC3    C8 5480   2.578   2.898  17.060 -0.2207  0.0647 -0.0125
  362TMC3    O1 5481   2.757   3.016  16.525 -0.0907 -0.0426  0.1413
  362TMC3    O2 5482   2.593   2.835  17.163  0.3226  0.1616 -0.1049
  363TMC3    C1 5483   2.613   1.051   9.524  0.3803 -0.6115  0.3294
  363TMC3    C2 5484   2.657   0.970   9.634  0.4788  0.5866  0.4764
  363TMC3    C3 5485   2.751   1.015   9.721  0.4058  0.3387 -0.3264
  363TMC3    C4 5486   2.645   1.175   9.522 -0.1513 -0.2714  0.0313
  363TMC3    C5 5487   2.727   1.221   9.620  0.9338 -0.0817  0.6167
  363TMC3    C6 5488   2.789   1.146   9.711 -0.5570  0.2559 -0.4360
  363TMC3     C 5489   2.514   0.994   9.441 -0.2321  0.0089  0.1963
  363TMC3     O 5490   2.445   1.071   9.377  0.1946  0.3792  0.0447
  363TMC3     H 5491   2.600   0.882   9.662  1.7919 -0.4107  0.0059
  363TMC3    H1 5492   2.587   1.239   9.456  1.4724 -1.1930 -2.2927
  363TMC3    H2 5493   2.840   1.188   9.797  0.1867 -2.4713  0.4288
  363TMC3    C7 5494   2.777   1.356   9.598  0.0878 -0.0264  0.3706
  363TMC3    C8 5495   2.792   0.943   9.845  0.0459  0.3432  0.3569
  363TMC3    O1 5496   2.819   1.415   9.696  0.4268  0.3935  0.1858
  363TMC3    O2 5497   2.854   1.001   9.931  0.1900 -0.0420  0.4414
  364MPD2     C 5498   0.848   4.302  10.598  0.1376  0.7860 -0.4934
  364MPD2    C1 5499   0.967   4.274  10.539  0.0524 -0.3523 -0.0549
  364MPD2    C2 5500   1.026   4.146  10.571  0.7732  0.7503  0.6542
  364MPD2    C3 5501   0.966   4.059  10.652  0.3095  0.2488 -0.4226
  364MPD2    C4 5502   0.856   4.100  10.724  0.4490 -0.7968 -0.1077
  364MPD2    C5 5503   0.790   4.213  10.692  0.0923 -0.1623  0.1811
  364MPD2     H 5504   1.125   4.123  10.532  0.2611 -2.3713  1.2153
  364MPD2    H1 5505   0.811   4.034  10.797  0.1005 -0.2484  0.1710
  364MPD2    H2 5506   0.791   4.390  10.573 -1.2296  0.3259  0.9488
  364MPD2    H3 5507   0.694   4.243  10.732  0.5631 -1.2473  2.1054
  364MPD2     N 5508   1.014   3.932  10.680 -0.3304 -1.0099  0.8434
  364MPD2    H5 5509   0.977   3.892  10.766  0.4514 -2.0081  0.7173
  364MPD2    N1 5510   1.028   4.381  10.468  0.3541 -0.9755  0.1873
  364MPD2    H7 5511   0.977   4.469  10.469  0.5108 -0.9027  1.9429
  365TMC3    C1 5512   1.182   4.493  10.317  0.6310  0.3169  0.2126
  365TMC3    C2 5513   1.256   4.473  10.203  0.3469 -0.2433  0.2990
  365TMC3    C3 5514   1.317   4.579  10.137  0.4596 -0.6443 -0.3994
  365TMC3    C4 5515   1.169   4.610  10.373 -0.1269  0.3078 -0.8913
  365TMC3    C5 5516   1.226   4.721  10.305  0.0453 -0.7759  0.0610
  365TMC3    C6 5517   1.295   4.705  10.189  0.0169  0.3939 -0.0198
  365TMC3     C 5518   1.142   4.372  10.388 -0.3865 -0.2405 -0.4561
  365TMC3     O 5519   1.210   4.273  10.371 -0.1340 -0.1455  0.3974
  365TMC3     H 5520   1.266   4.372  10.166  0.8984  0.3569 -1.2101
  365TMC3    H1 5521   1.125   4.610  10.472  0.4830  4.0384 -0.6348
  365TMC3    H2 5522   1.363   0.041  10.144  0.9269 -0.3753  0.1251
  365TMC3    C7 5523   1.189   0.121  10.353 -0.0411  0.4593 -0.2287
  365TMC3    C8 5524   1.423   4.565  10.036 -0.5249 -0.3022 -0.4774
  365TMC3    O1 5525   1.233   0.218  10.293  0.2895 -0.8179 -0.1646
  365TMC3    O2 5526   1.514   4.651  10.036 -0.3844 -0.5215 -0.1111
  366MPD2     C 5527   3.303   0.959  15.180 -0.7561 -0.3540  0.5634
  366MPD2    C1 5528   3.376   1.074  15.155 -0.7776  1.1289 -0.2116
  366MPD2    C2 5529   3.454   1.087  15.046 -0.0577  0.1050  0.2721
  366MPD2    C3 5530   3.484   0.979  14.967  0.0354 -0.3379 -0.1626
  366MPD2    C4 5531   3.424   0.855  14.998  0.2731  0.4311  0.2322
  366MPD2    C5 5532   3.328   0.851  15.100 -0.1560  0.1033  0.2609
  366MPD2     H 5533   3.502   1.184  15.037  0.8133 -0.6531 -3.2627
  366MPD2    H1 5534   3.448   0.761  14.950  0.4663  0.5132  0.1654
  366MPD2    H2 5535   3.241   0.957  15.269  0.2557 -1.1783  1.2436
  366MPD2    H3 5536   3.281   0.753  15.110 -0.1411 -0.0640 -1.3257
  366MPD2     N 5537   3.580   0.997  14.872  0.3893  0.0423 -1.1338
  366MPD2    H5 5538   3.614   1.092  14.869  2.6058 -0.8219 -3.2931
  366MPD2    N1 5539   3.370   1.189  15.233 -0.0108  0.1867 -0.3748
  366MPD2    H7 5540   3.432   1.267  15.213 -0.3735 -0.5143 -4.1872
  367TMC3    C1 5541   3.305   1.341  15.389  0.4958 -0.1130 -0.3391
  367TMC3    C2 5542   3.427   1.373  15.423 -0.7048 -0.3653 -0.1767
  367TMC3    C3 5543   3.448   1.509  15.440  0.0662  0.4613 -0.2277
  367TMC3    C4 5544   3.201   1.430  15.369 -0.3279  0.7742  0.2734
  367TMC3    C5 5545   3.223   1.564  15.410 -0.1453  0.2129 -0.3155
  367TMC3    C6 5546   3.351   1.607  15.441 -0.4957  0.4010 -0.5357
  367TMC3     C 5547   3.289   1.202  15.345 -0.5326 -0.0744 -0.6314
  367TMC3     O 5548   3.188   1.142  15.381  0.8865  0.4842  0.0829
  367TMC3     H 5549   3.506   1.299  15.416  1.8391  2.3938 -0.5454
  367TMC3    H1 5550   3.110   1.385  15.332  0.1764 -0.2208  0.2554
  367TMC3    H2 5551   3.373   1.708  15.472  2.1293 -0.2689 -0.2379
  367TMC3    C7 5552   3.120   1.663  15.376 -0.1615  0.0163 -0.1913
  367TMC3    C8 5553   3.588   1.549  15.475  0.0259 -0.2819 -0.6449
  367TMC3    O1 5554   3.157   1.780  15.385  0.6917  0.3359 -0.2505
  367TMC3    O2 5555   3.667   1.456  15.493 -0.8427 -0.1693  0.1922
  368MPD2     C 5556   4.722   2.491  13.120 -0.3756 -0.5019 -0.2714
  368MPD2    C1 5557   0.013   2.524  12.985  0.5292 -0.9277  0.6191
  368MPD2    C2 5558   0.127   2.464  12.927 -0.3378 -0.2237 -0.1864
  368MPD2    C3 5559   0.216   2.381  13.001  0.5778 -0.3479  0.5131
  368MPD2    C4 5560   0.192   2.366  13.133 -0.6269 -0.3086  0.2268
  368MPD2    C5 5561   0.076   2.414  13.186 -0.1746 -0.1065 -0.0633
  368MPD2     H 5562   0.159   2.495  12.828 -1.4813  0.1114 -0.4531
  368MPD2    H1 5563   0.259   2.303  13.189  0.4941  0.2328 -0.4989
  368MPD2    H2 5564   4.635   2.529  13.171  1.6097  0.8805  2.0591
  368MPD2    H3 5565   0.067   2.390  13.291  2.3210  0.2980  0.2577
  368MPD2     N 5566   0.330   2.323  12.947 -0.5501  0.3153  0.1881
  368MPD2    H5 5567   0.386   2.271  13.014  0.2550  0.0206 -0.7133
  368MPD2    N1 5568   4.660   2.616  12.921  0.0052 -0.4262  0.6778
  368MPD2    H7 5569   4.571   2.640  12.965 -0.8379 -1.7458 -0.2814
  369TMC3    C1 5570   4.585   2.754  12.743 -0.1598  0.0601  0.1988
  369TMC3    C2 5571   4.620   2.871  12.681  0.0447 -0.0873 -0.1606
  369TMC3    C3 5572   4.523   2.968  12.656  0.9282  0.4854 -0.6160
  369TMC3    C4 5573   4.453   2.728  12.775  0.6762 -0.2813  0.1362
  369TMC3    C5 5574   4.357   2.828  12.763  0.3349  0.4559 -0.1108
  369TMC3    C6 5575   4.394   2.945  12.698 -1.0916 -0.1068 -0.1432
  369TMC3     C 5576   4.689   2.667  12.795 -0.1306  0.0851 -0.1408
  369TMC3     O 5577   0.061   2.682  12.742 -0.0184  0.6344 -0.3531
  369TMC3     H 5578   4.723   2.880  12.649  0.6451 -0.9967  1.4942
  369TMC3    H1 5579   4.418   2.634  12.817 -0.0609  0.5303  1.3302
  369TMC3    H2 5580   4.317   3.018  12.676  1.3914  1.8078 -2.5223
  369TMC3    C7 5581   4.238   2.822  12.847  0.0732  0.0021 -0.2102
  369TMC3    C8 5582   4.556   3.093  12.595 -0.4716  0.1822 -0.2891
  369TMC3    O1 5583   4.244   2.756  12.947  0.0357 -0.1727  0.8218
  369TMC3    O2 5584   4.460   3.167  12.580 -0.5195  0.4081  0.0176
  370TMC3    C1 5585   4.329   3.797  16.094 -0.2963 -0.1523  0.3986
  370TMC3    C2 5586   4.274   3.741  16.210 -0.3098  0.5060  0.2326
  370TMC3    C3 5587   4.240   3.611  16.205  0.0700  0.0882 -0.3218
  370TMC3    C4 5588   4.344   3.730  15.978  0.3282 -0.1207  0.2987
  370TMC3    C5 5589   4.311   3.594  15.981 -0.2573  0.4561  0.1584
  370TMC3    C6 5590   4.253   3.536  16.092 -0.1822 -0.3943 -0.3536
  370TMC3     C 5591   4.393   3.927  16.109  1.1345 -0.1489  0.3542
  370TMC3     O 5592   4.383   3.972  16.223  0.1683 -0.4072 -0.4977
  370TMC3     H 5593   4.250   3.805  16.294 -0.8795 -0.0397  0.4870
  370TMC3    H1 5594   4.391   3.768  15.888  0.5831 -2.2915 -0.4990
  370TMC3    H2 5595   4.226   3.432  16.099  0.4281 -0.6750 -2.3900
  370TMC3    C7 5596   4.363   3.510  15.869  0.5881  0.4257 -0.1700
  370TMC3    C8 5597   4.171   3.543  16.319  0.4169 -0.1362  0.3547
  370TMC3    O1 5598   4.366   3.572  15.762  0.1044  0.6414 -0.1108
  370TMC3    O2 5599   4.122   3.432  16.304  0.4378 -0.3290 -0.1386
  371TMC3    C1 5600   0.732   1.884  15.250  0.4446 -0.2816  0.9402
  371TMC3    C2 5601   0.625   1.895  15.327  0.2058 -0.2854 -0.2959
  371TMC3    C3 5602   0.593   2.014  15.378 -0.8031  0.5955  0.5679
  371TMC3    C4 5603   0.815   1.986  15.221 -0.0795  0.7709  0.5400
  371TMC3    C5 5604   0.781   2.101  15.282 -0.6507 -0.0553  0.7831
  371TMC3    C6 5605   0.669   2.119  15.354  0.2985  0.4601 -0.2646
  371TMC3     C 5606   0.784   1.754  15.241  0.1051 -0.2453  0.0400
  371TMC3     O 5607   0.873   1.734  15.158  0.5946  0.3183  0.5397
  371TMC3     H 5608   0.552   1.815  15.327  0.7501 -0.7807  1.1258
  371TMC3    H1 5609   0.903   1.965  15.162 -0.3527 -1.5138  0.9562
  371TMC3    H2 5610   0.663   2.210  15.412 -1.4718  0.6406 -0.7283
  371TMC3    C7 5611   0.822   2.219  15.216  0.2750 -0.2510 -0.3977
  371TMC3    C8 5612   0.481   2.016  15.474  0.0167 -0.2186  0.4627
  371TMC3    O1 5613   0.736   2.304  15.223 -0.0129  0.2153 -0.5343
  371TMC3    O2 5614   0.437   1.904  15.501 -0.2546  0.1659  0.0105
  372MPD2     C 5615   4.558   2.944  13.128 -0.2296  0.0311 -0.3119
  372MPD2    C1 5616   4.641   2.858  13.200  0.2589 -0.1745 -0.1344
  372MPD2    C2 5617   4.594   2.799  13.314 -0.3404 -0.0785  0.0316
  372MPD2    C3 5618   4.467   2.806  13.353 -0.2171 -0.5050  0.3657
  372MPD2    C4 5619   4.376   2.880  13.273 -0.1601 -0.3588 -0.0422
  372MPD2    C5 5620   4.422   2.944  13.160 -0.1463 -0.6180  0.0325
  372MPD2     H 5621   4.661   2.745  13.380 -0.4945 -0.5867 -0.2296
  372MPD2    H1 5622   4.270   2.873  13.294  0.0086 -2.4380  0.1316
  372MPD2    H2 5623   4.592   3.006  13.046 -1.4630  0.7296 -0.2908
  372MPD2    H3 5624   4.350   3.005  13.107  1.7578 -0.4766 -2.4225
  372MPD2     N 5625   4.428   2.747  13.471 -0.8753  0.0242 -0.3449
  372MPD2    H5 5626   4.495   2.719  13.542 -1.1235  1.8529  0.6072
  372MPD2    N1 5627   0.040   2.831  13.168  0.2786  0.0325  0.1888
  372MPD2    H7 5628   0.086   2.772  13.237 -1.2805 -1.9097 -0.4337
  373TMC3    C1 5629   4.311   2.688  13.655  0.8532  0.2706 -0.5174
  373TMC3    C2 5630   4.391   2.761  13.741 -0.1774 -0.6120 -0.4553
  373TMC3    C3 5631   4.399   2.707  13.870  0.1780 -1.2720 -0.0283
  373TMC3    C4 5632   4.284   2.557  13.668 -0.1215  0.7552  0.0508
  373TMC3    C5 5633   4.314   2.503  13.788 -0.3117 -0.3444  0.4836
  373TMC3    C6 5634   4.365   2.575  13.890 -0.2314  0.1937 -0.1097
  373TMC3     C 5635   4.302   2.727  13.516 -0.0766 -0.5352 -0.9378
  373TMC3     O 5636   4.192   2.730  13.459 -0.6689 -0.1053  0.1490
  373TMC3     H 5637   4.431   2.861  13.728  1.2007 -0.9639  1.0024
  373TMC3    H1 5638   4.248   2.497  13.586  0.3281 -1.8527  1.7701
  373TMC3    H2 5639   4.379   2.531  13.988 -0.4285  0.8277  0.2049
  373TMC3    C7 5640   4.365   2.365  13.770 -0.7873  0.2167  0.4208
  373TMC3    C8 5641   4.486   2.768  13.965 -0.2813 -0.5389  0.4734
  373TMC3    O1 5642   4.339   2.312  13.666 -0.1821 -0.2061 -0.1724
  373TMC3    O2 5643   4.581   2.821  13.911 -0.0111 -0.1272  0.7122
  374TMC3    C1 5644   1.273   2.815   9.897  0.4613 -0.0165  0.3695
  374TMC3    C2 5645   1.392   2.876   9.924  0.1294 -0.6494  0.7554
  374TMC3    C3 5646   1.441   2.950   9.818  0.2758  0.8466 -0.9894
  374TMC3    C4 5647   1.212   2.811   9.779  0.8811 -0.3613  0.7716
  374TMC3    C5 5648   1.267   2.871   9.673  0.1685  0.1706 -0.1315
  374TMC3    C6 5649   1.375   2.954   9.696 -1.0834 -0.1824  0.3635
  374TMC3     C 5650   1.218   2.729  10.000 -0.0557 -0.6595 -0.1620
  374TMC3     O 5651   1.098   2.710  10.002  0.4758  0.5570 -0.4477
  374TMC3     H 5652   1.439   2.862  10.020 -0.6302  1.5945  1.4477
  374TMC3    H1 5653   1.119   2.756   9.778 -0.0754  1.2712  0.8292
  374TMC3    H2 5654   1.417   3.011   9.614 -0.6699  1.6855  1.8779
  374TMC3    C7 5655   1.220   2.838   9.540 -0.6613 -0.2298  0.5380
  374TMC3    C8 5656   1.579   3.002   9.816  0.1921 -0.1007  0.5605
  374TMC3    O1 5657   1.140   2.744   9.527 -0.5277 -0.3032  0.3050
  374TMC3    O2 5658   1.630   3.013   9.706  0.5406  0.3372 -0.1230
  375MPD2     C 5659   1.037   4.713  16.869 -0.4535 -0.5318 -0.3077
  375MPD2    C1 5660   0.937   4.625  16.837  0.0256  0.1141  0.4194
  375MPD2    C2 5661   0.984   4.510  16.779  0.0923 -0.0612 -0.7358
  375MPD2    C3 5662   1.113   4.488  16.740  0.2817  0.0742 -0.3755
  375MPD2    C4 5663   1.212   4.585  16.773  0.1255 -0.6466  0.0089
  375MPD2    C5 5664   1.171   4.695  16.839 -0.3342 -0.2981 -0.1174
  375MPD2     H 5665   0.912   4.431  16.762 -3.5045  3.0493  0.2467
  375MPD2    H1 5666   1.319   4.578  16.753  0.1362 -1.0127  0.1850
  375MPD2    H2 5667   1.006   0.071  16.913  1.0412 -1.5794  2.9985
  375MPD2    H3 5668   1.241   0.036  16.871 -1.2644 -0.9811  3.6268
  375MPD2     N 5669   1.144   4.356  16.682 -0.1813 -0.4647 -0.5266
  375MPD2    H5 5670   1.241   4.325  16.678 -0.2107 -0.6644  0.3180
  375MPD2    N1 5671   0.799   4.643  16.851  0.1232  0.5451  0.5597
  375MPD2    H7 5672   0.738   4.566  16.829  2.1116 -0.5649 -1.0565
  376TMC3    C1 5673   1.111   4.145  16.577 -0.8229  0.6567 -0.1053
  376TMC3    C2 5674   1.231   4.113  16.621 -0.3921 -0.1275  0.2350
  376TMC3    C3 5675   1.258   3.978  16.644  0.2866  0.4898  0.0743
  376TMC3    C4 5676   1.022   4.049  16.532 -0.5779 -0.3806 -0.1530
  376TMC3    C5 5677   1.056   3.920  16.551  0.2970  0.2162 -0.3812
  376TMC3    C6 5678   1.163   3.881  16.621 -0.1436  0.2913  0.2469
  376TMC3     C 5679   1.053   4.271  16.619  0.3406  0.2780  0.1023
  376TMC3     O 5680   0.944   4.294  16.574 -0.1764 -0.2762  0.3723
  376TMC3     H 5681   1.313   4.183  16.618 -1.1271  0.7221  0.1522
  376TMC3    H1 5682   0.922   4.072  16.495 -0.2611  0.3166 -0.5963
  376TMC3    H2 5683   1.194   3.777  16.625 -1.8927 -0.2497 -0.1914
  376TMC3    C7 5684   1.012   3.821  16.454 -0.6085 -0.5650 -0.7687
  376TMC3    C8 5685   1.391   3.939  16.599 -0.2448  0.4162  0.0546
  376TMC3    O1 5686   0.992   3.702  16.479 -0.0250 -0.0470  0.3767
  376TMC3    O2 5687   1.434   4.008  16.504 -0.2999 -0.4868  0.5589
  377MPD2     C 5688   4.205   3.380  12.240 -0.0636 -0.5167  0.1834
  377MPD2    C1 5689   4.218   3.254  12.281 -0.5483  0.0495  0.3139
  377MPD2    C2 5690   4.116   3.194  12.349 -0.1879 -0.0346 -0.5872
  377MPD2    C3 5691   3.999   3.271  12.377 -0.1608 -0.4407  0.3101
  377MPD2    C4 5692   3.985   3.396  12.326  0.0603 -0.1680  0.6619
  377MPD2    C5 5693   4.089   3.449  12.256  0.0107  0.8909  0.5447
  377MPD2     H 5694   4.123   3.089  12.376 -1.1821  0.7153  2.6638
  377MPD2    H1 5695   3.892   3.452  12.338  0.2496  0.2834  0.0324
  377MPD2    H2 5696   4.286   3.433  12.191  0.9782  0.2703  2.7616
  377MPD2    H3 5697   4.085   3.551  12.220  0.1517  0.7879  0.2419
  377MPD2     N 5698   3.875   3.210  12.413  0.7889  0.2020  0.5305
  377MPD2    H5 5699   3.792   3.268  12.420  3.1040  3.5552  0.3549
  377MPD2    N1 5700   4.341   3.196  12.250 -0.3805  0.2929 -0.1121
  377MPD2    H7 5701   4.399   3.257  12.194 -0.4748  0.7661  0.3055
  378TMC3    C1 5702   4.628   3.190  12.060  0.0387 -0.0632 -0.3051
  378TMC3    C2 5703   4.572   3.178  12.182  0.0875 -0.2158  0.0445
  378TMC3    C3 5704   4.522   3.058  12.223 -0.0322  0.2558  0.2235
  378TMC3    C4 5705   4.652   3.074  11.995  0.7254 -0.2274  0.1945
  378TMC3    C5 5706   4.612   2.952  12.048 -0.0870 -0.4543  0.0089
  378TMC3    C6 5707   4.539   2.941  12.158  0.0633  0.3460  0.7949
  378TMC3     C 5708   4.551   3.288  11.983 -0.1334  0.2145  0.7728
  378TMC3     O 5709   4.460   3.338  12.045 -0.5490 -0.5598  0.2626
  378TMC3     H 5710   4.565   3.266  12.244 -0.8100 -0.3567  0.1409
  378TMC3    H1 5711   4.723   3.087  11.914  1.2943 -1.0780  0.5655
  378TMC3    H2 5712   4.499   2.847  12.194  0.2035 -0.4744 -1.2045
  378TMC3    C7 5713   4.661   2.830  11.978  0.4286 -0.3300  0.9930
  378TMC3    C8 5714   4.391   3.074  12.280 -0.2949 -0.1484 -0.2435
  378TMC3    O1 5715   4.653   2.723  12.042 -0.0347  0.5603 -0.2109
  378TMC3    O2 5716   4.328   2.971  12.301  0.2412 -0.0241 -0.0814
  379MPD2     C 5717   4.689   1.659  16.170 -0.1713  0.0499  0.2308
  379MPD2    C1 5718   4.581   1.607  16.229 -0.7083  0.3897 -0.2583
  379MPD2    C2 5719   4.597   1.519  16.335 -0.6331 -0.0059 -0.2586
  379MPD2    C3 5720   4.718   1.499  16.390  0.2877 -0.4240  0.2967
  379MPD2    C4 5721   0.095   1.559  16.339  0.0230 -0.1177 -0.2536
  379MPD2    C5 5722   0.076   1.636  16.225 -0.0275 -0.1694 -0.6100
  379MPD2     H 5723   4.513   1.471  16.384 -0.3199 -1.8356 -1.5047
  379MPD2    H1 5724   0.188   1.560  16.394 -0.8108 -1.7189  1.1788
  379MPD2    H2 5725   4.674   1.727  16.087 -3.5516 -0.8233  0.1287
  379MPD2    H3 5726   0.157   1.689  16.175  1.9904 -0.8678  1.9249
  379MPD2     N 5727   0.007   1.415  16.507 -0.3051  0.0693  0.5302
  379MPD2    H5 5728   0.101   1.424  16.544 -0.8038 -1.1274  2.1191
  379MPD2    N1 5729   4.457   1.631  16.173 -0.1658  0.1418 -0.0241
  379MPD2    H7 5730   4.466   1.677  16.083  1.0757 -1.4178 -0.7022
  380TMC3    C1 5731   4.264   1.550  16.079  0.1922  1.0573 -0.0994
  380TMC3    C2 5732   4.250   1.422  16.042  1.1856 -0.4269 -0.3075
  380TMC3    C3 5733   4.209   1.390  15.911 -0.6815 -0.2377 -0.2472
  380TMC3    C4 5734   4.244   1.661  16.000 -0.5042 -0.1617 -0.4862
  380TMC3    C5 5735   4.196   1.624  15.877 -0.1149 -0.2901 -0.3524
  380TMC3    C6 5736   4.172   1.496  15.831 -0.2105  0.0329 -0.6521
  380TMC3     C 5737   4.339   1.567  16.203  0.1419 -0.6822 -0.1948
  380TMC3     O 5738   4.302   1.515  16.304 -0.0563 -0.0117 -0.3248
  380TMC3     H 5739   4.268   1.343  16.115  0.5219  1.3455  1.7867
  380TMC3    H1 5740   4.253   1.763  16.035 -1.6139 -0.4994  0.7671
  380TMC3    H2 5741   4.140   1.466  15.731 -1.1983  0.8334 -0.5696
  380TMC3    C7 5742   4.120   1.729  15.825 -0.6593  0.0586 -0.5557
  380TMC3    C8 5743   4.293   1.293  15.837 -0.1097 -0.6475 -0.4672
  380TMC3    O1 5744   4.135   1.845  15.869 -0.1982  0.2581 -0.0405
  380TMC3    O2 5745   4.258   1.275  15.723 -0.5937 -0.1410 -0.0323
  381TMC3    C1 5746   4.345   2.705  16.176  0.0111 -1.0143  0.6315
  381TMC3    C2 5747   4.438   2.809  16.161 -0.7290  0.4069 -0.1153
  381TMC3    C3 5748   4.409   2.921  16.227 -0.0634 -0.2685 -0.0752
  381TMC3    C4 5749   4.235   2.719  16.257 -1.0505  0.0820  0.1355
  381TMC3    C5 5750   4.209   2.837  16.321  1.1031 -0.1061  0.3570
  381TMC3    C6 5751   4.296   2.942  16.302  0.4035 -0.5037  0.2553
  381TMC3     C 5752   4.376   2.566  16.136  0.4818 -0.1340  0.2432
  381TMC3     O 5753   4.289   2.482  16.170  0.1892  0.2596  0.3196
  381TMC3     H 5754   4.528   2.800  16.101 -0.4517 -0.1109  0.3791
  381TMC3    H1 5755   4.166   2.638  16.280 -0.2763 -1.3171 -2.5014
  381TMC3    H2 5756   4.269   3.035  16.349  0.3852  0.0883 -0.9087
  381TMC3    C7 5757   4.131   2.832  16.445 -0.0483 -0.2718  0.0421
  381TMC3    C8 5758   4.507   3.035  16.208 -0.9415  0.1058 -0.1320
  381TMC3    O1 5759   4.131   2.730  16.513  0.8271 -0.0413  0.1938
  381TMC3    O2 5760   4.612   3.006  16.152  0.1146 -0.9046  0.1244
  382MPD2     C 5761   2.756   0.984  16.760 -0.0678 -0.3124  0.6358
  382MPD2    C1 5762   2.762   1.017  16.899  0.6746 -1.2684  0.5463
  382MPD2    C2 5763   2.694   0.927  16.986  0.3117 -0.1816  0.3391
  382MPD2    C3 5764   2.638   0.807  16.943 -0.1076  0.3867  0.7964
  382MPD2    C4 5765   2.640   0.780  16.807  0.3017 -0.0334 -0.2996
  382MPD2    C5 5766   2.695   0.868  16.713 -0.3570 -0.4044  0.4465
  382MPD2     H 5767   2.684   0.951  17.092  2.5831 -0.2504  0.5719
  382MPD2    H1 5768   2.588   0.695  16.766 -0.3332  0.6780 -0.9793
  382MPD2    H2 5769   2.808   1.042  16.685 -1.0849  0.6283  0.6614
  382MPD2    H3 5770   2.700   0.852  16.606 -0.9357  2.4888 -0.0141
  382MPD2     N 5771   2.580   0.716  17.027  0.6076 -0.5487 -0.1078
  382MPD2    H5 5772   2.529   0.642  16.978 -2.2038 -0.2578  2.3875
  382MPD2    N1 5773   2.821   1.136  16.948 -0.0471  0.4503  0.4230
  382MPD2    H7 5774   2.804   1.159  17.046 -0.6516 -1.1209  0.6793
  383TMC3    C1 5775   2.473   0.626  17.222  0.1560  0.0525 -0.0966
  383TMC3    C2 5776   2.497   0.498  17.180  0.2419 -0.7645  0.1900
  383TMC3    C3 5777   2.427   0.394  17.241 -0.1375 -0.2267  0.1827
  383TMC3    C4 5778   2.389   0.653  17.324 -0.3454 -0.3269 -0.3951
  383TMC3    C5 5779   2.324   0.556  17.384 -0.4374  0.0287 -0.7491
  383TMC3    C6 5780   2.333   0.425  17.334  0.1530 -0.3559 -0.1194
  383TMC3     C 5781   2.563   0.731  17.165  0.8682  0.9052 -0.3872
  383TMC3     O 5782   2.600   0.812  17.246  0.1350  0.5807 -0.5416
  383TMC3     H 5783   2.577   0.479  17.108  0.1390  0.3083 -0.2148
  383TMC3    H1 5784   2.383   0.753  17.367 -0.7364 -1.6631  2.6589
  383TMC3    H2 5785   2.269   0.346  17.373 -0.5723 -0.1688 -0.9282
  383TMC3    C7 5786   2.308   0.579  17.531 -0.1247  0.8566 -0.4339
  383TMC3    C8 5787   2.390   0.282  17.149 -0.6850  0.0216 -0.2370
  383TMC3    O1 5788   2.267   0.689  17.568 -0.2370  0.8006 -0.1729
  383TMC3    O2 5789   2.276   0.241  17.151  0.0681 -0.1414 -0.2266
  384MPD2     C 5790   0.005   1.157  11.792 -0.3036 -0.5327 -0.2801
  384MPD2    C1 5791   0.002   1.069  11.896 -0.3040 -0.0667  0.4874
  384MPD2    C2 5792   0.113   0.998  11.924 -0.4487 -0.7452  0.1906
  384MPD2    C3 5793   0.238   1.018  11.867 -0.3407  0.6903 -0.2546
  384MPD2    C4 5794   0.235   1.113  11.765 -0.5340  0.2719 -0.0044
  384MPD2    C5 5795   0.122   1.179  11.724 -0.0419  0.5799  0.3341
  384MPD2     H 5796   0.117   0.920  12.000  1.9899  0.1702  1.0067
  384MPD2    H1 5797   0.333   1.132  11.721 -1.6435 -1.9291 -3.4073
  384MPD2    H2 5798   4.654   1.213  11.759  1.3939 -0.2282 -4.1776
  384MPD2    H3 5799   0.116   1.251  11.644  0.3422 -0.8644 -0.9962
  384MPD2     N 5800   0.352   0.951  11.911  0.3548  0.3346 -0.1987
  384MPD2    H5 5801   0.342   0.888  11.990  0.9852 -0.3077 -0.6378
  384MPD2    N1 5802   4.630   1.055  11.977  0.0745 -0.7576  0.5372
  384MPD2    H7 5803   4.644   0.994  12.056  0.3426 -1.9304 -0.4239
  385TMC3    C1 5804   0.544   0.839  11.923  0.5030  0.3663 -0.4358
  385TMC3    C2 5805   0.554   0.719  11.859  0.2793 -0.8392  0.1804
  385TMC3    C3 5806   0.542   0.607  11.931  0.2944  0.8497  0.6873
  385TMC3    C4 5807   0.531   0.845  12.060 -0.1270 -0.0623  0.0422
  385TMC3    C5 5808   0.509   0.726  12.133  0.0735 -0.5199  0.1286
  385TMC3    C6 5809   0.516   0.611  12.063  0.5825  0.4300  0.5395
  385TMC3     C 5810   0.474   0.947  11.852  0.1965  0.2370 -1.2375
  385TMC3     O 5811   0.518   0.992  11.748  0.0754  0.0394 -0.2811
  385TMC3     H 5812   0.540   0.731  11.752 -0.0393 -2.4939  0.0413
  385TMC3    H1 5813   0.528   0.945  12.102  1.1100 -0.9995  2.3516
  385TMC3    H2 5814   0.522   0.523  12.126  2.2422  0.2118  0.0746
  385TMC3    C7 5815   0.383   0.740  12.208  0.5120 -0.6992 -0.8613
  385TMC3    C8 5816   0.517   0.479  11.871  0.5138 -0.1131 -0.2553
  385TMC3    O1 5817   0.283   0.734  12.133  0.9239 -0.0005 -0.6297
  385TMC3    O2 5818   0.507   0.388  11.953 -0.7640 -0.0279  0.2425
  386TMC3    C1 5819   0.659   3.187  11.421  0.7509  0.4733 -0.5232
  386TMC3    C2 5820   0.696   3.243  11.303 -0.4341 -0.4709 -0.5112
  386TMC3    C3 5821   0.595   3.299  11.218 -0.3950 -0.1891 -0.1141
  386TMC3    C4 5822   0.538   3.210  11.476  0.2547  0.2363 -0.0366
  386TMC3    C5 5823   0.441   3.259  11.405 -0.4018 -0.3377  0.3126
  386TMC3    C6 5824   0.466   3.294  11.274  0.2226  0.4924  0.5411
  386TMC3     C 5825   0.773   3.171  11.502 -0.2818 -0.5418 -0.0120
  386TMC3     O 5826   0.866   3.248  11.495  0.7183  0.3110  0.0702
  386TMC3     H 5827   0.796   3.232  11.260  0.1387  0.7693  0.5149
  386TMC3    H1 5828   0.518   3.191  11.581  0.2530 -0.2138 -0.1165
  386TMC3    H2 5829   0.384   3.331  11.213 -1.8105 -1.3457  2.1699
  386TMC3    C7 5830   0.327   3.330  11.472  0.4850 -0.0588 -0.1003
  386TMC3    C8 5831   0.606   3.314  11.072 -0.0545 -0.0332  0.2704
  386TMC3    O1 5832   0.318   3.324  11.597  0.0968 -0.7375 -0.2686
  386TMC3    O2 5833   0.498   3.297  11.019 -0.2001  0.0451 -0.1125
  387MPD2     C 5834   3.075   3.895   9.854  0.4969  0.3106  0.5437
  387MPD2    C1 5835   3.074   3.837   9.981  0.6071  0.3603 -0.2824
  387MPD2    C2 5836   3.019   3.714  10.007  0.5012  0.4894 -0.2871
  387MPD2    C3 5837   2.981   3.637   9.896 -0.3205 -0.0783 -0.1881
  387MPD2    C4 5838   2.984   3.688   9.769  0.0785  0.3241 -0.0802
  387MPD2    C5 5839   3.031   3.814   9.750  0.8641  0.2750  0.0233
  387MPD2     H 5840   3.007   3.674  10.108 -0.4330  0.3176 -0.4625
  387MPD2    H1 5841   2.951   3.635   9.680 -0.6780  1.9780 -0.7701
  387MPD2    H2 5842   3.105   3.998   9.839 -0.7363  0.6900  0.7187
  387MPD2    H3 5843   3.030   3.854   9.649 -2.6072 -2.1349 -0.8893
  387MPD2     N 5844   2.964   3.500   9.924 -0.1780 -0.0511  0.0269
  387MPD2    H5 5845   2.967   3.475  10.022 -1.0687  2.4790  0.6882
  387MPD2    N1 5846   3.126   3.906  10.093  0.1307 -0.2723  0.0764
  387MPD2    H7 5847   3.139   3.854  10.179  2.2521 -0.5924 -0.4213
  388TMC3    C1 5848   3.286   4.020  10.217  0.1499  0.7064  0.3716
  388TMC3    C2 5849   3.325   4.143  10.266  0.8697  0.1336 -0.0021
  388TMC3    C3 5850   3.424   4.142  10.363 -0.5677 -0.7954 -0.7909
  388TMC3    C4 5851   3.362   3.908  10.231 -0.0102  0.5558  0.6282
  388TMC3    C5 5852   3.462   3.913  10.323 -0.1376 -0.0673  0.3365
  388TMC3    C6 5853   3.481   4.025  10.398 -0.4782 -0.3575 -0.4377
  388TMC3     C 5854   3.201   4.021  10.095 -0.0171 -0.3303  0.3506
  388TMC3     O 5855   3.198   4.112  10.014 -0.3042  0.3171  0.3230
  388TMC3     H 5856   3.262   4.229  10.246  2.3110  1.6066  1.7659
  388TMC3    H1 5857   3.347   3.822  10.168 -0.2810  0.0471  1.3925
  388TMC3    H2 5858   3.544   4.018  10.486  2.9381  0.2696 -2.8770
  388TMC3    C7 5859   3.496   3.785  10.382  0.1959 -0.4898  0.3115
  388TMC3    C8 5860   3.425   4.236  10.475 -0.4110 -0.1644  0.0463
  388TMC3    O1 5861   3.519   3.787  10.504 -0.3532  0.5752  0.0277
  388TMC3    O2 5862   3.434   4.192  10.586  0.0580 -0.1163 -0.5705
  389MPD2     C 5863   2.017   1.907  11.389 -0.5606  1.0068 -0.3436
  389MPD2    C1 5864   1.999   1.782  11.329  0.3544  0.5325  0.2462
  389MPD2    C2 5865   1.955   1.677  11.407  0.0609 -0.6111  0.2865
  389MPD2    C3 5866   1.935   1.694  11.540  0.4101  0.1030  0.2875
  389MPD2    C4 5867   1.965   1.807  11.601  0.0687 -0.0462 -0.1021
  389MPD2    C5 5868   1.996   1.920  11.522 -0.4675 -0.0388 -0.1917
  389MPD2     H 5869   1.940   1.579  11.364 -3.0490  0.2802 -0.6579
  389MPD2    H1 5870   1.940   1.822  11.705 -0.6092  3.0072 -0.7167
  389MPD2    H2 5871   2.054   1.991  11.331 -0.5386 -0.1692 -2.0434
  389MPD2    H3 5872   2.021   2.016  11.566 -0.5259  1.5805 -3.6995
  389MPD2     N 5873   1.887   1.596  11.628  0.9961  0.5576 -0.0742
  389MPD2    H5 5874   1.854   1.638  11.714  2.7386 -1.5719  1.6344
  389MPD2    N1 5875   2.030   1.777  11.194 -0.2307  0.4224 -0.1373
  389MPD2    H7 5876   2.072   1.861  11.156  0.4647  0.7124  1.2560
  390TMC3    C1 5877   1.785   1.403  11.713  0.4075  0.6846  0.5465
  390TMC3    C2 5878   1.751   1.272  11.704  0.5763 -0.1375 -0.4974
  390TMC3    C3 5879   1.695   1.212  11.817 -0.5761  0.1104  0.0943
  390TMC3    C4 5880   1.777   1.465  11.832 -0.5958  0.1318  0.2657
  390TMC3    C5 5881   1.706   1.413  11.935 -0.0900 -0.0362  0.1088
  390TMC3    C6 5882   1.668   1.281  11.932 -0.2339 -0.1168  0.2212
  390TMC3     C 5883   1.845   1.470  11.592 -0.6307 -0.4516 -0.1710
  390TMC3     O 5884   1.872   1.405  11.491 -0.9426 -0.2434 -0.0346
  390TMC3     H 5885   1.764   1.209  11.616  2.0663 -0.1042 -0.3081
  390TMC3    H1 5886   1.820   1.563  11.848  0.3340  0.0773 -1.8351
  390TMC3    H2 5887   1.632   1.240  12.026 -1.5109  1.0167  0.2215
  390TMC3    C7 5888   1.699   1.492  12.058  0.3233 -0.1995 -0.4222
  390TMC3    C8 5889   1.625   1.086  11.791 -0.4557 -0.5153  0.2346
  390TMC3    O1 5890   1.792   1.566  12.080  0.5423  0.2447  0.0610
  390TMC3    O2 5891   1.661   1.013  11.701 -0.2149  0.4471 -0.2014
  391MPD2     C 5892   1.912   3.008  11.350 -0.3146 -0.3865 -0.0154
  391MPD2    C1 5893   2.010   3.101  11.330 -0.3015  0.4923 -0.2020
  391MPD2    C2 5894   2.025   3.147  11.201 -0.0677 -0.2130 -0.5005
  391MPD2    C3 5895   1.950   3.102  11.097  0.7528 -0.1111  0.2978
  391MPD2    C4 5896   1.871   2.993  11.114  0.0048 -0.1961 -0.5779
  391MPD2    C5 5897   1.845   2.952  11.243 -0.4766  0.2005  0.6827
  391MPD2     H 5898   2.100   3.222  11.179 -0.6869  0.8892  1.1370
  391MPD2    H1 5899   1.813   2.937  11.041  1.6313 -0.1009 -1.9454
  391MPD2    H2 5900   1.893   2.981  11.453 -0.1720  1.7957  0.5803
  391MPD2    H3 5901   1.764   2.881  11.250 -0.7398  0.3427 -0.9600
  391MPD2     N 5902   1.961   3.157  10.961  0.4143  0.1220 -0.1662
  391MPD2    H5 5903   2.025   3.236  10.961 -0.0864  0.5410 -2.1285
  391MPD2    N1 5904   2.086   3.148  11.441  0.4866 -0.5796 -0.3556
  391MPD2    H7 5905   2.074   3.106  11.533 -1.4737  2.2633  0.6733
  392TMC3    C1 5906   1.943   3.211  10.727  0.2039 -0.7680 -0.4935
  392TMC3    C2 5907   1.881   3.190  10.603 -0.4799 -0.1862 -0.2367
  392TMC3    C3 5908   1.932   3.244  10.496  0.3053  0.7913  0.2652
  392TMC3    C4 5909   2.060   3.284  10.742 -0.0493  0.5456 -0.0466
  392TMC3    C5 5910   2.102   3.348  10.628  0.1608 -0.1264 -0.1477
  392TMC3    C6 5911   2.043   3.325  10.508 -0.4229  0.3858  0.2886
  392TMC3     C 5912   1.898   3.125  10.841  0.0335 -0.8822 -0.3406
  392TMC3     O 5913   1.797   3.055  10.827 -0.2101 -0.0198  0.5333
  392TMC3     H 5914   1.794   3.125  10.600 -1.5101  1.1654  0.0546
  392TMC3    H1 5915   2.119   3.294  10.832  1.2328  0.9747 -0.9298
  392TMC3    H2 5916   2.089   3.373  10.422 -0.4450 -0.7207 -0.3470
  392TMC3    C7 5917   2.191   3.467  10.650 -0.7441  0.1741 -0.4516
  392TMC3    C8 5918   1.866   3.234  10.365 -0.7609  1.1112 -0.2390
  392TMC3    O1 5919   2.216   3.489  10.769 -0.0198 -0.3585  0.1216
  392TMC3    O2 5920   1.743   3.227  10.371  0.1120 -0.1900  0.0618
  393TMC3    C1 5921   0.701   1.155  11.041  0.8267 -0.2224  0.3561
  393TMC3    C2 5922   0.579   1.111  11.086  0.7118  0.7368  0.3236
  393TMC3    C3 5923   0.569   0.981  11.127  0.1378 -1.1318  0.5336
  393TMC3    C4 5924   0.806   1.069  11.028  0.1398 -0.2629  0.3727
  393TMC3    C5 5925   0.796   0.940  11.069  0.2874 -0.0040  0.7863
  393TMC3    C6 5926   0.671   0.896  11.115  0.1841 -0.1438 -0.1791
  393TMC3     C 5927   0.701   1.289  10.976 -0.5988 -0.1459 -0.7346
  393TMC3     O 5928   0.603   1.320  10.915  0.3479 -0.3691 -0.2297
  393TMC3     H 5929   0.496   1.180  11.102  0.5196  0.6512 -0.2862
  393TMC3    H1 5930   0.896   1.110  10.984 -1.4241  1.7061 -1.0030
  393TMC3    H2 5931   0.655   0.792  11.141 -0.7839 -0.1604 -0.8499
  393TMC3    C7 5932   0.906   0.847  11.055  0.0349 -0.2670 -0.8006
  393TMC3    C8 5933   0.444   0.912  11.140 -0.3174 -0.0475  0.5824
  393TMC3    O1 5934   0.879   0.728  11.056  0.4918  0.0723 -0.0596
  393TMC3    O2 5935   0.440   0.801  11.188  0.4271 -0.2403 -0.7232
  394TMC3    C1 5936   2.031   1.694  10.971  0.2855  0.6279  0.1511
  394TMC3    C2 5937   1.948   1.626  10.882 -0.2741 -0.1750 -0.0347
  394TMC3    C3 5938   1.942   1.681  10.758  0.0618  0.2745 -0.0116
  394TMC3    C4 5939   2.099   1.808  10.942  0.1499  0.5460  0.1526
  394TMC3    C5 5940   2.100   1.843  10.806  0.4061  0.1587  0.5440
  394TMC3    C6 5941   2.026   1.779  10.715 -0.1159  0.8889  0.3524
  394TMC3     C 5942   2.009   1.662  11.113 -0.1893 -0.2019 -0.2656
  394TMC3     O 5943   1.933   1.571  11.132 -0.2119 -0.3064 -0.2531
  394TMC3     H 5944   1.889   1.540  10.915  1.8525 -1.7068 -0.2461
  394TMC3    H1 5945   2.163   1.860  11.012 -0.8208  0.8941  0.7783
  394TMC3    H2 5946   2.012   1.821  10.616  1.2267 -1.6781 -0.9139
  394TMC3    C7 5947   2.216   1.918  10.752  0.7363  0.5448  0.7224
  394TMC3    C8 5948   1.841   1.627  10.669  0.4723  0.5583 -0.0942
  394TMC3    O1 5949   2.277   1.993  10.826  0.2052  0.2440 -0.3047
  394TMC3    O2 5950   1.786   1.708  10.593  0.1397  0.4976  0.8876
  395TMC3    C1 5951   1.505   4.027  14.405 -0.7147 -1.0087  0.8613
  395TMC3    C2 5952   1.383   4.043  14.472  0.1496  0.2242  0.3657
  395TMC3    C3 5953   1.389   4.141  14.576 -0.2353 -0.2740  0.1969
  395TMC3    C4 5954   1.620   4.097  14.441  0.0407  0.5569 -0.3467
  395TMC3    C5 5955   1.617   4.181  14.551 -0.9576  0.1464 -0.5969
  395TMC3    C6 5956   1.502   4.209  14.618  0.1842 -0.6422  0.0116
  395TMC3     C 5957   1.540   3.887  14.425  1.0745 -0.1464  0.3076
  395TMC3     O 5958   1.648   3.862  14.480 -0.5293 -0.0065 -0.3653
  395TMC3     H 5959   1.292   3.995  14.438  2.0225 -0.9215 -3.0691
  395TMC3    H1 5960   1.709   4.070  14.386  0.2898  1.4724 -0.3937
  395TMC3    H2 5961   1.500   4.272  14.706 -2.9740 -2.0859  0.9772
  395TMC3    C7 5962   1.747   4.241  14.597  0.5998 -0.0244  0.3568
  395TMC3    C8 5963   1.318   4.103  14.700  0.3193 -0.3419 -0.1503
  395TMC3    O1 5964   1.743   4.327  14.687 -0.3615  0.4197 -0.2125
  395TMC3    O2 5965   1.303   4.184  14.790 -0.8903 -0.2245  0.7204
  396MPD2     C 5966   1.383   0.067  17.091 -0.2513 -0.3193  0.1239
  396MPD2    C1 5967   1.515   0.075  17.064 -0.3708  0.2280 -0.5902
  396MPD2    C2 5968   1.560   0.200  17.033 -0.1887  0.2348  1.0429
  396MPD2    C3 5969   1.471   0.305  17.016  0.3274  0.0177  0.2043
  396MPD2    C4 5970   1.341   0.294  17.044  0.0094 -0.2912  0.2205
  396MPD2    C5 5971   1.300   0.175  17.086 -0.2244  0.2913 -0.6221
  396MPD2     H 5972   1.664   0.220  17.009  0.4201 -2.0266  1.7733
  396MPD2    H1 5973   1.276   0.381  17.044 -0.6116 -0.7473 -0.6881
  396MPD2    H2 5974   1.331   4.710  17.110  0.5147 -1.0062 -1.1277
  396MPD2    H3 5975   1.198   0.153  17.114 -0.2302 -1.5758 -2.0984
  396MPD2     N 5976   1.527   0.435  16.976 -0.1373  0.2344 -0.3276
  396MPD2    H5 5977   1.627   0.442  16.963  0.1191  0.1995  1.5516
  396MPD2    N1 5978   1.591   4.689  17.064 -0.1784 -0.4536  0.0361
  396MPD2    H7 5979   1.538   4.610  17.100 -0.0158 -0.7899 -0.4648
  397TMC3    C1 5980   1.741   4.527  16.992  0.4727  0.9132  0.8328
  397TMC3    C2 5981   1.791   4.531  16.863 -0.1313  0.1542  0.2374
  397TMC3    C3 5982   1.714   4.488  16.758  0.4498  0.3337 -0.1429
  397TMC3    C4 5983   1.631   4.456  17.012  0.1923  0.3119 -0.8345
  397TMC3    C5 5984   1.553   4.408  16.910  0.2663 -0.2736 -0.6108
  397TMC3    C6 5985   1.597   4.422  16.781 -0.1703 -0.5031  0.3916
  397TMC3     C 5986   1.718   4.666  17.023 -0.1418  0.2827  0.3242
  397TMC3     O 5987   1.790   0.008  16.961 -0.4547 -0.0196  0.2883
  397TMC3     H 5988   1.884   4.582  16.841  0.0828 -0.0995  0.5698
  397TMC3    H1 5989   1.605   4.437  17.116  0.0181  0.3424 -0.8733
  397TMC3    H2 5990   1.546   4.380  16.695 -0.0542 -0.0873  0.1145
  397TMC3    C7 5991   1.467   4.296  16.940 -0.2904  0.0787  0.4050
  397TMC3    C8 5992   1.716   4.582  16.647 -1.0302  0.2881  0.2359
  397TMC3    O1 5993   1.445   4.211  16.853 -0.1034 -0.0194  0.6232
  397TMC3    O2 5994   1.677   4.547  16.539 -0.9959 -0.5708 -0.1375
  398MPD2     C 5995   4.478   1.591   0.164  0.5051 -0.1200 -0.5240
  398MPD2    C1 5996   4.590   1.542   0.229 -0.1401 -0.1757  0.2945
  398MPD2    C2 5997   4.654   1.626   0.313  0.0363 -0.2880 -0.1577
  398MPD2    C3 5998   4.634   1.763   0.309  0.2855 -0.1393 -0.3426
  398MPD2    C4 5999   4.535   1.817   0.232 -0.1808 -0.0344  0.1181
  398MPD2    C5 6000   4.445   1.729   0.164  0.1369 -0.2085  0.4317
  398MPD2     H 6001   4.734   1.588   0.376  1.4321  0.9217 -1.2136
  398MPD2    H1 6002   4.501   1.919   0.244  2.6106  0.7230  1.4794
  398MPD2    H2 6003   4.418   1.529   0.100  0.0462  0.7693 -0.9597
  398MPD2    H3 6004   4.362   1.763   0.103 -0.6363  0.8909  2.1258
  398MPD2     N 6005   4.714   1.851   0.391 -0.3343 -0.3332 -0.7799
  398MPD2    H5 6006   0.045   1.807   0.453 -0.7734  1.0712  0.7317
  398MPD2    N1 6007   4.631   1.405   0.227  0.6678  0.1339 -0.2206
  398MPD2    H7 6008   4.705   1.377   0.291  1.4566  1.3931 -0.5830
  399TMC3    C1 6009   4.607   1.174   0.203  0.5705  0.4556  0.3937
  399TMC3    C2 6010   4.733   1.149   0.249 -0.2246  0.7009 -0.0409
  399TMC3    C3 6011   0.016   1.025   0.306  0.3546  0.4866 -0.3080
  399TMC3    C4 6012   4.511   1.078   0.197 -0.8760 -0.1814  0.9720
  399TMC3    C5 6013   4.532   0.958   0.254  0.4455 -0.2829  0.7454
  399TMC3    C6 6014   4.656   0.925   0.312  0.5315 -0.2884  0.4708
  399TMC3     C 6015   4.562   1.304   0.162  0.2419  0.2042 -0.0386
  399TMC3     O 6016   4.480   1.317   0.075  0.3562 -0.2437  0.2318
  399TMC3     H 6017   0.076   1.223   0.246 -0.8438  1.3922  0.6097
  399TMC3    H1 6018   4.417   1.099   0.147 -0.6796 -1.3462  0.1140
  399TMC3    H2 6019   4.671   0.822   0.341  0.4071 -0.4795 -0.1294
  399TMC3    C7 6020   4.432   0.860   0.263 -0.5563  0.8453 -0.6824
  399TMC3    C8 6021   0.156   0.995   0.330  0.3356  0.0408 -0.5787
  399TMC3    O1 6022   4.452   0.760   0.332  0.4028  0.4982  0.1002
  399TMC3    O2 6023   0.232   1.061   0.261  0.1786 -0.6101  0.3009
  400TMC3    C1 6024   3.044   4.447  16.521 -0.4224  0.8712  0.3159
  400TMC3    C2 6025   2.926   4.381  16.512 -0.2243 -0.7102 -0.8015
  400TMC3    C3 6026   2.813   4.450  16.539 -0.3663  0.0807 -0.5364
  400TMC3    C4 6027   3.052   4.588  16.551 -0.2062 -0.1824  0.1442
  400TMC3    C5 6028   2.935   4.653  16.563 -0.0422  0.4328 -0.1401
  400TMC3    C6 6029   2.814   4.588  16.552 -0.1536 -0.4963 -0.0917
  400TMC3     C 6030   3.164   4.367  16.492 -0.2330 -0.4919 -0.3669
  400TMC3     O 6031   3.145   4.256  16.450 -0.1606 -0.0523  0.1816
  400TMC3     H 6032   2.923   4.273  16.505  0.6473 -0.8108  0.3904
  400TMC3    H1 6033   3.149   4.637  16.549 -0.5525  0.4957 -0.1478
  400TMC3    H2 6034   2.724   4.641  16.583  1.1267  0.6028  1.7842
  400TMC3    C7 6035   2.938   0.064  16.569 -0.6258  0.2835 -0.7702
  400TMC3    C8 6036   2.706   4.374  16.593  0.5557 -0.4067 -0.0221
  400TMC3    O1 6037   3.044   0.110  16.603 -0.2427  0.0152  0.3780
  400TMC3    O2 6038   2.627   4.428  16.667 -0.3154 -0.0625  0.6173
  401MPD2     C 6039   1.283   3.084   0.713  0.0116 -0.2401 -0.3595
  401MPD2    C1 6040   1.349   3.106   0.834 -0.1891  0.5960 -0.4148
  401MPD2    C2 6041   1.411   3.007   0.908 -0.3726  0.3146  0.0644
  401MPD2    C3 6042   1.396   2.876   0.873 -0.7789  0.3894 -0.6616
  401MPD2    C4 6043   1.312   2.851   0.762  0.8134  0.0074 -0.2857
  401MPD2    C5 6044   1.260   2.946   0.687  0.7340 -0.2912  0.3648
  401MPD2     H 6045   1.473   3.036   0.992 -0.6758  1.3515 -0.0691
  401MPD2    H1 6046   1.280   2.751   0.734 -0.6264  0.9584 -2.0017
  401MPD2    H2 6047   1.237   3.161   0.652  0.6423  0.3390 -0.1005
  401MPD2    H3 6048   1.199   2.913   0.605  0.8484  0.2655  0.0568
  401MPD2     N 6049   1.472   2.779   0.939  0.5883 -0.1500  0.0335
  401MPD2    H5 6050   1.539   2.812   1.008 -0.6285 -0.0249  1.1339
  401MPD2    N1 6051   1.363   3.241   0.884 -0.4432  0.0003 -0.0956
  401MPD2    H7 6052   1.405   3.248   0.976 -0.6782  1.1618 -0.0730
  402TMC3    C1 6053   1.619   2.597   0.928  0.0413  0.2768  0.1921
  402TMC3    C2 6054   1.638   2.459   0.940 -0.3025 -0.1522  0.3533
  402TMC3    C3 6055   1.763   2.413   0.982 -0.7033  0.1609  0.2848
  402TMC3    C4 6056   1.732   2.677   0.929 -0.3818 -0.0373 -0.7629
  402TMC3    C5 6057   1.859   2.621   0.939  0.6501 -0.2452  0.8177
  402TMC3    C6 6058   1.876   2.492   0.964 -0.7824 -0.5081  0.1704
  402TMC3     C 6059   1.483   2.651   0.901 -0.4078  0.1065 -0.0137
  402TMC3     O 6060   1.411   2.576   0.832  0.1691 -0.6005  0.4500
  402TMC3     H 6061   1.553   2.391   0.941  0.2134 -0.7614  2.8292
  402TMC3    H1 6062   1.736   2.785   0.939 -1.7426 -0.1095  0.7010
  402TMC3    H2 6063   1.977   2.462   0.991 -1.1023 -2.0587 -0.4135
  402TMC3    C7 6064   1.963   2.686   0.861  0.0837  0.1701 -0.4686
  402TMC3    C8 6065   1.784   2.286   1.044 -0.0764  0.5267 -0.4438
  402TMC3    O1 6066   1.959   2.807   0.848 -0.1506 -0.1814 -0.1521
  402TMC3    O2 6067   1.896   2.246   1.057  0.0904 -0.1245  0.2340
  403MPD2     C 6068   4.713   0.989  13.271  0.4421  0.1538  0.1158
  403MPD2    C1 6069   4.608   0.992  13.366  0.1361  0.7681  0.4622
  403MPD2    C2 6070   4.640   0.980  13.502 -0.3743 -0.1151 -0.1395
  403MPD2    C3 6071   0.036   0.959  13.540 -0.1125 -0.3467 -0.4457
  403MPD2    C4 6072   0.127   0.927  13.439  0.1059  0.5548 -0.2950
  403MPD2    C5 6073   0.100   0.940  13.306 -0.1282 -0.3016 -0.5821
  403MPD2     H 6074   4.568   0.998  13.582  1.5574  0.4367  1.4850
  403MPD2    H1 6075   0.232   0.914  13.465 -0.5675 -1.8448  1.2237
  403MPD2    H2 6076   4.702   1.017  13.167 -1.1930  2.1436  0.8121
  403MPD2    H3 6077   0.181   0.930  13.235  0.5133  3.0956 -0.3453
  403MPD2     N 6078   0.070   0.977  13.678 -0.2689 -0.0519 -0.5094
  403MPD2    H5 6079   0.005   1.026  13.739  0.7580 -1.2529  1.5454
  403MPD2    N1 6080   4.478   1.027  13.312 -0.5918  0.8689 -0.2298
  403MPD2    H7 6081   4.464   1.051  13.215 -0.2410  1.2356 -0.1938
  404TMC3    C1 6082   4.243   1.069  13.316 -1.1209  0.1618 -0.4199
  404TMC3    C2 6083   4.133   1.095  13.402  0.8204 -0.2492  0.2837
  404TMC3    C3 6084   4.011   1.027  13.398  0.1982 -0.2276  0.4059
  404TMC3    C4 6085   4.214   0.969  13.229  0.0925  0.0365  0.1387
  404TMC3    C5 6086   4.089   0.918  13.215  0.8194  0.0779 -0.3780
  404TMC3    C6 6087   3.983   0.944  13.297 -0.2877 -0.3872 -0.4064
  404TMC3     C 6088   4.367   1.048  13.386  0.4412 -0.6440  0.8922
  404TMC3     O 6089   4.358   1.046  13.507  0.4677 -0.2560 -0.1460
  404TMC3     H 6090   4.156   1.167  13.481  1.7155 -1.3671  1.0468
  404TMC3    H1 6091   4.297   0.918  13.182 -0.4794  0.5633 -1.4459
  404TMC3    H2 6092   3.884   0.902  13.284 -0.2768 -1.1287  2.0346
  404TMC3    C7 6093   4.071   0.910  13.076  0.0321  0.1734 -0.1373
  404TMC3    C8 6094   3.983   0.966  13.526  0.7880 -0.3808  0.6942
  404TMC3    O1 6095   4.167   0.941  13.007  0.0959 -0.9316 -0.2925
  404TMC3    O2 6096   3.874   0.920  13.557  0.2429 -0.4339 -0.4958
  405MPD2     C 6097   0.066   2.086  15.002  0.4897  0.3531  0.9662
  405MPD2    C1 6098   0.015   1.989  14.917  0.3171 -0.3292  0.1885
  405MPD2    C2 6099   4.627   2.006  14.853  0.8693 -0.0435 -0.2115
  405MPD2    C3 6100   4.555   2.117  14.884 -0.5085 -0.3533 -0.1040
  405MPD2    C4 6101   4.599   2.214  14.970  0.1881 -0.9557 -0.9149
  405MPD2    C5 6102   4.725   2.195  15.019  0.4729  0.6019 -0.1539
  405MPD2     H 6103   4.588   1.935  14.780 -1.4846  0.7015  0.3411
  405MPD2    H1 6104   4.546   2.308  14.982 -1.9157 -2.3629  0.7728
  405MPD2    H2 6105   0.164   2.084  15.047  1.7873 -2.4127 -1.9515
  405MPD2    H3 6106   0.027   2.269  15.089  0.8283  0.2560  0.0222
  405MPD2     N 6107   4.433   2.131  14.820  0.1872  0.0045  0.3422
  405MPD2    H5 6108   4.414   2.054  14.758  1.3966  0.4874 -0.6292
  405MPD2    N1 6109   0.089   1.873  14.890  0.4163 -0.0503 -0.8367
  405MPD2    H7 6110   0.168   1.853  14.950  0.5336 -1.1889 -1.3591
  406TMC3    C1 6111   4.028   2.222  14.629  0.3228 -0.1850 -0.2058
  406TMC3    C2 6112   4.043   2.105  14.554 -0.5998  0.2260 -0.0515
  406TMC3    C3 6113   4.138   2.025  14.594 -0.2118 -0.2838 -0.3787
  406TMC3    C4 6114   4.121   2.263  14.723  0.3046 -0.0615 -0.4033
  406TMC3    C5 6115   4.223   2.174  14.753 -0.7889  0.0483 -0.2855
  406TMC3    C6 6116   4.230   2.053  14.690 -0.8167 -0.3991  0.0835
  406TMC3     C 6117   3.931   2.324  14.585 -0.0830  0.2621  0.0773
  406TMC3     O 6118   3.912   2.414  14.665  0.3379 -0.3218 -0.0323
  406TMC3     H 6119   3.962   2.072  14.489 -1.1173  3.4248 -1.0424
  406TMC3    H1 6120   4.109   2.358  14.775  1.1306  0.7450 -1.6929
  406TMC3    H2 6121   4.277   1.969  14.739  0.7665  0.5804  0.2606
  406TMC3    C7 6122   4.325   2.207  14.838  0.7138  0.0141  0.4152
  406TMC3    C8 6123   4.139   1.890  14.537  0.0373  0.0520 -0.7120
  406TMC3    O1 6124   4.304   2.296  14.920  0.2676  0.0951 -0.5958
  406TMC3    O2 6125   4.032   1.840  14.514  0.4479 -0.5199  0.7941
  407MPD2     C 6126   2.525   3.850   9.418  0.6689 -0.4624  0.2339
  407MPD2    C1 6127   2.620   3.762   9.469  0.4121 -0.0090  0.0382
  407MPD2    C2 6128   2.605   3.711   9.601 -0.4380 -0.2258 -0.3585
  407MPD2    C3 6129   2.506   3.757   9.690 -0.3424 -1.1273  0.1394
  407MPD2    C4 6130   2.417   3.854   9.634  0.3940 -0.1239 -0.5882
  407MPD2    C5 6131   2.430   3.895   9.506  0.5459 -0.5909 -0.3595
  407MPD2     H 6132   2.680   3.646   9.644  1.2249  1.4050 -0.7697
  407MPD2    H1 6133   2.343   3.902   9.697 -0.9443 -3.2079  0.1574
  407MPD2    H2 6134   2.528   3.885   9.315  2.4934 -2.8962 -0.5305
  407MPD2    H3 6135   2.354   3.963   9.468  1.6259  0.8478  0.0606
  407MPD2     N 6136   2.514   3.740   9.828 -0.0089 -0.2495 -0.6527
  407MPD2    H5 6137   2.458   3.808   9.879 -0.2836 -1.6443  0.9068
  407MPD2    N1 6138   2.736   3.727   9.395 -0.5989  0.0670 -0.4326
  407MPD2    H7 6139   2.799   3.656   9.432 -1.6128  0.1118  1.3615
  408TMC3    C1 6140   2.926   3.768   9.270 -0.5533 -0.0920  0.4044
  408TMC3    C2 6141   2.973   3.660   9.330  0.3416  0.4969  0.2881
  408TMC3    C3 6142   3.089   3.670   9.397  0.1263 -0.5109 -0.3539
  408TMC3    C4 6143   2.991   3.889   9.278 -0.2132  1.1408  0.0613
  408TMC3    C5 6144   3.113   3.893   9.341 -0.2351 -0.7232  0.8742
  408TMC3    C6 6145   3.163   3.780   9.409  0.9364  0.1385 -0.1922
  408TMC3     C 6146   2.779   3.786   9.279  0.1884 -0.0321  0.0217
  408TMC3     O 6147   2.718   3.870   9.212  0.5231  0.2040  0.9725
  408TMC3     H 6148   2.933   3.560   9.316 -1.8758  1.3415  0.5365
  408TMC3    H1 6149   2.950   3.974   9.226 -1.0285  0.6519 -0.0860
  408TMC3    H2 6150   3.260   3.780   9.457  0.2797 -0.6095  1.1564
  408TMC3    C7 6151   3.176   4.013   9.389  0.3471  0.4041  0.5928
  408TMC3    C8 6152   3.148   3.552   9.455 -0.5243 -0.6504 -0.2496
  408TMC3    O1 6153   3.241   4.005   9.492  0.5763 -0.2846 -0.3270
  408TMC3    O2 6154   3.099   3.449   9.417  0.0672 -0.0834  0.0449
  409MPD2     C 6155   1.940   3.779  16.591 -0.7912 -0.2664  0.0133
  409MPD2    C1 6156   1.966   3.857  16.704 -0.5219 -0.2732 -0.2005
  409MPD2    C2 6157   1.979   3.993  16.679  0.1038 -0.6157  0.5164
  409MPD2    C3 6158   1.963   4.046  16.547 -0.3924 -0.2395 -0.0786
  409MPD2    C4 6159   1.938   3.962  16.440  0.3534 -0.5604  0.0843
  409MPD2    C5 6160   1.939   3.829  16.460 -0.1110  0.2666  0.8021
  409MPD2     H 6161   1.995   4.064  16.759  0.0196  1.3682 -1.2337
  409MPD2    H1 6162   1.922   3.997  16.339  0.2852  1.4856  0.8052
  409MPD2    H2 6163   1.930   3.672  16.609  1.2017 -0.1638  1.7131
  409MPD2    H3 6164   1.927   3.762  16.375 -1.5684  2.0019 -0.3693
  409MPD2     N 6165   1.982   4.184  16.519 -0.9190 -0.1373 -0.3256
  409MPD2    H5 6166   1.998   4.198  16.419 -0.1826  1.1784 -0.0174
  409MPD2    N1 6167   1.965   3.799  16.834  1.1220 -0.0081  1.1129
  409MPD2    H7 6168   1.970   3.866  16.911 -1.8540  1.9751 -0.3980
  410TMC3    C1 6169   2.001   4.420  16.547  0.2600 -0.2574  0.4940
  410TMC3    C2 6170   2.056   4.511  16.628 -0.6446  0.6529  0.0857
  410TMC3    C3 6171   2.089   4.631  16.572 -0.1118 -0.5136 -0.3917
  410TMC3    C4 6172   1.975   4.442  16.410 -0.6223 -0.6998 -0.4097
  410TMC3    C5 6173   2.007   4.564  16.355 -0.0168 -0.5218  0.2045
  410TMC3    C6 6174   2.064   4.659  16.443 -0.3826  0.9924  0.5233
  410TMC3     C 6175   1.993   4.287  16.613  0.0984 -0.2007 -0.6125
  410TMC3     O 6176   1.971   4.289  16.733 -0.1623 -0.2676 -0.2782
  410TMC3     H 6177   2.110   4.478  16.716 -0.4515 -0.3176 -0.3996
  410TMC3    H1 6178   1.919   4.371  16.351 -0.2961  1.2208 -3.0476
  410TMC3    H2 6179   2.093   0.022  16.410 -1.4829  0.8480 -0.9415
  410TMC3    C7 6180   2.001   4.591  16.213  0.4359 -0.5901  0.0815
  410TMC3    C8 6181   2.225   4.664  16.606  0.8092  0.1656  0.9023
  410TMC3    O1 6182   1.946   4.501  16.150 -0.1686 -0.3133  0.4591
  410TMC3    O2 6183   2.306   4.655  16.514  0.1982  0.0981 -0.0640
  411MPD2     C 6184   2.166   0.042  14.463 -0.2534 -0.4360  0.4131
  411MPD2    C1 6185   2.095   0.112  14.370  0.1155 -0.1952 -0.1643
  411MPD2    C2 6186   2.063   0.048  14.247 -0.0075 -0.9961  0.8496
  411MPD2    C3 6187   2.109   4.657  14.223 -0.5092  0.1799  0.3031
  411MPD2    C4 6188   2.184   4.592  14.318 -0.1851  0.0225 -0.6356
  411MPD2    C5 6189   2.224   4.659  14.435 -0.6379  0.3864 -0.3367
  411MPD2     H 6190   2.009   0.100  14.169 -0.7819  1.9495  3.4097
  411MPD2    H1 6191   2.231   4.495  14.306  2.4360  1.1259  0.7686
  411MPD2    H2 6192   2.207   0.098  14.547 -1.7055  1.6625 -0.2793
  411MPD2    H3 6193   2.291   4.613  14.506 -1.9310 -1.5086 -0.3536
  411MPD2     N 6194   2.086   4.596  14.099  0.6608 -0.4380  0.4870
  411MPD2    H5 6195   2.145   4.515  14.085  0.7450 -0.2772 -0.0787
  411MPD2    N1 6196   2.069   0.241  14.401 -0.4321 -0.1845 -0.7045
  411MPD2    H7 6197   2.098   0.272  14.493 -2.4726  0.5281 -0.3035
  412TMC3    C1 6198   2.021   4.574  13.871 -0.3318 -0.7142  0.1957
  412TMC3    C2 6199   2.151   4.551  13.827  0.1818  0.2441 -0.0671
  412TMC3    C3 6200   2.173   4.479  13.719  0.2794 -0.5803 -0.1416
  412TMC3    C4 6201   1.911   4.519  13.805  0.4861  0.6437  0.4189
  412TMC3    C5 6202   1.936   4.446  13.697  0.2609  0.2446 -0.4865
  412TMC3    C6 6203   2.063   4.430  13.652  0.4523 -0.4625 -0.9803
  412TMC3     C 6204   2.001   4.645  14.000  0.3590 -0.1736 -0.0766
  412TMC3     O 6205   1.903   4.720  14.010  0.3581 -0.2112  0.3857
  412TMC3     H 6206   2.231   4.605  13.875  1.4050 -0.4575 -1.3074
  412TMC3    H1 6207   1.812   4.519  13.850  0.2327  0.0363 -0.1330
  412TMC3    H2 6208   2.090   4.384  13.557 -0.5720  0.4951 -1.7405
  412TMC3    C7 6209   1.882   4.316  13.692 -0.1405  1.1711 -0.6000
  412TMC3    C8 6210   2.281   4.388  13.740 -0.1079 -0.7159  0.9871
  412TMC3    O1 6211   1.963   4.226  13.665 -0.6305 -0.3152 -0.3567
  412TMC3    O2 6212   2.394   4.418  13.707 -0.2123 -0.4737 -0.5528
  413MPD2     C 6213   4.067   3.403  15.417  0.4220 -0.2361 -0.2447
  413MPD2    C1 6214   3.984   3.308  15.358  0.1518 -0.2273  0.1591
  413MPD2    C2 6215   4.035   3.202  15.289  0.4047 -0.1919  1.0280
  413MPD2    C3 6216   4.167   3.181  15.284 -1.3854  0.1397  0.3891
  413MPD2    C4 6217   4.251   3.273  15.336  0.2598  0.1304 -0.3622
  413MPD2    C5 6218   4.200   3.383  15.404 -0.2976 -0.0040 -0.1368
  413MPD2     H 6219   3.968   3.130  15.242  1.6463 -1.0109  0.5034
  413MPD2    H1 6220   4.358   3.282  15.323  0.5867  1.0032  2.9286
  413MPD2    H2 6221   4.021   3.478  15.480 -1.7215 -2.0572  0.3702
  413MPD2    H3 6222   4.272   3.448  15.452  0.5273 -1.3985  0.5000
  413MPD2     N 6223   4.208   3.060  15.219 -0.1838  0.1583  0.0653
  413MPD2    H5 6224   4.135   3.014  15.165  1.6228  1.7480 -3.7843
  413MPD2    N1 6225   3.847   3.331  15.369  0.3810  0.4089  0.4341
  413MPD2    H7 6226   3.820   3.415  15.418  0.2344  1.1554 -0.9162
  414TMC3    C1 6227   4.340   2.871  15.163 -0.2017 -0.6749  0.2186
  414TMC3    C2 6228   4.420   2.772  15.222 -0.0030  0.2990 -0.4525
  414TMC3    C3 6229   4.394   2.644  15.185  0.2782  0.6664  0.4105
  414TMC3    C4 6230   4.260   2.844  15.061 -0.2663  0.2696 -0.5788
  414TMC3    C5 6231   4.261   2.717  15.012 -0.3539  0.6397 -0.2690
  414TMC3    C6 6232   4.317   2.612  15.076  0.2933 -0.3313  0.0391
  414TMC3     C 6233   4.336   3.002  15.225  0.6742 -0.5085 -0.0294
  414TMC3     O 6234   4.424   3.044  15.300 -0.3616 -0.5111 -0.3551
  414TMC3     H 6235   4.480   2.798  15.308 -0.3898  0.5930 -0.2713
  414TMC3    H1 6236   4.203   2.920  15.008 -0.3039 -0.4465 -1.5617
  414TMC3    H2 6237   4.309   2.517  15.026  1.9739 -0.7951  0.6504
  414TMC3    C7 6238   4.171   2.683  14.905  0.1274 -0.6485 -0.5629
  414TMC3    C8 6239   4.468   2.527  15.237  0.2637 -0.0517  0.2597
  414TMC3    O1 6240   4.055   2.723  14.911  0.4547 -0.2131 -0.4394
  414TMC3    O2 6241   4.409   2.426  15.203 -0.2750  0.5197 -0.0133
  415TMC3    C1 6242   0.162   0.604  10.799 -1.0034  0.1613 -1.0297
  415TMC3    C2 6243   0.290   0.642  10.833  0.0116 -0.0805  0.2885
  415TMC3    C3 6244   0.323   0.773  10.790 -0.4540  0.0598 -0.0260
  415TMC3    C4 6245   0.070   0.689  10.746 -0.2012 -0.1914  0.3836
  415TMC3    C5 6246   0.114   0.812  10.716 -0.2340 -0.0790  0.2160
  415TMC3    C6 6247   0.241   0.866  10.735 -0.2648 -0.2938 -0.5895
  415TMC3     C 6248   0.107   0.474  10.820  0.2969  0.1990  0.2234
  415TMC3     O 6249   0.011   0.444  10.744  0.4654 -0.2287 -0.5370
  415TMC3     H 6250   0.355   0.570  10.881  2.3199  0.2141 -2.3252
  415TMC3    H1 6251   4.713   0.654  10.703 -0.4037 -1.3162  1.7169
  415TMC3    H2 6252   0.261   0.970  10.712 -0.9910  0.0443  0.2674
  415TMC3    C7 6253   0.013   0.909  10.678  0.4833 -0.0175  0.3580
  415TMC3    C8 6254   0.467   0.790  10.787 -0.5693 -0.3125 -0.7969
  415TMC3    O1 6255   0.051   1.005  10.607  1.2155 -0.2196 -0.1539
  415TMC3    O2 6256   0.542   0.713  10.843  0.5992 -0.1606  0.2764
  416MPD2     C 6257   1.802   4.238  11.572  0.5524 -0.6092  0.0948
  416MPD2    C1 6258   1.724   4.134  11.616 -0.2313  0.0642 -0.4163
  416MPD2    C2 6259   1.751   4.007  11.568 -0.1148  0.4642 -0.5474
  416MPD2    C3 6260   1.869   3.981  11.499 -0.1746 -0.2129 -0.2016
  416MPD2    C4 6261   1.956   4.091  11.471 -0.3925  0.3303 -0.3347
  416MPD2    C5 6262   1.921   4.213  11.505 -0.0236  0.2484  0.4158
  416MPD2     H 6263   1.694   3.920  11.599  0.6992  0.6032  1.3144
  416MPD2    H1 6264   2.038   4.083  11.400  0.5674  1.5569  0.6497
  416MPD2    H2 6265   1.773   4.343  11.577  0.4535 -0.7074  1.5503
  416MPD2    H3 6266   1.981   4.296  11.469  0.2273  0.3062  0.9672
  416MPD2     N 6267   1.894   3.851  11.461 -0.2465 -0.1355 -0.5315
  416MPD2    H5 6268   1.854   3.783  11.524  0.4727 -1.2137 -1.2409
  416MPD2    N1 6269   1.612   4.165  11.693 -0.4327  0.1278  0.4040
  416MPD2    H7 6270   1.605   4.264  11.717  1.5842  0.6483 -1.1928
  417TMC3    C1 6271   1.400   4.162  11.768  0.3556 -0.6082  0.0795
  417TMC3    C2 6272   1.421   4.276  11.833 -1.1605  0.0701 -0.0967
  417TMC3    C3 6273   1.313   4.363  11.833 -0.1661 -0.4355 -0.6402
  417TMC3    C4 6274   1.289   4.135  11.695 -0.0407 -0.5352  0.1792
  417TMC3    C5 6275   1.200   4.233  11.680 -1.1707 -0.4636 -0.2968
  417TMC3    C6 6276   1.206   4.347  11.750 -0.1765  0.2061 -0.0338
  417TMC3     C 6277   1.513   4.079  11.732 -0.0620 -0.6946 -0.5357
  417TMC3     O 6278   1.494   3.962  11.695  0.2774  0.1047 -0.1883
  417TMC3     H 6279   1.511   4.292  11.891 -1.9346 -1.1009  1.4184
  417TMC3    H1 6280   1.295   4.041  11.642 -1.9903 -0.7039  0.2470
  417TMC3    H2 6281   1.126   4.420  11.737  0.5909  1.1683  0.6863
  417TMC3    C7 6282   1.124   4.243  11.556 -0.9793  0.2216  0.2996
  417TMC3    C8 6283   1.289   4.449  11.950 -0.7397 -0.0490 -0.1010
  417TMC3    O1 6284   1.097   4.358  11.513 -0.0341 -0.0605  0.4459
  417TMC3    O2 6285   1.175   4.492  11.951  0.2620  0.1809 -0.5455
  418TMC3    C1 6286   0.156   2.214   0.623 -0.4124 -0.1884 -0.0476
  418TMC3    C2 6287   0.087   2.165   0.508  0.5942  0.1843 -0.3695
  418TMC3    C3 6288   0.041   2.039   0.522 -0.1477  0.5127  0.6779
  418TMC3    C4 6289   0.157   2.153   0.740 -0.1841 -0.4669  0.2572
  418TMC3    C5 6290   0.078   2.041   0.756 -0.3038 -0.2046  0.5769
  418TMC3    C6 6291   0.037   1.972   0.644 -0.6057  0.4944 -0.5510
  418TMC3     C 6292   0.273   2.292   0.599 -0.3534 -0.3086 -0.4898
  418TMC3     O 6293   0.258   2.379   0.517  0.2370 -0.1342 -0.0093
  418TMC3     H 6294   0.096   2.217   0.413  0.2421  2.7265  1.0011
  418TMC3    H1 6295   0.206   2.206   0.822  1.0734 -0.7537 -0.3067
  418TMC3    H2 6296   4.719   1.878   0.646 -0.9798  0.7454  0.8114
  418TMC3    C7 6297   0.116   1.952   0.865  0.2561  0.3070 -0.0998
  418TMC3    C8 6298   4.697   1.986   0.410 -0.0955 -0.7992 -0.4099
  418TMC3    O1 6299   0.132   1.829   0.844 -1.2619  0.5326 -0.7094
  418TMC3    O2 6300   4.617   2.061   0.361  0.8093  0.1598  0.0814
  419MPD2     C 6301   2.933   3.879  12.558  0.0246  0.2620  0.0860
  419MPD2    C1 6302   2.890   4.013  12.545 -0.0061 -0.0220 -0.1389
  419MPD2    C2 6303   2.807   4.061  12.646  0.1002 -0.2140  0.1501
  419MPD2    C3 6304   2.775   3.987  12.760  0.1874 -0.3833  0.6064
  419MPD2    C4 6305   2.808   3.853  12.760 -0.6721  0.3086  0.1813
  419MPD2    C5 6306   2.886   3.799  12.658  0.2337 -0.1444 -0.3366
  419MPD2     H 6307   2.782   4.167  12.650  0.8594 -0.0925  2.0528
  419MPD2    H1 6308   2.786   3.798  12.851  1.3965  0.1950  0.5971
  419MPD2    H2 6309   2.996   3.836  12.481  0.4927 -2.6766  2.1022
  419MPD2    H3 6310   2.921   3.697  12.660  1.5421  0.2998 -1.2684
  419MPD2     N 6311   2.716   4.051  12.869  0.3626 -0.1325  0.8379
  419MPD2    H5 6312   2.697   4.151  12.864 -1.2388 -0.5252 -0.8255
  419MPD2    N1 6313   2.928   4.110  12.449 -0.0968  0.5651  0.3643
  419MPD2    H7 6314   2.892   4.204  12.465  1.1479  1.4690 -2.1943
  420TMC3    C1 6315   2.652   4.095  13.082  0.6046  0.3545  0.4806
  420TMC3    C2 6316   2.583   4.204  13.031 -0.2518  0.3381  0.1130
  420TMC3    C3 6317   2.555   4.301  13.115 -0.0473  0.0698 -0.3048
  420TMC3    C4 6318   2.701   4.088  13.209  0.1033 -0.5834 -0.2160
  420TMC3    C5 6319   2.674   4.196  13.290  0.1315 -0.1694 -0.1448
  420TMC3    C6 6320   2.608   4.311  13.243 -0.2086 -0.2936 -0.3282
  420TMC3     C 6321   2.697   3.994  12.989 -0.0342 -0.2624 -0.1029
  420TMC3     O 6322   2.709   3.882  13.035 -0.0434 -0.2986  0.1154
  420TMC3     H 6323   2.546   4.213  12.929  0.1439 -1.4918 -0.1873
  420TMC3    H1 6324   2.761   4.004  13.244 -0.1757 -0.6112  0.1949
  420TMC3    H2 6325   2.568   4.391  13.304  0.6004  0.8408 -1.2845
  420TMC3    C7 6326   2.740   4.190  13.418 -0.6211 -0.0242  0.5228
  420TMC3    C8 6327   2.548   4.430  13.053 -0.0321 -0.3427 -0.5113
  420TMC3    O1 6328   2.834   4.114  13.425 -0.4506  0.2905  0.7658
  420TMC3    O2 6329   2.474   4.454  12.960 -0.3837  0.2263 -0.0657
  421TMC3    C1 6330   0.218   0.993  13.864 -0.3453 -0.3022  0.0763
  421TMC3    C2 6331   0.198   1.130  13.884 -0.6490 -0.1001  0.0967
  421TMC3    C3 6332   0.275   1.192  13.981  0.7726 -0.1617 -0.5616
  421TMC3    C4 6333   0.315   0.930  13.927  0.0682  0.5602  0.1413
  421TMC3    C5 6334   0.398   0.990  14.016 -0.6645  0.0945 -0.5542
  421TMC3    C6 6335   0.377   1.124  14.043  0.2549  0.2744  0.4000
  421TMC3     C 6336   0.197   0.946  13.730  0.2703 -0.2547 -0.0104
  421TMC3     O 6337   0.289   0.880  13.687  0.0218 -0.3752 -0.9564
  421TMC3     H 6338   0.119   1.187  13.836  0.8864  2.7649  0.9569
  421TMC3    H1 6339   0.334   0.829  13.895  1.2589  0.8011  0.0660
  421TMC3    H2 6340   0.431   1.185  14.114  2.8902 -1.4453 -0.1114
  421TMC3    C7 6341   0.489   0.915  14.098 -0.0217 -0.5260  0.5728
  421TMC3    C8 6342   0.249   1.322  14.033 -0.4937 -0.3840  0.2212
  421TMC3    O1 6343   0.550   0.976  14.185 -0.5153  0.2671  0.6006
  421TMC3    O2 6344   0.339   1.399  14.057 -0.3665 -0.1395  0.1200
  422TMC3    C1 6345   2.195   2.693  12.955 -0.0766 -0.3106 -0.0099
  422TMC3    C2 6346   2.322   2.743  12.960  0.2378 -0.4240  0.6620
  422TMC3    C3 6347   2.391   2.719  13.075  0.3160  0.0990 -0.7946
  422TMC3    C4 6348   2.148   2.598  13.047  0.3971 -0.4006  0.3796
  422TMC3    C5 6349   2.220   2.581  13.162 -0.6164 -0.2241  0.5709
  422TMC3    C6 6350   2.344   2.634  13.173  1.0366 -0.1015 -0.1901
  422TMC3     C 6351   2.120   2.716  12.840 -0.4037 -0.2701  0.1659
  422TMC3     O 6352   1.999   2.727  12.848  0.7737  0.1489  0.3111
  422TMC3     H 6353   2.341   2.823  12.890 -1.4950 -1.7217 -1.2980
  422TMC3    H1 6354   2.050   2.555  13.031  0.0299  1.5918 -2.7197
  422TMC3    H2 6355   2.386   2.638  13.273  0.9517 -1.9007 -0.0790
  422TMC3    C7 6356   2.188   2.466  13.247 -0.0048 -0.6094 -0.1446
  422TMC3    C8 6357   2.474   2.832  13.119  0.9585 -0.0989 -0.3217
  422TMC3    O1 6358   2.282   2.393  13.283 -0.0399 -0.1300  0.3007
  422TMC3    O2 6359   2.443   2.933  13.060  0.2844  1.1832 -0.4640
  423MPD2     C 6360   3.117   4.115  17.167  0.5229 -0.5639 -0.0355
  423MPD2    C1 6361   3.126   4.040  17.282 -0.0528 -0.1869 -1.0895
  423MPD2    C2 6362   3.233   3.950  17.294  0.6801 -0.5788 -0.2320
  423MPD2    C3 6363   3.342   3.957  17.204  0.4419 -0.3285 -0.2063
  423MPD2    C4 6364   3.343   4.048  17.104  0.1598  0.0355 -0.4268
  423MPD2    C5 6365   3.228   4.123  17.082  0.4887  0.8652 -0.4723
  423MPD2     H 6366   3.217   3.882  17.377  0.5168 -0.3227 -0.0535
  423MPD2    H1 6367   3.423   4.048  17.031  0.2702  0.0780 -0.3049
  423MPD2    H2 6368   3.036   4.181  17.138 -1.5154 -2.3293  1.7646
  423MPD2    H3 6369   3.216   4.180  16.991  2.5858  1.7754 -0.1759
  423MPD2     N 6370   3.437   3.854  17.206 -0.4412  0.8575  0.0403
  423MPD2    H5 6371   3.516   3.863  17.142  0.2924 -4.6834  0.2209
  423MPD2    N1 6372   3.028   4.052  17.382  0.5210  0.0911 -0.2400
  423MPD2    H7 6373   3.048   4.001  17.468 -3.1089 -0.1667  0.4660
  424TMC3    C1 6374   2.827   4.127  17.495  0.4923  0.1277  0.0974
  424TMC3    C2 6375   2.812   4.011  17.571 -0.0361  0.8233 -0.4932
  424TMC3    C3 6376   2.721   4.001  17.675 -0.0275  0.4568  0.2203
  424TMC3    C4 6377   2.747   4.235  17.533 -0.1734  0.0905  0.1503
  424TMC3    C5 6378   2.652   4.220  17.633  0.0949 -0.1983  0.1360
  424TMC3    C6 6379   2.632   4.102  17.702 -0.0901 -0.1374  0.1796
  424TMC3     C 6380   2.911   4.124  17.375 -0.5072 -0.2691 -0.6038
  424TMC3     O 6381   2.870   4.201  17.293 -0.4385  0.3025 -0.3428
  424TMC3     H 6382   2.848   3.917  17.532  0.4023  0.2444  1.3163
  424TMC3    H1 6383   2.770   4.332  17.490  2.4239 -1.5629 -2.1296
  424TMC3    H2 6384   2.558   4.097   0.039 -0.7132 -1.2395 -0.4797
  424TMC3    C7 6385   2.576   4.343  17.670  0.2775  0.4058 -0.1218
  424TMC3    C8 6386   2.741   3.884   0.032 -0.1889  0.2965 -0.4171
  424TMC3    O1 6387   2.613   4.438  17.596 -0.4847  0.2158  0.2603
  424TMC3    O2 6388   2.819   3.796   0.004  0.3453 -0.4898  0.0686
  425MPD2     C 6389   2.950   3.049  17.288  0.4687 -0.4859  0.2695
  425MPD2    C1 6390   2.949   2.936  17.373 -0.1119 -0.8602 -0.4495
  425MPD2    C2 6391   2.826   2.910  17.431  0.2080 -0.1381 -0.9275
  425MPD2    C3 6392   2.721   2.995  17.411  0.2619  0.2361 -0.0869
  425MPD2    C4 6393   2.727   3.105  17.334 -0.0175  0.5072 -0.3517
  425MPD2    C5 6394   2.840   3.125  17.261 -0.6038 -0.3498  0.0530
  425MPD2     H 6395   2.797   2.824  17.490  1.0955  0.2859  0.1357
  425MPD2    H1 6396   2.643   3.170  17.313  0.2281  1.3647  1.2809
  425MPD2    H2 6397   3.045   3.078  17.244  0.7850  0.4756  1.5793
  425MPD2    H3 6398   2.844   3.212  17.195 -2.7403 -0.8051 -0.6745
  425MPD2     N 6399   2.596   2.952  17.473 -0.0078  0.0456  0.0029
  425MPD2    H5 6400   2.597   2.859  17.516  1.6059 -0.0484 -0.2494
  425MPD2    N1 6401   3.060   2.858  17.392 -0.3125 -0.3093  0.0844
  425MPD2    H7 6402   3.137   2.882  17.331 -1.4713  0.5098 -1.0490
  426TMC3    C1 6403   3.174   2.671  17.429 -0.3068  0.1537 -0.3721
  426TMC3    C2 6404   3.160   2.637  17.294  0.3670  0.6247 -0.0063
  426TMC3    C3 6405   3.184   2.504  17.260 -0.4864 -0.1255 -0.2777
  426TMC3    C4 6406   3.203   2.576  17.524 -0.1598  0.0293  0.4060
  426TMC3    C5 6407   3.217   2.446  17.484 -0.5084  0.3667  0.3495
  426TMC3    C6 6408   3.214   2.410  17.351  0.8343 -0.6489  0.0396
  426TMC3     C 6409   3.075   2.758  17.480  0.1269  0.2840  0.5710
  426TMC3     O 6410   3.013   2.726  17.581  0.2313 -0.3314 -0.0408
  426TMC3     H 6411   3.121   2.710  17.224 -0.4112 -0.2126 -0.4457
  426TMC3    H1 6412   3.210   2.607  17.628 -0.0576  1.9464 -0.1706
  426TMC3    H2 6413   3.223   2.311  17.309  2.4192  0.1120 -1.4391
  426TMC3    C7 6414   3.179   2.344  17.577 -0.6036 -0.0779  0.0115
  426TMC3    C8 6415   3.154   2.459  17.128  0.5469  0.6556 -0.1596
  426TMC3    O1 6416   3.212   2.230  17.559  0.2151 -1.1441  0.8477
  426TMC3    O2 6417   3.227   2.380  17.073 -0.2958 -0.1014  0.3702
  427MPD2     C 6418   1.143   4.676  14.645  0.0188 -0.0775  0.0618
  427MPD2    C1 6419   1.167   4.720  14.774  0.3863 -0.1065 -1.1714
  427MPD2    C2 6420   1.073   0.055  14.843 -0.1445 -0.5790 -0.3221
  427MPD2    C3 6421   0.956   0.090  14.786  0.2572 -0.1075  0.2817
  427MPD2    C4 6422   0.928   0.040  14.664 -0.3622 -0.7008  0.2022
  427MPD2    C5 6423   1.019   4.699  14.596 -0.4149 -0.2398 -0.3230
  427MPD2     H 6424   1.098   0.082  14.944  0.9213  1.0741 -1.0295
  427MPD2    H1 6425   0.838   0.064  14.610  0.6771 -0.5233 -1.4670
  427MPD2    H2 6426   1.208   4.616  14.584  1.7400  0.8961  0.9354
  427MPD2    H3 6427   0.994   4.659  14.499  1.0017 -0.5324 -0.5713
  427MPD2     N 6428   0.856   0.180  14.841  0.8374 -0.4109  0.2775
  427MPD2    H5 6429   0.769   0.188  14.789  0.3123 -0.9108  1.0831
  427MPD2    N1 6430   1.272   4.668  14.847 -0.1293 -0.3695 -0.1033
  427MPD2    H7 6431   1.263   4.665  14.948  0.2009  1.6326 -0.0136
  428TMC3    C1 6432   1.479   4.561  14.885  0.3769  0.2644  0.1443
  428TMC3    C2 6433   1.431   4.458  14.962 -0.6804  1.0327 -0.1920
  428TMC3    C3 6434   1.527   4.381  15.026  0.4490 -0.0567 -0.4299
  428TMC3    C4 6435   1.608   4.596  14.873  0.4941  0.2780 -0.9919
  428TMC3    C5 6436   1.693   4.521  14.939  0.5970  0.2536  0.0393
  428TMC3    C6 6437   1.653   4.417  15.022 -0.7627  0.2598  1.1127
  428TMC3     C 6438   1.383   4.622  14.792 -0.7873  0.2066  0.1288
  428TMC3     O 6439   1.420   4.636  14.676 -0.4421  0.2630 -0.4072
  428TMC3     H 6440   1.329   4.428  14.940 -1.1627  0.0823  3.3862
  428TMC3    H1 6441   1.635   4.675  14.805  3.7069 -0.6557 -0.7792
  428TMC3    H2 6442   1.721   4.354  15.077  0.6602  1.0680  0.2697
  428TMC3    C7 6443   1.835   4.547  14.952  0.4922 -0.1669  0.2512
  428TMC3    C8 6444   1.481   4.256  15.086  0.1170 -0.2806  0.1096
  428TMC3    O1 6445   1.896   4.487  15.037  0.2339 -0.8422  0.4684
  428TMC3    O2 6446   1.570   4.173  15.098 -0.1671  0.7346 -0.2299
  429MPD2     C 6447   1.760   0.214  17.389 -0.5695  0.4074  0.3073
  429MPD2    C1 6448   1.883   0.158  17.372 -0.0355 -0.2873 -0.5877
  429MPD2    C2 6449   1.960   0.209  17.267 -0.3664  0.7735 -0.3304
  429MPD2    C3 6450   1.910   0.298  17.178 -0.4978  0.2727 -0.7563
  429MPD2    C4 6451   1.790   0.363  17.205  0.3094  1.0672 -1.2331
  429MPD2    C5 6452   1.714   0.314  17.308 -0.1669  0.9805 -0.5768
  429MPD2     H 6453   2.064   0.179  17.261 -0.1999  1.1311  0.7746
  429MPD2    H1 6454   1.751   0.439  17.139 -1.8981  0.5143 -0.5694
  429MPD2    H2 6455   1.691   0.180  17.464 -2.0301  0.5375 -0.9831
  429MPD2    H3 6456   1.610   0.341  17.321 -0.4473 -0.9302  1.1378
  429MPD2     N 6457   1.994   0.336  17.067 -0.1349  0.2535 -0.7844
  429MPD2    H5 6458   2.091   0.308  17.066  0.4915  2.4403 -0.4701
  429MPD2    N1 6459   1.938   0.061  17.462 -1.0482 -0.4607  0.0417
  429MPD2    H7 6460   2.023   0.009  17.444 -1.3810 -0.8918 -0.3015
  430TMC3    C1 6461   2.035   0.435  16.857 -0.4363  0.9261  1.1467
  430TMC3    C2 6462   1.982   0.461  16.730 -0.1225 -0.5300  0.3098
  430TMC3    C3 6463   2.075   0.483  16.635 -0.0208  0.2120  0.1377
  430TMC3    C4 6464   2.170   0.452  16.890 -0.7961 -0.4322  0.3960
  430TMC3    C5 6465   2.253   0.465  16.782 -0.2144  0.5003 -0.0344
  430TMC3    C6 6466   2.212   0.482  16.657 -0.7370 -0.2149 -0.2915
  430TMC3     C 6467   1.939   0.398  16.959  0.2902 -0.6103  0.7824
  430TMC3     O 6468   1.822   0.403  16.918 -0.1991  0.3024  0.1230
  430TMC3     H 6469   1.877   0.448  16.705 -0.3442 -1.5854  1.7814
  430TMC3    H1 6470   2.206   0.438  16.992  1.5092 -0.3115 -0.4018
  430TMC3    H2 6471   2.283   0.517  16.583 -2.3499 -0.6414 -2.0542
  430TMC3    C7 6472   2.398   0.484  16.800 -0.3738  0.3215  0.4436
  430TMC3    C8 6473   2.030   0.575  16.531  0.6342 -0.5022  0.9977
  430TMC3    O1 6474   2.435   0.518  16.911 -0.3272  0.4495 -0.0645
  430TMC3    O2 6475   1.932   0.646  16.547 -0.7688 -0.4356 -0.3588
  431MPD2     C 6476   2.930   0.159  12.737  0.3370  0.9506 -0.4488
  431MPD2    C1 6477   3.020   0.183  12.635  0.7751 -0.2601  0.5980
  431MPD2    C2 6478   3.033   0.086  12.537 -0.4909 -0.0688  0.1956
  431MPD2    C3 6479   2.964   4.698  12.544 -0.1167  0.1614 -0.4070
  431MPD2    C4 6480   2.883   4.675  12.651 -0.3843  0.2318 -0.8846
  431MPD2    C5 6481   2.865   0.040  12.745  0.3832 -0.3391 -0.2910
  431MPD2     H 6482   3.104   0.099  12.456 -0.6991  0.4547  0.0981
  431MPD2    H1 6483   2.832   4.580  12.665  3.2413 -1.4042  0.9588
  431MPD2    H2 6484   2.901   0.236  12.808  3.5543  2.3795 -0.6815
  431MPD2    H3 6485   2.791   0.014  12.820 -0.6175 -1.6658 -1.7409
  431MPD2     N 6486   2.972   4.593  12.448  0.2345  0.8524  0.5021
  431MPD2    H5 6487   2.892   4.531  12.453  2.0033 -1.4300  0.8629
  431MPD2    N1 6488   3.098   0.300  12.623  0.0510  0.0185  0.5753
  431MPD2    H7 6489   3.147   0.327  12.539 -1.1051 -0.0899 -0.1399
  432TMC3    C1 6490   3.073   4.455  12.292  0.1059 -0.0830 -0.5888
  432TMC3    C2 6491   3.121   4.454  12.162  0.3701  0.2457  0.3421
  432TMC3    C3 6492   3.131   4.328  12.109  0.1033  0.6226 -0.1869
  432TMC3    C4 6493   3.033   4.346  12.367 -0.2396 -0.0501  0.4498
  432TMC3    C5 6494   3.058   4.226  12.304  0.2518  0.2767  0.0511
  432TMC3    C6 6495   3.115   4.216  12.179  0.3773  0.0326  0.4161
  432TMC3     C 6496   3.068   4.589  12.346 -0.5432 -1.4470  0.3217
  432TMC3     O 6497   3.148   4.669  12.299  0.4397 -0.1709  0.6082
  432TMC3     H 6498   3.146   4.543  12.105  2.3782 -0.6814 -0.1878
  432TMC3    H1 6499   3.003   4.345  12.471  0.9352  0.3466  0.7853
  432TMC3    H2 6500   3.127   4.119  12.132  2.6438 -0.0207  1.1215
  432TMC3    C7 6501   3.031   4.096  12.364  0.2596  0.0774 -0.3177
  432TMC3    C8 6502   3.231   4.320  12.007 -0.3274  0.1919 -0.7518
  432TMC3    O1 6503   3.086   3.997  12.315  0.1373  0.0085 -0.0660
  432TMC3    O2 6504   3.207   4.382  11.902 -0.0732 -0.3820  0.1972
  433MPD2     C 6505   2.659   3.911  11.041  0.6960 -0.0785  0.0167
  433MPD2    C1 6506   2.621   3.785  11.085  0.0574  0.3686  0.0429
  433MPD2    C2 6507   2.615   3.760  11.231  0.4677 -1.0410  0.8037
  433MPD2    C3 6508   2.645   3.869  11.317 -0.1810 -0.4331  0.0794
  433MPD2    C4 6509   2.665   3.993  11.264 -0.0890  0.2214  0.2825
  433MPD2    C5 6510   2.674   4.012  11.131 -0.2413 -0.6733 -0.0642
  433MPD2     H 6511   2.594   3.658  11.260  0.5345 -1.4250 -0.4645
  433MPD2    H1 6512   2.680   4.083  11.321 -1.7469 -0.6101  2.0395
  433MPD2    H2 6513   2.649   3.934  10.936  1.2746  1.1613  0.2263
  433MPD2    H3 6514   2.681   4.114  11.093  1.5116 -0.9122 -0.3674
  433MPD2     N 6515   2.640   3.839  11.454 -0.7231  0.1665  0.5271
  433MPD2    H5 6516   2.629   3.743  11.487  1.2525 -0.7594 -1.4479
  433MPD2    N1 6517   2.597   3.682  10.996  0.1876 -0.2426 -0.4221
  433MPD2    H7 6518   2.633   3.696  10.903  0.2583  3.3550  0.1312
  434TMC3    C1 6519   2.548   3.472  10.908 -0.0566 -0.6259  0.1588
  434TMC3    C2 6520   2.539   3.340  10.942  0.9445  0.1594  0.6595
  434TMC3    C3 6521   2.572   3.242  10.849  0.4005  0.2605  0.5626
  434TMC3    C4 6522   2.587   3.513  10.781 -0.6909 -0.5005  0.0178
  434TMC3    C5 6523   2.621   3.420  10.690  0.3356 -0.7900  0.1410
  434TMC3    C6 6524   2.618   3.288  10.722 -0.0203 -0.0589  0.4730
  434TMC3     C 6525   2.543   3.563  11.020 -0.3003  0.0253 -0.3785
  434TMC3     O 6526   2.479   3.521  11.115 -0.5182 -0.1986 -0.8778
  434TMC3     H 6527   2.528   3.320  11.048 -2.0579  1.5555  0.6453
  434TMC3    H1 6528   2.571   3.617  10.755 -1.3669 -0.5260  0.3389
  434TMC3    H2 6529   2.655   3.209  10.657 -1.7210 -1.6831  1.4648
  434TMC3    C7 6530   2.581   3.453  10.552 -0.1350 -0.2306  1.1739
  434TMC3    C8 6531   2.624   3.125  10.916 -0.1549  0.9110  0.1763
  434TMC3    O1 6532   2.601   3.573  10.524  0.4730 -0.5618 -0.1648
  434TMC3    O2 6533   2.700   3.152  11.005  0.2252  0.1931  0.0921
  435MPD2     C 6534   4.538   3.672  15.321 -0.3329  0.3199  0.3822
  435MPD2    C1 6535   4.504   3.655  15.457  0.3011  0.7397 -0.4506
  435MPD2    C2 6536   4.600   3.629  15.552 -0.7113 -0.6954  0.0068
  435MPD2    C3 6537   4.727   3.598  15.505 -0.4951 -0.2339  0.2525
  435MPD2    C4 6538   0.031   3.618  15.374 -0.4388  0.4805  0.3054
  435MPD2    C5 6539   4.667   3.640  15.285  0.1358  0.0734  0.1318
  435MPD2     H 6540   4.569   3.609  15.654 -1.4451  0.9081  0.1030
  435MPD2    H1 6541   0.131   3.606  15.336  0.1714  0.8711  1.7933
  435MPD2    H2 6542   4.467   3.702  15.246 -0.3947  1.0684  0.7373
  435MPD2    H3 6543   4.681   3.657  15.179 -0.0133 -0.6045  0.0032
  435MPD2     N 6544   0.084   3.542  15.597 -0.2859  0.6252  0.2928
  435MPD2    H5 6545   0.049   3.514  15.689 -3.8106  0.8459 -0.9901
  435MPD2    N1 6546   4.373   3.674  15.511 -0.4246  0.4465 -0.0498
  435MPD2    H7 6547   4.362   3.655  15.610 -1.5136 -0.7707 -0.4038
  436TMC3    C1 6548   4.010   3.814  15.679  0.3002 -0.1765 -0.7438
  436TMC3    C2 6549   4.137   3.785  15.633  0.2049  0.7742 -1.1131
  436TMC3    C3 6550   4.144   3.747  15.500  0.2118  0.1781 -0.0455
  436TMC3    C4 6551   3.900   3.794  15.605 -0.2266  0.2460 -0.3284
  436TMC3    C5 6552   3.910   3.767  15.473 -0.2275 -0.0723  0.5131
  436TMC3    C6 6553   4.033   3.741  15.418 -0.3181  0.3815 -0.3180
  436TMC3     C 6554   4.014   3.888  15.805 -0.1034  0.4141 -0.1078
  436TMC3     O 6555   4.122   3.886  15.867  0.1752  0.4534  0.1905
  436TMC3     H 6556   4.228   3.810  15.686  0.3860  0.8957 -1.4838
  436TMC3    H1 6557   3.802   3.810  15.649  0.1807 -0.2483  0.7587
  436TMC3    H2 6558   4.049   3.705  15.317  1.5576 -1.6252  0.6985
  436TMC3    C7 6559   3.798   3.713  15.398 -0.4241  0.2816  0.6230
  436TMC3    C8 6560   4.271   3.726  15.435  0.6896 -0.4317  0.0793
  436TMC3    O1 6561   3.783   3.596  15.426 -0.1719 -0.6115  0.1865
  436TMC3    O2 6562   4.269   3.768  15.321 -0.1199  0.3831  0.4681
  437TMC3    C1 6563   2.387   1.139  12.908  0.0116  0.1611  0.6042
  437TMC3    C2 6564   2.274   1.200  12.963 -0.2695 -0.4082  0.0298
  437TMC3    C3 6565   2.243   1.323  12.907 -0.5004  0.1370  0.2961
  437TMC3    C4 6566   2.463   1.191  12.798  0.4032  0.6777  0.0566
  437TMC3    C5 6567   2.422   1.319  12.757 -0.5019  0.6446 -0.5083
  437TMC3    C6 6568   2.314   1.384  12.804 -0.3025  0.3459 -0.6730
  437TMC3     C 6569   2.409   0.993  12.946  0.0025 -0.5252  0.6388
  437TMC3     O 6570   2.311   0.923  12.961 -0.8900 -0.6859 -0.1942
  437TMC3     H 6571   2.205   1.153  13.032  2.4985 -2.6592  1.2290
  437TMC3    H1 6572   2.533   1.135  12.737  1.8478  1.5324  0.9370
  437TMC3    H2 6573   2.287   1.482  12.767 -1.0263  0.8738  1.2573
  437TMC3    C7 6574   2.512   1.388  12.657 -0.3476 -0.3459 -0.6402
  437TMC3    C8 6575   2.128   1.394  12.955 -0.1993  0.7091 -0.3585
  437TMC3    O1 6576   2.482   1.490  12.601  0.5848  0.3173 -0.3092
  437TMC3    O2 6577   2.043   1.443  12.881 -0.0036 -0.1998  0.1451
  438MPD2     C 6578   0.504   1.818  16.703  0.0448 -0.0577 -0.2118
  438MPD2    C1 6579   0.618   1.769  16.762 -0.2504  0.1126  0.3860
  438MPD2    C2 6580   0.608   1.728  16.893 -0.1329 -0.2353  0.7205
  438MPD2    C3 6581   0.493   1.759  16.969 -0.2917  0.0505 -0.2601
  438MPD2    C4 6582   0.379   1.815  16.913 -0.9423  0.1156 -0.3643
  438MPD2    C5 6583   0.390   1.839  16.776  0.4767 -0.0801 -0.4796
  438MPD2     H 6584   0.688   1.673  16.941 -0.0370  0.7929  1.7534
  438MPD2    H1 6585   0.285   1.821  16.966 -0.3439 -0.1380  0.7327
  438MPD2    H2 6586   0.505   1.841  16.597 -2.5311  3.4474  0.5112
  438MPD2    H3 6587   0.302   1.881  16.729  0.2322 -0.6494 -0.5376
  438MPD2     N 6588   0.472   1.726  17.107  0.1133  0.4058 -0.4560
  438MPD2    H5 6589   0.386   1.757  17.152 -0.2653 -0.5737 -0.5032
  438MPD2    N1 6590   0.730   1.727  16.693 -0.0051 -0.3610 -0.5276
  438MPD2    H7 6591   0.800   1.680  16.749  1.6168  1.6419 -0.8797
  439TMC3    C1 6592   0.861   1.653  16.509 -0.1009 -0.4860  0.1546
  439TMC3    C2 6593   0.849   1.585  16.390  0.6235  0.4757 -0.2729
  439TMC3    C3 6594   0.945   1.490  16.366  0.1750  0.1175 -0.3456
  439TMC3    C4 6595   0.971   1.633  16.590  0.0555 -0.1784 -0.7959
  439TMC3    C5 6596   1.066   1.545  16.548  0.4184  0.2654  0.3811
  439TMC3    C6 6597   1.054   1.468  16.438 -0.1512 -1.0487 -0.6605
  439TMC3     C 6598   0.751   1.738  16.554 -0.2072  0.4189 -0.3529
  439TMC3     O 6599   0.672   1.773  16.461 -0.4859 -0.0588  0.2372
  439TMC3     H 6600   0.758   1.576  16.331  0.1265  1.0188  0.4004
  439TMC3    H1 6601   0.992   1.717  16.656  0.5307  0.3562 -1.6236
  439TMC3    H2 6602   1.126   1.387  16.431 -1.7704 -2.7467  2.0378
  439TMC3    C7 6603   1.191   1.518  16.624  0.0493 -0.2750 -0.0910
  439TMC3    C8 6604   0.939   1.413  16.240 -0.5552 -0.5080  0.1370
  439TMC3    O1 6605   1.215   1.408  16.675  0.2526  0.0111 -0.7910
  439TMC3    O2 6606   0.998   1.310  16.229 -0.1010 -0.3423  0.2057
  440MPD2     C 6607   3.921   1.950  14.921  0.0519  0.0639  1.0368
  440MPD2    C1 6608   3.990   2.035  14.999 -0.1357  0.5849 -0.5339
  440MPD2    C2 6609   4.110   1.983  15.054 -0.5938 -0.1128  0.1299
  440MPD2    C3 6610   4.164   1.861  15.012 -0.1958 -0.0053 -0.5153
  440MPD2    C4 6611   4.089   1.784  14.929 -0.2880  0.8335 -0.2368
  440MPD2    C5 6612   3.968   1.833  14.887 -0.6197  0.0657  0.3087
  440MPD2     H 6613   4.158   2.048  15.126 -0.0504 -0.4172  0.0388
  440MPD2    H1 6614   4.125   1.688  14.892 -0.7700  0.4508  0.2859
  440MPD2    H2 6615   3.817   1.969  14.896  0.8178  1.0344 -1.4138
  440MPD2    H3 6616   3.905   1.772  14.823  0.0730  1.6229 -1.8565
  440MPD2     N 6617   4.289   1.820  15.066  0.2671  0.4774  0.1856
  440MPD2    H5 6618   4.322   1.726  15.046  2.9169  1.3755  0.3096
  440MPD2    N1 6619   3.948   2.161  15.036 -0.9184  0.0239 -0.5795
  440MPD2    H7 6620   4.010   2.205  15.103 -0.3421  0.6942 -1.5583
  441TMC3    C1 6621   4.491   1.819  15.187 -0.3308 -0.5636 -0.6535
  441TMC3    C2 6622   4.599   1.897  15.197  0.5698  0.2483 -0.0815
  441TMC3    C3 6623   4.691   1.862  15.297  0.2307  0.1437  0.1325
  441TMC3    C4 6624   4.466   1.711  15.268  0.4044  0.4120  0.2983
  441TMC3    C5 6625   4.566   1.666  15.347 -0.5401  0.0808  0.1421
  441TMC3    C6 6626   4.671   1.753  15.376 -0.1726  0.1722  0.1274
  441TMC3     C 6627   4.375   1.892  15.149 -0.7569  0.4705 -0.6040
  441TMC3     O 6628   4.368   2.009  15.181  0.0220 -0.3832  0.9711
  441TMC3     H 6629   4.598   1.998  15.157 -2.5646  0.5944  0.8774
  441TMC3    H1 6630   4.375   1.653  15.256  0.5254 -0.0286  1.5736
  441TMC3    H2 6631   4.727   1.744  15.468 -2.6023 -0.6227  1.5439
  441TMC3    C7 6632   4.538   1.559  15.441  0.7906  0.1277 -0.0884
  441TMC3    C8 6633   0.007   1.971  15.380  0.7717 -0.4174  0.3080
  441TMC3    O1 6634   4.429   1.498  15.421  0.7886  0.0489  0.4419
  441TMC3    O2 6635   0.099   1.949  15.460 -0.8794 -1.1355 -0.2469
  442MPD2     C 6636   2.499   2.536  16.514  0.7421 -1.4031 -0.5741
  442MPD2    C1 6637   2.451   2.448  16.607  0.2312 -0.5637 -0.4645
  442MPD2    C2 6638   2.473   2.316  16.576  0.4705 -0.6754  0.1523
  442MPD2    C3 6639   2.529   2.258  16.461 -0.6839  0.2926 -0.3520
  442MPD2    C4 6640   2.586   2.346  16.377  0.0185  0.2999 -0.2701
  442MPD2    C5 6641   2.565   2.482  16.400  0.5112 -0.9517  0.0762
  442MPD2     H 6642   2.438   2.251  16.656 -1.1482 -0.1010 -0.1033
  442MPD2    H1 6643   2.635   2.321  16.283 -1.6730 -1.6109 -0.6444
  442MPD2    H2 6644   2.496   2.644  16.529  0.5929 -1.5413  0.3842
  442MPD2    H3 6645   2.613   2.544  16.325 -1.5788  1.6091  0.8583
  442MPD2     N 6646   2.528   2.121  16.436  0.1592 -0.2928 -0.3489
  442MPD2    H5 6647   2.582   2.084  16.359 -0.9040  1.2456 -1.8129
  442MPD2    N1 6648   2.392   2.487  16.730  0.2420  0.3383 -0.7626
  442MPD2    H7 6649   2.342   2.417  16.784 -0.0908  2.1836  1.3140
  443TMC3    C1 6650   2.294   2.631  16.890 -0.2952  0.2543  0.5237
  443TMC3    C2 6651   2.199   2.737  16.899 -0.0017  0.5758 -0.2820
  443TMC3    C3 6652   2.087   2.706  16.965  0.2374 -0.6326 -0.0652
  443TMC3    C4 6653   2.297   2.531  16.981 -0.3718  0.7398  0.3149
  443TMC3    C5 6654   2.199   2.528  17.071  0.2109 -0.1326  0.5742
  443TMC3    C6 6655   2.090   2.611  17.062 -0.1144 -0.3327 -0.4691
  443TMC3     C 6656   2.372   2.616  16.769 -0.1886  0.2283 -0.2809
  443TMC3     O 6657   2.402   2.717  16.713 -1.2140 -0.0136  0.3172
  443TMC3     H 6658   2.197   2.813  16.821 -1.0619  0.0878 -0.7276
  443TMC3    H1 6659   2.384   2.467  16.989 -1.5813 -1.0406 -1.0947
  443TMC3    H2 6660   2.002   2.583  17.118  0.2162  2.9486  1.7042
  443TMC3    C7 6661   2.193   2.409  17.154  0.9037 -0.4807  0.4785
  443TMC3    C8 6662   1.981   2.801  16.987 -0.0650  0.3912 -0.0043
  443TMC3    O1 6663   2.273   2.320  17.133 -0.3803 -0.3803  0.2209
  443TMC3    O2 6664   1.955   2.815  17.108 -0.3375  0.2603 -0.0434
  444MPD2     C 6665   2.778   1.966  16.925  1.0363  0.1727 -0.3382
  444MPD2    C1 6666   2.709   1.841  16.934  0.2935  0.2122 -0.3310
  444MPD2    C2 6667   2.755   1.738  16.844 -0.0249 -0.1416  0.7501
  444MPD2    C3 6668   2.861   1.770  16.755 -0.6223  0.5952 -0.8237
  444MPD2    C4 6669   2.907   1.902  16.742 -0.4874 -0.2559  0.1273
  444MPD2    C5 6670   2.861   1.998  16.820 -0.2480 -0.5601 -0.2492
  444MPD2     H 6671   2.721   1.636  16.861  0.3205 -0.5988 -1.3217
  444MPD2    H1 6672   2.988   1.936  16.678 -1.9541  0.7118 -1.1968
  444MPD2    H2 6673   2.770   2.045  16.998 -2.0048 -1.9187  1.5433
  444MPD2    H3 6674   2.905   2.097  16.811 -0.3183 -0.5281 -0.2377
  444MPD2     N 6675   2.908   1.675  16.665  0.6413  0.1775  0.6327
  444MPD2    H5 6676   2.852   1.591  16.659  0.5614  0.1626  1.5793
  444MPD2    N1 6677   2.623   1.809  17.042 -0.1065 -0.1479 -0.1538
  444MPD2    H7 6678   2.579   1.718  17.039 -1.5781  0.4370  2.9300
  445TMC3    C1 6679   3.061   1.560  16.527  0.5831  0.4440 -0.1314
  445TMC3    C2 6680   2.977   1.455  16.501  0.2472 -0.0532 -0.2936
  445TMC3    C3 6681   3.020   1.335  16.444  0.4090 -0.8158 -0.5462
  445TMC3    C4 6682   3.196   1.545  16.509  0.3788 -0.1977 -0.0363
  445TMC3    C5 6683   3.237   1.420  16.473  0.4281  0.3763  0.5560
  445TMC3    C6 6684   3.154   1.318  16.429 -0.1261  0.4803  0.4831
  445TMC3     C 6685   3.021   1.686  16.590  0.0443 -0.1210  0.1720
  445TMC3     O 6686   3.095   1.779  16.573  0.0958  0.0674  0.0089
  445TMC3     H 6687   2.870   1.473  16.506  0.4023  1.3573 -2.1283
  445TMC3    H1 6688   3.262   1.625  16.541  1.4344 -0.7535 -0.8513
  445TMC3    H2 6689   3.186   1.218  16.404 -0.1846  1.1516 -2.2887
  445TMC3    C7 6690   3.377   1.392  16.476 -0.1035  0.2377  0.2241
  445TMC3    C8 6691   2.930   1.227  16.403  0.2363 -0.0508 -0.3030
  445TMC3    O1 6692   3.447   1.456  16.553 -0.3167  0.3649  0.1731
  445TMC3    O2 6693   2.981   1.146  16.325  0.0047 -0.0300 -1.1166
  446MPD2     C 6694   2.398   2.980  11.464  0.0750 -0.3524  0.0754
  446MPD2    C1 6695   2.411   2.988  11.326 -1.0082  0.5991  1.0892
  446MPD2    C2 6696   2.517   3.060  11.275  0.5917 -1.1771  0.2679
  446MPD2    C3 6697   2.612   3.116  11.357  0.8057 -0.0181 -0.8333
  446MPD2    C4 6698   2.598   3.110  11.492 -0.1617 -0.0036 -0.1088
  446MPD2    C5 6699   2.491   3.041  11.546 -0.3750  0.0018 -0.6285
  446MPD2     H 6700   2.533   3.077  11.169  2.1272  1.4661  0.9502
  446MPD2    H1 6701   2.664   3.168  11.555  0.3176 -0.0987 -0.5239
  446MPD2    H2 6702   2.321   2.934  11.525 -1.5881  3.3162  0.7755
  446MPD2    H3 6703   2.478   3.030  11.653  0.3820 -0.3419 -0.5725
  446MPD2     N 6704   2.733   3.169  11.295  0.2418 -0.1954 -0.2145
  446MPD2    H5 6705   2.729   3.188  11.195 -3.6002  3.2714  0.5936
  446MPD2    N1 6706   2.322   2.924  11.235 -0.1750  0.1467  0.5852
  446MPD2    H7 6707   2.340   2.959  11.142 -1.3805 -2.0840 -0.4948
  447TMC3    C1 6708   2.951   3.239  11.251 -0.7259 -0.0326 -0.0128
  447TMC3    C2 6709   2.915   3.324  11.149 -0.5670  0.1903 -0.0053
  447TMC3    C3 6710   3.001   3.348  11.045  0.0352 -0.0102  0.4323
  447TMC3    C4 6711   3.074   3.173  11.249 -0.1395  0.6800  0.0625
  447TMC3    C5 6712   3.160   3.209  11.149 -0.2912 -0.3846  0.8702
  447TMC3    C6 6713   3.128   3.300  11.048 -0.3972 -0.4302 -0.6375
  447TMC3     C 6714   2.852   3.196  11.355 -0.1814 -0.1076 -0.9522
  447TMC3     O 6715   2.895   3.151  11.458  0.4664 -0.2538 -0.2599
  447TMC3     H 6716   2.813   3.361  11.144 -1.4961 -2.3203  0.2517
  447TMC3    H1 6717   3.103   3.113  11.334 -1.9894 -3.5371 -2.2831
  447TMC3    H2 6718   3.209   3.336  10.985 -1.2333 -1.7096 -2.4455
  447TMC3    C7 6719   3.286   3.142  11.129  0.2460 -0.1627 -0.5576
  447TMC3    C8 6720   2.943   3.388  10.918 -0.8622  0.3383  0.1412
  447TMC3    O1 6721   3.339   3.145  11.017 -0.2007 -0.2033 -0.0166
  447TMC3    O2 6722   2.859   3.477  10.917 -0.3378 -0.5200  0.0704
  448TMC3    C1 6723   0.675   2.635  17.229 -1.0740  0.3138 -0.7333
  448TMC3    C2 6724   0.694   2.633  17.089  0.1224  0.3858  0.5196
  448TMC3    C3 6725   0.769   2.738  17.034 -0.0884 -0.1609  0.8124
  448TMC3    C4 6726   0.728   2.734  17.308  0.2416  0.0103 -0.1744
  448TMC3    C5 6727   0.799   2.833  17.248 -0.2833 -0.3674 -0.0040
  448TMC3    C6 6728   0.821   2.836  17.113 -0.1639  0.2975  0.3116
  448TMC3     C 6729   0.585   2.539  17.290 -0.0012 -0.8004 -0.4962
  448TMC3     O 6730   0.563   2.565  17.405 -0.0701  0.0326 -0.1392
  448TMC3     H 6731   0.668   2.550  17.025 -2.1459  0.4572  1.3496
  448TMC3    H1 6732   0.745   2.721  17.414  0.8586 -0.0829 -0.2841
  448TMC3    H2 6733   0.865   2.920  17.061 -0.7282 -0.2369 -1.0111
  448TMC3    C7 6734   0.839   2.948  17.333 -0.3377  0.1496 -0.2077
  448TMC3    C8 6735   0.839   2.692  16.916  0.1461  0.1630  0.3410
  448TMC3    O1 6736   0.909   3.029  17.273  0.3709  0.3304  0.4153
  448TMC3    O2 6737   0.960   2.699  16.904  0.3195 -0.1708 -0.0101
  449MPD2     C 6738   2.026   1.357  13.910 -0.6000  0.2860 -0.4133
  449MPD2    C1 6739   1.917   1.433  13.888  0.4044  0.6074  0.2329
  449MPD2    C2 6740   1.798   1.382  13.934  0.2028 -0.1618  0.1742
  449MPD2    C3 6741   1.795   1.274  14.021 -0.2329 -0.3154 -0.6912
  449MPD2    C4 6742   1.907   1.198  14.038 -0.1717  0.1131  0.5354
  449MPD2    C5 6743   2.019   1.241  13.982 -0.0024 -0.4827  0.1618
  449MPD2     H 6744   1.700   1.430  13.932  0.7265  0.9670  1.7818
  449MPD2    H1 6745   1.910   1.104  14.093  0.4546  0.1724  0.6097
  449MPD2    H2 6746   2.120   1.386  13.865 -0.8497  0.8575 -0.5664
  449MPD2    H3 6747   2.113   1.186  13.991  0.3204 -0.0169 -0.4071
  449MPD2     N 6748   1.674   1.254  14.091  0.0433 -0.1734 -0.0792
  449MPD2    H5 6749   1.593   1.303  14.054 -0.7949 -0.7706  0.9564
  449MPD2    N1 6750   1.917   1.559  13.820 -0.2929  0.1690  0.3246
  449MPD2    H7 6751   1.836   1.615  13.842 -1.1086 -1.3770  1.2365
  450TMC3    C1 6752   1.970   1.738  13.697  0.0724  0.5323 -0.3058
  450TMC3    C2 6753   1.965   1.740  13.563  0.2256  0.1148 -0.0445
  450TMC3    C3 6754   1.851   1.794  13.505  0.2911  0.5193 -0.3053
  450TMC3    C4 6755   1.876   1.793  13.779 -0.2844  0.0620 -0.2499
  450TMC3    C5 6756   1.757   1.834  13.720  0.1153  0.3064  0.3867
  450TMC3    C6 6757   1.746   1.831  13.579 -0.3855  0.0709 -0.0729
  450TMC3     C 6758   2.017   1.614  13.747  0.5524 -0.0300  0.0172
  450TMC3     O 6759   2.125   1.568  13.719 -0.1531 -0.5202 -0.4236
  450TMC3     H 6760   2.028   1.671  13.510  0.7743 -1.5304  2.7548
  450TMC3    H1 6761   1.884   1.802  13.886 -1.0330  2.0570 -0.3590
  450TMC3    H2 6762   1.652   1.866  13.540 -0.2661 -0.0053 -0.4336
  450TMC3    C7 6763   1.641   1.797  13.801  0.9475  0.3795 -0.2232
  450TMC3    C8 6764   1.845   1.822  13.366 -0.0270 -0.0692 -0.2832
  450TMC3    O1 6765   1.664   1.718  13.896 -0.1555 -0.1531  0.2209
  450TMC3    O2 6766   1.738   1.863  13.319  0.6369 -0.0168 -0.2750
  451MPD2     C 6767   3.150   0.622   1.446  0.2243 -0.6901 -0.4080
  451MPD2    C1 6768   3.134   0.572   1.321  0.5009  0.5147 -0.5859
  451MPD2    C2 6769   3.250   0.538   1.247  0.0127 -0.2061  0.0779
  451MPD2    C3 6770   3.371   0.536   1.313  0.0543  0.0172  0.9972
  451MPD2    C4 6771   3.385   0.592   1.440  0.4197 -0.5959  0.2885
  451MPD2    C5 6772   3.276   0.643   1.502  0.6966 -0.5938 -0.3499
  451MPD2     H 6773   3.239   0.513   1.142 -2.2333  1.2322 -0.0361
  451MPD2    H1 6774   3.483   0.599   1.486 -0.0248 -2.2624  1.4673
  451MPD2    H2 6775   3.073   0.672   1.503  0.1558  0.3480 -1.4083
  451MPD2    H3 6776   3.288   0.681   1.603  1.6827 -0.3813 -0.5468
  451MPD2     N 6777   3.486   0.490   1.245 -0.1417 -0.2421  0.4788
  451MPD2    H5 6778   3.573   0.518   1.289 -0.0411 -0.6301  0.5253
  451MPD2    N1 6779   3.001   0.538   1.287 -0.4080 -0.4900  0.7526
  451MPD2    H7 6780   2.937   0.545   1.365 -1.4831 -1.7354 -0.0188
  452TMC3    C1 6781   3.406   0.350   1.057 -0.1754 -0.0141  0.1427
  452TMC3    C2 6782   3.341   0.267   1.138  0.5857 -0.1887  0.7089
  452TMC3    C3 6783   3.262   0.160   1.077  0.6142 -0.2508 -0.1641
  452TMC3    C4 6784   3.400   0.336   0.921  0.1669  1.0306  0.2403
  452TMC3    C5 6785   3.340   0.229   0.864 -0.0803  0.2422 -0.2288
  452TMC3    C6 6786   3.274   0.138   0.942  0.3739  0.1209  0.4249
  452TMC3     C 6787   3.499   0.442   1.114  0.2539  0.2132  0.9946
  452TMC3     O 6788   3.605   0.442   1.057 -0.4212  0.4295 -0.1623
  452TMC3     H 6789   3.337   0.290   1.244 -1.5700  1.1093  0.3558
  452TMC3    H1 6790   3.456   0.406   0.861  2.9574 -0.0578  1.5446
  452TMC3    H2 6791   3.228   0.053   0.892  1.6052  0.5253 -1.3842
  452TMC3    C7 6792   3.426   0.181   0.756 -0.3742 -0.0037 -0.6252
  452TMC3    C8 6793   3.146   0.114   1.159  0.4310  0.8479  0.1912
  452TMC3    O1 6794   3.505   0.255   0.700 -0.7015  0.5556  0.2817
  452TMC3    O2 6795   3.123   0.176   1.263  0.1654 -0.9134 -0.0945
  453TMC3    C1 6796   4.412   1.667  11.825  0.2946  0.5734 -0.0877
  453TMC3    C2 6797   4.345   1.555  11.786  0.1801 -0.3329  0.8501
  453TMC3    C3 6798   4.308   1.550  11.652 -0.4900 -0.1168 -0.3504
  453TMC3    C4 6799   4.415   1.780  11.747 -0.3426  1.1591  0.1768
  453TMC3    C5 6800   4.370   1.774  11.615 -0.3987  0.5317 -0.3134
  453TMC3    C6 6801   4.314   1.658  11.565  0.1380 -0.3083  0.1473
  453TMC3     C 6802   4.520   1.667  11.920 -0.1359 -0.0489  0.7954
  453TMC3     O 6803   4.546   1.776  11.966 -0.0930  0.0155  0.8601
  453TMC3     H 6804   4.360   1.466  11.845 -1.5561 -1.8915 -1.0579
  453TMC3    H1 6805   4.465   1.866  11.789  0.1845  2.3403 -2.9256
  453TMC3    H2 6806   4.294   1.657  11.458 -0.9006 -1.0679  0.3476
  453TMC3    C7 6807   4.394   1.882  11.530 -0.1318 -0.7605  0.5044
  453TMC3    C8 6808   4.262   1.424  11.596  0.3403  0.2837 -0.6085
  453TMC3    O1 6809   4.403   1.852  11.412  0.0105  0.8961  0.3328
  453TMC3    O2 6810   4.258   1.420  11.470 -0.0714 -0.0808 -0.1142
  454MPD2     C 6811   3.608   1.657  16.218  0.0286  0.3559 -0.3411
  454MPD2    C1 6812   3.559   1.742  16.127 -0.3906  0.2602 -0.1041
  454MPD2    C2 6813   3.523   1.864  16.179  0.0295  0.0618  0.0828
  454MPD2    C3 6814   3.525   1.894  16.313  0.7880 -0.0247  0.0077
  454MPD2    C4 6815   3.552   1.794  16.402  0.1192 -0.1577 -0.4398
  454MPD2    C5 6816   3.602   1.677  16.351  0.5479 -0.1240 -0.5726
  454MPD2     H 6817   3.491   1.933  16.102 -1.4945 -1.5382 -0.7251
  454MPD2    H1 6818   3.545   1.812  16.509 -0.0351 -1.0113 -0.3050
  454MPD2    H2 6819   3.652   1.560  16.197 -0.6216  0.0546 -0.3293
  454MPD2    H3 6820   3.626   1.598  16.421  0.5127  1.6535  1.4522
  454MPD2     N 6821   3.471   2.017  16.360  0.2044  0.4343  0.4763
  454MPD2    H5 6822   3.449   2.007  16.459 -3.4258 -2.7161 -0.6937
  454MPD2    N1 6823   3.528   1.711  15.998 -0.3206  0.2099 -0.2581
  454MPD2    H7 6824   3.487   1.783  15.939 -2.5266 -1.9267 -1.2912
  455TMC3    C1 6825   3.295   2.144  16.335  0.1551 -0.2935 -0.3009
  455TMC3    C2 6826   3.283   2.184  16.464 -0.1928  0.1158  0.0778
  455TMC3    C3 6827   3.163   2.156  16.523  0.9856 -0.0445  0.3863
  455TMC3    C4 6828   3.216   2.060  16.270 -0.2488  0.2045 -0.6711
  455TMC3    C5 6829   3.098   2.040  16.337  0.2546  0.4222  0.0880
  455TMC3    C6 6830   3.064   2.089  16.460 -0.6209  0.2530  0.2043
  455TMC3     C 6831   3.422   2.125  16.288 -0.5982  0.9322 -0.2069
  455TMC3     O 6832   3.448   2.147  16.174 -0.1757 -0.4903 -0.2177
  455TMC3     H 6833   3.356   2.245  16.514  0.0838  2.1038 -2.7319
  455TMC3    H1 6834   3.238   2.045  16.166 -1.8409 -1.5676 -0.7459
  455TMC3    H2 6835   2.980   2.064  16.525 -0.8054  1.2085  0.3353
  455TMC3    C7 6836   3.032   1.914  16.306 -0.0750  0.2633  0.1523
  455TMC3    C8 6837   3.131   2.234  16.636 -0.2768 -0.0864 -0.8509
  455TMC3    O1 6838   2.910   1.893  16.307 -0.3886 -0.3123 -0.0851
  455TMC3    O2 6839   3.220   2.231  16.717 -0.1767 -0.0752 -0.0097
  456MPD2     C 6840   1.239   1.583  16.113  0.0291 -0.5253  0.0115
  456MPD2    C1 6841   1.338   1.587  16.209  0.4845 -0.4081 -0.0521
  456MPD2    C2 6842   1.373   1.704  16.277 -1.3036  0.0725  0.4488
  456MPD2    C3 6843   1.305   1.823  16.241 -0.1713  0.4238 -0.0689
  456MPD2    C4 6844   1.203   1.820  16.138  0.3551 -0.1571  0.0652
  456MPD2    C5 6845   1.175   1.700  16.077  0.5931 -0.5728  0.8601
  456MPD2     H 6846   1.447   1.694  16.356  0.7145  0.3057 -1.4259
  456MPD2    H1 6847   1.130   1.898  16.119 -0.7074 -1.6346 -1.8877
  456MPD2    H2 6848   1.204   1.488  16.074  0.4433 -0.8978  0.5553
  456MPD2    H3 6849   1.104   1.696  15.995  0.7839 -0.2243  0.6765
  456MPD2     N 6850   1.334   1.937  16.317 -0.8457 -0.2722  0.1193
  456MPD2    H5 6851   1.412   1.923  16.381  0.1620 -2.7295 -1.6433
  456MPD2    N1 6852   1.410   1.464  16.233 -0.2264 -0.1162  0.5470
  456MPD2    H7 6853   1.380   1.384  16.179  1.2986  0.0019 -0.4740
  457TMC3    C1 6854   1.320   2.148  16.398 -0.0657 -0.4543  0.4608
  457TMC3    C2 6855   1.236   2.247  16.439 -0.7151  0.4649  0.4274
  457TMC3    C3 6856   1.244   2.294  16.572 -0.2539 -0.1494 -0.1412
  457TMC3    C4 6857   1.419   2.113  16.485  0.2045  0.0054 -0.0249
  457TMC3    C5 6858   1.427   2.159  16.611  0.2874 -0.0379 -0.7727
  457TMC3    C6 6859   1.335   2.244  16.661  0.7254  0.0462 -0.2441
  457TMC3     C 6860   1.267   2.046  16.310  0.5674 -0.5091 -0.5504
  457TMC3     O 6861   1.158   2.071  16.268  0.1439 -0.0744 -0.2035
  457TMC3     H 6862   1.165   2.287  16.367 -0.2547  1.5295  0.5669
  457TMC3    H1 6863   1.493   2.042  16.449  1.1798  0.9142  0.1854
  457TMC3    H2 6864   1.339   2.293  16.757 -2.8888 -0.4788  0.1606
  457TMC3    C7 6865   1.550   2.125  16.677  0.4276  0.1670  0.2809
  457TMC3    C8 6866   1.154   2.393  16.608 -0.2431  0.0763  0.4196
  457TMC3    O1 6867   1.655   2.120  16.611  0.7363  0.6908  0.7056
  457TMC3    O2 6868   1.175   2.460  16.709 -0.5633  0.6745  0.0845
  458MPD2     C 6869   2.973   1.468  12.468 -0.0590 -0.2896  0.6520
  458MPD2    C1 6870   2.986   1.351  12.540  0.3727  0.4889 -0.2816
  458MPD2    C2 6871   2.875   1.318  12.618  0.8717  0.1703  0.0437
  458MPD2    C3 6872   2.753   1.387  12.604 -0.0031  0.3316 -0.3052
  458MPD2    C4 6873   2.748   1.498  12.521 -0.4210 -0.2443 -0.4199
  458MPD2    C5 6874   2.857   1.539  12.454 -0.3363 -0.6642 -0.6288
  458MPD2     H 6875   2.876   1.232  12.684  0.6680 -0.8875 -1.3510
  458MPD2    H1 6876   2.664   1.562  12.496  0.5592  1.0062 -0.5152
  458MPD2    H2 6877   3.052   1.495  12.398 -0.6738 -0.6796 -0.1936
  458MPD2    H3 6878   2.855   1.631  12.396  0.0114 -0.9057 -1.0170
  458MPD2     N 6879   2.640   1.335  12.670  0.2751 -0.2431  0.0062
  458MPD2    H5 6880   2.653   1.258  12.736  0.2280 -0.3803 -0.1470
  458MPD2    N1 6881   3.103   1.271  12.547  0.4412 -0.0624  0.0257
  458MPD2    H7 6882   3.091   1.192  12.610 -1.7556  1.5932  1.6843
  459TMC3    C1 6883   3.335   1.220  12.548  0.0912  0.1839 -0.2037
  459TMC3    C2 6884   3.458   1.236  12.489  0.3198  0.2261  0.2621
  459TMC3    C3 6885   3.561   1.171  12.548  0.8472  0.9414  0.5936
  459TMC3    C4 6886   3.321   1.142  12.659  0.4360  0.4076 -0.0676
  459TMC3    C5 6887   3.431   1.072  12.707 -0.0165 -0.3207 -0.6631
  459TMC3    C6 6888   3.551   1.081  12.648  0.8586  0.2932 -0.6609
  459TMC3     C 6889   3.229   1.307  12.500  0.4794 -0.0413  0.6990
  459TMC3     O 6890   3.258   1.404  12.424  0.3535  0.6819  0.8198
  459TMC3     H 6891   3.468   1.296  12.399 -1.3466 -0.2227 -0.2274
  459TMC3    H1 6892   3.231   1.145  12.719 -0.5360 -0.0170 -1.4912
  459TMC3    H2 6893   3.638   1.036  12.695  1.2159  2.5388  0.8646
  459TMC3    C7 6894   3.431   1.010  12.841  0.5220  0.0233  0.3692
  459TMC3    C8 6895   3.699   1.177  12.492  0.2292  0.1950 -0.1318
  459TMC3    O1 6896   3.343   0.933  12.870 -0.1586 -0.6216  0.0197
  459TMC3    O2 6897   3.776   1.083  12.508  0.2417 -0.1976  0.1545
  460MPD2     C 6898   3.098   3.258  10.624 -0.5233 -0.6930  0.2062
  460MPD2    C1 6899   3.012   3.343  10.682  0.2562  0.7460  0.6548
  460MPD2    C2 6900   2.931   3.436  10.612  0.3242  0.1398  0.2213
  460MPD2    C3 6901   2.943   3.442  10.478  0.2700  0.7266 -0.9059
  460MPD2    C4 6902   3.027   3.359  10.413  0.0002  0.1610  1.2977
  460MPD2    C5 6903   3.100   3.266  10.490  0.3785  0.0299  0.8447
  460MPD2     H 6904   2.867   3.507  10.662 -0.4199 -0.8256  0.6288
  460MPD2    H1 6905   3.055   3.364  10.309 -0.9187  0.0016  1.0375
  460MPD2    H2 6906   3.145   3.177  10.680  1.2152 -0.0461 -0.3267
  460MPD2    H3 6907   3.153   3.188  10.436 -1.8728 -1.8974  1.3989
  460MPD2     N 6908   2.862   3.531  10.405  0.5681  0.8183 -0.5649
  460MPD2    H5 6909   2.793   3.585  10.457 -0.3279 -0.6132 -0.2604
  460MPD2    N1 6910   3.012   3.332  10.820  0.2668  0.3085  0.5979
  460MPD2    H7 6911   3.068   3.255  10.855 -3.2114 -1.7199  1.7299
  461TMC3    C1 6912   2.736   3.625  10.225 -0.3644 -0.5867 -0.4130
  461TMC3    C2 6913   2.665   3.586  10.117 -0.0654  0.1956  0.2427
  461TMC3    C3 6914   2.618   3.687  10.032 -0.7874 -0.0122 -0.8153
  461TMC3    C4 6915   2.774   3.756  10.255  0.1738 -0.2008  0.5116
  461TMC3    C5 6916   2.736   3.849  10.159 -0.6703 -0.3364 -0.1563
  461TMC3    C6 6917   2.645   3.815  10.055  0.0438  0.2042 -0.8537
  461TMC3     C 6918   2.827   3.521  10.271 -0.2003  0.8609 -0.0574
  461TMC3     O 6919   2.867   3.445  10.180  0.3908  0.1348  0.0996
  461TMC3     H 6920   2.649   3.482  10.091 -0.1378 -0.5818  3.3934
  461TMC3    H1 6921   2.817   3.776  10.352  0.0833 -0.4623  0.6053
  461TMC3    H2 6922   2.614   3.888   9.981  0.1990  1.4581  0.3024
  461TMC3    C7 6923   2.776   3.994  10.154 -0.9217 -0.5826  0.2930
  461TMC3    C8 6924   2.575   3.645   9.897  0.2156 -0.5407  0.2507
  461TMC3    O1 6925   2.742   4.058  10.056 -0.7344  0.0023  0.1224
  461TMC3    O2 6926   2.631   3.548   9.855 -0.0973 -0.3118  0.0884
  462TMC3    C1 6927   2.854   4.090  16.906  0.2488 -0.4285  0.2661
  462TMC3    C2 6928   2.875   3.965  16.852 -0.1025 -0.5715  0.0722
  462TMC3    C3 6929   2.797   3.856  16.891  0.6798 -0.0268 -0.2548
  462TMC3    C4 6930   2.772   4.098  17.018  0.0402  0.1969 -0.3939
  462TMC3    C5 6931   2.698   3.986  17.051  0.1420  0.4686  0.7402
  462TMC3    C6 6932   2.710   3.868  16.991  0.2514  0.1559 -0.1564
  462TMC3     C 6933   2.948   4.191  16.880 -0.5878 -0.0842  0.1416
  462TMC3     O 6934   3.040   4.168  16.805 -0.7815 -0.6399  0.0215
  462TMC3     H 6935   2.957   3.962  16.781 -1.3525  0.3209 -1.4049
  462TMC3    H1 6936   2.763   4.182  17.085 -1.1653  1.3675 -2.0084
  462TMC3    H2 6937   2.684   3.778  17.047  2.1099  0.9328  1.9644
  462TMC3    C7 6938   2.591   4.004  17.148 -0.1216  0.6167 -0.9674
  462TMC3    C8 6939   2.863   3.728  16.869  0.1848 -0.4309 -0.1050
  462TMC3    O1 6940   2.551   3.902  17.206 -0.0565  0.2018  0.0781
  462TMC3    O2 6941   2.821   3.631  16.931 -0.2166 -0.8314 -0.0776
  463MPD2     C 6942   2.823   3.477   1.244 -0.2854  0.0159 -0.3160
  463MPD2    C1 6943   2.760   3.355   1.249 -0.7004 -0.4205  0.0542
  463MPD2    C2 6944   2.833   3.243   1.231 -1.2296  0.2402  0.6543
  463MPD2    C3 6945   2.972   3.246   1.214  0.6459 -0.3393 -0.1967
  463MPD2    C4 6946   3.029   3.371   1.214  0.4433 -0.0621  0.4604
  463MPD2    C5 6947   2.958   3.488   1.224 -0.4750 -0.7028  0.1089
  463MPD2     H 6948   2.802   3.144   1.262 -0.2201  0.5916  2.8312
  463MPD2    H1 6949   3.136   3.390   1.205  0.4020 -0.0382 -0.0172
  463MPD2    H2 6950   2.764   3.566   1.260  2.3294  0.8950  4.2102
  463MPD2    H3 6951   3.012   3.581   1.217 -2.0784  0.3375  1.7230
  463MPD2     N 6952   3.059   3.134   1.221  0.6692  0.4617 -0.3268
  463MPD2    H5 6953   3.157   3.154   1.240  0.1804  1.1526  1.4931
  463MPD2    N1 6954   2.621   3.343   1.258  0.0128  0.0799 -0.5871
  463MPD2    H7 6955   2.589   3.247   1.251  1.4236 -0.5475  1.7219
  464TMC3    C1 6956   2.396   3.390   1.310  0.5524 -0.5659  0.6423
  464TMC3    C2 6957   2.288   3.475   1.280  0.8423  0.3598  0.1761
  464TMC3    C3 6958   2.164   3.421   1.301 -0.2683 -0.1726  0.1943
  464TMC3    C4 6959   2.385   3.272   1.373 -0.1164  0.3540 -0.6168
  464TMC3    C5 6960   2.260   3.234   1.403  0.1010  0.5520 -0.2847
  464TMC3    C6 6961   2.144   3.305   1.363  0.5413  0.1832 -0.2246
  464TMC3     C 6962   2.528   3.446   1.275 -0.2616  0.7361 -0.6748
  464TMC3     O 6963   2.535   3.563   1.240 -0.3532 -0.1310  0.3344
  464TMC3     H 6964   2.298   3.574   1.238  0.3888 -0.2158 -1.2570
  464TMC3    H1 6965   2.476   3.222   1.405  0.9510  1.1526 -2.3931
  464TMC3    H2 6966   2.045   3.273   1.394 -0.0428  1.8468 -0.3964
  464TMC3    C7 6967   2.242   3.117   1.493 -0.1232  0.1446 -0.1539
  464TMC3    C8 6968   2.061   3.497   1.232 -0.1599  0.3557  0.5466
  464TMC3    O1 6969   2.151   3.128   1.580  0.2164  0.1788 -0.4641
  464TMC3    O2 6970   2.083   3.611   1.188  0.1166  0.1230  0.6452
  465MPD2     C 6971   0.179   1.473  16.997 -0.7232  0.6725  0.0879
  465MPD2    C1 6972   0.040   1.481  17.023 -0.2019 -0.4718 -0.2006
  465MPD2    C2 6973   4.700   1.527  16.918  0.0944  0.5723  0.1730
  465MPD2    C3 6974   0.021   1.583  16.808 -0.1059  0.5990  0.7164
  465MPD2    C4 6975   0.154   1.576  16.784 -0.6347 -0.2407  0.1167
  465MPD2    C5 6976   0.232   1.524  16.884 -0.0720 -0.2852  0.4828
  465MPD2     H 6977   4.594   1.539  16.934 -0.0712 -0.6422 -0.0849
  465MPD2    H1 6978   0.200   1.614  16.693  0.0647 -1.3634  0.0016
  465MPD2    H2 6979   0.247   1.434  17.073 -0.6382 -1.7425 -1.2094
  465MPD2    H3 6980   0.338   1.505  16.871 -0.3256 -1.3245 -0.0803
  465MPD2     N 6981   4.669   1.661  16.725  0.3496 -0.2409  0.0566
  465MPD2    H5 6982   4.572   1.663  16.754 -0.0005  2.1783 -1.2911
  465MPD2    N1 6983   4.718   1.454  17.147 -0.2045 -0.2369 -0.4963
  465MPD2    H7 6984   4.618   1.453  17.163  0.1462  0.8804  1.6657
  466TMC3    C1 6985   4.393   1.849  16.460 -0.1033  0.6315 -0.3031
  466TMC3    C2 6986   4.425   1.974  16.413 -0.1976  0.0256 -1.0113
  466TMC3    C3 6987   4.551   2.018  16.438 -0.4254 -0.0072  0.5175
  466TMC3    C4 6988   4.475   1.770  16.533 -0.2035 -0.3147  0.1099
  466TMC3    C5 6989   4.604   1.818  16.551 -0.2305 -0.5091 -0.0637
  466TMC3    C6 6990   4.637   1.946  16.509  0.8782 -0.4153 -0.2685
  466TMC3     C 6991   4.254   1.839  16.493 -0.3529 -0.0827 -0.1038
  466TMC3     O 6992   4.184   1.939  16.496 -0.6626 -0.2322 -0.4038
  466TMC3     H 6993   4.361   2.027  16.343 -1.3882 -0.5233 -0.3299
  466TMC3    H1 6994   4.454   1.665  16.550  0.0059 -0.4379 -0.3897
  466TMC3    H2 6995   0.002   1.982  16.519  0.6848  0.2711 -0.8097
  466TMC3    C7 6996   4.709   1.750  16.623 -0.2537 -0.9066  0.2917
  466TMC3    C8 6997   4.607   2.134  16.383  0.6507  0.8709  0.3664
  466TMC3    O1 6998   0.085   1.801  16.610  0.2764 -0.2213 -0.2235
  466TMC3    O2 6999   4.725   2.129  16.348 -0.1015 -0.1677 -0.0434
  467TMC3    C1 7000   0.777   0.490  13.654  0.0082 -0.4261  0.0975
  467TMC3    C2 7001   0.774   0.594  13.745 -0.0430  0.5139  0.0591
  467TMC3    C3 7002   0.671   0.680  13.752 -0.2381 -0.2313  0.1103
  467TMC3    C4 7003   0.667   0.465  13.579  0.7425 -0.4695 -0.0725
  467TMC3    C5 7004   0.557   0.552  13.593 -0.5845 -0.0685 -0.3682
  467TMC3    C6 7005   0.558   0.661  13.678 -0.1181  0.3770 -1.0178
  467TMC3     C 7006   0.908   0.469  13.599 -0.0933 -0.0125  1.1338
  467TMC3     O 7007   0.974   0.567  13.576  0.2097  0.3307  0.0789
  467TMC3     H 7008   0.857   0.583  13.813 -0.1865  0.4096  0.2164
  467TMC3    H1 7009   0.668   0.387  13.504  2.1751 -0.4889 -0.0298
  467TMC3    H2 7010   0.489   0.741  13.652  1.7814  2.0375 -0.8839
  467TMC3    C7 7011   0.425   0.520  13.537 -0.2894 -0.3760 -0.2435
  467TMC3    C8 7012   0.716   0.821  13.797 -0.1578  0.2423 -0.1095
  467TMC3    O1 7013   0.425   0.426  13.459  0.2405  0.0205 -0.5210
  467TMC3    O2 7014   0.665   0.915  13.741 -0.8355 -0.3192  0.1233
  468MPD2     C 7015   0.011   3.377  10.141 -0.1373  0.2657 -0.1407
  468MPD2    C1 7016   0.118   3.354  10.225  0.2391  0.7885  0.5116
  468MPD2    C2 7017   0.149   3.227  10.265 -0.0707  0.6260  0.4783
  468MPD2    C3 7018   0.059   3.125  10.243  0.2992  0.1195  0.4193
  468MPD2    C4 7019   4.687   3.145  10.163 -0.0341  0.0934  0.1630
  468MPD2    C5 7020   4.668   3.267  10.117  0.5459 -0.0072  0.0871
  468MPD2     H 7021   0.230   3.196  10.329 -0.1908 -0.7397 -0.0111
  468MPD2    H1 7022   4.618   3.064  10.148  1.4057 -1.3022  1.1296
  468MPD2    H2 7023   4.727   3.475  10.099 -0.6754 -0.3599 -1.3509
  468MPD2    H3 7024   4.586   3.277  10.047 -0.6972 -1.3018  1.3750
  468MPD2     N 7025   0.081   2.989  10.288 -0.4159  0.2487 -0.0706
  468MPD2    H5 7026   0.014   2.917  10.268 -1.9869  0.9713  2.5602
  468MPD2    N1 7027   0.200   3.459  10.273  0.2081  0.2242  0.5951
  468MPD2    H7 7028   0.269   3.422  10.337  0.4302  0.5911  0.5642
  469TMC3    C1 7029   0.279   3.675  10.314  0.8440  0.6109  0.8473
  469TMC3    C2 7030   0.394   3.607  10.345  0.9849 -0.4071  0.0562
  469TMC3    C3 7031   0.466   3.646  10.454 -0.1103  0.5559  1.0486
  469TMC3    C4 7032   0.238   3.775  10.399 -0.1031  0.5263  0.1238
  469TMC3    C5 7033   0.308   3.806  10.512 -0.0724  0.0243 -0.0325
  469TMC3    C6 7034   0.424   3.740  10.545 -0.0159 -0.1643  0.0573
  469TMC3     C 7035   0.172   3.593  10.259 -0.5572  0.1488  0.1705
  469TMC3     O 7036   0.062   3.644  10.238 -0.7324 -0.1224 -0.4507
  469TMC3     H 7037   0.425   3.519  10.288  0.4424 -1.3154  1.1735
  469TMC3    H1 7038   0.141   3.821  10.382 -0.8347 -1.1594 -0.3935
  469TMC3    H2 7039   0.503   3.777  10.610  1.4696 -2.1818 -0.6198
  469TMC3    C7 7040   0.233   3.892  10.602 -0.5812 -0.5270 -0.5103
  469TMC3    C8 7041   0.580   3.568  10.486  0.0631  0.3035 -0.0504
  469TMC3    O1 7042   0.159   3.978  10.551 -0.2489  0.1285 -0.1894
  469TMC3    O2 7043   0.624   3.500  10.397 -0.2737  0.1943  0.1013
  470TMC3    C1 7044   1.521   4.480   0.279  0.3898  0.8469  0.3747
  470TMC3    C2 7045   1.562   4.575   0.367 -0.0223  0.3007  0.2292
  470TMC3    C3 7046   1.523   4.559   0.498  0.7229 -0.5693 -0.1242
  470TMC3    C4 7047   1.438   4.373   0.320  0.2576 -0.3510 -0.5028
  470TMC3    C5 7048   1.388   4.378   0.444  0.5706 -0.5605 -0.9566
  470TMC3    C6 7049   1.436   4.460   0.541  0.2733  0.1313 -0.3606
  470TMC3     C 7050   1.555   4.501   0.136 -0.2509  0.0801  0.5194
  470TMC3     O 7051   1.627   4.597   0.106 -0.2275  0.9542  0.1746
  470TMC3     H 7052   1.642   4.640   0.335 -0.1637 -0.2062 -1.1490
  470TMC3    H1 7053   1.407   4.295   0.251 -1.1339  1.1914 -1.6057
  470TMC3    H2 7054   1.390   4.452   0.639 -2.9880  2.2779 -1.7234
  470TMC3    C7 7055   1.269   4.297   0.461  0.4153  0.1269 -0.4871
  470TMC3    C8 7056   1.601   4.627   0.598  0.2495 -0.5822 -0.2045
  470TMC3    O1 7057   1.249   4.209   0.378  0.3657  0.4500 -0.4995
  470TMC3    O2 7058   1.553   4.613   0.710 -0.0293  0.1155 -0.0000
  471MPD2     C 7059   2.163   0.843  16.110 -0.1608 -0.0324 -0.1157
  471MPD2    C1 7060   2.234   0.724  16.117 -0.2193 -0.4232 -0.3938
  471MPD2    C2 7061   2.204   0.637  16.218  0.2683  0.0571  0.1945
  471MPD2    C3 7062   2.118   0.672  16.317  0.9754  0.0698  0.1856
  471MPD2    C4 7063   2.054   0.799  16.316  0.0204  0.6027  0.2640
  471MPD2    C5 7064   2.081   0.879  16.212  0.5407 -0.7602 -0.0240
  471MPD2     H 7065   2.257   0.542  16.216 -0.2696 -0.2153 -1.0360
  471MPD2    H1 7066   1.980   0.841  16.383  1.0489  1.1759  1.0426
  471MPD2    H2 7067   2.185   0.916  16.033 -3.8870  2.0280  0.8060
  471MPD2    H3 7068   2.040   0.979  16.204 -1.2474 -1.2749  2.5104
  471MPD2     N 7069   2.111   0.577  16.420  0.3474 -0.9124 -0.4478
  471MPD2    H5 7070   2.176   0.500  16.414 -0.3402 -1.6435  1.3870
  471MPD2    N1 7071   2.332   0.680  16.027  0.1982  0.0918 -0.3170
  471MPD2    H7 7072   2.359   0.582  16.034  0.0475  0.0890  0.2091
  472TMC3    C1 7073   2.452   0.628  15.842  0.3942  0.0369 -0.5329
  472TMC3    C2 7074   2.442   0.636  15.704  0.4854 -0.2559 -0.2543
  472TMC3    C3 7075   2.462   0.518  15.639  0.4813  0.6192 -0.0397
  472TMC3    C4 7076   2.470   0.516  15.912  0.0847  0.2779 -0.1642
  472TMC3    C5 7077   2.487   0.399  15.846 -0.4605 -0.2315 -0.4198
  472TMC3    C6 7078   2.477   0.396  15.707 -0.7015  0.1042 -0.0876
  472TMC3     C 7079   2.384   0.743  15.916 -0.5024  0.9943  0.3589
  472TMC3     O 7080   2.342   0.841  15.856  0.6445 -0.1273 -0.0481
  472TMC3     H 7081   2.421   0.725  15.647  0.1217  2.5019  4.1608
  472TMC3    H1 7082   2.495   0.514  16.017 -0.3075 -4.2456 -0.1623
  472TMC3    H2 7083   2.492   0.306  15.648  0.0992  0.0610  0.1834
  472TMC3    C7 7084   2.413   0.288  15.909  0.0537 -0.3286  0.3377
  472TMC3    C8 7085   2.365   0.497  15.531 -0.8377 -0.2946  0.3293
  472TMC3    O1 7086   2.417   0.282  16.035 -0.2445  0.1415 -0.3119
  472TMC3    O2 7087   2.403   0.460  15.421 -0.3575 -0.3229 -0.1708
  473MPD2     C 7088   2.322   2.629  13.999  0.4106 -0.1302 -0.4817
  473MPD2    C1 7089   2.232   2.722  13.944  0.3691  0.7972 -0.5273
  473MPD2    C2 7090   2.248   2.856  13.984  0.0743 -0.1426 -0.5583
  473MPD2    C3 7091   2.344   2.887  14.083  0.7629 -0.1607 -0.0090
  473MPD2    C4 7092   2.423   2.790  14.140  0.6560  0.1400  0.2151
  473MPD2    C5 7093   2.402   2.663  14.107  0.2321 -0.3327  0.6373
  473MPD2     H 7094   2.177   2.930  13.950 -0.5710 -0.0207  1.0273
  473MPD2    H1 7095   2.501   2.816  14.211  1.4506  2.2214 -1.4105
  473MPD2    H2 7096   2.306   2.528  13.964  2.7258 -0.2313 -1.2516
  473MPD2    H3 7097   2.458   2.584  14.156  0.7147  0.2414  1.0074
  473MPD2     N 7098   2.373   3.022  14.118  0.1111  0.7597 -0.5549
  473MPD2    H5 7099   2.451   3.027  14.183 -0.3637 -3.0060  0.2816
  473MPD2    N1 7100   2.148   2.681  13.833 -0.1191 -0.2458  0.8242
  473MPD2    H7 7101   2.149   2.582  13.813 -2.3231 -0.2783  0.9598
  474TMC3    C1 7102   2.372   3.258  14.101  0.1166 -0.0568  0.5117
  474TMC3    C2 7103   2.293   3.368  14.096 -0.6232 -0.5408 -0.2371
  474TMC3    C3 7104   2.349   3.492  14.143  0.2035  0.0928  0.0777
  474TMC3    C4 7105   2.498   3.254  14.152 -0.6268 -0.2083 -0.6060
  474TMC3    C5 7106   2.537   3.378  14.207  0.1320  0.5641  0.1626
  474TMC3    C6 7107   2.473   3.498  14.200  0.2251  0.6495 -0.2009
  474TMC3     C 7108   2.302   3.133  14.063 -0.1618  0.4194 -0.2997
  474TMC3     O 7109   2.212   3.143  13.980  0.0574 -0.3036  0.0224
  474TMC3     H 7110   2.186   3.356  14.087 -0.9036  2.2970 -0.7315
  474TMC3    H1 7111   2.561   3.166  14.155 -1.3636 -0.8572 -3.9233
  474TMC3    H2 7112   2.519   3.587  14.240  0.9315  0.4342 -0.5474
  474TMC3    C7 7113   2.667   3.377  14.267  0.2621 -0.6476 -0.3285
  474TMC3    C8 7114   2.260   3.615  14.141 -0.5328 -0.2059  1.0849
  474TMC3    O1 7115   2.741   3.284  14.236  0.0225  0.0249 -0.0545
  474TMC3    O2 7116   2.136   3.592  14.134 -0.3332 -0.0288  0.0856
  475MPD2     C 7117   1.383   0.768  10.927 -0.1899 -0.8021 -0.6745
  475MPD2    C1 7118   1.378   0.894  10.982 -0.0991 -0.1464  0.3467
  475MPD2    C2 7119   1.259   0.930  11.044 -0.4259 -0.1485 -0.0909
  475MPD2    C3 7120   1.155   0.837  11.038 -0.1998 -0.5677 -0.3394
  475MPD2    C4 7121   1.160   0.714  10.972 -0.4350  0.0120 -0.0614
  475MPD2    C5 7122   1.282   0.676  10.926 -0.6660  0.4848 -0.8763
  475MPD2     H 7123   1.248   1.034  11.073 -1.6783  0.3880 -2.4391
  475MPD2    H1 7124   1.079   0.648  10.947  0.4302 -1.3207  0.6762
  475MPD2    H2 7125   1.474   0.735  10.877  0.1820 -1.0253  0.1582
  475MPD2    H3 7126   1.288   0.582  10.872 -0.7345 -0.3722  0.5850
  475MPD2     N 7127   1.031   0.901  11.072  0.2526  0.4845  0.2628
  475MPD2    H5 7128   1.027   1.001  11.091  3.1293  1.1519 -2.6380
  475MPD2    N1 7129   1.484   0.983  10.989 -0.3817 -0.3574 -0.5476
  475MPD2    H7 7130   1.468   1.071  11.036  0.8392 -0.8208  0.7519
  476TMC3    C1 7131   1.679   1.087  10.948  0.6138 -0.3642 -0.2961
  476TMC3    C2 7132   1.675   1.161  10.833 -0.3025 -0.0774  0.1327
  476TMC3    C3 7133   1.626   1.293  10.844  0.5957 -0.0513 -0.6364
  476TMC3    C4 7134   1.644   1.142  11.075 -0.3484 -0.5637  0.2057
  476TMC3    C5 7135   1.611   1.279  11.082 -0.0355  0.3780  1.2326
  476TMC3    C6 7136   1.604   1.349  10.967  0.1060  0.9266 -0.0493
  476TMC3     C 7137   1.604   0.965  10.916 -0.2576 -0.1728 -0.3219
  476TMC3     O 7138   1.647   0.885  10.838 -0.2830 -0.0268  0.5196
  476TMC3     H 7139   1.701   1.116  10.738  0.9613 -1.3290  1.0647
  476TMC3    H1 7140   1.652   1.086  11.168 -1.4590 -0.3709  0.4107
  476TMC3    H2 7141   1.585   1.455  10.960 -2.1080  0.3986 -2.2716
  476TMC3    C7 7142   1.505   1.295  11.181  0.7610 -0.3201  0.4225
  476TMC3    C8 7143   1.528   1.332  10.747  0.4437  1.1941 -0.7160
  476TMC3    O1 7144   1.448   1.191  11.188  0.2566  0.0161  0.2525
  476TMC3    O2 7145   1.487   1.449  10.743  0.0844 -0.0009 -0.3415
  477MPD2     C 7146   3.479   2.733  11.723 -0.2035 -0.1703 -0.3546
  477MPD2    C1 7147   3.405   2.630  11.668 -0.3035  0.0727 -0.6876
  477MPD2    C2 7148   3.453   2.503  11.651  0.3119 -0.0533  0.2901
  477MPD2    C3 7149   3.573   2.478  11.711 -0.1692 -0.0738  0.1228
  477MPD2    C4 7150   3.639   2.577  11.779  0.0243  0.7487  0.2667
  477MPD2    C5 7151   3.597   2.705  11.783 -0.4267 -0.0688  1.1568
  477MPD2     H 7152   3.403   2.420  11.602  1.8655  0.0636 -1.4669
  477MPD2    H1 7153   3.731   2.554  11.832  1.4986 -0.3861 -2.8115
  477MPD2    H2 7154   3.441   2.834  11.735  0.5796 -0.0823  1.5046
  477MPD2    H3 7155   3.649   2.781  11.840 -1.2393 -0.7158  2.7628
  477MPD2     N 7156   3.624   2.348  11.700  0.2483 -0.4542 -0.0552
  477MPD2    H5 7157   3.551   2.277  11.694 -0.9689  0.9000 -1.4354
  477MPD2    N1 7158   3.280   2.680  11.614  0.0994 -0.1682  0.3952
  477MPD2    H7 7159   3.254   2.777  11.629 -1.5968 -0.2795 -1.8784
  478TMC3    C1 7160   3.067   2.677  11.536  0.2592  0.2586 -0.5496
  478TMC3    C2 7161   3.032   2.775  11.629 -1.1478  0.0118  0.3468
  478TMC3    C3 7162   2.911   2.834  11.616 -0.0179 -0.2032 -0.3584
  478TMC3    C4 7163   2.975   2.629  11.442 -0.5759  0.3694 -0.1213
  478TMC3    C5 7164   2.852   2.698  11.431 -0.0680  0.3888  1.2087
  478TMC3    C6 7165   2.825   2.809  11.510 -0.0801  0.0034 -0.6414
  478TMC3     C 7166   3.188   2.600  11.555  0.6555  0.7651  0.0164
  478TMC3     O 7167   3.195   2.493  11.495  0.4058  0.3481 -0.4189
  478TMC3     H 7168   3.090   2.791  11.719 -2.6139 -0.7861  1.4419
  478TMC3    H1 7169   2.988   2.543  11.377 -1.1646  0.7384 -0.7185
  478TMC3    H2 7170   2.725   2.850  11.515 -0.5990 -1.2490 -0.7519
  478TMC3    C7 7171   2.760   2.644  11.335  0.0425 -0.4547  0.8479
  478TMC3    C8 7172   2.845   2.886  11.737  0.1921  0.6596 -1.0365
  478TMC3    O1 7173   2.741   2.526  11.319 -0.0183 -0.0849  0.3791
  478TMC3    O2 7174   2.860   2.819  11.839 -0.0746  0.1933  0.4245
  479MPD2     C 7175   1.991   0.116  14.823 -0.5308  0.3064  0.0574
  479MPD2    C1 7176   1.963   0.014  14.914  0.1943 -0.0830 -0.2733
  479MPD2    C2 7177   2.005   0.020  15.040 -0.3200 -1.0933 -0.0687
  479MPD2    C3 7178   2.071   0.137  15.086 -0.1004 -0.6570  0.5948
  479MPD2    C4 7179   2.108   0.235  14.995 -1.2945  0.3714 -0.8508
  479MPD2    C5 7180   2.071   0.227  14.861  0.0243  0.1122 -0.0033
  479MPD2     H 7181   1.990   4.668  15.100 -1.8395  0.6278  2.0902
  479MPD2    H1 7182   2.171   0.317  15.029  3.0492 -2.7643 -1.3913
  479MPD2    H2 7183   1.981   0.104  14.715 -1.4978  0.5057  0.1191
  479MPD2    H3 7184   2.108   0.297  14.787  1.4478  0.5327  1.1117
  479MPD2     N 7185   2.105   0.155  15.225 -0.0027 -0.3178  0.5391
  479MPD2    H5 7186   2.173   0.228  15.245 -2.9166  2.5001  0.2216
  479MPD2    N1 7187   1.869   4.653  14.873 -0.6820 -0.3861 -0.7616
  479MPD2    H7 7188   1.831   4.656  14.779  2.1863 -1.4597 -1.9693
  480TMC3    C1 7189   1.795   4.574  15.367  0.6858  0.5960 -0.1217
  480TMC3    C2 7190   1.688   4.638  15.320  0.2948  1.0920 -0.6203
  480TMC3    C3 7191   1.715   0.029  15.267  0.2746  0.0256 -0.0894
  480TMC3    C4 7192   1.914   4.644  15.381  0.2345 -0.0374  0.3815
  480TMC3    C5 7193   1.933   0.028  15.327  0.6705 -0.2848 -0.5334
  480TMC3    C6 7194   1.829   0.098  15.270  0.4951 -0.3883  0.0838
  480TMC3     C 7195   1.771   4.445  15.441  0.2467  0.6729  0.0202
  480TMC3     O 7196   1.824   4.451  15.553 -0.0996 -0.1603 -0.0517
  480TMC3     H 7197   1.589   4.595  15.310  1.7649 -2.4659  0.0817
  480TMC3    H1 7198   1.996   4.593  15.431  0.3772 -0.0148  0.1676
  480TMC3    H2 7199   1.849   0.199  15.236 -1.8530 -0.0122 -0.1264
  480TMC3    C7 7200   2.065   0.079  15.335  0.0957  0.1110  0.4901
  480TMC3    C8 7201   1.611   0.082  15.177  0.6625  0.6700 -0.5561
  480TMC3    O1 7202   2.136   0.051  15.433  0.2184 -0.4476  0.1019
  480TMC3    O2 7203   1.495   0.060  15.196  0.5392  0.5421 -0.2949
  481MPD2     C 7204   3.921   4.412  14.089  0.5606 -0.2519 -0.3408
  481MPD2    C1 7205   3.782   4.389  14.112  0.7928  0.2909  0.3931
  481MPD2    C2 7206   3.750   4.366  14.244 -0.0881 -0.0314  0.0329
  481MPD2    C3 7207   3.846   4.366  14.346 -0.1741 -0.4636  0.4745
  481MPD2    C4 7208   3.981   4.378  14.317 -0.1917 -0.0619  1.2014
  481MPD2    C5 7209   4.013   4.409  14.189 -0.0380  0.2828  0.2741
  481MPD2     H 7210   3.649   4.332  14.263  0.1686 -0.4466  0.6715
  481MPD2    H1 7211   4.068   4.367  14.382  1.0869  1.2597 -0.2834
  481MPD2    H2 7212   3.943   4.448  13.989  2.0134 -0.4809 -0.1093
  481MPD2    H3 7213   4.114   4.438  14.162  0.5092 -0.9574  1.0075
  481MPD2     N 7214   3.822   4.342  14.482  0.0708 -0.1431  0.1675
  481MPD2    H5 7215   3.902   4.332  14.545  0.7264 -0.9478 -0.8018
  481MPD2    N1 7216   3.690   4.367  14.008  0.1974  0.0021 -0.6468
  481MPD2    H7 7217   3.726   4.360  13.913 -2.5002 -0.7484 -1.5993
  482TMC3    C1 7218   3.496   4.288  13.910 -0.0515 -0.3316 -0.3536
  482TMC3    C2 7219   3.563   4.171  13.882 -0.3988 -0.0110 -0.5883
  482TMC3    C3 7220   3.494   4.062  13.835  0.8357  0.3108 -0.0727
  482TMC3    C4 7221   3.361   4.289  13.898  0.2462  0.4999 -0.3450
  482TMC3    C5 7222   3.300   4.182  13.827  0.0176  0.2556  0.0327
  482TMC3    C6 7223   3.363   4.067  13.792 -0.1226 -0.1377  0.0802
  482TMC3     C 7224   3.554   4.371  14.010  0.0471  0.1420  0.3620
  482TMC3     O 7225   3.481   4.412  14.097 -0.1484  0.2291  0.3336
  482TMC3     H 7226   3.667   4.165  13.912 -0.3909 -0.4677 -0.7145
  482TMC3    H1 7227   3.311   4.382  13.921 -1.6773 -0.4389 -0.7709
  482TMC3    H2 7228   3.317   3.988  13.734  0.8658  0.2655 -1.2514
  482TMC3    C7 7229   3.158   4.180  13.780  0.3815  0.0300 -0.9652
  482TMC3    C8 7230   3.556   3.928  13.826  0.1632 -0.3617 -0.0382
  482TMC3    O1 7231   3.114   4.074  13.742  0.2237  0.2073 -0.3313
  482TMC3    O2 7232   3.488   3.844  13.768  0.3974 -0.0813 -0.3051
  483TMC3    C1 7233   1.358   3.471   0.876 -0.4412  0.7855  0.5412
  483TMC3    C2 7234   1.439   3.555   0.815  0.2357  0.6172  0.7241
  483TMC3    C3 7235   1.541   3.616   0.876 -0.1657 -0.4600 -0.8078
  483TMC3    C4 7236   1.374   3.446   1.016 -0.1983 -0.0332 -0.1274
  483TMC3    C5 7237   1.476   3.512   1.077  0.5123 -0.0060 -0.1102
  483TMC3    C6 7238   1.560   3.601   1.014 -0.0005  0.0085 -0.4203
  483TMC3     C 7239   1.327   3.351   0.810  0.6527  0.1082  0.5946
  483TMC3     O 7240   1.277   3.370   0.700  0.2041 -0.1505  0.0633
  483TMC3     H 7241   1.437   3.564   0.707 -1.3792 -1.1612  0.6020
  483TMC3    H1 7242   1.304   3.395   1.082 -0.8430  1.5006  0.3585
  483TMC3    H2 7243   1.650   3.630   1.066 -0.9474  1.4762  0.3904
  483TMC3    C7 7244   1.527   3.451   1.200 -0.7123  0.3458 -0.0876
  483TMC3    C8 7245   1.630   3.697   0.797 -1.0619 -0.3248  0.2352
  483TMC3    O1 7246   1.483   3.342   1.228  0.7557  0.4746  0.9367
  483TMC3    O2 7247   1.604   3.707   0.677  0.6339  0.1931  0.2332
  484MPD2     C 7248   3.845   1.502  12.405 -0.1567 -0.2894  0.0664
  484MPD2    C1 7249   3.834   1.363  12.397  0.1020  0.3803 -0.6284
  484MPD2    C2 7250   3.950   1.290  12.365 -0.4842 -0.1665 -0.1129
  484MPD2    C3 7251   4.070   1.354  12.346  0.6840 -0.1131  0.6917
  484MPD2    C4 7252   4.074   1.491  12.357 -0.1354 -0.0104  0.1705
  484MPD2    C5 7253   3.967   1.567  12.382 -0.5380  0.1877 -0.1410
  484MPD2     H 7254   3.939   1.183  12.350 -1.4497 -0.2150  0.9177
  484MPD2    H1 7255   4.171   1.537  12.343  1.0038 -1.7181  2.5043
  484MPD2    H2 7256   3.756   1.556  12.436  1.2594  2.5678 -0.8770
  484MPD2    H3 7257   3.978   1.675  12.381 -0.3749  0.1728  0.7519
  484MPD2     N 7258   4.196   1.293  12.310 -0.0902  0.2733  0.0584
  484MPD2    H5 7259   4.277   1.350  12.287  1.1249 -1.1968  0.7483
  484MPD2    N1 7260   3.710   1.309  12.444 -0.0579 -0.1071  0.1897
  484MPD2    H7 7261   3.630   1.372  12.446  0.5766  0.6202  2.0421
  485TMC3    C1 7262   4.338   1.115  12.277  0.1293  0.1901  0.0262
  485TMC3    C2 7263   4.404   1.009  12.336  0.0619 -0.0615 -0.3056
  485TMC3    C3 7264   4.462   0.918  12.253  0.1028 -0.1721 -0.2361
  485TMC3    C4 7265   4.362   1.148  12.149 -0.0722  0.1294  0.2858
  485TMC3    C5 7266   4.423   1.058  12.075 -0.7436  0.3348  0.0327
  485TMC3    C6 7267   4.464   0.939  12.121  0.1600 -0.5669 -0.3198
  485TMC3     C 7268   4.225   1.162  12.345 -0.1305  0.2264  0.0986
  485TMC3     O 7269   4.160   1.085  12.407 -0.0908  0.5588  0.0141
  485TMC3     H 7270   4.377   0.977  12.436 -0.5948  1.7870  0.1056
  485TMC3    H1 7271   4.305   1.231  12.109  0.9691  0.0477 -1.3657
  485TMC3    H2 7272   4.512   0.872  12.050  1.0843  0.7994 -1.0026
  485TMC3    C7 7273   4.505   1.114  11.968  0.2286  0.5093 -0.7983
  485TMC3    C8 7274   4.587   0.865  12.292 -0.4331 -0.4004  0.0669
  485TMC3    O1 7275   4.478   1.218  11.907  0.2259 -0.0894  0.0549
  485TMC3    O2 7276   4.641   0.794  12.208 -0.1814 -0.8218  0.3519
  486MPD2     C 7277   1.901   0.008  13.379  0.9136 -1.0666  0.0185
  486MPD2    C1 7278   1.808   0.003  13.279  0.1988  0.6165  0.1554
  486MPD2    C2 7279   1.725   0.114  13.274  0.4994 -0.0699 -0.2343
  486MPD2    C3 7280   1.738   0.232  13.354 -0.2950  0.0672 -0.3946
  486MPD2    C4 7281   1.848   0.231  13.437 -0.6411 -0.0154  0.4359
  486MPD2    C5 7282   1.928   0.125  13.449 -0.3219  0.6969 -0.8240
  486MPD2     H 7283   1.652   0.131  13.196 -0.9106 -1.2996  0.8253
  486MPD2    H1 7284   1.874   0.320  13.494 -0.4491  0.0979  0.1704
  486MPD2    H2 7285   1.965   4.662  13.411 -0.8688 -2.4417  0.0197
  486MPD2    H3 7286   2.007   0.127  13.523  1.1481 -0.4363 -2.3618
  486MPD2     N 7287   1.653   0.347  13.331  0.1935  0.1037  0.1035
  486MPD2    H5 7288   1.575   0.325  13.270 -0.2258  1.7306  0.0606
  486MPD2    N1 7289   1.793   4.630  13.199  0.0746  0.3328  0.4710
  486MPD2    H7 7290   1.845   4.546  13.222 -1.4555 -1.1063 -1.3192
  487TMC3    C1 7291   1.665   4.483  13.059 -0.3718 -0.0890  0.0559
  487TMC3    C2 7292   1.546   4.442  13.012  0.3399 -0.2277 -0.4404
  487TMC3    C3 7293   1.524   4.313  12.976  0.2483 -0.7711 -1.2827
  487TMC3    C4 7294   1.773   4.393  13.063  0.5312 -0.3257 -0.5391
  487TMC3    C5 7295   1.751   4.268  13.015 -0.0635 -0.1488 -0.1471
  487TMC3    C6 7296   1.624   4.218  12.978 -0.4918 -0.1017  0.2621
  487TMC3     C 7297   1.689   4.615  13.106  0.0449  0.0285 -0.0846
  487TMC3     O 7298   1.610   4.691  13.058 -0.2684 -0.3517 -0.4315
  487TMC3     H 7299   1.466   4.515  13.016  1.8190  1.3908 -0.6046
  487TMC3    H1 7300   1.875   4.409  13.097 -0.1452 -0.5447  1.5878
  487TMC3    H2 7301   1.605   4.118  13.017  0.6370 -0.8391 -1.0707
  487TMC3    C7 7302   1.848   4.168  13.054  0.0493  0.8668  0.9106
  487TMC3    C8 7303   1.378   4.276  12.981  0.0744 -0.1320  0.6483
  487TMC3    O1 7304   1.919   4.186  13.156  0.1656 -0.5346 -0.2852
  487TMC3    O2 7305   1.299   4.366  13.005  0.4193  0.2226 -0.5162
  488MPD2     C 7306   2.065   1.820  16.419  0.5198 -0.0119 -0.2996
  488MPD2    C1 7307   2.120   1.915  16.506 -0.3505 -0.1746 -0.5219
  488MPD2    C2 7308   2.121   1.882  16.644 -0.4247 -0.1564  0.6756
  488MPD2    C3 7309   2.070   1.761  16.692 -0.1106 -0.3937  0.4656
  488MPD2    C4 7310   2.023   1.670  16.602  0.5190 -0.5169 -0.6066
  488MPD2    C5 7311   2.033   1.697  16.469 -0.2129  0.0905  0.1003
  488MPD2     H 7312   2.167   1.958  16.706  0.2823  0.1320 -0.2069
  488MPD2    H1 7313   1.992   1.570  16.629  0.5437 -0.9128 -2.0468
  488MPD2    H2 7314   2.054   1.830  16.311 -1.4472 -2.7210 -0.3517
  488MPD2    H3 7315   1.995   1.627  16.396 -2.3038  1.7460 -0.3781
  488MPD2     N 7316   2.071   1.736  16.829  0.0817 -0.1593  0.0025
  488MPD2    H5 7317   2.101   1.811  16.890 -3.4594  0.6248  0.7305
  488MPD2    N1 7318   2.175   2.038  16.466 -0.3859 -0.1629  0.4658
  488MPD2    H7 7319   2.212   2.100  16.537  2.3586 -0.5926 -0.6004
  489TMC3    C1 7320   2.042   1.640  17.039  0.5369 -0.2700  0.1338
  489TMC3    C2 7321   2.113   1.736  17.097 -0.4629 -0.0183 -0.5394
  489TMC3    C3 7322   2.100   1.754  17.231  0.5157 -0.0489  0.3108
  489TMC3    C4 7323   1.940   1.574  17.095  0.1498 -0.6940  0.1218
  489TMC3    C5 7324   1.926   1.591  17.233 -0.2247  0.1583 -0.6960
  489TMC3    C6 7325   2.009   1.674  17.305  0.3992  0.9151  0.0167
  489TMC3     C 7326   2.035   1.623  16.896  0.1000  0.2529 -0.5157
  489TMC3     O 7327   1.975   1.521  16.864  0.2222  0.2225 -0.1852
  489TMC3     H 7328   2.185   1.791  17.036  0.6007 -1.6340 -0.7541
  489TMC3    H1 7329   1.870   1.507  17.045  0.6103 -0.8615 -0.2962
  489TMC3    H2 7330   2.006   1.682  17.413 -0.0791 -0.2417  0.0837
  489TMC3    C7 7331   1.832   1.511  17.310 -0.0623 -0.2366  0.6347
  489TMC3    C8 7332   2.144   1.888  17.274  0.2152 -0.3057  0.0489
  489TMC3    O1 7333   1.849   1.524  17.433  1.0629  0.3414 -0.0462
  489TMC3    O2 7334   2.221   1.952  17.201 -0.3839  0.5445  0.1688
  490MPD2     C 7335   2.814   1.507  17.187 -0.2197  0.0719  0.2887
  490MPD2    C1 7336   2.762   1.488  17.314 -0.1005 -0.7303 -0.1051
  490MPD2    C2 7337   2.792   1.587  17.413  0.0735  0.4170  0.1145
  490MPD2    C3 7338   2.869   1.697  17.386 -0.4761 -0.2326 -0.5655
  490MPD2    C4 7339   2.917   1.712  17.255 -0.0420 -0.3688  0.0667
  490MPD2    C5 7340   2.874   1.628  17.156  0.1157  0.2057  0.0367
  490MPD2     H 7341   2.751   1.582  17.513  0.0744 -0.3118  0.0773
  490MPD2    H1 7342   2.992   1.785  17.228 -0.5755 -0.3180 -1.2764
  490MPD2    H2 7343   2.792   1.443  17.102  2.0644 -1.7660  1.0868
  490MPD2    H3 7344   2.925   1.640  17.061  2.2007  0.0680  1.1422
  490MPD2     N 7345   2.902   1.804  17.476 -0.0675 -0.1412  0.0748
  490MPD2    H5 7346   2.964   1.877  17.440  0.3723 -0.0338  1.0683
  490MPD2    N1 7347   2.693   1.369  17.357 -0.1731  0.4310  0.0706
  490MPD2    H7 7348   2.664   1.364  17.454 -3.7695 -1.1509 -1.0911
  491TMC3    C1 7349   2.561   1.171  17.328  0.3078  0.1858  0.4419
  491TMC3    C2 7350   2.559   1.138  17.458 -0.4919  0.1260 -0.1397
  491TMC3    C3 7351   2.455   1.054  17.501  0.4902  0.3528 -0.4642
  491TMC3    C4 7352   2.465   1.125  17.239  0.3200  0.3940  0.5628
  491TMC3    C5 7353   2.370   1.037  17.287 -0.1469 -0.2368 -0.0894
  491TMC3    C6 7354   2.357   0.996  17.411 -0.7693  0.5243  1.1083
  491TMC3     C 7355   2.662   1.264  17.275 -0.1034 -0.2142  0.2618
  491TMC3     O 7356   2.670   1.259  17.154 -0.0542 -0.2650  0.4948
  491TMC3     H 7357   2.644   1.156  17.523 -0.6482 -2.8854  0.9452
  491TMC3    H1 7358   2.460   1.157  17.135  1.1398  2.1470  1.0672
  491TMC3    H2 7359   2.269   0.944  17.446  0.3465 -0.2189  2.7853
  491TMC3    C7 7360   2.280   0.968  17.193 -0.5543  0.2735  0.4062
  491TMC3    C8 7361   2.442   1.064  17.642 -0.4933  0.0681  0.7783
  491TMC3    O1 7362   2.182   0.906  17.232  0.6014 -0.9048  0.1408
  491TMC3    O2 7363   2.513   1.149  17.696 -0.4214  0.7433  0.4826
  492MPD2     C 7364   2.641   1.429  11.554  0.2521  0.0511 -0.0637
  492MPD2    C1 7365   2.595   1.339  11.459 -0.0292 -0.1515  0.5238
  492MPD2    C2 7366   2.541   1.216  11.505 -0.0451 -0.1906 -0.0466
  492MPD2    C3 7367   2.530   1.192  11.643  0.3584 -0.5606 -0.1499
  492MPD2    C4 7368   2.580   1.283  11.729  0.1962  0.3579  0.7487
  492MPD2    C5 7369   2.626   1.402  11.684  0.2752 -0.2861 -0.1743
  492MPD2     H 7370   2.489   1.148  11.439  1.7085 -0.9088 -0.7057
  492MPD2    H1 7371   2.562   1.270  11.835 -2.6140 -0.6856  0.1468
  492MPD2    H2 7372   2.678   1.527  11.526 -1.4659 -0.2487 -3.3481
  492MPD2    H3 7373   2.651   1.482  11.752  1.2130 -1.3607  0.7412
  492MPD2     N 7374   2.469   1.077  11.699  0.3285 -0.2384  0.1322
  492MPD2    H5 7375   2.465   1.083  11.801  1.9576  2.5676  0.0358
  492MPD2    N1 7376   2.602   1.368  11.322  0.0901  0.0047  0.8977
  492MPD2    H7 7377   2.649   1.455  11.296 -0.7195  0.6025  1.4343
  493TMC3    C1 7378   2.589   1.359  11.085 -0.3423  0.1107 -0.3616
  493TMC3    C2 7379   2.677   1.464  11.068 -0.4876 -0.4427  0.0686
  493TMC3    C3 7380   2.679   1.525  10.946  0.1738  0.8425 -0.1050
  493TMC3    C4 7381   2.518   1.309  10.983  0.3346  0.1241 -0.1531
  493TMC3    C5 7382   2.539   1.360  10.861 -0.5175 -0.1229  0.2945
  493TMC3    C6 7383   2.604   1.478  10.835 -0.2930  0.0917 -0.8831
  493TMC3     C 7384   2.559   1.294  11.215 -0.8823 -0.2441 -0.3360
  493TMC3     O 7385   2.490   1.188  11.211  0.0613 -1.0064 -0.1899
  493TMC3     H 7386   2.727   1.515  11.150  1.5594 -1.5317 -0.5052
  493TMC3    H1 7387   2.457   1.220  10.991 -0.4175  0.6419 -0.1551
  493TMC3    H2 7388   2.626   1.508  10.733 -1.8082  1.3148 -0.8507
  493TMC3    C7 7389   2.485   1.282  10.751 -0.4710  0.4365  0.2234
  493TMC3    C8 7390   2.735   1.657  10.944  0.3303  0.0395 -0.3797
  493TMC3    O1 7391   2.433   1.177  10.781  0.0275  0.2996 -0.6039
  493TMC3    O2 7392   2.782   1.703  11.046  0.0319 -0.0084  0.2967
  494TMC3    C1 7393   2.905   3.214  17.656 -0.7552  0.2260 -0.7115
  494TMC3    C2 7394   2.971   3.105  17.701 -0.1589  0.0828  0.7569
  494TMC3    C3 7395   3.096   3.094  17.670 -0.5708  0.2039 -0.3956
  494TMC3    C4 7396   2.956   3.303  17.563  0.2003 -0.1023 -0.6474
  494TMC3    C5 7397   3.081   3.285  17.521 -0.2801  0.8619  0.1053
  494TMC3    C6 7398   3.157   3.188  17.584  0.4537 -0.2492 -0.1986
  494TMC3     C 7399   2.769   3.225  17.691 -0.1140 -0.7964  0.0407
  494TMC3     O 7400   2.710   3.320  17.645 -0.1158 -0.1232 -0.5284
  494TMC3     H 7401   2.939   3.040   0.039 -1.7988  1.0137  0.8587
  494TMC3    H1 7402   2.899   3.391  17.536 -1.4150 -0.8571  0.3317
  494TMC3    H2 7403   3.265   3.200  17.584  0.1882  2.2886  1.9914
  494TMC3    C7 7404   3.126   3.352  17.401 -0.1811 -0.3110 -0.0677
  494TMC3    C8 7405   3.184   3.009  17.742  0.3556  1.1324 -1.1189
  494TMC3    O1 7406   3.213   3.291  17.342 -0.4899  0.0456 -0.3276
  494TMC3    O2 7407   3.139   2.969   0.105 -0.2864 -0.2085 -0.2892
  495TMC3    C1 7408   1.988   0.470  14.368 -0.4079  0.2119  0.4790
  495TMC3    C2 7409   1.904   0.534  14.282 -0.0141 -0.5073  0.3597
  495TMC3    C3 7410   1.782   0.576  14.320 -0.1636  0.2065  0.0626
  495TMC3    C4 7411   1.964   0.472  14.509  0.6054 -0.3182 -0.4271
  495TMC3    C5 7412   1.847   0.523  14.550 -0.0853  0.6887  0.2610
  495TMC3    C6 7413   1.754   0.572  14.458 -1.2837 -0.0074 -0.5952
  495TMC3     C 7414   2.014   0.336  14.316  0.6107  0.2462  0.0420
  495TMC3     O 7415   1.986   0.324  14.199 -0.2606 -0.4828  0.0522
  495TMC3     H 7416   1.944   0.556  14.183  0.4575  0.8868  0.8613
  495TMC3    H1 7417   2.031   0.426  14.580  2.5771  1.6198 -1.0165
  495TMC3    H2 7418   1.650   0.593  14.481 -0.9680  1.8033 -0.7959
  495TMC3    C7 7419   1.806   0.492  14.692  0.9677  0.4096 -0.0646
  495TMC3    C8 7420   1.664   0.528  14.240  0.2276  0.2817 -0.0198
  495TMC3    O1 7421   1.898   0.479  14.779 -0.0646 -0.1915 -0.4288
  495TMC3    O2 7422   1.553   0.570  14.277 -0.2871  0.4052 -0.2888
  496MPD2     C 7423   3.731   0.798  15.212 -0.5363  0.1578 -0.6421
  496MPD2    C1 7424   3.781   0.687  15.279  0.3103 -0.6891 -0.0336
  496MPD2    C2 7425   3.756   0.673  15.418  0.5940  0.0579  0.1665
  496MPD2    C3 7426   3.690   0.774  15.487  0.3928 -0.4710  0.1929
  496MPD2    C4 7427   3.641   0.883  15.420 -0.0641 -0.6323  0.0288
  496MPD2    C5 7428   3.664   0.899  15.288 -0.6649 -0.1196  0.6296
  496MPD2     H 7429   3.792   0.586  15.472  2.0076  1.1379  0.9715
  496MPD2    H1 7430   3.579   0.956  15.470  0.0931 -1.3556  1.2754
  496MPD2    H2 7431   3.742   0.795  15.104  0.9849  2.2090 -0.5451
  496MPD2    H3 7432   3.625   0.990  15.244  2.0845  1.4329  1.3772
  496MPD2     N 7433   3.673   0.766  15.628  0.1895 -0.1465 -0.1007
  496MPD2    H5 7434   3.600   0.823  15.669  0.4893  0.4429 -0.3904
  496MPD2    N1 7435   3.850   0.588  15.202  0.3380  0.0871 -0.4136
  496MPD2    H7 7436   3.847   0.597  15.101 -1.2632  0.7478 -0.3045
  497TMC3    C1 7437   3.617   0.625  15.796 -0.4016  0.3858 -0.3684
  497TMC3    C2 7438   3.486   0.597  15.770  0.5521  0.3258 -0.2152
  497TMC3    C3 7439   3.395   0.583  15.875 -0.3408  0.3764  0.1204
  497TMC3    C4 7440   3.658   0.638  15.926 -0.5178 -0.1177 -0.1771
  497TMC3    C5 7441   3.567   0.632  16.030  0.0677  0.0012 -0.6803
  497TMC3    C6 7442   3.438   0.596  16.005  0.2945 -0.3705  0.8580
  497TMC3     C 7443   3.721   0.662  15.703  0.0220  1.1414  1.0410
  497TMC3     O 7444   3.813   0.592  15.685  0.5123 -0.2819 -0.5697
  497TMC3     H 7445   3.448   0.615  15.670 -0.5565  0.5268  0.2403
  497TMC3    H1 7446   3.758   0.676  15.943  0.1315 -1.7468 -0.3537
  497TMC3    H2 7447   3.367   0.576  16.084  0.0695 -1.0809  0.4830
  497TMC3    C7 7448   3.605   0.663  16.166 -1.0689  0.1999 -0.5254
  497TMC3    C8 7449   3.269   0.508  15.858 -0.5012  0.0147 -0.3499
  497TMC3    O1 7450   3.521   0.691  16.250  0.5275  0.1655 -0.0760
  497TMC3    O2 7451   3.184   0.519  15.941 -0.4801 -0.0405 -0.0747
  498MPD2     C 7452   0.891   1.063  10.698 -0.2793  0.4492 -0.1694
  498MPD2    C1 7453   0.778   1.143  10.664 -0.9416 -0.3755 -1.0877
  498MPD2    C2 7454   0.653   1.086  10.670 -1.0086 -0.0922  0.2663
  498MPD2    C3 7455   0.642   0.957  10.717 -0.0713  0.0675  0.3420
  498MPD2    C4 7456   0.753   0.881  10.744  0.2881  0.3268 -0.3357
  498MPD2    C5 7457   0.875   0.932  10.732  0.0078 -0.3179  0.1373
  498MPD2     H 7458   0.568   1.143  10.635 -1.8120 -1.8909 -0.6472
  498MPD2    H1 7459   0.749   0.780  10.783 -2.0089  0.2980 -0.6269
  498MPD2    H2 7460   0.993   1.100  10.698  0.1642 -0.7828 -3.1670
  498MPD2    H3 7461   0.966   0.873  10.745  1.2292  1.3619 -0.8586
  498MPD2     N 7462   0.504   0.909  10.725  0.1964 -0.0598 -0.3947
  498MPD2    H5 7463   0.434   0.974  10.693 -1.2990 -1.2482  0.4587
  498MPD2    N1 7464   0.788   1.270  10.604 -0.1280  0.1584 -0.6271
  498MPD2    H7 7465   0.699   1.309  10.573 -0.9896 -0.6377  0.8441
  499TMC3    C1 7466   0.919   1.471  10.538  0.2872  0.3115  0.1574
  499TMC3    C2 7467   1.023   1.553  10.572 -0.0614  0.2524 -0.4422
  499TMC3    C3 7468   1.037   1.677  10.515  0.5309  0.3595 -0.0175
  499TMC3    C4 7469   0.826   1.508  10.446  0.5586  0.1417 -0.0456
  499TMC3    C5 7470   0.841   1.630  10.385 -0.2210  0.1217  0.3588
  499TMC3    C6 7471   0.947   1.707  10.411  0.1829 -0.2968  0.4838
  499TMC3     C 7472   0.913   1.340  10.610 -0.7968 -0.7547 -0.4172
  499TMC3     O 7473   1.006   1.316  10.686  0.3078 -0.0080 -0.1030
  499TMC3     H 7474   1.099   1.511  10.637 -0.6700 -0.5867 -0.2724
  499TMC3    H1 7475   0.735   1.451  10.428  0.2922  0.8469 -0.8606
  499TMC3    H2 7476   0.947   1.811  10.379 -0.4063 -0.0857  1.1754
  499TMC3    C7 7477   0.728   1.695  10.316  0.5362 -0.4755  0.5588
  499TMC3    C8 7478   1.178   1.708  10.497 -0.0542 -0.0484 -0.8672
  499TMC3    O1 7479   0.761   1.798  10.257  0.3348  0.1779 -0.2124
  499TMC3    O2 7480   1.241   1.767  10.583 -0.2301  0.2506  0.2407
  500MPD2     C 7481   1.765   2.716   9.823  0.3330  0.0586 -0.1603
  500MPD2    C1 7482   1.800   2.639   9.936  0.0306 -0.6990  0.3634
  500MPD2    C2 7483   1.725   2.532   9.972  0.2482 -0.7135 -0.4987
  500MPD2    C3 7484   1.621   2.492   9.895  0.2687  0.0931 -0.4614
  500MPD2    C4 7485   1.586   2.566   9.787  0.5401  0.2627 -0.6917
  500MPD2    C5 7486   1.651   2.678   9.752 -0.2795 -0.4424  0.8728
  500MPD2     H 7487   1.763   2.475  10.056 -0.2128 -1.7779 -1.0122
  500MPD2    H1 7488   1.502   2.536   9.724 -0.9158 -0.1796  1.4653
  500MPD2    H2 7489   1.818   2.799   9.778  0.1064  0.1284 -0.2956
  500MPD2    H3 7490   1.620   2.743   9.670  0.7158  0.4531  1.1993
  500MPD2     N 7491   1.538   2.376   9.908  0.9609 -0.2644 -0.1649
  500MPD2    H5 7492   1.457   2.369   9.847  0.1786 -0.4143  0.8981
  500MPD2    N1 7493   1.912   2.670  10.021 -0.4989  0.5214 -0.1099
  500MPD2    H7 7494   1.909   2.620  10.110  0.1679 -0.0541 -0.4103
  501TMC3    C1 7495   2.117   2.751  10.084 -0.2558  0.8020  0.7069
  501TMC3    C2 7496   2.208   2.851  10.074  0.5751  0.0925 -0.4273
  501TMC3    C3 7497   2.325   2.839  10.146 -0.1626  0.5625 -0.1964
  501TMC3    C4 7498   2.133   2.645  10.166  0.1531  0.1860 -0.7412
  501TMC3    C5 7499   2.264   2.624  10.219  0.5212 -0.1364  0.0196
  501TMC3    C6 7500   2.358   2.724  10.214  0.6205  0.3599  0.2702
  501TMC3     C 7501   2.017   2.754   9.989 -0.2892 -0.6157 -0.3414
  501TMC3     O 7502   2.025   2.833   9.896 -0.4470  0.1318 -0.0177
  501TMC3     H 7503   2.199   2.931  10.002 -0.1200 -1.6500 -2.2888
  501TMC3    H1 7504   2.066   2.561  10.181 -1.1762  0.6898 -3.9276
  501TMC3    H2 7505   2.450   2.713  10.270  0.4922 -0.2943  0.3438
  501TMC3    C7 7506   2.281   2.537  10.341  0.6366 -0.2986  0.0477
  501TMC3    C8 7507   2.349   2.957  10.226 -0.0018  0.5721 -0.6096
  501TMC3    O1 7508   2.397   2.523  10.388 -0.4111  0.0739  0.3114
  501TMC3    O2 7509   2.395   2.933  10.336 -0.3489  0.3518  0.4090
  502TMC3    C1 7510   1.445   0.910  14.823 -0.0657 -0.1613 -0.8732
  502TMC3    C2 7511   1.473   1.044  14.788 -0.2722  0.2956  0.3230
  502TMC3    C3 7512   1.373   1.135  14.806 -0.1322 -0.9559 -0.4769
  502TMC3    C4 7513   1.322   0.871  14.868 -0.3460  0.2427  0.5217
  502TMC3    C5 7514   1.222   0.964  14.883 -0.9427 -0.1560  0.2901
  502TMC3    C6 7515   1.246   1.098  14.847 -0.1694  0.0212  0.2283
  502TMC3     C 7516   1.556   0.869  14.904  0.6252 -0.1292 -0.3169
  502TMC3     O 7517   1.667   0.863  14.854 -0.2375 -0.9090 -0.0993
  502TMC3     H 7518   1.574   1.074  14.763  0.1981  0.0182  1.8649
  502TMC3    H1 7519   1.304   0.766  14.890  1.2337 -0.2931 -0.7412
  502TMC3    H2 7520   1.180   1.177  14.880  0.6314  1.2998 -1.2356
  502TMC3    C7 7521   1.166   0.937  15.011 -0.3978  0.3329 -0.0242
  502TMC3    C8 7522   1.422   1.255  14.874  0.3654  0.1021  0.3114
  502TMC3    O1 7523   1.231   0.853  15.077 -0.0604 -0.4104  1.1006
  502TMC3    O2 7524   1.335   1.339  14.889 -0.2068 -0.4509  0.0860
  503MPD2     C 7525   3.531   1.977  17.041 -0.0762  0.7675 -0.0654
  503MPD2    C1 7526   3.586   2.018  17.160 -0.2530  0.6190 -1.7658
  503MPD2    C2 7527   3.645   1.925  17.237 -0.4051  0.7423  0.6065
  503MPD2    C3 7528   3.650   1.795  17.196 -0.1147  0.7679 -0.0603
  503MPD2    C4 7529   3.587   1.749  17.078 -0.1081 -0.2367 -0.3795
  503MPD2    C5 7530   3.530   1.848  17.004  0.4568  0.3798  0.0450
  503MPD2     H 7531   3.705   1.954  17.322 -0.3477 -1.1563  1.2001
  503MPD2    H1 7532   3.576   1.644  17.053 -2.8015 -0.3820  1.3675
  503MPD2    H2 7533   3.467   2.030  16.971  0.3789 -0.7827 -1.6701
  503MPD2    H3 7534   3.484   1.828  16.908 -1.0258 -1.3768  1.1253
  503MPD2     N 7535   3.740   1.717  17.270  0.7315  0.2447  0.1716
  503MPD2    H5 7536   3.773   1.752  17.359  0.1294 -0.4269  0.6613
  503MPD2    N1 7537   3.582   2.158  17.177 -0.5586  0.2961  0.2883
  503MPD2    H7 7538   3.539   2.216  17.105  3.8669  0.5210 -2.1466
  504TMC3    C1 7539   3.892   1.541  17.320 -0.0808 -0.0883 -0.1654
  504TMC3    C2 7540   3.848   1.512  17.445 -0.0558 -0.5186 -0.0283
  504TMC3    C3 7541   3.908   1.415  17.514 -0.1741 -0.3547 -0.0260
  504TMC3    C4 7542   4.011   1.487  17.276  0.4119  0.4963 -0.2288
  504TMC3    C5 7543   4.073   1.395  17.355 -0.3062  0.0252 -0.6730
  504TMC3    C6 7544   4.031   1.361  17.475 -0.0866  0.8282  0.8490
  504TMC3     C 7545   3.805   1.607  17.221  0.4514 -0.0064  0.6269
  504TMC3     O 7546   3.809   1.576  17.102  0.3553 -0.4196  0.2977
  504TMC3     H 7547   3.755   1.562  17.470  0.2031  0.7829 -1.6707
  504TMC3    H1 7548   4.046   1.515  17.177 -4.6738  2.7432 -1.3878
  504TMC3    H2 7549   4.065   1.264  17.508 -3.1832 -0.0096  1.6100
  504TMC3    C7 7550   4.188   1.330  17.290 -0.3115  0.3518 -0.9562
  504TMC3    C8 7551   3.843   1.367  17.629  0.3150 -0.0382  0.8477
  504TMC3    O1 7552   4.203   1.344  17.168  0.5945 -0.8504 -0.1437
  504TMC3    O2 7553   3.719   1.380  17.646 -0.0758  0.9389  0.0376
  505MPD2     C 7554   4.046   0.425  11.182 -0.3045  0.4065 -0.1805
  505MPD2    C1 7555   4.009   0.391  11.056 -0.0604  0.0098  0.0717
  505MPD2    C2 7556   4.038   0.266  11.008  0.1143 -0.0178 -0.4848
  505MPD2    C3 7557   4.099   0.175  11.088  0.4404  0.1348  0.0426
  505MPD2    C4 7558   4.135   0.207  11.220  0.4055  0.1155 -0.0799
  505MPD2    C5 7559   4.117   0.338  11.261  0.2292  0.1669 -0.2520
  505MPD2     H 7560   4.024   0.233  10.905  0.6051  1.7662 -1.1215
  505MPD2    H1 7561   4.179   0.130  11.282  0.8884  0.8794  0.5218
  505MPD2    H2 7562   4.010   0.523  11.212 -0.1412  0.4808 -0.2248
  505MPD2    H3 7563   4.160   0.372  11.355 -2.8458  2.5005  0.2943
  505MPD2     N 7564   4.145   0.049  11.043  0.2727  0.3890  0.3357
  505MPD2    H5 7565   4.197   4.733  11.113 -0.6182  0.2119  0.8562
  505MPD2    N1 7566   3.948   0.495  10.979  0.2044 -0.3967 -0.0228
  505MPD2    H7 7567   3.943   0.591  11.011  2.3675 -0.6103  0.9427
  506TMC3    C1 7568   3.835   0.592  10.793 -0.1002  0.4495  0.2495
  506TMC3    C2 7569   3.923   0.699  10.777  0.1731 -0.1036  0.0676
  506TMC3    C3 7570   3.923   0.753  10.655 -0.1383 -0.1449 -0.2539
  506TMC3    C4 7571   3.757   0.545  10.684  1.1287 -0.0579  0.2438
  506TMC3    C5 7572   3.760   0.611  10.564  0.6146 -0.0855 -0.5040
  506TMC3    C6 7573   3.841   0.722  10.547  0.9232  0.2800 -0.5547
  506TMC3     C 7574   3.887   0.480  10.856 -0.8456  0.1964  0.0915
  506TMC3     O 7575   3.863   0.376  10.799  0.2389 -0.3345  0.1588
  506TMC3     H 7576   3.992   0.732  10.854  0.9960 -1.9273  0.1053
  506TMC3    H1 7577   3.679   0.472  10.703 -0.8932  2.7244  2.7483
  506TMC3    H2 7578   3.844   0.769  10.450  0.7934 -0.6945 -1.0252
  506TMC3    C7 7579   3.789   0.509  10.464 -0.0639 -0.1176  0.2646
  506TMC3    C8 7580   4.016   0.857  10.613 -0.5606 -0.0087 -0.5053
  506TMC3    O1 7581   3.788   0.543  10.342 -0.0510 -0.1521 -0.2877
  506TMC3    O2 7582   3.962   0.953  10.563  0.1960 -0.0623 -0.1309
  507TMC3    C1 7583   0.033   1.460  14.934  0.2170  0.0551 -0.0773
  507TMC3    C2 7584   0.023   1.385  14.816 -0.0331 -0.3198  0.7533
  507TMC3    C3 7585   0.056   1.447  14.698  0.3481 -0.3900  0.1589
  507TMC3    C4 7586   0.079   1.594  14.925 -0.4472 -0.3487 -0.3481
  507TMC3    C5 7587   0.103   1.647  14.800 -0.3297  0.5467  0.3209
  507TMC3    C6 7588   0.100   1.573  14.688 -0.6255  0.5375  0.1727
  507TMC3     C 7589   4.653   1.461  15.012  0.6175  0.2802 -0.6666
  507TMC3     O 7590   4.658   1.510  15.125 -0.1598  0.1574  0.2691
  507TMC3     H 7591   4.703   1.293  14.804 -1.7504  0.7259  0.7920
  507TMC3    H1 7592   0.079   1.656  15.014  3.6136  0.2826 -0.8103
  507TMC3    H2 7593   0.136   1.620  14.597 -1.5625 -0.1897 -0.5758
  507TMC3    C7 7594   0.055   1.783  14.788  0.1367  0.7998 -0.2709
  507TMC3    C8 7595   4.691   1.425  14.596 -0.2605 -0.3723  0.4462
  507TMC3    O1 7596   4.730   1.799  14.682  0.0437 -0.0261  0.2892
  507TMC3    O2 7597   4.650   1.310  14.577  0.0120 -1.0709  0.0893
  508MPD2     C 7598   0.878   3.705  16.205  0.2741  0.1261  0.1598
  508MPD2    C1 7599   0.938   3.828  16.212 -0.4761  0.6773 -0.3829
  508MPD2    C2 7600   0.938   3.911  16.102 -0.3279 -0.1592  0.4736
  508MPD2    C3 7601   0.867   3.880  15.990  0.0354  0.0573  0.0600
  508MPD2    C4 7602   0.796   3.767  15.982  0.3213 -0.3563 -1.0612
  508MPD2    C5 7603   0.810   3.679  16.085 -0.6595  0.2484  0.0686
  508MPD2     H 7604   0.991   4.005  16.096  0.5297 -0.6813 -0.0878
  508MPD2    H1 7605   0.741   3.738  15.893  2.2021  1.2422 -2.7331
  508MPD2    H2 7606   0.870   3.628  16.280 -0.2793 -0.5536 -0.5987
  508MPD2    H3 7607   0.760   3.585  16.063 -0.6931  0.5452 -1.1407
  508MPD2     N 7608   0.873   3.977  15.892  0.0823 -0.0990  0.1012
  508MPD2    H5 7609   0.911   4.064  15.929  2.2821 -0.9608 -0.1356
  508MPD2    N1 7610   0.996   3.881  16.330 -0.8740  0.2638  0.0334
  508MPD2    H7 7611   1.033   3.974  16.312 -1.5775  0.7834  1.2612
  509TMC3    C1 7612   0.788   4.226  15.506  0.0208 -0.1923 -0.2297
  509TMC3    C2 7613   0.892   4.317  15.527 -0.3562  0.2778  0.3065
  509TMC3    C3 7614   0.964   4.288  15.639  0.0985  0.1337  0.0038
  509TMC3    C4 7615   0.780   4.107  15.572  0.4663  0.1060 -0.4011
  509TMC3    C5 7616   0.852   4.080  15.681 -0.1277  0.0386  0.2357
  509TMC3    C6 7617   0.949   4.177  15.719  0.2331  0.3810 -0.2022
  509TMC3     C 7618   0.696   4.260  15.396 -0.1299  0.6763  0.4647
  509TMC3     O 7619   0.643   4.160  15.348  0.0102  0.3860 -0.0147
  509TMC3     H 7620   0.926   4.387  15.452  0.0369  1.2816  1.4210
  509TMC3    H1 7621   0.700   4.038  15.546 -1.4548  2.2098 -0.0774
  509TMC3    H2 7622   1.024   4.153  15.794 -1.7052  0.3413  1.7234
  509TMC3    C7 7623   0.830   3.962  15.757 -0.5269  0.1901  0.3224
  509TMC3    C8 7624   1.100   4.343  15.645 -0.3445 -0.3112 -0.4263
  509TMC3    O1 7625   0.784   3.870  15.693 -0.3673 -0.4045  0.5203
  509TMC3    O2 7626   1.176   4.276  15.709  0.4007 -0.6593  0.1249
  510MPD2     C 7627   3.144   1.020  14.634  0.1516 -0.1299  0.3824
  510MPD2    C1 7628   3.191   0.909  14.693  0.1730 -0.2084 -0.2938
  510MPD2    C2 7629   3.318   0.864  14.660  0.5424  0.1936  0.0106
  510MPD2    C3 7630   3.395   0.920  14.557  0.7705 -0.2184  0.4830
  510MPD2    C4 7631   3.342   1.032  14.495  0.3280  0.2329  0.1138
  510MPD2    C5 7632   3.215   1.072  14.529 -0.3003  0.5293  0.4965
  510MPD2     H 7633   3.366   0.773  14.693  0.8017 -0.1930 -1.4148
  510MPD2    H1 7634   3.385   1.077  14.406  1.9166 -1.3187  0.1198
  510MPD2    H2 7635   3.061   1.079  14.671 -0.1143  0.4521 -1.1437
  510MPD2    H3 7636   3.175   1.159  14.478 -2.5163 -0.8239 -0.0833
  510MPD2     N 7637   3.514   0.852  14.518  0.6764 -0.7236  0.0535
  510MPD2    H5 7638   3.533   0.766  14.568 -0.7861 -1.4295 -0.5964
  510MPD2    N1 7639   3.113   0.854  14.799  0.6440  0.1519 -0.1159
  510MPD2    H7 7640   3.026   0.900  14.824  2.5578  3.0432  1.3794
  511TMC3    C1 7641   3.027   0.676  14.930 -0.1054  0.0361  0.6073
  511TMC3    C2 7642   2.985   0.732  15.047 -0.7664  0.4716 -0.3532
  511TMC3    C3 7643   2.909   0.659  15.136 -0.5463 -0.3829 -0.5755
  511TMC3    C4 7644   3.005   0.540  14.912  0.3662 -0.8539  0.3074
  511TMC3    C5 7645   2.927   0.470  15.002 -0.6693 -0.3719 -0.9659
  511TMC3    C6 7646   2.872   0.526  15.117 -0.8581  0.2195 -0.4950
  511TMC3     C 7647   3.134   0.728  14.853 -0.6526 -0.0423 -0.4857
  511TMC3     O 7648   3.223   0.649  14.828 -0.3572 -0.0729  0.0446
  511TMC3     H 7649   3.025   0.825  15.085  0.4441  0.6022 -1.9811
  511TMC3    H1 7650   3.058   0.481  14.838 -1.7917 -2.6754  0.2322
  511TMC3    H2 7651   2.802   0.477  15.183  2.3522 -1.3828  1.7388
  511TMC3    C7 7652   2.873   0.347  14.947  0.8912 -0.0714  0.6701
  511TMC3    C8 7653   2.883   0.722  15.270 -0.1976 -0.4795 -0.2737
  511TMC3    O1 7654   2.868   0.325  14.828  0.0865 -0.3064  0.6731
  511TMC3    O2 7655   2.871   0.846  15.281  0.2321 -0.5692  0.6391
  512TMC3    C1 7656   2.050   4.681  13.005  0.7461  0.5308  0.2122
  512TMC3    C2 7657   2.114   4.705  13.125 -0.3324  0.2559  0.4621
  512TMC3    C3 7658   2.185   4.600  13.177 -0.2180  0.3455  0.3560
  512TMC3    C4 7659   2.054   4.556  12.940  0.4168 -0.4205  0.0798
  512TMC3    C5 7660   2.126   4.459  12.995  0.6844  0.0650  0.1793
  512TMC3    C6 7661   2.188   4.476  13.116  0.0570 -0.6528 -0.2473
  512TMC3     C 7662   1.968   0.046  12.938  0.1100  0.2060  0.1135
  512TMC3     O 7663   1.927   0.015  12.827  0.0870 -0.6036  0.4638
  512TMC3     H 7664   2.103   0.061  13.181  1.2568  0.4989  0.3753
  512TMC3    H1 7665   1.994   4.533  12.853 -1.9137  1.5390  1.1530
  512TMC3    H2 7666   2.271   4.418  13.154  1.1932  1.4517  0.5010
  512TMC3    C7 7667   2.131   4.323  12.937 -0.5363  0.1580 -0.3110
  512TMC3    C8 7668   2.274   4.624  13.291 -0.0516 -0.1443  0.4108
  512TMC3    O1 7669   2.095   4.315  12.820 -0.4142  0.3516  0.5519
  512TMC3    O2 7670   2.315   4.521  13.343  0.5798 -0.3672 -0.3563
  513MPD2     C 7671   4.448   0.683  13.129 -0.1482 -0.6942  0.7741
  513MPD2    C1 7672   4.324   0.634  13.102  0.9042 -0.9646  0.5239
  513MPD2    C2 7673   4.249   0.593  13.209  0.7642 -0.2047 -0.0380
  513MPD2    C3 7674   4.287   0.613  13.336  0.1529 -0.4003  0.4784
  513MPD2    C4 7675   4.412   0.661  13.368 -0.1724 -0.2005 -0.8102
  513MPD2    C5 7676   4.487   0.692  13.260 -0.8085 -0.6698  0.1223
  513MPD2     H 7677   4.151   0.547  13.200 -0.2798  1.0526  4.8983
  513MPD2    H1 7678   4.446   0.682  13.468 -0.4217  2.3746 -1.2610
  513MPD2    H2 7679   4.516   0.722  13.054 -1.0747  2.1975  1.4166
  513MPD2    H3 7680   4.583   0.736  13.284 -0.3456 -1.5817 -0.0371
  513MPD2     N 7681   4.190   0.562  13.428 -0.1529 -0.5791  0.4735
  513MPD2    H5 7682   4.103   0.518  13.400 -0.8042  1.0126 -0.0153
  513MPD2    N1 7683   4.278   0.626  12.967  0.4911 -0.1306 -0.1273
  513MPD2    H7 7684   4.341   0.649  12.891  0.7302 -1.6281 -0.3810
  514TMC3    C1 7685   4.152   0.540  12.792  0.2683  0.2004  0.6012
  514TMC3    C2 7686   4.251   0.450  12.766 -0.0318 -0.7132 -0.1743
  514TMC3    C3 7687   4.221   0.330  12.700 -0.2875  0.8100 -0.5016
  514TMC3    C4 7688   4.025   0.518  12.746  0.9006  0.8923  0.2502
  514TMC3    C5 7689   3.996   0.395  12.702 -0.5063  0.2811  0.3579
  514TMC3    C6 7690   4.091   0.299  12.676 -0.0423  0.5276 -0.1636
  514TMC3     C 7691   4.151   0.585  12.927  0.1712 -0.3409 -0.9902
  514TMC3     O 7692   4.063   0.539  13.000  0.3482  0.1769 -0.5101
  514TMC3     H 7693   4.350   0.471  12.805 -0.2799  1.7095 -0.8514
  514TMC3    H1 7694   3.940   0.578  12.777 -0.7400 -1.0498 -0.5508
  514TMC3    H2 7695   4.064   0.201  12.639 -0.0720  0.0786  1.0414
  514TMC3    C7 7696   3.873   0.338  12.746 -0.6946  0.1021  0.0253
  514TMC3    C8 7697   4.324   0.228  12.711  0.1969 -0.1793  0.6218
  514TMC3    O1 7698   3.836   0.236  12.682 -0.3500  0.2519  0.0700
  514TMC3    O2 7699   4.426   0.256  12.773 -0.4034  0.1188  0.4913
  515MPD2     C 7700   2.098   2.399  15.042  0.3044 -0.4322 -0.3379
  515MPD2    C1 7701   2.165   2.285  14.998 -0.4272 -0.1440 -0.4423
  515MPD2    C2 7702   2.292   2.265  15.056  0.1856  0.2483 -0.1871
  515MPD2    C3 7703   2.352   2.352  15.142 -0.6934  0.9927 -0.6252
  515MPD2    C4 7704   2.278   2.461  15.183 -0.5157 -0.0407 -0.1714
  515MPD2    C5 7705   2.151   2.484  15.133  0.4472  0.1618 -0.6382
  515MPD2     H 7706   2.336   2.167  15.042 -0.4662  0.0957 -1.1632
  515MPD2    H1 7707   2.325   2.541  15.240  0.1553  0.3605 -1.2603
  515MPD2    H2 7708   2.006   2.430  14.995  0.8801  0.4545 -0.8850
  515MPD2    H3 7709   2.095   2.576  15.146  1.3929  0.6074  0.2525
  515MPD2     N 7710   2.484   2.342  15.185 -0.0012  0.4105 -0.2150
  515MPD2    H5 7711   2.520   2.423  15.235 -3.0570  1.2305  0.6540
  515MPD2    N1 7712   2.113   2.201  14.895 -0.2266  0.2013  0.8526
  515MPD2    H7 7713   2.167   2.115  14.890  1.3532  1.1841  1.0007
  516TMC3    C1 7714   1.947   2.094  14.755 -0.2725  1.2723 -0.0359
  516TMC3    C2 7715   1.833   2.110  14.680 -0.0683  0.1508  0.7327
  516TMC3    C3 7716   1.771   1.994  14.642 -0.4353 -0.0738  1.1921
  516TMC3    C4 7717   1.981   1.969  14.796  0.2984 -0.4542 -0.3144
  516TMC3    C5 7718   1.919   1.856  14.746  0.2653 -0.9177 -0.3516
  516TMC3    C6 7719   1.805   1.868  14.667  0.0566  0.4228  0.6197
  516TMC3     C 7720   1.995   2.217  14.820  0.0556  0.1498 -0.2400
  516TMC3     O 7721   1.918   2.314  14.809  0.0578  0.1450 -0.2022
  516TMC3     H 7722   1.797   2.210  14.660 -0.1423 -0.0620 -0.2087
  516TMC3    H1 7723   2.070   1.955  14.856  0.9451 -0.6692 -1.3175
  516TMC3    H2 7724   1.749   1.785  14.624  0.2812  0.1248  0.8996
  516TMC3    C7 7725   1.956   1.724  14.798  0.5481 -0.6164 -0.1216
  516TMC3    C8 7726   1.656   2.013  14.553  0.2721  0.1318 -0.9599
  516TMC3    O1 7727   2.052   1.719  14.876 -0.5425 -0.1314 -0.5931
  516TMC3    O2 7728   1.582   1.915  14.551  0.4971 -0.1951 -0.5191
  517MPD2     C 7729   1.932   3.184   0.158  0.7394 -0.6581 -0.3087
  517MPD2    C1 7730   2.036   3.216   0.077  0.8407  1.1114  0.2474
  517MPD2    C2 7731   2.075   3.349   0.079  0.2616 -0.1764 -0.2621
  517MPD2    C3 7732   1.995   3.444   0.148 -0.4871 -0.0549 -1.0379
  517MPD2    C4 7733   1.889   3.402   0.221 -0.0744 -0.3397 -0.3858
  517MPD2    C5 7734   1.858   3.274   0.229  0.0006  0.7760 -0.4273
  517MPD2     H 7735   2.151   3.384   0.009  1.0457  0.9785  1.1873
  517MPD2    H1 7736   1.822   3.474   0.267 -0.0629 -0.7264  0.2226
  517MPD2    H2 7737   1.912   3.078   0.168 -0.9654 -0.3810 -0.8173
  517MPD2    H3 7738   1.779   3.246   0.297  0.0495  0.0909 -0.6581
  517MPD2     N 7739   2.011   3.585   0.145  0.0840  0.1784  0.0985
  517MPD2    H5 7740   1.938   3.646   0.179  1.3135  1.6879  0.0216
  517MPD2    N1 7741   2.112   3.127   0.004  0.3204 -0.1679  0.1469
  517MPD2    H7 7742   2.178   3.170  17.682 -1.1066 -0.1059 -1.2703
  518TMC3    C1 7743   2.192   2.919  17.660  0.0332 -0.7774  0.3243
  518TMC3    C2 7744   2.172   2.787  17.636  0.7511  0.7143 -0.7683
  518TMC3    C3 7745   2.276   2.737  17.555 -0.2271  0.6826  0.0537
  518TMC3    C4 7746   2.292   2.994  17.614 -0.1841 -0.3822 -0.3672
  518TMC3    C5 7747   2.378   2.937  17.524  0.0402 -0.2009  0.0423
  518TMC3    C6 7748   2.375   2.807  17.496  0.0119 -0.4473  0.4694
  518TMC3     C 7749   2.095   2.988   0.004 -0.3776  0.3531  0.0456
  518TMC3     O 7750   2.016   2.922   0.065 -0.0371  0.8059  0.2201
  518TMC3     H 7751   2.086   2.736  17.678  1.0217  0.3886 -0.6143
  518TMC3    H1 7752   2.327   3.091  17.646  0.5403 -1.3798  1.8423
  518TMC3    H2 7753   2.453   2.762  17.435 -1.3973 -0.4424 -1.3372
  518TMC3    C7 7754   2.481   3.020  17.475 -0.3872  0.4792 -0.1914
  518TMC3    C8 7755   2.289   2.591  17.554  0.1834  0.4235 -0.0087
  518TMC3    O1 7756   2.457   3.139  17.458  0.5905  0.0494 -0.2739
  518TMC3    O2 7757   2.355   2.544  17.461  0.8954  0.1423  0.0096
  519MPD2     C 7758   3.610   1.735  14.515 -0.4090 -0.4939 -0.1072
  519MPD2    C1 7759   3.531   1.749  14.400  0.0630  0.0937 -0.0119
  519MPD2    C2 7760   3.566   1.686  14.284  0.1494 -0.6476  0.0833
  519MPD2    C3 7761   3.692   1.630  14.272 -0.0402  0.1863 -0.0773
  519MPD2    C4 7762   3.777   1.620  14.378 -0.0086  0.0357  0.0688
  519MPD2    C5 7763   3.732   1.667  14.500  0.0317 -0.3559  0.2195
  519MPD2     H 7764   3.495   1.682  14.203 -0.1633  1.2422  0.2613
  519MPD2    H1 7765   3.874   1.575  14.361 -0.5112 -0.4159 -1.5659
  519MPD2    H2 7766   3.582   1.788  14.605  0.3703  0.1345 -0.2296
  519MPD2    H3 7767   3.802   1.670  14.583  1.8529 -1.1357 -1.2724
  519MPD2     N 7768   3.738   1.565  14.153  0.1006  0.1792 -0.3610
  519MPD2    H5 7769   3.836   1.540  14.143 -0.2585 -1.5366  0.3554
  519MPD2    N1 7770   3.409   1.820  14.409  0.0916  0.4881  0.4158
  519MPD2    H7 7771   3.377   1.847  14.502  2.2088  0.1695  1.2336
  520TMC3    C1 7772   3.727   1.489  13.928  0.2079  0.6524  0.3090
  520TMC3    C2 7773   3.654   1.476  13.812 -0.7688  1.1087 -0.2087
  520TMC3    C3 7774   3.692   1.380  13.726  0.3936 -0.5785  0.0453
  520TMC3    C4 7775   3.837   1.409  13.962 -0.6187 -0.5640 -0.3862
  520TMC3    C5 7776   3.861   1.310  13.873  0.1459  0.1784  0.1163
  520TMC3    C6 7777   3.799   1.298  13.751 -0.8449  0.2874 -0.0548
  520TMC3     C 7778   3.663   1.556  14.037 -0.5032  0.4448  0.1627
  520TMC3     O 7779   3.561   1.613  13.998  0.1472  0.1179  0.2674
  520TMC3     H 7780   3.583   1.552  13.781 -1.9672  0.0637 -0.0318
  520TMC3    H1 7781   3.894   1.405  14.054  0.4129  0.2246 -0.9777
  520TMC3    H2 7782   3.834   1.222  13.682  1.7766 -0.3073  1.9113
  520TMC3    C7 7783   3.978   1.227  13.904 -0.8508  0.4172 -1.1122
  520TMC3    C8 7784   3.604   1.340  13.618  0.0733 -0.1311 -0.4070
  520TMC3    O1 7785   3.984   1.189  14.022  0.7330  0.1863  0.0937
  520TMC3    O2 7786   3.647   1.293  13.514 -0.7901 -0.2332 -0.3080
  521MPD2     C 7787   4.508   0.294  17.038  0.1200 -0.3983 -0.1820
  521MPD2    C1 7788   4.516   0.163  16.993  0.2658 -0.3828  0.3145
  521MPD2    C2 7789   4.638   0.116  16.949  0.2108  0.5144  0.3535
  521MPD2    C3 7790   0.014   0.197  16.961  0.0112 -0.5983 -0.3438
  521MPD2    C4 7791   0.008   0.317  17.022  0.2607  0.3337 -0.6649
  521MPD2    C5 7792   4.619   0.362  17.060 -0.5630 -0.9570 -0.5449
  521MPD2     H 7793   4.639   0.019  16.901  3.6106 -0.2388  1.9377
  521MPD2    H1 7794   0.088   0.390  17.029  0.0867  0.2596  2.1441
  521MPD2    H2 7795   4.419   0.334  17.084  1.7527  2.0052  0.9237
  521MPD2    H3 7796   4.616   0.461  17.104  0.5138 -0.6328 -1.2291
  521MPD2     N 7797   0.130   0.136  16.908  0.7156 -0.5367  0.0787
  521MPD2    H5 7798   0.116   0.043  16.870 -2.3389 -0.8792  2.0235
  521MPD2    N1 7799   4.393   0.091  16.982  0.5279 -0.6074 -0.4124
  521MPD2    H7 7800   4.306   0.143  16.981  0.1587 -1.2524 -2.2045
  522TMC3    C1 7801   0.366   0.081  16.883 -0.6925 -0.0177 -0.0245
  522TMC3    C2 7802   0.495   0.094  16.919  0.1305 -0.3417  0.2679
  522TMC3    C3 7803   0.587   0.003  16.868  0.7436 -0.7861  0.7771
  522TMC3    C4 7804   0.323   4.705  16.814  0.4366 -0.4407  0.8780
  522TMC3    C5 7805   0.411   4.607  16.787  0.1220 -0.5586 -0.6326
  522TMC3    C6 7806   0.546   4.626  16.804  0.3501 -0.6609  0.4652
  522TMC3     C 7807   0.263   0.183  16.925  0.2659 -0.3572  0.4895
  522TMC3     O 7808   0.305   0.280  16.988  0.1705 -0.2374  0.6175
  522TMC3     H 7809   0.538   0.184  16.961  0.9492  0.2375 -1.8590
  522TMC3    H1 7810   0.222   4.704  16.775 -0.3270 -1.7829  2.9144
  522TMC3    H2 7811   0.600   4.540  16.767 -0.0848 -0.8297  0.2146
  522TMC3    C7 7812   0.371   4.504  16.695  0.2414  0.2577  0.0409
  522TMC3    C8 7813   0.729   0.018  16.896 -0.1688 -0.4483  0.1441
  522TMC3    O1 7814   0.457   4.454  16.620  0.6266 -0.3099 -0.1501
  522TMC3    O2 7815   0.778   0.120  16.941  0.0494 -0.1342 -0.0480
  523MPD2     C 7816   2.969   4.186  10.410 -0.1224  0.1653  0.3648
  523MPD2    C1 7817   2.919   4.157  10.289  0.6019  0.0501  0.2673
  523MPD2    C2 7818   2.915   4.253  10.193  0.1279  0.4432 -0.5696
  523MPD2    C3 7819   2.954   4.384  10.218  0.4198  0.2419 -0.4826
  523MPD2    C4 7820   3.008   4.405  10.341 -0.2024  0.0429 -0.0227
  523MPD2    C5 7821   3.021   4.311  10.433 -0.4831  0.1302 -0.4624
  523MPD2     H 7822   2.875   4.220  10.097  2.5355  0.6987 -1.6470
  523MPD2    H1 7823   3.053   4.501  10.362  2.3171 -1.0555 -0.4344
  523MPD2    H2 7824   2.971   4.112  10.489 -0.6195  0.9730  1.1327
  523MPD2    H3 7825   3.052   4.342  10.532 -0.8812  0.8572 -0.5649
  523MPD2     N 7826   2.934   4.496  10.127 -0.4107 -0.0026  0.9042
  523MPD2    H5 7827   2.976   4.586  10.149  2.4654 -1.0995 -0.1216
  523MPD2    N1 7828   2.854   4.033  10.267  0.2901  0.1599 -0.3888
  523MPD2    H7 7829   2.864   3.963  10.338  2.4057  0.3267 -0.5389
  524TMC3    C1 7830   2.845   4.607   9.937 -0.0183  0.4152 -0.5369
  524TMC3    C2 7831   2.803   4.612   9.806  0.8026  0.7038 -0.6030
  524TMC3    C3 7832   2.784   4.733   9.749 -0.5966  0.0929 -0.1184
  524TMC3    C4 7833   2.849   4.723  10.006  0.0058 -0.1065  0.1532
  524TMC3    C5 7834   2.817   0.107   9.953 -0.1644 -0.6219  0.3121
  524TMC3    C6 7835   2.779   0.112   9.821 -0.5976  0.2222 -0.1836
  524TMC3     C 7836   2.879   4.481  10.000  0.9459 -0.2403 -0.1458
  524TMC3     O 7837   2.843   4.384   9.940 -0.5324 -0.2151 -0.1639
  524TMC3     H 7838   2.807   4.520   9.749 -1.1391 -0.5345  1.2857
  524TMC3    H1 7839   2.872   4.726  10.112  2.2131 -0.6583 -0.2973
  524TMC3    H2 7840   2.761   0.206   9.770 -1.8266  0.7457  1.1958
  524TMC3    C7 7841   2.835   0.228  10.029  0.1767  0.5922 -0.4583
  524TMC3    C8 7842   2.755   0.016   9.608 -0.2555  0.0894  0.2754
  524TMC3    O1 7843   2.882   0.221  10.146 -0.6541  0.1993  0.2009
  524TMC3    O2 7844   2.717   0.126   9.571 -0.3542  0.1951  0.1635
  525MPD2     C 7845   0.217   1.109  14.521  0.6353 -0.6514 -0.2023
  525MPD2    C1 7846   0.338   1.101  14.583 -0.4140  0.1447  0.5865
  525MPD2    C2 7847   0.447   1.172  14.543  0.1779  1.2594  0.4398
  525MPD2    C3 7848   0.431   1.266  14.440  0.5659 -0.1761 -0.1100
  525MPD2    C4 7849   0.305   1.272  14.381  0.2658 -0.5507  0.5903
  525MPD2    C5 7850   0.198   1.191  14.416 -0.0354 -0.3772 -0.1463
  525MPD2     H 7851   0.540   1.158  14.597  1.0819 -1.0968 -1.7113
  525MPD2    H1 7852   0.293   1.353  14.309  0.7614 -1.5007 -0.5480
  525MPD2    H2 7853   0.144   1.039  14.560  1.8574 -1.4388  0.6696
  525MPD2    H3 7854   0.099   1.214  14.380  0.7552 -0.0017 -2.0515
  525MPD2     N 7855   0.517   1.373  14.409 -0.2030  0.5660 -0.8374
  525MPD2    H5 7856   0.482   1.453  14.358 -1.4591  0.4916 -0.1069
  525MPD2    N1 7857   0.361   1.000  14.683  0.4411 -1.1060  0.1636
  525MPD2    H7 7858   0.452   1.000  14.729  1.0858  0.2108 -1.0991
  526TMC3    C1 7859   0.329   0.819  14.838 -0.4183 -0.0302 -0.0287
  526TMC3    C2 7860   0.241   0.782  14.941 -0.4235  0.0740  0.0722
  526TMC3    C3 7861   0.304   0.716  15.047  0.1252  0.3228 -0.5804
  526TMC3    C4 7862   0.466   0.796  14.834 -0.4082  0.1911  0.3649
  526TMC3    C5 7863   0.514   0.719  14.935 -0.3732  0.6625 -0.1911
  526TMC3    C6 7864   0.440   0.686  15.040 -0.2024 -0.4511  0.9139
  526TMC3     C 7865   0.271   0.901  14.729 -0.4791  0.0021 -0.0764
  526TMC3     O 7866   0.158   0.865  14.698  0.5566  0.1767  0.0234
  526TMC3     H 7867   0.137   0.811  14.936 -0.5613 -0.6240 -1.0415
  526TMC3    H1 7868   0.527   0.840  14.756  1.1633  0.8862  1.9875
  526TMC3    H2 7869   0.488   0.624  15.115  0.1596 -1.7883 -0.4416
  526TMC3    C7 7870   0.654   0.690  14.942 -0.3713  0.9232 -0.3973
  526TMC3    C8 7871   0.261   0.731  15.183  0.0359  0.2304 -0.3845
  526TMC3    O1 7872   0.700   0.661  15.054  0.1887  0.3330  0.6335
  526TMC3    O2 7873   0.341   0.695  15.270 -0.2129  0.0053  0.1610
  527MPD2     C 7874   2.290   4.669   0.204 -0.0591  0.0565 -0.3575
  527MPD2    C1 7875   2.288   4.542   0.256  0.0620  0.2131 -0.1623
  527MPD2    C2 7876   2.346   4.440   0.189  0.4953 -0.0290  0.2418
  527MPD2    C3 7877   2.422   4.461   0.077  0.9227 -0.9997 -0.4864
  527MPD2    C4 7878   2.427   4.587   0.019 -0.5095  0.1318 -0.8612
  527MPD2    C5 7879   2.349   4.688   0.079  0.1463 -0.5384  0.5943
  527MPD2     H 7880   2.346   4.342   0.236  1.3469  0.0283  0.3540
  527MPD2    H1 7881   2.468   4.610  17.664 -0.0474 -1.5285 -1.0610
  527MPD2    H2 7882   2.239   0.020   0.244 -0.1728  0.0652 -0.5191
  527MPD2    H3 7883   2.361   0.050   0.033 -0.1515 -0.9306 -0.3123
  527MPD2     N 7884   2.495   4.345   0.032  0.1649  0.2279  0.7015
  527MPD2    H5 7885   2.482   4.260   0.086 -1.2869 -1.1660 -1.8244
  527MPD2    N1 7886   2.237   4.512   0.382 -0.7755 -0.2855 -0.6104
  527MPD2    H7 7887   2.246   4.414   0.409 -0.3288 -0.0660  0.0352
  528TMC3    C1 7888   2.133   4.540   0.595 -0.1622 -1.4213 -0.1301
  528TMC3    C2 7889   2.156   4.609   0.706  0.2943 -0.5718  0.8284
  528TMC3    C3 7890   2.084   4.569   0.820  0.5903  0.4446 -0.2315
  528TMC3    C4 7891   2.041   4.441   0.579  0.4871 -0.1784 -0.1929
  528TMC3    C5 7892   1.962   4.415   0.691 -0.3121 -0.4133  1.1783
  528TMC3    C6 7893   1.986   4.474   0.810 -0.9658  0.3418 -0.5288
  528TMC3     C 7894   2.193   4.600   0.475  0.0973  0.0848 -0.6030
  528TMC3     O 7895   2.207   4.723   0.477 -0.3701  0.0799  0.8213
  528TMC3     H 7896   2.234   4.684   0.702 -0.5959  0.3998  1.4432
  528TMC3    H1 7897   2.034   4.386   0.486  2.9766  0.5760 -0.8170
  528TMC3    H2 7898   1.914   4.461   0.889  0.3998 -1.1462  0.4771
  528TMC3    C7 7899   1.851   4.319   0.694  0.2870  0.1263  0.0498
  528TMC3    C8 7900   2.092   4.656   0.938  0.0428 -0.0755  0.4230
  528TMC3    O1 7901   1.787   4.308   0.796 -1.0284  0.2621  0.0219
  528TMC3    O2 7902   2.194   4.721   0.945 -0.5183  0.2288  0.2153
  529MPD2     C 7903   0.424   2.506   0.852 -0.3429 -0.0800 -0.7477
  529MPD2    C1 7904   0.537   2.575   0.806 -0.0279 -0.0915  0.3929
  529MPD2    C2 7905   0.529   2.686   0.724 -0.3289  0.1832  0.0119
  529MPD2    C3 7906   0.406   2.743   0.695 -0.6668  0.3994 -0.6862
  529MPD2    C4 7907   0.295   2.683   0.755  0.2207 -0.2355  0.3916
  529MPD2    C5 7908   0.304   2.571   0.837 -0.4611  0.1747 -0.4736
  529MPD2     H 7909   0.620   2.726   0.681 -0.4654  0.4219 -0.0537
  529MPD2    H1 7910   0.195   2.725   0.750  0.9869  1.5593  0.2952
  529MPD2    H2 7911   0.424   2.419   0.916  0.4158  1.0096  0.7316
  529MPD2    H3 7912   0.214   2.539   0.889  1.1709 -0.1071  2.1652
  529MPD2     N 7913   0.384   2.851   0.610  0.1357 -0.0009  0.4092
  529MPD2    H5 7914   0.288   2.874   0.589 -0.3319 -0.7832  1.6521
  529MPD2    N1 7915   0.668   2.523   0.824 -0.8226 -0.0333 -0.5479
  529MPD2    H7 7916   0.750   2.580   0.804  0.2553 -0.3597  3.0067
  530TMC3    C1 7917   0.834   2.388   0.925 -0.2405 -0.1121 -0.3547
  530TMC3    C2 7918   0.887   2.261   0.940 -0.9542  0.1540 -0.4560
  530TMC3    C3 7919   1.018   2.253   0.964  0.2425 -0.2803  0.2942
  530TMC3    C4 7920   0.907   2.502   0.956  0.1102  0.7601  0.6453
  530TMC3    C5 7921   1.040   2.487   0.988  0.1046 -0.7791 -0.2912
  530TMC3    C6 7922   1.101   2.360   0.985 -0.4588 -0.2046 -0.0567
  530TMC3     C 7923   0.698   2.404   0.890  0.0954 -0.9358 -0.5459
  530TMC3     O 7924   0.633   2.300   0.905 -0.4315  0.2328 -0.0527
  530TMC3     H 7925   0.825   2.174   0.922  1.4386 -1.5185 -0.6668
  530TMC3    H1 7926   0.859   2.599   0.968 -1.5314 -0.0521  0.6564
  530TMC3    H2 7927   1.205   2.352   1.013 -0.6905  1.0813  1.1654
  530TMC3    C7 7928   1.103   2.596   1.061  0.6510  0.1077 -0.3795
  530TMC3    C8 7929   1.083   2.119   0.942 -0.0116  0.5271  0.3389
  530TMC3    O1 7930   1.192   2.581   1.141  0.1632  0.3442  0.3475
  530TMC3    O2 7931   1.026   2.019   0.975  0.3800  0.5468  0.5370
  531MPD2     C 7932   3.632   0.209  13.158 -0.4463  0.3967 -0.1890
  531MPD2    C1 7933   3.750   0.258  13.200 -0.3582 -0.5641 -0.4580
  531MPD2    C2 7934   3.839   0.300  13.100  0.2578  0.3703  0.6983
  531MPD2    C3 7935   3.801   0.300  12.973  0.0562 -0.8972  0.5927
  531MPD2    C4 7936   3.673   0.269  12.931 -0.1727 -0.4200  0.3208
  531MPD2    C5 7937   3.587   0.209  13.027 -0.3305 -0.2064 -0.6028
  531MPD2     H 7938   3.941   0.332  13.118  1.0123 -0.9886 -1.1071
  531MPD2    H1 7939   3.638   0.294  12.832 -0.9715 -1.3363  0.3651
  531MPD2    H2 7940   3.563   0.170  13.233  1.4668 -1.2250  0.7185
  531MPD2    H3 7941   3.491   0.178  12.987 -1.0557  2.7470 -1.1542
  531MPD2     N 7942   3.878   0.363  12.881 -0.4414  0.0426 -0.0453
  531MPD2    H5 7943   3.958   0.411  12.921 -0.0808  1.0825 -2.0219
  531MPD2    N1 7944   3.786   0.269  13.331  0.3247  0.5646  0.0106
  531MPD2    H7 7945   3.719   0.234  13.399 -0.3417  0.0409 -0.9103
  532TMC3    C1 7946   3.903   0.353  13.521 -1.0743 -0.4923 -0.3311
  532TMC3    C2 7947   3.988   0.463  13.538 -0.0154 -0.5856 -0.0111
  532TMC3    C3 7948   4.109   0.439  13.599  0.5408 -0.3684 -0.2906
  532TMC3    C4 7949   3.926   0.232  13.579  0.8470  1.0492  0.0398
  532TMC3    C5 7950   4.044   0.217  13.648 -0.7012 -0.3382 -0.6487
  532TMC3    C6 7951   4.137   0.317  13.658 -0.3155 -0.1849  0.3486
  532TMC3     C 7952   3.888   0.347  13.378  0.0926  0.7542 -0.6362
  532TMC3     O 7953   3.971   0.421  13.329 -0.1585 -0.4194  0.5938
  532TMC3     H 7954   3.966   0.560  13.495  0.8130 -0.0327  0.8009
  532TMC3    H1 7955   3.860   0.147  13.566  0.2097  1.8488 -1.9933
  532TMC3    H2 7956   4.227   0.308  13.717 -1.1748  1.0416  1.8541
  532TMC3    C7 7957   4.074   0.092  13.706 -0.3369  0.0581  0.0964
  532TMC3    C8 7958   4.213   0.520  13.556 -0.0395 -0.5116  0.4802
  532TMC3    O1 7959   3.989   0.036  13.775  0.3666 -0.4298 -0.1787
  532TMC3    O2 7960   4.315   0.533  13.622 -0.2185  0.1842 -0.7388
  533TMC3    C1 7961   0.664   1.511  14.522 -0.1155 -0.1699 -0.0868
  533TMC3    C2 7962   0.791   1.555  14.540 -0.0586 -0.5566  0.5890
  533TMC3    C3 7963   0.798   1.675  14.617 -0.0106 -0.5129  0.0495
  533TMC3    C4 7964   0.557   1.562  14.592  0.0147  0.5762  0.9924
  533TMC3    C5 7965   0.577   1.659  14.681 -0.1710 -0.3081  0.1210
  533TMC3    C6 7966   0.697   1.717  14.698 -0.1788 -0.2029  0.2599
  533TMC3     C 7967   0.640   1.382  14.462 -0.1879  0.1717  0.7147
  533TMC3     O 7968   0.708   1.291  14.512 -0.3619  0.1074 -0.1150
  533TMC3     H 7969   0.879   1.522  14.487  0.5914  0.5632  0.9457
  533TMC3    H1 7970   0.472   1.496  14.604 -0.6110  1.1195 -0.4273
  533TMC3    H2 7971   0.720   1.798  14.767 -0.0926  2.4691 -2.8798
  533TMC3    C7 7972   0.478   1.665  14.789  0.1027  0.2131 -0.0615
  533TMC3    C8 7973   0.920   1.747  14.612 -0.1303  0.1205  0.2658
  533TMC3    O1 7974   0.393   1.583  14.789  0.1189 -0.1159 -0.7718
  533TMC3    O2 7975   1.022   1.683  14.607 -0.2570 -0.3370  0.1451
  534MPD2     C 7976   2.290   2.881   1.665  0.7385  0.4510  0.6662
  534MPD2    C1 7977   2.334   2.896   1.540  0.7560 -0.4700  0.2886
  534MPD2    C2 7978   2.396   2.787   1.483  0.2471 -0.5082 -0.1431
  534MPD2    C3 7979   2.399   2.663   1.539 -0.4705 -0.6634  0.1182
  534MPD2    C4 7980   2.342   2.649   1.667  0.1601 -0.4075  0.4830
  534MPD2    C5 7981   2.290   2.758   1.730 -0.1074  0.4620  0.1088
  534MPD2     H 7982   2.435   2.806   1.384 -0.5949 -0.3238 -0.4447
  534MPD2    H1 7983   2.331   2.553   1.716 -0.6131 -0.5281  0.0659
  534MPD2    H2 7984   2.238   2.961   1.717  1.8427  1.0990  0.7648
  534MPD2    H3 7985   2.238   2.743   1.824 -0.4270 -3.4245 -0.6706
  534MPD2     N 7986   2.465   2.561   1.467 -1.3202 -0.4923 -0.2301
  534MPD2    H5 7987   2.507   2.586   1.378 -0.5296  0.6103  0.4469
  534MPD2    N1 7988   2.326   3.017   1.465 -0.1861 -0.4641  0.0234
  534MPD2    H7 7989   2.383   3.025   1.381  0.9628 -0.2812  0.8308
  535TMC3    C1 7990   2.526   2.339   1.393  0.5998 -0.0804  0.1001
  535TMC3    C2 7991   2.501   2.204   1.399 -1.0570 -0.0731  0.2176
  535TMC3    C3 7992   2.574   2.126   1.318  0.0067 -0.5064 -0.1691
  535TMC3    C4 7993   2.628   2.398   1.313  0.9036  0.1189  0.1852
  535TMC3    C5 7994   2.685   2.311   1.228  0.6079 -0.3331  0.2533
  535TMC3    C6 7995   2.659   2.177   1.224 -0.2437 -0.1408 -0.1243
  535TMC3     C 7996   2.471   2.425   1.499  0.4001  1.4519 -0.2853
  535TMC3     O 7997   2.420   2.367   1.591 -0.2045  0.0181  0.3239
  535TMC3     H 7998   2.422   2.176   1.468 -2.8286  0.0496 -1.7611
  535TMC3    H1 7999   2.672   2.493   1.338  1.0400  0.0973  0.0296
  535TMC3    H2 8000   2.695   2.119   1.140  0.6712  0.7373 -0.3402
  535TMC3    C7 8001   2.794   2.351   1.139 -0.0915  0.1466 -0.2538
  535TMC3    C8 8002   2.504   2.004   1.289  1.0193 -0.3964 -0.5749
  535TMC3    O1 8003   2.867   2.262   1.096  0.1484 -0.6874  0.7423
  535TMC3    O2 8004   2.388   1.992   1.322 -0.1596 -0.1315  0.0207
  536MPD2     C 8005   1.790   0.619  16.237 -0.9772  0.2166 -0.2362
  536MPD2    C1 8006   1.693   0.694  16.286 -0.2258 -0.4657 -0.0582
  536MPD2    C2 8007   1.594   0.743  16.206 -0.0213  0.2502 -0.3826
  536MPD2    C3 8008   1.596   0.716  16.074 -0.1873 -0.5593 -0.3564
  536MPD2    C4 8009   1.686   0.621  16.028 -0.4299  0.0497 -0.2112
  536MPD2    C5 8010   1.783   0.575  16.109 -0.0559  0.1133  0.0853
  536MPD2     H 8011   1.523   0.811  16.250 -2.6303 -1.7920 -1.4404
  536MPD2    H1 8012   1.687   0.590  15.924 -0.1512  0.8253 -0.4477
  536MPD2    H2 8013   1.867   0.587  16.305 -0.5608  0.6611 -0.4929
  536MPD2    H3 8014   1.860   0.514  16.065  0.0552 -1.5678  2.5829
  536MPD2     N 8015   1.509   0.782  15.977  0.0084 -0.5445  0.0175
  536MPD2    H5 8016   1.522   0.749  15.882 -0.7148 -0.4947 -0.0982
  536MPD2    N1 8017   1.695   0.720  16.422 -0.1544  0.1857  0.1539
  536MPD2    H7 8018   1.774   0.698  16.481  0.7287 -1.3987 -1.5840
  537TMC3    C1 8019   1.601   0.710  16.640 -0.7984 -0.0591  0.4826
  537TMC3    C2 8020   1.719   0.759  16.691 -0.2634 -0.5800  0.4755
  537TMC3    C3 8021   1.736   0.730  16.825  0.0692  0.3035 -0.2107
  537TMC3    C4 8022   1.504   0.648  16.712 -0.6233 -0.0576  0.8083
  537TMC3    C5 8023   1.532   0.623  16.842  0.1914 -0.2920 -0.1987
  537TMC3    C6 8024   1.649   0.658  16.908 -0.0138 -0.3821  0.0047
  537TMC3     C 8025   1.582   0.725  16.497 -0.3973  0.5105  0.5684
  537TMC3     O 8026   1.464   0.708  16.465  0.0523  0.5516 -0.2847
  537TMC3     H 8027   1.787   0.819  16.631  0.0008  0.7016  2.0782
  537TMC3    H1 8028   1.407   0.627  16.666 -0.9446  2.6262  0.2465
  537TMC3    H2 8029   1.661   0.635  17.013 -1.7472 -0.9854  0.0701
  537TMC3    C7 8030   1.457   0.521  16.897  0.0425 -0.3162 -0.1972
  537TMC3    C8 8031   1.868   0.754  16.880 -0.2138 -0.5470 -0.1841
  537TMC3    O1 8032   1.349   0.504  16.842  0.1712  0.3443  0.3019
  537TMC3    O2 8033   1.881   0.738  17.000  0.2802 -0.7395  0.3177
  538TMC3    C1 8034   3.166   4.068  11.349 -0.0370 -0.3827  0.1765
  538TMC3    C2 8035   3.282   4.086  11.281  0.1846 -0.2068 -0.1770
  538TMC3    C3 8036   3.308   4.211  11.225 -0.2456  0.2252 -0.2773
  538TMC3    C4 8037   3.068   4.154  11.330 -0.5980 -0.1481  1.3199
  538TMC3    C5 8038   3.087   4.269  11.268 -0.3816  0.5264  0.5653
  538TMC3    C6 8039   3.205   4.299  11.213 -0.2923  0.6232  0.1029
  538TMC3     C 8040   3.129   3.945  11.411  0.2856 -0.5020  0.2758
  538TMC3     O 8041   3.016   3.936  11.454 -0.4143  0.4285  0.0899
  538TMC3     H 8042   3.348   4.001  11.266 -0.7285 -1.0588  0.5997
  538TMC3    H1 8043   2.970   4.124  11.368 -0.2259 -1.2788  1.3988
  538TMC3    H2 8044   3.224   4.399  11.175  0.5585 -0.3980 -2.1379
  538TMC3    C7 8045   2.968   4.319  11.206  0.5091 -0.5554 -0.2322
  538TMC3    C8 8046   3.414   4.223  11.126  0.1503  0.0726 -0.7641
  538TMC3    O1 8047   2.862   4.316  11.266  0.0653 -0.4302 -0.2015
  538TMC3    O2 8048   3.409   4.327  11.063 -0.6283 -0.0432  0.2461
  539MPD2     C 8049   2.671   3.023  11.921 -0.1372  0.4627  0.3131
  539MPD2    C1 8050   2.734   3.091  11.813 -0.0097  0.1069  0.2752
  539MPD2    C2 8051   2.727   3.230  11.804  0.0734 -0.0405  0.1065
  539MPD2    C3 8052   2.665   3.308  11.906 -0.1342  0.4596 -0.3596
  539MPD2    C4 8053   2.605   3.233  12.004 -0.0987  0.1843 -0.2055
  539MPD2    C5 8054   2.599   3.091  12.008 -0.4894  0.0424 -1.0267
  539MPD2     H 8055   2.769   3.280  11.717  0.5180 -0.3834  0.1208
  539MPD2    H1 8056   2.559   3.281  12.089  1.8782  2.8065 -0.6164
  539MPD2    H2 8057   2.674   2.917  11.938 -2.8705  0.0809 -1.5833
  539MPD2    H3 8058   2.549   3.047  12.094  0.2156  1.8829  0.3249
  539MPD2     N 8059   2.658   3.452  11.909  0.0737  0.0967 -0.0840
  539MPD2    H5 8060   2.610   3.490  11.990  1.6445  1.8502  0.0251
  539MPD2    N1 8061   2.799   3.012  11.719  0.2891 -0.1902  0.2791
  539MPD2    H7 8062   2.825   3.068  11.639  0.9296 -2.0084 -0.7960
  540TMC3    C1 8063   2.688   3.680  11.815 -0.6400  0.6753  0.0183
  540TMC3    C2 8064   2.711   3.746  11.700 -0.5407  0.2017 -0.1842
  540TMC3    C3 8065   2.632   3.856  11.688  0.4465  0.2745 -0.5695
  540TMC3    C4 8066   2.599   3.724  11.912 -0.5127 -0.1255  0.7687
  540TMC3    C5 8067   2.534   3.838  11.899 -0.1131  0.0312  0.0379
  540TMC3    C6 8068   2.546   3.907  11.782  0.1393  0.3378 -0.1802
  540TMC3     C 8069   2.723   3.536  11.814  0.6319  0.1152  0.1722
  540TMC3     O 8070   2.789   3.502  11.716 -0.9198 -0.5879  0.0580
  540TMC3     H 8071   2.769   3.700  11.621 -0.7257 -1.9705  0.9202
  540TMC3    H1 8072   2.574   3.668  12.002  0.4642 -0.2745  0.9457
  540TMC3    H2 8073   2.508   4.008  11.775  1.0271  0.7392  0.7978
  540TMC3    C7 8074   2.413   3.844  11.974  0.1088  0.9401 -0.2281
  540TMC3    C8 8075   2.640   3.928  11.559 -0.3323  0.5471  0.5027
  540TMC3    O1 8076   2.364   3.744  12.023 -0.0912  0.6754 -0.3979
  540TMC3    O2 8077   2.623   4.048  11.564 -0.7845 -0.0698  0.1800
  541MPD2     C 8078   0.793   0.041  13.336  0.1245 -0.7878  0.3024
  541MPD2    C1 8079   0.753   4.694  13.239 -0.3131  0.4457 -0.2926
  541MPD2    C2 8080   0.793   4.723  13.109 -0.1629  0.3743  0.0829
  541MPD2    C3 8081   0.881   0.094  13.089 -0.2755  0.7688  0.6210
  541MPD2    C4 8082   0.926   0.169  13.196 -0.2696 -0.5689  0.3556
  541MPD2    C5 8083   0.872   0.151  13.314  0.2099  0.3147  0.2279
  541MPD2     H 8084   0.767   4.659  13.026  2.7667 -2.9957  1.7661
  541MPD2    H1 8085   1.011   0.236  13.188 -2.2826  2.0066  0.6643
  541MPD2    H2 8086   0.756   0.022  13.436  0.1250  1.6474  0.7633
  541MPD2    H3 8087   0.897   0.216  13.398 -0.5247  1.3909 -0.3911
  541MPD2     N 8088   0.950   0.122  12.964 -0.0795 -0.5258  1.1428
  541MPD2    H5 8089   1.035   0.178  12.970 -0.7548  0.7073 -0.5746
  541MPD2    N1 8090   0.677   4.579  13.275 -0.3019  0.6997  0.6905
  541MPD2    H7 8091   0.678   4.565  13.375  0.8795  0.1030  0.5962
  542TMC3    C1 8092   0.995   0.129  12.739 -0.3363 -0.7899 -0.5450
  542TMC3    C2 8093   1.012   0.044  12.635  0.1335 -0.2736 -0.2310
  542TMC3    C3 8094   1.111   0.068  12.547  0.3998  0.1763  0.2817
  542TMC3    C4 8095   1.066   0.244  12.759  0.5114 -0.6468 -0.1467
  542TMC3    C5 8096   1.170   0.268  12.671  0.1331 -0.2520 -0.3608
  542TMC3    C6 8097   1.190   0.173  12.565  0.5234 -0.0114 -0.4782
  542TMC3     C 8098   0.911   0.073  12.842 -0.2571  0.2221  0.2192
  542TMC3     O 8099   0.807   0.027  12.806  0.1081  0.8156 -0.0248
  542TMC3     H 8100   0.952   4.690  12.629  1.2880 -1.1181  0.8946
  542TMC3    H1 8101   1.041   0.313  12.839 -0.2463  0.6242 -1.4779
  542TMC3    H2 8102   1.274   0.196  12.499  1.0515 -1.0520 -0.1698
  542TMC3    C7 8103   1.225   0.397  12.657  0.0835 -0.1851  0.0853
  542TMC3    C8 8104   1.148   4.709  12.444  0.0288 -0.6648  0.5294
  542TMC3    O1 8105   1.259   0.422  12.543 -0.1459  0.1652  0.0433
  542TMC3    O2 8106   1.061   4.656  12.374  0.5909 -0.6527 -0.2020
  543TMC3    C1 8107   0.507   1.616  17.307 -0.3062  0.5212  0.4530
  543TMC3    C2 8108   0.546   1.499  17.362  0.4160  1.4140 -0.2344
  543TMC3    C3 8109   0.533   1.478  17.497  0.0291  0.0209  0.0097
  543TMC3    C4 8110   0.469   1.723  17.382 -0.3806  0.1164  0.5161
  543TMC3    C5 8111   0.462   1.705  17.514  0.4485 -0.7380  0.2739
  543TMC3    C6 8112   0.474   1.576  17.567  0.1685  0.4621  0.4837
  543TMC3     C 8113   0.555   1.638  17.173  0.2852  0.2593  0.1983
  543TMC3     O 8114   0.641   1.564  17.134  0.0739 -1.0429 -0.0841
  543TMC3     H 8115   0.573   1.418  17.296 -0.3898  0.5894  0.4471
  543TMC3    H1 8116   0.457   1.822  17.339 -0.0686 -1.0870 -2.3505
  543TMC3    H2 8117   0.451   1.560  17.671  0.6246 -1.5685  0.2820
  543TMC3    C7 8118   0.490   1.817  17.601 -0.1457  0.6673 -0.5218
  543TMC3    C8 8119   0.534   1.342  17.543  0.5170  0.6168 -0.5333
  543TMC3    O1 8120   0.427   1.918  17.576 -0.0221 -0.0074 -0.2584
  543TMC3    O2 8121   0.539   1.248  17.464  0.0583 -0.2123  0.2358
  544MPD2     C 8122   0.650   1.036   0.177 -0.2792 -0.3112 -0.4434
  544MPD2    C1 8123   0.604   1.005   0.048 -0.1342  0.5008 -0.1025
  544MPD2    C2 8124   0.570   1.104  17.705  0.4653 -0.1011 -0.4068
  544MPD2    C3 8125   0.592   1.231   0.007  0.6284  0.1899  0.0533
  544MPD2    C4 8126   0.625   1.257   0.137 -0.3710  0.7240  0.2362
  544MPD2    C5 8127   0.667   1.163   0.216  0.8579 -0.7600 -0.3823
  544MPD2     H 8128   0.549   1.081  17.601  1.1203  0.0968 -0.5781
  544MPD2    H1 8129   0.653   1.358   0.165  1.0264  0.3313  0.2201
  544MPD2    H2 8130   0.688   0.954   0.237 -1.3947  0.4657  1.3168
  544MPD2    H3 8131   0.700   1.184   0.317 -1.3104 -1.1068  0.4004
  544MPD2     N 8132   0.556   1.343  17.678  0.0673 -0.0187  0.3833
  544MPD2    H5 8133   0.581   1.433  17.716  0.1963  0.3097 -0.4881
  544MPD2    N1 8134   0.593   0.872   0.015 -0.3477  0.6833 -0.2351
  544MPD2    H7 8135   0.604   0.810   0.096  0.8211  1.4121  0.1692
  545TMC3    C1 8136   0.549   0.676  17.639  0.1254 -0.1333  0.2715
  545TMC3    C2 8137   0.649   0.610  17.706  1.0925  0.3801  0.8079
  545TMC3    C3 8138   0.660   0.473  17.693  0.2822  0.7165 -0.6350
  545TMC3    C4 8139   0.457   0.606  17.565  0.2214  0.3718  0.2075
  545TMC3    C5 8140   0.473   0.473  17.547 -0.2623 -0.7214  0.5594
  545TMC3    C6 8141   0.580   0.409  17.603  0.0405 -0.4959  0.3376
  545TMC3     C 8142   0.542   0.820  17.639 -0.3424  0.0298 -0.0627
  545TMC3     O 8143   0.475   0.874  17.553  0.2524  0.7095  0.5690
  545TMC3     H 8144   0.722   0.667   0.021  0.6742  0.5271  1.1965
  545TMC3    H1 8145   0.376   0.659  17.516 -1.9887 -2.2353  1.0378
  545TMC3    H2 8146   0.586   0.301  17.603 -0.8008 -0.5479  0.5997
  545TMC3    C7 8147   0.382   0.407  17.453 -0.0770 -0.3055 -0.1042
  545TMC3    C8 8148   0.752   0.407   0.038 -0.0673  0.4835  0.2385
  545TMC3    O1 8149   0.303   0.476  17.390  0.5476  0.1869  0.0775
  545TMC3    O2 8150   0.849   0.473   0.077 -0.4383  0.1140 -0.8963
  546MPD2     C 8151   2.026   1.162  17.483 -0.0991  0.6347  0.2780
  546MPD2    C1 8152   2.056   1.203  17.353 -0.3265  0.2080  0.2822
  546MPD2    C2 8153   2.156   1.300  17.327  0.8483 -0.3371 -0.3795
  546MPD2    C3 8154   2.212   1.356  17.442 -0.0377 -0.6735 -0.1921
  546MPD2    C4 8155   2.174   1.312  17.567  0.6020 -0.3831 -0.6900
  546MPD2    C5 8156   2.088   1.217  17.591 -0.1722  0.3720 -0.0082
  546MPD2     H 8157   2.168   1.343  17.228 -1.0204 -0.1440 -0.5201
  546MPD2    H1 8158   2.213   1.358  17.658  2.0872 -2.5846 -0.2093
  546MPD2    H2 8159   1.943   1.095  17.501  1.3275 -2.0023 -2.7363
  546MPD2    H3 8160   2.059   1.196  17.694  0.7533  0.8196  0.3393
  546MPD2     N 8161   2.303   1.464  17.441  0.7068  0.2063  0.0099
  546MPD2    H5 8162   2.326   1.510  17.529  2.3307  0.5442 -0.5869
  546MPD2    N1 8163   1.977   1.150  17.248  0.2745  0.1756 -0.7441
  546MPD2    H7 8164   1.893   1.104  17.283  1.5810 -1.7714 -0.2279
  547TMC3    C1 8165   1.871   1.144  17.032  0.6928 -0.6806  0.2178
  547TMC3    C2 8166   1.849   1.210  16.919 -0.3184 -0.7553 -0.1580
  547TMC3    C3 8167   1.739   1.172  16.849  0.1815 -0.7278  0.4224
  547TMC3    C4 8168   1.793   1.046  17.077 -0.1517 -0.5279 -0.7395
  547TMC3    C5 8169   1.682   1.007  17.010  0.4250  0.3073  0.9306
  547TMC3    C6 8170   1.654   1.069  16.894  0.4379  0.4851  0.1594
  547TMC3     C 8171   1.987   1.181  17.113 -0.5723  0.3553  0.2923
  547TMC3     O 8172   2.079   1.240  17.050 -0.1917 -0.1462 -0.7784
  547TMC3     H 8173   1.913   1.290  16.883  0.4429 -2.1050 -1.8130
  547TMC3    H1 8174   1.832   0.979  17.154  0.1046 -1.0126 -1.2908
  547TMC3    H2 8175   1.569   1.032  16.838  0.5731  0.5558 -0.0929
  547TMC3    C7 8176   1.574   0.931  17.074 -0.2501 -0.0195 -0.0760
  547TMC3    C8 8177   1.664   1.269  16.765  0.4951  0.0624  0.3248
  547TMC3    O1 8178   1.465   0.929  17.020  0.1471 -0.2112  0.3622
  547TMC3    O2 8179   1.559   1.231  16.719  0.2064 -0.9654 -0.1924
  548MPD2     C 8180   1.541   2.020  12.813 -0.1766 -0.2957  0.3125
  548MPD2    C1 8181   1.548   1.882  12.841  0.7876  0.1066  0.3714
  548MPD2    C2 8182   1.655   1.811  12.777 -0.6110 -0.0096 -0.9138
  548MPD2    C3 8183   1.746   1.877  12.688 -0.4399  0.0071  0.3489
  548MPD2    C4 8184   1.732   2.012  12.658  0.7983 -1.1214  0.0798
  548MPD2    C5 8185   1.636   2.081  12.729 -0.3496 -0.2949 -0.2330
  548MPD2     H 8186   1.677   1.707  12.794 -1.8896 -0.4434 -1.9540
  548MPD2    H1 8187   1.782   2.067  12.580  0.4878  0.4439  0.9893
  548MPD2    H2 8188   1.460   2.077  12.856 -1.4839 -1.5111 -0.5280
  548MPD2    H3 8189   1.628   2.187  12.710 -0.1239 -0.2780 -0.2334
  548MPD2     N 8190   1.836   1.790  12.624  0.1785  0.2698 -0.4660
  548MPD2    H5 8191   1.832   1.691  12.645 -0.9369  0.6591  1.1173
  548MPD2    N1 8192   1.439   1.821  12.906  0.1816  0.7368  0.2088
  548MPD2    H7 8193   1.363   1.886  12.923 -2.3492 -2.2784  0.3984
  549TMC3    C1 8194   1.305   1.659  13.004  0.3629 -0.1891  0.1301
  549TMC3    C2 8195   1.204   1.729  12.935 -0.2507  0.2597 -0.0882
  549TMC3    C3 8196   1.099   1.649  12.891 -0.0612  0.2547 -0.5871
  549TMC3    C4 8197   1.291   1.531  13.052 -0.1605  0.1442 -0.4885
  549TMC3    C5 8198   1.176   1.460  13.014  0.2181  0.5601 -0.3491
  549TMC3    C6 8199   1.085   1.519  12.931 -0.4595 -0.4941 -0.9986
  549TMC3     C 8200   1.443   1.702  12.976  0.0016 -0.0799  0.3261
  549TMC3     O 8201   1.545   1.629  12.999  0.0981  0.5047 -0.0608
  549TMC3     H 8202   1.212   1.831  12.901 -0.5666  0.4537  0.4158
  549TMC3    H1 8203   1.379   1.495  13.105 -1.8294 -1.4858  1.1915
  549TMC3    H2 8204   1.001   1.456  12.904 -0.8286 -0.5580  0.3062
  549TMC3    C7 8205   1.122   1.360  13.105  0.3532 -0.2034 -0.3851
  549TMC3    C8 8206   1.038   1.690  12.770  0.2379  0.1279 -0.2624
  549TMC3    O1 8207   1.000   1.368  13.108  0.3094 -0.4189  0.4864
  549TMC3    O2 8208   0.921   1.658  12.759 -0.0914  0.3190  0.6525
  550TMC3    C1 8209   0.598   4.383  12.325 -0.5361 -1.0126  1.2210
  550TMC3    C2 8210   0.606   4.502  12.384 -0.3282  0.2765 -0.0952
  550TMC3    C3 8211   0.498   4.584  12.387  0.3135 -0.0549 -0.2638
  550TMC3    C4 8212   0.488   4.325  12.275  0.4281  0.5302 -0.1390
  550TMC3    C5 8213   0.374   4.406  12.286 -0.6345 -0.0021  0.0232
  550TMC3    C6 8214   0.379   4.531  12.348 -0.1375  0.3425 -0.1552
  550TMC3     C 8215   0.723   4.317  12.288  0.2374 -0.3640  0.6851
  550TMC3     O 8216   0.821   4.332  12.360 -0.5150  0.2536 -0.2769
  550TMC3     H 8217   0.700   4.542  12.419  0.4482 -2.2559  0.6890
  550TMC3    H1 8218   0.489   4.221  12.243 -2.7043  0.3148  0.4564
  550TMC3    H2 8219   0.292   4.595  12.359 -0.8538 -0.8267  0.9678
  550TMC3    C7 8220   0.239   4.355  12.265 -0.0609  0.1097  0.9696
  550TMC3    C8 8221   0.505   4.729  12.403 -0.3399  0.3715  0.3206
  550TMC3    O1 8222   0.147   4.398  12.337 -0.5047  0.7200 -0.1284
  550TMC3    O2 8223   0.396   0.049  12.413  0.3517 -0.0718  0.0879
  551TMC3    C1 8224   3.018   2.694  13.320 -0.0575 -0.2030 -0.1865
  551TMC3    C2 8225   3.144   2.688  13.266  0.4019 -1.0252 -0.4784
  551TMC3    C3 8226   3.257   2.712  13.342 -0.1085 -0.8460  0.4385
  551TMC3    C4 8227   2.997   2.722  13.450 -0.1991  0.5282 -0.4829
  551TMC3    C5 8228   3.108   2.751  13.528 -0.0979  0.6478  0.2067
  551TMC3    C6 8229   3.235   2.749  13.472  0.7141  0.0241  0.1466
  551TMC3     C 8230   2.908   2.645  13.239  0.6413  0.3178  0.3553
  551TMC3     O 8231   2.831   2.571  13.293  0.1706  0.5597  1.0552
  551TMC3     H 8232   3.159   2.660  13.163  3.0871  0.7372 -0.5586
  551TMC3    H1 8233   2.896   2.732  13.488 -0.5528  0.0258 -1.2931
  551TMC3    H2 8234   3.325   2.757  13.532 -0.2147 -1.7230  1.7647
  551TMC3    C7 8235   3.084   2.832  13.646 -0.0210  0.3072 -0.0305
  551TMC3    C8 8236   3.388   2.692  13.281  0.4199 -0.5632  0.5064
  551TMC3    O1 8237   2.986   2.812  13.719 -0.1039  0.1504 -0.3296
  551TMC3    O2 8238   3.476   2.656  13.357 -0.3926  0.4704  0.3806
  552MPD2     C 8239   4.354   3.745  14.169 -0.3187 -0.0220  0.2317
  552MPD2    C1 8240   4.469   3.781  14.111  0.5309  0.2004  0.5609
  552MPD2    C2 8241   4.549   3.871  14.173 -0.3445 -0.1143  0.6916
  552MPD2    C3 8242   4.513   3.933  14.286 -0.1363 -0.1869 -0.6145
  552MPD2    C4 8243   4.392   3.887  14.348 -0.4054 -0.0445 -0.7552
  552MPD2    C5 8244   4.317   3.791  14.288  0.1200  0.6280 -0.4420
  552MPD2     H 8245   4.642   3.899  14.125  0.2164  1.2011  2.5674
  552MPD2    H1 8246   4.356   3.930  14.440  0.8935 -0.5419 -0.0127
  552MPD2    H2 8247   4.282   3.679  14.120  0.0131  0.2160 -0.5832
  552MPD2    H3 8248   4.226   3.755  14.334  0.8300 -0.7428 -0.0933
  552MPD2     N 8249   4.587   4.031  14.354  0.1696 -0.5229  0.0825
  552MPD2    H5 8250   4.551   4.078  14.436  1.5884  1.9006 -0.6723
  552MPD2    N1 8251   4.507   3.723  13.992  0.3714 -1.0107 -1.1258
  552MPD2    H7 8252   4.587   3.755  13.938  0.6086 -0.9095 -0.7138
  553TMC3    C1 8253   4.505   3.599  13.800 -0.6163  0.2674  0.0772
  553TMC3    C2 8254   4.451   3.641  13.679  0.8972  1.5847 -0.6571
  553TMC3    C3 8255   4.523   3.615  13.564 -0.1334  0.1729 -0.0477
  553TMC3    C4 8256   4.627   3.537  13.808 -0.0047  0.7041  0.6339
  553TMC3    C5 8257   4.704   3.531  13.693 -0.2198  0.3977 -0.5158
  553TMC3    C6 8258   4.648   3.559  13.573 -0.4097  0.2154  0.1201
  553TMC3     C 8259   4.435   3.634  13.919  0.5150 -0.1247 -0.2187
  553TMC3     O 8260   4.334   3.567  13.949 -0.3318 -0.4418  0.2564
  553TMC3     H 8261   4.361   3.702  13.679  0.5543  1.0786 -0.4298
  553TMC3    H1 8262   4.657   3.509  13.908  1.2675 -0.1810  0.0106
  553TMC3    H2 8263   4.710   3.556  13.484  2.2128  0.8890  1.9530
  553TMC3    C7 8264   0.093   3.455  13.698 -0.1705  0.5360  0.2255
  553TMC3    C8 8265   4.495   3.701  13.452 -0.3675  0.5832 -0.4934
  553TMC3    O1 8266   0.129   3.400  13.599 -0.1431 -0.2997  0.6855
  553TMC3    O2 8267   4.590   3.733  13.383 -0.2305 -0.5530  0.2932
  554TMC3    C1 8268   2.230   3.317  11.787  0.4586  0.6465 -0.0830
  554TMC3    C2 8269   2.199   3.238  11.679  1.1719 -0.5255 -0.1160
  554TMC3    C3 8270   2.254   3.270  11.556 -0.3821  0.2786  0.6280
  554TMC3    C4 8271   2.324   3.425  11.774 -0.1292 -0.6192 -0.4143
  554TMC3    C5 8272   2.363   3.454  11.649 -0.1118  0.1463 -0.2777
  554TMC3    C6 8273   2.342   3.372  11.544 -0.2475  0.1375 -0.2632
  554TMC3     C 8274   2.165   3.294  11.914 -0.0324  0.1486 -0.2832
  554TMC3     O 8275   2.226   3.351  12.006  0.8486 -0.4109  0.0084
  554TMC3     H 8276   2.131   3.154  11.685  1.7361 -0.8371  1.9251
  554TMC3    H1 8277   2.365   3.487  11.853 -1.4390  1.3045 -1.2510
  554TMC3    H2 8278   2.377   3.403  11.446  0.0792 -0.6419 -0.3897
  554TMC3    C7 8279   2.389   3.593  11.607  0.3603  0.4259 -0.1608
  554TMC3    C8 8280   2.180   3.251  11.431  0.0518 -0.2329 -0.4510
  554TMC3    O1 8281   2.479   3.606  11.530 -0.3520  0.5484  0.6766
  554TMC3    O2 8282   2.211   3.325  11.341 -0.2587 -0.0559 -0.1191
  555TMC3    C1 8283   0.729   3.005  14.835 -0.3044  0.2408 -0.0174
  555TMC3    C2 8284   0.688   3.102  14.921  0.0674 -0.5976  0.3335
  555TMC3    C3 8285   0.683   3.061  15.053  0.0370 -0.4022  0.6223
  555TMC3    C4 8286   0.762   2.878  14.880 -0.2882  0.6619  0.4349
  555TMC3    C5 8287   0.772   2.853  15.011  0.0054 -0.1192  0.4955
  555TMC3    C6 8288   0.723   2.940  15.100  0.2623 -0.1240  0.1170
  555TMC3     C 8289   0.723   3.025  14.693  0.4886 -0.1129 -0.6681
  555TMC3     O 8290   0.813   2.974  14.627  1.0630 -0.1445 -0.0626
  555TMC3     H 8291   0.660   3.204  14.897 -0.9436 -1.1125 -0.6494
  555TMC3    H1 8292   0.801   2.798  14.818  1.6515  1.2781  0.8361
  555TMC3    H2 8293   0.719   2.910  15.204 -1.0732 -0.5702 -0.0667
  555TMC3    C7 8294   0.812   2.719  15.053 -0.1610  0.7273  0.3819
  555TMC3    C8 8295   0.664   3.168  15.151  0.2860  0.0023 -0.2592
  555TMC3    O1 8296   0.728   2.657  15.118  0.8168 -0.0841  0.6677
  555TMC3    O2 8297   0.589   3.255  15.114  0.3430  0.2880 -0.0014
  556MPD2     C 8298   3.337   0.414  10.758  0.1200 -0.1470 -0.1509
  556MPD2    C1 8299   3.384   0.321  10.849  0.0143 -0.1855  0.0111
  556MPD2    C2 8300   3.473   0.225  10.806 -0.1283  0.3929  0.6392
  556MPD2    C3 8301   3.503   0.214  10.673 -0.0577  0.1441  0.5938
  556MPD2    C4 8302   3.445   0.298  10.582  0.2905  0.0603 -0.0999
  556MPD2    C5 8303   3.367   0.398  10.625  1.0637 -0.5652 -0.3444
  556MPD2     H 8304   3.510   0.158  10.883 -1.1628 -0.9617 -0.0500
  556MPD2    H1 8305   3.480   0.298  10.479 -2.0503  0.2540 -0.8906
  556MPD2    H2 8306   3.268   0.495  10.778  2.1198  1.2865  1.0061
  556MPD2    H3 8307   3.327   0.467  10.551  0.9896 -0.1176  0.1137
  556MPD2     N 8308   3.584   0.097  10.636  0.2135 -0.5478 -0.3019
  556MPD2    H5 8309   3.624   0.048  10.716 -0.8719 -0.5292  0.2458
  556MPD2    N1 8310   3.364   0.332  10.986  0.1005  0.1676 -0.5557
  556MPD2    H7 8311   3.411   0.256  11.035  1.8097  0.2235 -2.0900
  557TMC3    C1 8312   3.696   4.666  10.503  0.0275 -0.4198 -0.3879
  557TMC3    C2 8313   3.680   4.591  10.388 -0.1585  0.1233  0.9396
  557TMC3    C3 8314   3.744   4.471  10.379  0.1765 -0.4224 -0.4705
  557TMC3    C4 8315   3.749   4.607  10.617 -0.0087  0.1769  0.3846
  557TMC3    C5 8316   3.794   4.477  10.609 -0.3861 -0.1115 -0.0655
  557TMC3    C6 8317   3.798   4.405  10.494  0.2583  0.2796 -0.2347
  557TMC3     C 8318   3.623   0.057  10.509  0.4330  0.5336  0.3888
  557TMC3     O 8319   3.600   0.109  10.401  0.3987 -0.1334  0.2885
  557TMC3     H 8320   3.626   4.625  10.300 -0.5148  1.2646  1.5997
  557TMC3    H1 8321   3.749   4.656  10.713  0.7656  1.3544 -0.2166
  557TMC3    H2 8322   3.841   4.306  10.486  1.8514  0.7140  2.7509
  557TMC3    C7 8323   3.771   4.407  10.739  0.2658  0.6965  0.9252
  557TMC3    C8 8324   3.700   4.393  10.269 -0.3902  0.3293  0.5435
  557TMC3    O1 8325   3.749   4.470  10.844 -0.0723 -0.2272 -0.1014
  557TMC3    O2 8326   3.613   4.444  10.199  0.7417 -0.4380 -0.1643
  558TMC3    C1 8327   1.436   2.186   9.999  0.4580 -0.1672  0.7457
  558TMC3    C2 8328   1.400   2.129  10.116 -1.0638 -0.1021 -0.2172
  558TMC3    C3 8329   1.312   2.024  10.107 -0.2023 -0.2123  0.0700
  558TMC3    C4 8330   1.419   2.118   9.881 -0.3612  0.5942 -0.6827
  558TMC3    C5 8331   1.340   2.006   9.886  0.2982  0.7215 -0.2436
  558TMC3    C6 8332   1.289   1.955   9.996  0.0085 -0.1455  0.8504
  558TMC3     C 8333   1.542   2.288  10.015  0.0936  0.0441 -0.5438
  558TMC3     O 8334   1.618   2.276  10.114  0.2313 -0.4704  0.1537
  558TMC3     H 8335   1.403   2.183  10.210  1.0693  0.0656 -0.3822
  558TMC3    H1 8336   1.457   2.151   9.785 -2.7139 -0.0502 -1.8211
  558TMC3    H2 8337   1.225   1.867   9.996  1.0237 -0.8940 -0.5699
  558TMC3    C7 8338   1.259   2.006   9.771  0.5412  0.6438 -0.2246
  558TMC3    C8 8339   1.198   2.028  10.189  0.1015  0.3806  0.8822
  558TMC3    O1 8340   1.312   2.024   9.663  0.4704  0.4242 -0.0648
  558TMC3    O2 8341   1.094   1.999  10.138 -0.3482  0.5866  0.0552
  559MPD2     C 8342   1.816   2.875  10.364  0.2580 -0.0665 -0.6586
  559MPD2    C1 8343   1.731   2.838  10.463  1.0034  0.1829 -0.4646
  559MPD2    C2 8344   1.786   2.806  10.584  0.3345  0.6249  0.0654
  559MPD2    C3 8345   1.917   2.810  10.609  0.1434  0.2748  0.4942
  559MPD2    C4 8346   1.999   2.856  10.512 -0.0513  0.9416  0.6655
  559MPD2    C5 8347   1.952   2.887  10.390 -0.0040 -0.4736 -0.2299
  559MPD2     H 8348   1.721   2.803  10.671 -1.0497  0.4176 -0.9877
  559MPD2    H1 8349   2.104   2.874  10.529  0.1824 -1.4879  1.8961
  559MPD2    H2 8350   1.783   2.907  10.266  1.9299 -1.9397 -1.8394
  559MPD2    H3 8351   2.029   2.918  10.321  0.3020 -0.2654  0.2027
  559MPD2     N 8352   1.964   2.784  10.744 -0.4039 -0.3093 -0.5130
  559MPD2    H5 8353   1.895   2.743  10.806 -1.0704 -2.2993 -2.5364
  559MPD2    N1 8354   1.590   2.828  10.451 -0.2595 -0.1425 -0.4318
  559MPD2    H7 8355   1.536   2.796  10.531 -2.2845 -1.9480 -2.5136
  560TMC3    C1 8356   2.103   2.746  10.920  0.3820  0.0087  0.7230
  560TMC3    C2 8357   2.019   2.639  10.947 -0.6340 -0.2286  0.3040
  560TMC3    C3 8358   2.016   2.598  11.077 -0.5106 -0.2117 -0.2374
  560TMC3    C4 8359   2.183   2.808  11.015 -0.5344  0.7181 -0.4058
  560TMC3    C5 8360   2.156   2.775  11.146 -0.0318  0.3467  0.0769
  560TMC3    C6 8361   2.062   2.679  11.175 -0.0889 -0.3887 -0.7817
  560TMC3     C 8362   2.087   2.818  10.791 -0.2472 -0.0184  1.1287
  560TMC3     O 8363   2.182   2.882  10.745 -0.4094 -0.1317  0.9097
  560TMC3     H 8364   1.976   2.574  10.871  0.7218 -2.0221  1.0832
  560TMC3    H1 8365   2.255   2.885  10.990  2.2345 -2.2395 -1.4879
  560TMC3    H2 8366   2.035   2.662  11.279 -1.1564  0.2476 -0.9657
  560TMC3    C7 8367   2.219   2.846  11.262 -0.0515 -0.6083  0.0998
  560TMC3    C8 8368   1.922   2.487  11.102  1.3181 -0.6697 -0.1235
  560TMC3    O1 8369   2.184   2.793  11.368  0.1357 -0.3494 -0.4114
  560TMC3    O2 8370   1.839   2.447  11.018 -0.2230  0.7461 -0.6411
  561TMC3    C1 8371   3.965   2.099  10.536  0.4625 -0.0141 -0.5513
  561TMC3    C2 8372   3.855   2.050  10.596 -0.7988 -0.4291 -0.3589
  561TMC3    C3 8373   3.850   2.073  10.733 -0.0301  0.4505  0.5220
  561TMC3    C4 8374   4.061   2.174  10.593  0.3647 -1.1645 -0.5039
  561TMC3    C5 8375   4.048   2.195  10.733 -0.4556  0.0802 -0.1313
  561TMC3    C6 8376   3.947   2.146  10.803  0.0092  0.6389 -0.1848
  561TMC3     C 8377   3.993   2.041  10.401  0.4026 -0.1472 -0.3614
  561TMC3     O 8378   3.929   2.082  10.307 -0.0903  0.3503  0.0019
  561TMC3     H 8379   3.780   1.995  10.541 -1.2005 -0.0901 -0.1467
  561TMC3    H1 8380   4.133   2.230  10.534  0.7503 -0.3249  0.7589
  561TMC3    H2 8381   3.936   2.180  10.905 -1.9728  1.4131 -0.6608
  561TMC3    C7 8382   4.145   2.276  10.820 -0.1263  0.2326 -0.6336
  561TMC3    C8 8383   3.736   2.015  10.797 -0.6264  0.4928 -0.0114
  561TMC3    O1 8384   4.136   2.278  10.941  0.1134  0.1036  0.3705
  561TMC3    O2 8385   3.643   1.980  10.727 -0.3205 -0.2840 -0.2128
  562TMC3    C1 8386   0.647   3.805  16.528 -0.3578 -0.4701 -0.5581
  562TMC3    C2 8387   0.639   3.914  16.441  0.1648  0.5431  0.0336
  562TMC3    C3 8388   0.585   3.899  16.319  0.0981 -0.5991  0.4101
  562TMC3    C4 8389   0.622   3.682  16.477 -0.3459  0.5857 -0.0471
  562TMC3    C5 8390   0.573   3.670  16.345 -0.0252 -0.2522 -0.2912
  562TMC3    C6 8391   0.557   3.779  16.263  0.2703  0.0729  0.0751
  562TMC3     C 8392   0.730   3.801  16.645  0.6274  0.4092 -0.2065
  562TMC3     O 8393   0.765   3.690  16.688  0.4534 -1.1044  0.8329
  562TMC3     H 8394   0.698   4.002  16.464 -1.4212  2.1461 -2.0239
  562TMC3    H1 8395   0.626   3.595  16.542  0.3246 -0.5263 -1.5919
  562TMC3    H2 8396   0.512   3.764  16.165  0.3136  2.0221 -0.2418
  562TMC3    C7 8397   0.539   3.534  16.301 -0.6842  0.4522  0.0788
  562TMC3    C8 8398   0.615   4.011  16.229  0.3692 -0.0614  0.1671
  562TMC3    O1 8399   0.451   3.534  16.216  0.0747 -0.0987  0.1740
  562TMC3    O2 8400   0.685   4.105  16.258  0.5511 -0.4677  0.0789
  563MPD2     C 8401   2.800   4.348  15.864 -0.8626  0.6278 -0.4516
  563MPD2    C1 8402   2.803   4.482  15.880 -0.9076  0.2215 -0.2712
  563MPD2    C2 8403   2.912   4.555  15.831  0.3618 -0.0788 -0.0030
  563MPD2    C3 8404   3.026   4.492  15.785 -0.6423  0.5970 -0.4579
  563MPD2    C4 8405   3.028   4.354  15.787  0.4251 -0.5233  0.5635
  563MPD2    C5 8406   2.912   4.285  15.820 -0.2288 -0.1236 -0.4931
  563MPD2     H 8407   2.908   4.663  15.828  0.5805 -0.1077 -1.3730
  563MPD2    H1 8408   3.112   4.304  15.740 -0.9474 -0.3402 -2.0655
  563MPD2    H2 8409   2.708   4.297  15.888  0.3127 -1.5658 -0.5651
  563MPD2    H3 8410   2.909   4.178  15.805  2.7329  0.1035 -2.7650
  563MPD2     N 8411   3.134   4.570  15.727  0.5920 -0.0981  0.0220
  563MPD2    H5 8412   3.126   4.668  15.751 -0.3762 -0.1452 -0.1398
  563MPD2    N1 8413   2.680   4.542  15.929  0.0595 -0.0885 -0.4312
  563MPD2    H7 8414   2.602   4.481  15.952 -0.0585 -0.4739 -1.8584
  564TMC3    C1 8415   2.514   4.683  15.990 -0.0715  0.1453  0.1993
  564TMC3    C2 8416   2.425   4.578  15.954  0.1249  0.2685  0.0800
  564TMC3    C3 8417   2.354   4.527  16.056 -0.6376 -0.2070  0.1124
  564TMC3    C4 8418   2.529   4.725  16.122  0.1433  0.7724  0.1354
  564TMC3    C5 8419   2.467   4.657  16.223  0.2053 -0.3502 -0.0534
  564TMC3    C6 8420   2.367   4.569  16.190  0.1003  0.3714 -0.6559
  564TMC3     C 8421   2.651   4.673  15.940  0.8257  0.5317  0.4335
  564TMC3     O 8422   2.722   0.037  15.930  0.0443  0.0908  0.3672
  564TMC3     H 8423   2.427   4.545  15.851  1.3151  0.0702  0.1560
  564TMC3    H1 8424   2.599   0.068  16.147 -0.8171  1.6363  0.0790
  564TMC3    H2 8425   2.330   4.513  16.275 -0.5275 -3.4460 -3.4094
  564TMC3    C7 8426   2.577   4.585  16.284  0.1545  0.2858 -0.3192
  564TMC3    C8 8427   2.310   4.395  16.044  0.0956 -0.1890  0.4156
  564TMC3    O1 8428   2.679   4.649  16.305 -0.4905 -0.8579 -0.0857
  564TMC3    O2 8429   2.310   4.339  16.155  0.0231  0.3266  0.2966
  565TMC3    C1 8430   3.220   0.735  10.000 -0.3191 -0.3736  0.5009
  565TMC3    C2 8431   3.219   0.706  10.132 -0.4193 -0.6215 -0.1897
  565TMC3    C3 8432   3.189   0.578  10.176 -0.0213 -0.6306  0.4931
  565TMC3    C4 8433   3.166   0.651   9.911  0.3173 -0.3131  0.7929
  565TMC3    C5 8434   3.153   0.521   9.949  0.6528 -0.2496 -0.5751
  565TMC3    C6 8435   3.161   0.485  10.081 -0.5939 -0.6195  0.1471
  565TMC3     C 8436   3.282   0.860   9.952 -0.2612  0.1459 -0.1813
  565TMC3     O 8437   3.322   0.870   9.840 -0.7429  0.1991  0.0156
  565TMC3     H 8438   3.249   0.770  10.214  0.2724  0.2982 -1.1434
  565TMC3    H1 8439   3.183   0.674   9.807  0.3850  1.6420  1.2393
  565TMC3    H2 8440   3.127   0.388  10.116  0.8542 -0.9073  0.7679
  565TMC3    C7 8441   3.112   0.424   9.842 -0.5572  0.0455  0.1791
  565TMC3    C8 8442   3.137   0.558  10.312 -0.2277  0.4889  0.0919
  565TMC3    O1 8443   3.083   0.483   9.737 -0.9951  0.2319  0.1765
  565TMC3    O2 8444   3.116   0.664  10.369  0.3226 -0.2142 -0.3417
  566MPD2     C 8445   0.040   2.789  14.402  0.4790  0.2025  0.2447
  566MPD2    C1 8446   0.069   2.813  14.271  0.0158 -1.8095  0.6472
  566MPD2    C2 8447   4.697   2.807  14.181 -0.6076  0.7246  1.0657
  566MPD2    C3 8448   4.569   2.761  14.204  0.8028  0.7892 -0.2541
  566MPD2    C4 8449   4.545   2.723  14.333 -0.5146 -0.3303 -0.5206
  566MPD2    C5 8450   4.649   2.733  14.426 -0.0393 -0.0357  1.4173
  566MPD2     H 8451   4.723   2.835  14.079  0.2527 -1.9521  0.5276
  566MPD2    H1 8452   4.449   2.683  14.364 -0.8726  0.1581 -0.9889
  566MPD2    H2 8453   0.116   2.790  14.479  0.8883  2.4079 -0.2047
  566MPD2    H3 8454   4.641   2.705  14.530  2.0035 -2.6888  0.8694
  566MPD2     N 8455   4.469   2.735  14.098  0.2987 -0.0262  0.3008
  566MPD2    H5 8456   4.381   2.696  14.128 -1.1667  2.1894 -1.1836
  566MPD2    N1 8457   0.201   2.850  14.236  0.4542  0.1163  0.2239
  566MPD2    H7 8458   0.268   2.841  14.311 -0.2439  0.4119  0.8844
  567TMC3    C1 8459   0.392   2.919  14.106 -0.2675 -0.2095  0.0452
  567TMC3    C2 8460   0.433   2.968  13.982  0.7294 -0.1754 -0.1270
  567TMC3    C3 8461   0.556   2.927  13.933  0.6512  0.0662 -0.0810
  567TMC3    C4 8462   0.476   2.859  14.185  0.0534 -0.4348  0.3292
  567TMC3    C5 8463   0.603   2.835  14.138 -0.6906  0.6286 -0.0718
  567TMC3    C6 8464   0.650   2.868  14.015  0.7403 -0.6078  0.5958
  567TMC3     C 8465   0.250   2.881  14.110  0.2470  0.1012  0.6369
  567TMC3     O 8466   0.184   2.902  14.007  0.8792  0.2837  0.2364
  567TMC3     H 8467   0.370   3.030  13.919 -0.3427 -0.2703  0.8371
  567TMC3    H1 8468   0.441   2.798  14.267  0.0828 -0.4534  0.3282
  567TMC3    H2 8469   0.753   2.843  13.991  0.6067 -1.1737  0.6120
  567TMC3    C7 8470   0.698   2.777  14.231  1.1742 -0.3257 -0.4738
  567TMC3    C8 8471   0.569   2.892  13.796 -0.0859  0.0248  0.5352
  567TMC3    O1 8472   0.802   2.729  14.176 -0.9035 -0.0343 -0.3049
  567TMC3    O2 8473   0.496   2.942  13.712 -0.8574 -0.0619 -0.1429
  568MPD2     C 8474   2.380   2.871  16.415 -0.9073 -0.4052  0.6300
  568MPD2    C1 8475   2.482   2.940  16.456 -0.5266 -0.4910  0.4324
  568MPD2    C2 8476   2.501   3.063  16.403  0.5680  0.0668 -0.4136
  568MPD2    C3 8477   2.398   3.119  16.322  1.0400  0.2050 -0.1290
  568MPD2    C4 8478   2.288   3.042  16.277 -0.0167 -0.0760 -0.7105
  568MPD2    C5 8479   2.288   2.913  16.321 -0.0710 -0.1786  0.1323
  568MPD2     H 8480   2.581   3.126  16.442  0.4445  0.1572 -0.3057
  568MPD2    H1 8481   2.214   3.081  16.208 -0.4722 -1.7265 -1.1297
  568MPD2    H2 8482   2.350   2.778  16.463  0.4677 -1.8769 -1.3321
  568MPD2    H3 8483   2.205   2.844  16.307  0.2620 -1.1217  2.6905
  568MPD2     N 8484   2.413   3.257  16.290  0.7743 -0.4854 -0.0381
  568MPD2    H5 8485   2.487   3.312  16.333  1.7524 -1.9986  0.2103
  568MPD2    N1 8486   2.564   2.894  16.559  0.3076 -0.6120  0.7913
  568MPD2    H7 8487   2.520   2.815  16.606 -1.9141  0.0591 -0.1758
  569TMC3    C1 8488   2.397   3.465  16.209  0.0031  1.0279  0.6461
  569TMC3    C2 8489   2.403   3.524  16.330  0.6729 -0.2288  0.0740
  569TMC3    C3 8490   2.451   3.649  16.334 -0.5658  0.0127 -0.2650
  569TMC3    C4 8491   2.439   3.531  16.098  0.3873 -0.4080  0.4580
  569TMC3    C5 8492   2.464   3.664  16.103 -0.6572 -0.0681 -0.7852
  569TMC3    C6 8493   2.467   3.728  16.223 -0.5604 -0.7197  0.6836
  569TMC3     C 8494   2.359   3.327  16.193 -0.7750  0.2774 -0.2723
  569TMC3     O 8495   2.277   3.295  16.107  0.4371  0.9456 -0.1773
  569TMC3     H 8496   2.380   3.465  16.418  0.3141  1.8427  1.3538
  569TMC3    H1 8497   2.439   3.475  16.005  0.7540 -0.4452  0.4793
  569TMC3    H2 8498   2.499   3.831  16.230 -2.1698 -0.1660 -0.1100
  569TMC3    C7 8499   2.457   3.747  15.982  0.4527  0.3478  0.1991
  569TMC3    C8 8500   2.440   3.719  16.459  0.6624  0.5126 -0.4043
  569TMC3    O1 8501   2.477   3.698  15.873  0.1412  0.0679  0.3591
  569TMC3    O2 8502   2.343   3.697  16.530  0.1193 -0.0105  0.1413
  570TMC3    C1 8503   2.218   2.230  16.328  0.1375 -1.0339  0.4784
  570TMC3    C2 8504   2.244   2.288  16.204  0.7447  0.3640  0.0604
  570TMC3    C3 8505   2.251   2.427  16.194  0.0708 -0.6552 -0.7545
  570TMC3    C4 8506   2.172   2.313  16.430  0.1292 -0.4082 -0.0566
  570TMC3    C5 8507   2.166   2.447  16.406 -0.0470 -0.3244  0.4723
  570TMC3    C6 8508   2.217   2.504  16.302 -0.2892 -0.3845 -0.8033
  570TMC3     C 8509   2.193   2.089  16.339  0.0330 -0.3818 -0.1076
  570TMC3     O 8510   2.186   2.025  16.232 -0.0197  0.1196  0.2127
  570TMC3     H 8511   2.280   2.224  16.124 -1.3968 -2.1527  1.1102
  570TMC3    H1 8512   2.122   2.278  16.520  0.1822 -0.3030  0.0153
  570TMC3    H2 8513   2.229   2.611  16.287  2.0002 -0.6877 -1.1305
  570TMC3    C7 8514   2.104   2.525  16.511  0.1178 -0.3067 -0.3802
  570TMC3    C8 8515   2.314   2.485  16.078  0.3544  0.3579  0.0629
  570TMC3    O1 8516   2.093   2.481  16.624 -0.2620 -0.2648  0.0138
  570TMC3    O2 8517   2.355   2.598  16.099 -0.6921  0.2745  0.6507
  571MPD2     C 8518   3.961   3.596  17.501 -0.5509 -0.2749  1.0275
  571MPD2    C1 8519   3.912   3.720  17.529  0.5956  0.4567  0.5043
  571MPD2    C2 8520   3.997   3.831  17.531 -0.0912  0.2741 -0.3487
  571MPD2    C3 8521   4.133   3.804  17.532 -0.2886 -0.0775  0.4477
  571MPD2    C4 8522   4.179   3.679  17.510  0.5882  0.2496 -1.0007
  571MPD2    C5 8523   4.096   3.576  17.484 -0.4273 -0.0699 -0.2421
  571MPD2     H 8524   3.959   3.932  17.540  1.0664  0.4625  2.2881
  571MPD2    H1 8525   4.285   3.657  17.505  0.7131  0.7645 -0.6289
  571MPD2    H2 8526   3.897   3.509  17.515 -3.0640  1.0643 -2.0759
  571MPD2    H3 8527   4.142   3.482  17.455 -1.9675 -0.2093 -2.1950
  571MPD2     N 8528   4.233   3.904  17.562 -0.1293 -0.0665 -0.1497
  571MPD2    H5 8529   4.328   3.869  17.568 -0.2477 -0.3561  0.0414
  571MPD2    N1 8530   3.773   3.723  17.563  0.7400 -0.1876 -0.1440
  571MPD2    H7 8531   3.726   3.634  17.571  0.2782  0.3319  3.0948
  572TMC3    C1 8532   4.324   4.096  17.652  0.1987 -0.1976 -0.0069
  572TMC3    C2 8533   4.370   4.029   0.021 -0.2307  0.3945 -0.0336
  572TMC3    C3 8534   4.446   4.091   0.118 -0.1282  0.2998  1.0386
  572TMC3    C4 8535   4.322   4.231  17.653  0.7332  0.3646  0.1395
  572TMC3    C5 8536   4.391   4.291   0.010  0.0961  0.5998 -0.0224
  572TMC3    C6 8537   4.443   4.230   0.120 -0.5386  0.2595  0.2368
  572TMC3     C 8538   4.211   4.038  17.589 -0.5613  0.7502 -0.1085
  572TMC3     O 8539   4.114   4.110  17.574 -0.3080  0.5787 -0.1016
  572TMC3     H 8540   4.354   3.922   0.031 -0.0267  0.1876 -1.8611
  572TMC3    H1 8541   4.275   4.286  17.572 -1.0676 -0.0260  0.9075
  572TMC3    H2 8542   4.491   4.278   0.205  0.8298  2.3801 -1.7437
  572TMC3    C7 8543   4.374   4.435   0.013  0.0703  0.4680 -0.4037
  572TMC3    C8 8544   4.480   4.018   0.242  0.2184 -0.0096  0.2719
  572TMC3    O1 8545   4.300   4.480  17.670  0.4546 -0.5125  0.2341
  572TMC3    O2 8546   4.599   4.019   0.273 -0.0040 -0.0119  0.3115
  573MPD2     C 8547   0.614   4.479   0.621 -0.3287 -0.0723  0.4550
  573MPD2    C1 8548   0.556   4.565   0.528 -0.5936  0.4086  0.1800
  573MPD2    C2 8549   0.494   4.511   0.420 -0.5397 -0.4042 -0.4960
  573MPD2    C3 8550   0.511   4.379   0.378 -0.3269  0.1326  0.5030
  573MPD2    C4 8551   0.565   4.292   0.466 -0.1369 -0.1156  0.6439
  573MPD2    C5 8552   0.618   4.344   0.586 -0.3234  0.2371 -0.0826
  573MPD2     H 8553   0.449   4.582   0.352  0.4138 -0.2767 -0.9956
  573MPD2    H1 8554   0.581   4.187   0.442 -0.1088 -0.0934  0.5651
  573MPD2    H2 8555   0.664   4.516   0.709 -1.1873  0.7926  0.5797
  573MPD2    H3 8556   0.658   4.274   0.659 -1.2246 -0.1404  0.0477
  573MPD2     N 8557   0.454   4.322   0.256  0.0036  0.2676  0.0788
  573MPD2    H5 8558   0.471   4.223   0.241  0.2979 -0.2492  4.0307
  573MPD2    N1 8559   0.552   4.704   0.551 -0.3544  0.3520 -0.1551
  573MPD2    H7 8560   0.502   0.024   0.483 -1.8348  1.1014  1.5560
  574TMC3    C1 8561   0.411   4.327   0.023 -0.3345  0.4962 -0.2585
  574TMC3    C2 8562   0.345   4.381  17.664 -0.5112 -0.3016 -0.5600
  574TMC3    C3 8563   0.350   4.333  17.544 -0.0827 -0.1367 -0.2207
  574TMC3    C4 8564   0.488   4.215   0.001  0.7352  0.6044 -0.0294
  574TMC3    C5 8565   0.493   4.168  17.617  0.5163 -0.1377 -0.4183
  574TMC3    C6 8566   0.421   4.224  17.510 -0.4032 -0.1527  0.4327
  574TMC3     C 8567   0.414   4.396   0.146  0.3091  0.1153 -0.3022
  574TMC3     O 8568   0.392   4.518   0.139  0.6355  0.2383  0.0321
  574TMC3     H 8569   0.274   4.460  17.687 -3.1971 -2.4588 -1.2959
  574TMC3    H1 8570   0.552   4.178   0.081 -0.2683  1.1223  1.0210
  574TMC3    H2 8571   0.436   4.205  17.405 -0.8009 -1.3141  0.5814
  574TMC3    C7 8572   0.549   4.035  17.590  0.0856  0.2482 -0.4110
  574TMC3    C8 8573   0.308   4.420  17.438 -0.7018 -0.7538 -0.1269
  574TMC3    O1 8574   0.576   4.011  17.472 -0.1745 -0.6728 -0.1825
  574TMC3    O2 8575   0.246   4.376  17.343 -0.0941  0.1828 -0.3840
  575TMC3    C1 8576   3.126   0.816  11.140  0.3963  0.8771 -0.1406
  575TMC3    C2 8577   3.060   0.751  11.242  0.2790 -0.4487 -0.3647
  575TMC3    C3 8578   2.995   0.633  11.211 -0.1464 -0.5813 -0.2990
  575TMC3    C4 8579   3.095   0.784  11.008 -0.1599 -0.9495 -0.6801
  575TMC3    C5 8580   3.020   0.666  10.989 -0.3707 -0.8144  0.4409
  575TMC3    C6 8581   2.972   0.581  11.085  0.1738 -0.2149 -0.2085
  575TMC3     C 8582   3.200   0.946  11.159 -0.4835  0.0993 -0.5400
  575TMC3     O 8583   3.251   1.000  11.064 -0.4434 -0.0981 -0.1093
  575TMC3     H 8584   3.062   0.778  11.347  2.1744 -0.2782 -0.4351
  575TMC3    H1 8585   3.134   0.850  10.931 -2.3981 -0.0940 -1.0874
  575TMC3    H2 8586   2.914   0.493  11.061 -1.4502  0.2016  2.2284
  575TMC3    C7 8587   3.025   0.618  10.852  0.1212  0.2040 -0.6560
  575TMC3    C8 8588   2.965   0.548  11.326  0.6782  1.0525 -0.4916
  575TMC3    O1 8589   3.034   0.709  10.768 -0.1597  0.2398 -0.2673
  575TMC3    O2 8590   2.986   0.606  11.433  0.0960  0.3369 -0.1077
  576MPD2     C 8591   3.735   1.868  12.267 -0.0641  0.1609 -0.2472
  576MPD2    C1 8592   3.757   1.997  12.218  0.2092 -0.3673  0.0606
  576MPD2    C2 8593   3.745   2.109  12.299 -0.4279  0.7192  0.4600
  576MPD2    C3 8594   3.714   2.080  12.437  0.6444 -0.8523 -0.1066
  576MPD2    C4 8595   3.700   1.948  12.485  0.7223 -0.0383  0.2732
  576MPD2    C5 8596   3.722   1.851  12.404 -0.5685 -0.1494  0.2562
  576MPD2     H 8597   3.756   2.214  12.271  0.2239  0.5340  0.0038
  576MPD2    H1 8598   3.672   1.920  12.586 -1.0703  0.1431 -0.1671
  576MPD2    H2 8599   3.729   1.783  12.199  2.2365  0.6579 -1.0460
  576MPD2    H3 8600   3.704   1.749  12.436 -2.0993  0.5936  1.7087
  576MPD2     N 8601   3.675   2.190  12.516 -0.1404  0.2871  0.1128
  576MPD2    H5 8602   3.672   2.284  12.477  1.1065  0.3949  0.2830
  576MPD2    N1 8603   3.774   2.017  12.077  0.1265 -0.1386  0.4066
  576MPD2    H7 8604   3.763   2.116  12.055  0.3735 -0.3160 -0.4867
  577TMC3    C1 8605   3.760   1.981  11.843  0.5205 -0.6775 -0.4114
  577TMC3    C2 8606   3.698   1.907  11.743 -0.0095  0.4906  0.6386
  577TMC3    C3 8607   3.678   1.975  11.622 -0.1401  0.5984  0.1090
  577TMC3    C4 8608   3.795   2.108  11.819 -0.2057  0.3633  0.2159
  577TMC3    C5 8609   3.761   2.169  11.708  0.5841  0.3077 -0.4573
  577TMC3    C6 8610   3.701   2.102  11.601 -0.1187  0.0853 -0.2536
  577TMC3     C 8611   3.770   1.922  11.980  0.4844 -0.5175 -0.4866
  577TMC3     O 8612   3.762   1.801  11.985  0.8106  0.1463 -0.2072
  577TMC3     H 8613   3.654   1.809  11.760  0.7629 -0.1188 -0.8364
  577TMC3    H1 8614   3.833   2.173  11.897 -3.9187  1.8439  0.7934
  577TMC3    H2 8615   3.656   2.151  11.514  0.0479 -2.1632 -1.5992
  577TMC3    C7 8616   3.752   2.316  11.705 -0.5209 -0.0720 -0.3480
  577TMC3    C8 8617   3.615   1.903  11.507 -0.1930 -0.9501  0.2523
  577TMC3    O1 8618   3.852   2.383  11.713 -0.2353 -0.0132  0.4820
  577TMC3    O2 8619   3.535   1.813  11.514  0.1801 -0.5047 -0.0770
  578MPD2     C 8620   1.540   2.045   1.182 -0.2171 -0.0692 -0.3405
  578MPD2    C1 8621   1.645   2.088   1.097  0.0566  1.0695 -0.1855
  578MPD2    C2 8622   1.730   1.996   1.031 -0.2632  0.5457  0.1092
  578MPD2    C3 8623   1.701   1.860   1.046  0.8017  0.0170 -0.4752
  578MPD2    C4 8624   1.592   1.819   1.115 -0.3125  1.0082 -0.1189
  578MPD2    C5 8625   1.520   1.912   1.187  0.2803  0.5346  0.2811
  578MPD2     H 8626   1.812   2.020   0.964  0.6308 -2.9266 -0.0043
  578MPD2    H1 8627   1.569   1.714   1.133 -0.3598  0.8437 -1.1308
  578MPD2    H2 8628   1.486   2.117   1.243  0.8858  1.3432 -1.0258
  578MPD2    H3 8629   1.436   1.871   1.242  1.7320 -0.7723  1.5126
  578MPD2     N 8630   1.784   1.764   0.992 -0.1184 -0.3754  0.0016
  578MPD2    H5 8631   1.870   1.806   0.957 -1.4056  2.2804  0.0262
  578MPD2    N1 8632   1.669   2.228   1.093 -0.1684 -0.2396 -0.0326
  578MPD2    H7 8633   1.591   2.291   1.107 -1.5529 -1.9510  0.0500
  579TMC3    C1 8634   1.864   1.567   0.908 -0.0312 -0.2259  0.1970
  579TMC3    C2 8635   1.992   1.590   0.943 -0.7214 -0.0253  0.1650
  579TMC3    C3 8636   2.086   1.517   0.882 -0.2087 -0.3263 -0.3443
  579TMC3    C4 8637   1.832   1.478   0.804 -0.0432  0.4444 -0.3379
  579TMC3    C5 8638   1.932   1.420   0.736 -0.6066  0.2055 -1.0091
  579TMC3    C6 8639   2.057   1.429   0.785  0.8562  0.4529  0.7280
  579TMC3     C 8640   1.759   1.630   0.975  0.0441 -0.3129  0.0606
  579TMC3     O 8641   1.658   1.566   1.000 -0.3729  1.0365 -0.5558
  579TMC3     H 8642   2.016   1.654   1.027  0.3423 -0.5951  0.2974
  579TMC3    H1 8643   1.731   1.441   0.792 -0.0761  0.2279  0.5379
  579TMC3    H2 8644   2.132   1.372   0.731 -1.7202 -1.2829 -1.0131
  579TMC3    C7 8645   1.913   1.347   0.612 -0.1024 -0.3878 -0.5782
  579TMC3    C8 8646   2.218   1.514   0.938 -0.7936 -0.3079 -0.4969
  579TMC3    O1 8647   2.011   1.307   0.551 -0.3362 -0.7534  0.5480
  579TMC3    O2 8648   2.265   1.402   0.950 -0.5647 -0.3286 -0.1993
  580TMC3    C1 8649   0.958   1.250  12.565 -0.5034  0.2752  0.0807
  580TMC3    C2 8650   1.064   1.334  12.560  0.4805 -0.5106 -0.3210
  580TMC3    C3 8651   1.152   1.324  12.661 -0.6915 -0.3085  0.5432
  580TMC3    C4 8652   0.957   1.139  12.652  0.0242 -0.5412 -0.0860
  580TMC3    C5 8653   1.048   1.136  12.753  0.1567  0.0050 -0.0578
  580TMC3    C6 8654   1.146   1.229  12.754 -0.3682  0.1316  0.6273
  580TMC3     C 8655   0.888   1.245  12.439 -0.6678 -0.8193 -0.2153
  580TMC3     O 8656   0.953   1.291  12.341  0.1285 -0.4473  0.1646
  580TMC3     H 8657   1.056   1.419  12.494 -1.9659 -1.0671 -0.7570
  580TMC3    H1 8658   0.876   1.068  12.642  0.6122 -1.3381  0.7864
  580TMC3    H2 8659   1.222   1.228  12.832 -0.1626  1.4563  0.4421
  580TMC3    C7 8660   1.061   1.027  12.854  0.6560 -0.2990 -0.5477
  580TMC3    C8 8661   1.279   1.393  12.643 -0.2925  0.3290 -0.1854
  580TMC3    O1 8662   1.120   1.053  12.957 -0.9534  0.4505 -0.2194
  580TMC3    O2 8663   1.334   1.442  12.742  0.0289 -0.5146 -0.0516
  581MPD2     C 8664   3.462   1.374  14.397 -0.3231  0.5769  0.2271
  581MPD2    C1 8665   3.495   1.360  14.532  0.2866  0.1406 -0.6161
  581MPD2    C2 8666   3.396   1.388  14.625 -0.8990 -1.3040 -0.2601
  581MPD2    C3 8667   3.266   1.420  14.585  0.0760  0.1945  0.3236
  581MPD2    C4 8668   3.237   1.430  14.455 -0.5337 -1.0495  0.2942
  581MPD2    C5 8669   3.335   1.407  14.358  0.2922  0.0372 -0.0655
  581MPD2     H 8670   3.417   1.366  14.729 -1.4886 -2.5875 -0.4177
  581MPD2    H1 8671   3.136   1.452  14.420 -0.8434 -1.9653  0.6315
  581MPD2    H2 8672   3.529   1.354  14.315 -0.0693 -1.1685  0.8664
  581MPD2    H3 8673   3.315   1.412  14.251  0.0458 -2.2848 -0.1225
  581MPD2     N 8674   3.171   1.434  14.685  0.3480  0.0858 -0.6909
  581MPD2    H5 8675   3.209   1.452  14.777  1.9461 -0.5567 -1.2245
  581MPD2    N1 8676   3.622   1.305  14.565  0.0450  0.5043 -0.4849
  581MPD2    H7 8677   3.674   1.266  14.486 -0.1897 -0.6436 -0.0715
  582TMC3    C1 8678   3.777   1.208  14.701  0.2328 -0.2341  0.0749
  582TMC3    C2 8679   3.845   1.218  14.820 -0.2148 -0.1735 -0.8567
  582TMC3    C3 8680   3.899   1.096  14.866  0.3580  0.4140  0.4421
  582TMC3    C4 8681   3.733   1.079  14.655  0.1360 -0.5883 -0.4292
  582TMC3    C5 8682   3.763   0.966  14.734  0.0937 -0.6261  1.0360
  582TMC3    C6 8683   3.858   0.975  14.824  0.7172  0.0473 -0.2859
  582TMC3     C 8684   3.671   1.295  14.694 -0.0413 -0.5543 -0.2818
  582TMC3     O 8685   3.621   1.325  14.803 -0.2529 -0.2813 -0.3437
  582TMC3     H 8686   3.888   1.311  14.854  1.4129 -1.3490  0.3348
  582TMC3    H1 8687   3.654   1.076  14.580  0.3092 -1.2028 -0.5806
  582TMC3    H2 8688   3.879   0.881  14.874 -0.5631  1.1351  2.3056
  582TMC3    C7 8689   3.649   0.908  14.796 -0.2060  0.3205 -0.5064
  582TMC3    C8 8690   3.952   1.098  15.004 -0.2718 -0.2308  0.1849
  582TMC3    O1 8691   3.639   0.784  14.795 -0.0520  0.0283 -0.4567
  582TMC3    O2 8692   3.897   1.177  15.081  0.2717 -0.5888  0.3110
  583MPD2     C 8693   3.973   2.897  16.693  0.0022 -0.2285 -0.7059
  583MPD2    C1 8694   3.996   2.987  16.593  0.9274  0.5466  0.1165
  583MPD2    C2 8695   3.933   3.113  16.596  0.2049  0.2715  0.2263
  583MPD2    C3 8696   3.847   3.138  16.696 -0.1007  0.4118  0.1683
  583MPD2    C4 8697   3.828   3.050  16.802  0.3102 -0.6607  0.2022
  583MPD2    C5 8698   3.890   2.931  16.798  0.5919  0.3585  0.1645
  583MPD2     H 8699   3.948   3.184  16.515 -0.6052  0.0917 -0.0813
  583MPD2    H1 8700   3.766   3.074  16.888 -2.9869 -0.4920 -2.2290
  583MPD2    H2 8701   4.020   2.800  16.704  1.4309  0.5522  0.1016
  583MPD2    H3 8702   3.875   2.867  16.884  1.3006 -1.4384 -1.0647
  583MPD2     N 8703   3.780   3.266  16.691 -0.6763  0.3602  0.5688
  583MPD2    H5 8704   3.810   3.326  16.615 -0.9745 -5.1223 -3.8507
  583MPD2    N1 8705   4.078   2.956  16.470  0.6734  0.5203  0.3756
  583MPD2    H7 8706   4.084   3.024  16.395 -1.4112  0.3934  0.0958
  584TMC3    C1 8707   3.653   3.450  16.781 -0.4300 -0.4599  0.1804
  584TMC3    C2 8708   3.733   3.537  16.716  0.2998  0.6100 -0.8590
  584TMC3    C3 8709   3.691   3.664  16.704 -0.2114  0.3780 -0.2511
  584TMC3    C4 8710   3.544   3.490  16.851 -0.5682 -0.3280  0.5602
  584TMC3    C5 8711   3.509   3.622  16.852  0.6151  0.7116  1.1994
  584TMC3    C6 8712   3.583   3.713  16.784 -0.0741  0.0047  0.3916
  584TMC3     C 8713   3.680   3.309  16.779 -1.1134 -0.0930  0.5121
  584TMC3     O 8714   3.606   3.237  16.837  0.0359 -0.6221 -0.1921
  584TMC3     H 8715   3.834   3.516  16.682  0.9735 -0.1440  1.5953
  584TMC3    H1 8716   3.499   3.422  16.923 -4.5496  1.5261 -0.1499
  584TMC3    H2 8717   3.553   3.817  16.778 -3.0141 -0.7618  1.8341
  584TMC3    C7 8718   3.394   3.667  16.914 -0.0848 -0.1103  0.3129
  584TMC3    C8 8719   3.775   3.756  16.625 -0.1290 -0.2984 -0.1827
  584TMC3    O1 8720   3.367   3.785  16.887 -0.0135 -0.2734  0.2347
  584TMC3    O2 8721   3.834   3.693  16.534 -0.5908 -0.2833  0.1536
  585MPD2     C 8722   3.172   1.921   0.684  0.1565  0.2978 -0.2885
  585MPD2    C1 8723   3.246   1.978   0.584  0.3672 -0.5184  0.6396
  585MPD2    C2 8724   3.251   1.918   0.457 -0.0139 -0.2019  0.1597
  585MPD2    C3 8725   3.156   1.822   0.426 -0.4878  0.6863 -0.0013
  585MPD2    C4 8726   3.073   1.773   0.519  0.4775 -0.5025 -0.4221
  585MPD2    C5 8727   3.090   1.814   0.649 -0.3794  0.0174 -0.4860
  585MPD2     H 8728   3.319   1.952   0.381 -0.2237  0.1132  0.1141
  585MPD2    H1 8729   2.998   1.697   0.498  1.4249 -1.5810  0.1020
  585MPD2    H2 8730   3.178   1.959   0.786 -2.6393 -0.3553  0.1116
  585MPD2    H3 8731   3.032   1.768   0.727 -0.4611 -2.8228 -2.2339
  585MPD2     N 8732   3.132   1.782   0.294 -0.1879 -0.0525  0.6872
  585MPD2    H5 8733   3.051   1.722   0.279  0.7176 -1.2682  0.6401
  585MPD2    N1 8734   3.311   2.098   0.622 -0.5265 -0.0876  0.0905
  585MPD2    H7 8735   3.287   2.137   0.712  1.8683  0.5085  0.4650
  586TMC3    C1 8736   3.157   1.809   0.064 -0.2799  0.0695  0.7667
  586TMC3    C2 8737   3.235   1.834  17.700 -0.1081  0.8375 -0.2118
  586TMC3    C3 8738   3.190   1.919  17.606  0.0958 -0.2754  0.2761
  586TMC3    C4 8739   3.021   1.827   0.055 -0.0785 -0.1627  0.4787
  586TMC3    C5 8740   2.970   1.886  17.686  0.0491 -0.5136  1.0245
  586TMC3    C6 8741   3.055   1.938  17.595  0.1276  0.4907  0.1206
  586TMC3     C 8742   3.221   1.797   0.192 -0.2044  0.3006 -0.0650
  586TMC3     O 8743   3.341   1.808   0.191 -0.1808  0.3894  0.3464
  586TMC3     H 8744   3.336   1.794  17.702 -0.0377  0.9853 -0.7380
  586TMC3    H1 8745   2.959   1.796   0.139 -1.2235 -0.1483 -0.3633
  586TMC3    H2 8746   3.008   2.019  17.541  0.0453  0.0899 -0.4072
  586TMC3    C7 8747   2.882   1.798  17.614 -0.4192  0.3898 -0.0331
  586TMC3    C8 8748   3.269   1.904  17.486 -0.2897  0.1228 -0.2771
  586TMC3    O1 8749   2.798   1.743  17.677 -1.1238  0.2686  0.2864
  586TMC3    O2 8750   3.350   1.809  17.474 -0.5106  0.5738  0.4542
  587TMC3    C1 8751   0.721   0.440  16.281 -0.5189 -0.6891  0.0476
  587TMC3    C2 8752   0.708   0.571  16.330 -0.7113 -0.6132 -0.6897
  587TMC3    C3 8753   0.817   0.638  16.380  0.0968 -0.8706 -0.2082
  587TMC3    C4 8754   0.837   0.380  16.283  0.1681 -0.1998  0.0896
  587TMC3    C5 8755   0.942   0.447  16.338  1.0609  0.0085 -0.2085
  587TMC3    C6 8756   0.934   0.576  16.391 -0.1806 -0.4057  0.2334
  587TMC3     C 8757   0.607   0.356  16.235  1.2626 -0.0888 -0.3347
  587TMC3     O 8758   0.623   0.247  16.178  0.0461  0.0656 -0.1911
  587TMC3     H 8759   0.613   0.619  16.311 -0.3793  0.0829 -0.5907
  587TMC3    H1 8760   0.851   0.278  16.249  0.5774 -0.1492  0.1096
  587TMC3    H2 8761   1.023   0.631  16.422 -0.1156 -0.2370 -0.2623
  587TMC3    C7 8762   1.051   0.363  16.395  0.3529 -0.4890 -0.5236
  587TMC3    C8 8763   0.817   0.773  16.415 -0.4476  0.3643  0.3901
  587TMC3    O1 8764   1.121   0.419  16.483  0.3311 -0.2622 -0.1669
  587TMC3    O2 8765   0.918   0.836  16.445  0.1110 -0.0924 -0.0788
  588TMC3    C1 8766   3.006   3.271   9.906 -0.3804 -0.3097  0.6930
  588TMC3    C2 8767   2.980   3.156   9.836 -0.3760 -0.4351  0.1195
  588TMC3    C3 8768   3.033   3.040   9.887  0.3274  0.5441 -0.0703
  588TMC3    C4 8769   3.100   3.275   9.999  0.5030 -0.6676 -0.2022
  588TMC3    C5 8770   3.137   3.156  10.058 -0.4851 -0.1586 -0.0386
  588TMC3    C6 8771   3.111   3.036   9.999  0.4389  0.6412  0.1312
  588TMC3     C 8772   2.968   3.396   9.838 -0.8206  0.8710  0.7235
  588TMC3     O 8773   2.952   3.395   9.718 -0.8922 -0.8456 -0.4421
  588TMC3     H 8774   2.908   3.149   9.755 -0.7696  1.6628  0.2851
  588TMC3    H1 8775   3.136   3.371  10.034 -1.3934 -0.0401  0.0516
  588TMC3    H2 8776   3.156   2.945  10.037 -1.2310 -0.3307 -0.2592
  588TMC3    C7 8777   3.256   3.161  10.145 -0.0114 -1.1336  1.0272
  588TMC3    C8 8778   2.962   2.925   9.839  0.1773 -0.5528 -0.1938
  588TMC3    O1 8779   3.283   3.066  10.216  0.4531  1.1177 -0.2385
  588TMC3    O2 8780   2.890   2.926   9.736 -0.1948 -0.0285  0.0396
  589TMC3    C1 8781   1.461   0.485   1.222 -0.6567  0.1914  0.3144
  589TMC3    C2 8782   1.564   0.525   1.306  0.2112  0.4042  0.0049
  589TMC3    C3 8783   1.688   0.480   1.280 -0.0805  0.3687 -0.4273
  589TMC3    C4 8784   1.477   0.408   1.109 -0.6870 -0.3758  0.4560
  589TMC3    C5 8785   1.607   0.371   1.083  0.1211 -0.3546 -0.7413
  589TMC3    C6 8786   1.711   0.393   1.171  0.1669  0.0607 -0.4306
  589TMC3     C 8787   1.352   0.568   1.221  0.0771 -0.8537  0.1193
  589TMC3     O 8788   1.307   0.599   1.110 -0.1578 -0.1253  0.1504
  589TMC3     H 8789   1.550   0.579   1.399  1.1792 -1.5215  1.2753
  589TMC3    H1 8790   1.399   0.387   1.037 -0.1404  0.8658 -0.5037
  589TMC3    H2 8791   1.810   0.354   1.152  0.6414  1.4069 -0.7057
  589TMC3    C7 8792   1.622   0.276   0.972 -0.4990  0.1992  0.1237
  589TMC3    C8 8793   1.794   0.515   1.372  0.0213 -0.7848  0.7561
  589TMC3    O1 8794   1.520   0.243   0.913  0.3661  0.2080  0.0623
  589TMC3    O2 8795   1.755   0.578   1.465 -0.5609 -0.1461 -0.3144
  590MPD2     C 8796   1.596   3.640  16.645  0.6845 -0.2372  0.5317
  590MPD2    C1 8797   1.528   3.739  16.574 -0.2319 -0.3677 -0.2570
  590MPD2    C2 8798   1.559   3.749  16.440  0.0219 -0.0815  0.1472
  590MPD2    C3 8799   1.646   3.665  16.377 -0.5056 -0.0212  0.2062
  590MPD2    C4 8800   1.711   3.564  16.445 -0.2949  0.0454  0.5066
  590MPD2    C5 8801   1.680   3.551  16.580  0.3578  0.1044  0.7173
  590MPD2     H 8802   1.514   3.819  16.371  2.3445  2.2139  0.9227
  590MPD2    H1 8803   1.791   3.497  16.417  1.8383  3.9901 -2.9258
  590MPD2    H2 8804   1.582   3.621  16.751  0.5807 -1.5405  0.2880
  590MPD2    H3 8805   1.736   3.486  16.646  0.3079  0.8358  1.4816
  590MPD2     N 8806   1.660   3.680  16.240 -0.3023  0.5991  0.3722
  590MPD2    H5 8807   1.603   3.748  16.190 -2.0385 -1.1202  0.0059
  590MPD2    N1 8808   1.425   3.816  16.640  0.0225  0.2131  0.5436
  590MPD2    H7 8809   1.381   3.776  16.722  1.4802 -1.1133  0.6796
  591TMC3    C1 8810   1.729   3.647  16.016  0.3440  0.0269 -0.3540
  591TMC3    C2 8811   1.835   3.599  15.942 -0.8320  0.2427  0.6719
  591TMC3    C3 8812   1.867   3.665  15.830 -0.0156 -0.5949 -0.6082
  591TMC3    C4 8813   1.650   3.748  15.969 -0.2000  0.0630  0.1645
  591TMC3    C5 8814   1.695   3.815  15.858 -0.7025  0.6511 -0.0758
  591TMC3    C6 8815   1.804   3.776  15.784  0.0449 -0.9237  0.4049
  591TMC3     C 8816   1.735   3.606  16.156 -0.1936 -0.3181 -0.4135
  591TMC3     O 8817   1.822   3.527  16.184  0.2362 -0.1499  0.3901
  591TMC3     H 8818   1.906   3.524  15.976  0.3754  0.2471 -1.8169
  591TMC3    H1 8819   1.554   3.774  16.014 -0.9254  0.1826 -1.4561
  591TMC3    H2 8820   1.826   3.812  15.684  1.3882 -2.0931  0.2855
  591TMC3    C7 8821   1.607   3.923  15.802  0.2586  0.1954  0.0266
  591TMC3    C8 8822   1.996   3.622  15.773 -1.0254 -0.1658 -0.2100
  591TMC3    O1 8823   1.492   3.923  15.840  0.2531 -0.1147 -0.2804
  591TMC3    O2 8824   2.080   3.585  15.857 -0.3129  0.0493  0.2595
  592MPD2     C 8825   2.063   1.053  11.543 -0.0654  0.7284  0.2689
  592MPD2    C1 8826   2.061   1.122  11.659 -0.1721  0.1394  0.1004
  592MPD2    C2 8827   2.023   1.049  11.774 -0.0064  0.7737  0.6253
  592MPD2    C3 8828   1.968   0.924  11.761 -0.3207  0.1250 -0.0026
  592MPD2    C4 8829   1.968   0.862  11.638 -0.0780 -0.4559 -0.3285
  592MPD2    C5 8830   2.021   0.922  11.528  0.3378 -0.7359  0.3203
  592MPD2     H 8831   2.037   1.095  11.872 -1.7523 -0.5202  1.4664
  592MPD2    H1 8832   1.924   0.766  11.617 -2.7369  0.1739  2.2975
  592MPD2    H2 8833   2.113   1.100  11.458 -1.3088  1.4689 -0.0451
  592MPD2    H3 8834   2.035   0.867  11.437  2.7688  1.2978 -0.5492
  592MPD2     N 8835   1.905   0.866  11.872 -0.2040 -0.5719 -0.0981
  592MPD2    H5 8836   1.892   0.919  11.958  2.6301 -0.3141  0.1923
  592MPD2    N1 8837   2.113   1.253  11.669 -0.1470 -0.7310 -0.6448
  592MPD2    H7 8838   2.114   1.312  11.587 -0.2169  1.3564  0.8407
  593TMC3    C1 8839   2.162   1.478  11.753 -0.3913 -1.3018 -0.0363
  593TMC3    C2 8840   2.153   1.558  11.863 -0.9561  0.6870 -0.0351
  593TMC3    C3 8841   2.221   1.678  11.848 -0.1195  0.1660 -0.2419
  593TMC3    C4 8842   2.244   1.502  11.646  0.5899  0.0619 -0.1620
  593TMC3    C5 8843   2.306   1.622  11.634 -0.3950  0.5152  0.3663
  593TMC3    C6 8844   2.296   1.704  11.742 -0.6358  0.0422 -0.1432
  593TMC3     C 8845   2.127   1.335  11.779 -0.1243  0.0401 -0.1807
  593TMC3     O 8846   2.107   1.307  11.898 -0.5253  0.2748  0.2504
  593TMC3     H 8847   2.081   1.532  11.939 -2.9060 -1.9368 -2.7791
  593TMC3    H1 8848   2.257   1.419  11.577 -0.2159 -1.6371  1.7519
  593TMC3    H2 8849   2.351   1.797  11.732 -2.9027  1.3228 -0.5337
  593TMC3    C7 8850   2.373   1.663  11.512 -1.0448 -0.3740 -0.0153
  593TMC3    C8 8851   2.219   1.768  11.957  0.9639 -0.0931 -0.0125
  593TMC3    O1 8852   2.423   1.774  11.527  0.3141  0.3470  0.0400
  593TMC3    O2 8853   2.116   1.776  12.027  0.2879 -0.3882 -0.1275
  594MPD2     C 8854   0.312   4.577  14.022  0.0219 -0.3914 -0.0148
  594MPD2    C1 8855   0.352   4.558  14.155  0.8674  0.0005  0.1921
  594MPD2    C2 8856   0.476   4.600  14.194 -0.2367 -0.4368 -0.0848
  594MPD2    C3 8857   0.558   4.677  14.110  0.4175 -0.7073 -0.9014
  594MPD2    C4 8858   0.504   4.707  13.985  0.1114  0.8711 -0.3561
  594MPD2    C5 8859   0.390   4.659  13.933 -0.5952  0.3438  0.2713
  594MPD2     H 8860   0.506   4.574  14.295  0.6680 -1.4715 -0.6179
  594MPD2    H1 8861   0.558   0.043  13.924 -0.6668  0.1318 -1.9104
  594MPD2    H2 8862   0.212   4.550  13.989  0.5777 -2.2983 -0.1444
  594MPD2    H3 8863   0.368   4.691  13.832 -1.6721 -0.6642  0.1885
  594MPD2     N 8864   0.678   4.722  14.156  0.3929 -0.7140  0.3055
  594MPD2    H5 8865   0.706   4.699  14.250  1.7776 -0.2059  0.0251
  594MPD2    N1 8866   0.261   4.489  14.243  0.6317 -0.6947 -0.3544
  594MPD2    H7 8867   0.167   4.467  14.210  0.1735  0.2054  0.3193
  595TMC3    C1 8868   1.078   0.216  14.188  0.3292 -0.1418 -0.3910
  595TMC3    C2 8869   0.999   0.132  14.115 -0.3434 -0.3599 -0.1649
  595TMC3    C3 8870   0.879   0.100  14.173  0.4051  0.2234  0.8799
  595TMC3    C4 8871   1.050   0.266  14.312  0.1659 -0.5886  0.1269
  595TMC3    C5 8872   0.936   0.232  14.369  0.4929 -0.3889  0.5638
  595TMC3    C6 8873   0.847   0.147  14.298 -0.4503 -0.0383  0.5749
  595TMC3     C 8874   1.192   0.288  14.128  1.0003  1.6314  0.3734
  595TMC3     O 8875   1.202   0.409  14.145 -0.1266  0.4993 -0.4146
  595TMC3     H 8876   1.028   0.092  14.019  1.8687 -0.9508  0.7604
  595TMC3    H1 8877   1.123   0.327  14.365 -0.0640 -0.0883 -0.1360
  595TMC3    H2 8878   0.759   0.115  14.352  0.3182  0.8781  2.3400
  595TMC3    C7 8879   0.885   0.330  14.474  0.0215 -0.2370  0.1704
  595TMC3    C8 8880   0.773   0.057  14.082 -0.1865 -0.4546 -0.1213
  595TMC3    O1 8881   0.765   0.357  14.478  0.2858 -0.0580 -0.1485
  595TMC3    O2 8882   0.777   0.085  13.960 -0.7120  0.1942 -0.3937
  596MPD2     C 8883   0.080   2.712  16.798 -0.2284  0.0607  0.4166
  596MPD2    C1 8884   0.107   2.837  16.743  0.3719 -0.2450  0.2290
  596MPD2    C2 8885   0.155   2.841  16.617 -0.3801 -1.0022  0.1488
  596MPD2    C3 8886   0.174   2.726  16.543 -0.2071 -0.8790  0.1104
  596MPD2    C4 8887   0.155   2.602  16.602 -0.1317  0.1890 -0.8181
  596MPD2    C5 8888   0.112   2.594  16.728 -0.9393 -0.5242 -0.0446
  596MPD2     H 8889   0.180   2.938  16.575  0.0690 -0.1046  2.5247
  596MPD2    H1 8890   0.183   2.507  16.557  0.5648  0.0953 -0.1978
  596MPD2    H2 8891   0.034   2.696  16.895 -1.5609 -0.5112 -0.3049
  596MPD2    H3 8892   0.114   2.495  16.771  2.0607 -0.3539  0.2048
  596MPD2     N 8893   0.218   2.727  16.406  0.1297  0.0425 -0.8636
  596MPD2    H5 8894   0.245   2.638  16.366 -0.9460 -0.7583  0.1957
  596MPD2    N1 8895   0.066   2.959  16.796 -0.3248 -0.1998 -0.2571
  596MPD2    H7 8896   0.100   3.042  16.750 -1.8189 -0.1191 -1.2262
  597TMC3    C1 8897   4.699   3.113  16.934 -0.6639  0.8012  0.4551
  597TMC3    C2 8898   0.070   3.204  16.938  0.0689  0.0841 -0.4630
  597TMC3    C3 8899   0.056   3.335  16.962 -0.1912  0.2568 -0.8923
  597TMC3    C4 8900   4.574   3.157  16.973 -0.1967 -0.3491  0.5807
  597TMC3    C5 8901   4.564   3.295  17.010 -0.5623  0.2304 -0.0175
  597TMC3    C6 8902   4.665   3.387  16.992  0.0490 -0.1709 -0.3724
  597TMC3     C 8903   4.723   2.976  16.904  0.3779  0.4104  0.2918
  597TMC3     O 8904   4.656   2.891  16.960  0.0809  0.0150  0.2724
  597TMC3     H 8905   0.173   3.174  16.922  0.5518  0.7533  1.3516
  597TMC3    H1 8906   4.487   3.093  16.974 -0.5967  0.1596 -1.7507
  597TMC3    H2 8907   4.653   3.488  17.029  0.5347 -0.5966  0.9463
  597TMC3    C7 8908   4.437   3.338  17.081 -0.7856  0.2094 -0.7825
  597TMC3    C8 8909   0.171   3.419  16.965  0.5368  0.5545  0.9278
  597TMC3    O1 8910   4.330   3.281  17.061 -0.3150 -0.3550  0.3187
  597TMC3    O2 8911   0.266   3.368  17.021  0.0339 -0.2405  0.1878
  598TMC3    C1 8912   2.890   4.366  15.464  0.6989  0.6278 -0.6570
  598TMC3    C2 8913   2.789   4.272  15.453  0.2875  0.0598 -0.0572
  598TMC3    C3 8914   2.658   4.308  15.444  0.2333 -0.3154  0.3949
  598TMC3    C4 8915   2.863   4.497  15.485  1.0278  0.4968 -0.3308
  598TMC3    C5 8916   2.730   4.531  15.480  0.1846 -0.0761  0.2550
  598TMC3    C6 8917   2.634   4.438  15.463 -0.4539  0.6729 -0.3842
  598TMC3     C 8918   3.015   4.337  15.405 -0.1625 -0.0743  0.5609
  598TMC3     O 8919   3.066   4.226  15.422  0.0079 -0.2539 -0.2153
  598TMC3     H 8920   2.818   4.171  15.428 -1.2748 -0.0407 -1.4320
  598TMC3    H1 8921   2.935   4.577  15.492  1.2000  0.5092 -2.2548
  598TMC3    H2 8922   2.531   4.469  15.450 -0.5958 -0.3266 -1.5778
  598TMC3    C7 8923   2.718   4.647  15.394  0.5265  0.2113 -0.4956
  598TMC3    C8 8924   2.590   4.268  15.322  0.2206  0.2449  0.1244
  598TMC3    O1 8925   2.795   0.000  15.418 -0.3487  0.1152 -0.2149
  598TMC3    O2 8926   2.572   4.363  15.247  0.4202  0.4013 -0.6409
  599MPD2     C 8927   2.858   1.841  15.729  0.2273  0.2947  0.3214
  599MPD2    C1 8928   2.889   1.737  15.812  1.2351  0.9645  0.4644
  599MPD2    C2 8929   2.802   1.720  15.919 -0.1560  0.0206 -0.3331
  599MPD2    C3 8930   2.698   1.808  15.947 -0.4358 -0.4301  0.2331
  599MPD2    C4 8931   2.669   1.908  15.856 -0.5477  0.4207  1.0402
  599MPD2    C5 8932   2.755   1.924  15.747 -0.3792  0.0917 -0.8778
  599MPD2     H 8933   2.829   1.646  15.993  0.8911  0.1840 -0.5454
  599MPD2    H1 8934   2.580   1.967  15.871  0.1924  2.2783 -1.9830
  599MPD2    H2 8935   2.926   1.877  15.653  3.5195 -0.5189  2.8914
  599MPD2    H3 8936   2.728   2.006  15.682 -1.5905  0.9487  0.6994
  599MPD2     N 8937   2.619   1.805  16.061  0.2207  0.1519 -0.2765
  599MPD2    H5 8938   2.565   1.890  16.071 -1.1814 -0.7626 -0.1550
  599MPD2    N1 8939   2.999   1.651  15.808 -0.3352 -0.0440  0.1636
  599MPD2    H7 8940   2.995   1.578  15.877  0.4824 -2.4181 -2.2964
  600TMC3    C1 8941   2.563   1.745  16.287 -0.3975  0.9217  0.5345
  600TMC3    C2 8942   2.502   1.636  16.352  0.2656  0.5701 -0.1826
  600TMC3    C3 8943   2.471   1.666  16.490 -0.2605  0.2987  0.2896
  600TMC3    C4 8944   2.564   1.871  16.338  0.6768 -0.7093 -0.2170
  600TMC3    C5 8945   2.520   1.891  16.473 -0.6777 -0.5250  0.1442
  600TMC3    C6 8946   2.468   1.788  16.545  0.8300 -0.1641  0.9195
  600TMC3     C 8947   2.630   1.716  16.163  0.1546 -0.2379 -0.4353
  600TMC3     O 8948   2.680   1.604  16.155  0.2154 -0.0402 -0.2805
  600TMC3     H 8949   2.512   1.535  16.314  1.4934 -0.3941  2.6570
  600TMC3    H1 8950   2.593   1.957  16.277 -0.9846 -0.1926 -0.2627
  600TMC3    H2 8951   2.431   1.792  16.647  0.1793  1.7797  0.6129
  600TMC3    C7 8952   2.493   2.027  16.524 -0.1799 -0.2978 -0.2471
  600TMC3    C8 8953   2.409   1.561  16.573  0.1019  0.2926 -0.1318
  600TMC3    O1 8954   2.439   2.035  16.634 -0.3519 -0.2367  0.6471
  600TMC3    O2 8955   2.464   1.534  16.678 -0.0589 -0.4096 -0.6600
  601MPD2     C 8956   4.540   0.175   0.129  0.2388  0.2638 -0.3282
  601MPD2    C1 8957   4.437   0.133   0.056  0.5055 -0.2327 -0.6321
  601MPD2    C2 8958   4.418   4.736   0.038  0.7061  0.3239  0.3231
  601MPD2    C3 8959   4.496   4.641   0.099  0.6066  0.7957  0.2101
  601MPD2    C4 8960   4.595   4.685   0.176  0.7267 -0.1130 -0.2040
  601MPD2    C5 8961   4.616   0.083   0.192 -0.3294  0.7276  0.4312
  601MPD2     H 8962   4.322   4.700  17.743 -0.2659  0.4739  2.5919
  601MPD2    H1 8963   4.653   4.607   0.224 -0.2839 -0.3902  0.5552
  601MPD2    H2 8964   4.563   0.281   0.136 -0.9396  0.5345 -0.6428
  601MPD2    H3 8965   4.705   0.112   0.245  1.2080  0.1517 -1.8234
  601MPD2     N 8966   4.474   4.499   0.090  0.4150 -0.1624 -0.6042
  601MPD2    H5 8967   4.544   4.436   0.128  2.1631  1.9358 -0.3991
  601MPD2    N1 8968   4.336   0.208  17.739 -1.0072  0.2978  0.5895
  601MPD2    H7 8969   4.266   0.152  17.691  0.4079 -0.7885 -0.2041
  602TMC3    C1 8970   4.202   0.385  17.680  0.3969  0.0531  0.0939
  602TMC3    C2 8971   4.196   0.521  17.660  0.1532  0.1526  0.1227
  602TMC3    C3 8972   4.075   0.569  17.614 -0.2838 -0.0318 -0.2843
  602TMC3    C4 8973   4.093   0.298  17.660  0.0802 -0.2984  0.0330
  602TMC3    C5 8974   3.978   0.357  17.611 -0.4222 -0.1647  0.0203
  602TMC3    C6 8975   3.979   0.490  17.570 -0.0478 -0.4114  0.0302
  602TMC3     C 8976   4.322   0.343   0.010  0.1276  0.3452  0.2572
  602TMC3     O 8977   4.392   0.423   0.062 -0.0617  0.9747 -0.2783
  602TMC3     H 8978   4.281   0.587  17.675 -0.3120  0.9299 -0.6620
  602TMC3    H1 8979   4.098   0.194  17.689 -3.7714 -0.4747  0.1483
  602TMC3    H2 8980   3.896   0.529  17.511 -0.0930 -0.3785  0.1165
  602TMC3    C7 8981   3.861   0.270  17.568  0.3485 -0.3094 -0.1678
  602TMC3    C8 8982   4.064   0.707  17.584  0.0239  0.5752 -0.5943
  602TMC3    O1 8983   3.874   0.151  17.535  0.1410 -0.2734  0.1432
  602TMC3    O2 8984   4.167   0.766  17.563 -0.3760  0.4394 -0.1059
  603TMC3    C1 8985   2.581   0.694  11.263  0.4330  0.4257  0.1080
  603TMC3    C2 8986   2.612   0.658  11.388  0.4132  0.5412 -0.3000
  603TMC3    C3 8987   2.687   0.746  11.453 -0.1968 -0.5141  0.7342
  603TMC3    C4 8988   2.599   0.827  11.215 -0.0746 -0.6091  0.1583
  603TMC3    C5 8989   2.685   0.910  11.286  0.0162  0.4353 -0.2391
  603TMC3    C6 8990   2.727   0.870  11.413  0.0461  0.4011  0.4024
  603TMC3     C 8991   2.607   0.604  11.155 -0.3218 -0.5517 -0.7127
  603TMC3     O 8992   2.640   0.664  11.053  0.1534 -0.1868  0.2305
  603TMC3     H 8993   2.624   0.557  11.426 -2.2744  0.6874  0.9179
  603TMC3    H1 8994   2.564   0.863  11.119  1.2777  0.9530  0.2534
  603TMC3    H2 8995   2.815   0.918  11.454 -0.2002  0.7238  0.5571
  603TMC3    C7 8996   2.789   0.980  11.213 -0.1768  0.4380 -0.4780
  603TMC3    C8 8997   2.685   0.720  11.593 -0.3574  0.3213  0.1528
  603TMC3    O1 8998   2.873   1.036  11.285  0.0076 -0.3920 -0.1122
  603TMC3    O2 8999   2.611   0.633  11.631  0.4671 -0.2437  0.5236
  604MPD2     C 9000   3.829   4.261  16.109  1.0733  0.5474 -0.5256
  604MPD2    C1 9001   3.733   4.230  16.015 -0.0915 -0.6026  0.0196
  604MPD2    C2 9002   3.759   4.123  15.928 -0.1373 -0.2137  0.7231
  604MPD2    C3 9003   3.882   4.052  15.927 -0.1705  0.4621  0.1821
  604MPD2    C4 9004   3.974   4.081  16.027 -0.7366  0.0678 -0.0459
  604MPD2    C5 9005   3.954   4.188  16.110  0.0104  0.3511  1.1044
  604MPD2     H 9006   3.692   4.105  15.845 -0.4678  1.0760  0.7096
  604MPD2    H1 9007   4.067   4.026  16.035 -0.1030  0.9250 -1.5108
  604MPD2    H2 9008   3.807   4.340  16.179  2.1629 -0.1791  0.6461
  604MPD2    H3 9009   4.035   4.216  16.177  0.9080  0.4965 -0.0304
  604MPD2     N 9010   3.906   3.967  15.820 -0.2497  0.5226 -0.0299
  604MPD2    H5 9011   3.835   3.970  15.748 -2.3654 -1.6122  1.9826
  604MPD2    N1 9012   3.618   4.308  16.006 -0.0650 -0.0351  0.1524
  604MPD2    H7 9013   3.625   4.395  16.058  0.8811 -0.8897  1.4730
  605TMC3    C1 9014   3.404   4.389  15.982 -0.5425  0.3787 -0.4976
  605TMC3    C2 9015   3.462   4.500  16.029  0.2801  0.5148  0.1795
  605TMC3    C3 9016   3.416   4.560  16.141  0.4783 -1.0072 -0.2699
  605TMC3    C4 9017   3.279   4.347  16.021  0.0807  0.4071 -0.0307
  605TMC3    C5 9018   3.230   4.402  16.137  0.0506 -0.5320  0.7700
  605TMC3    C6 9019   3.302   4.505  16.198  0.3313 -0.2998 -0.6338
  605TMC3     C 9020   3.500   4.285  15.945 -0.0871  0.5173 -0.9014
  605TMC3     O 9021   3.457   4.188  15.888  0.3968  0.0127  0.4223
  605TMC3     H 9022   3.551   4.543  15.985 -1.3208  1.3884 -2.1800
  605TMC3    H1 9023   3.221   4.273  15.966  2.6526 -1.1308 -0.6381
  605TMC3    H2 9024   3.258   4.543  16.289 -0.6107 -1.6189 -0.5437
  605TMC3    C7 9025   3.089   4.415  16.150  0.3693 -0.6640 -0.0918
  605TMC3    C8 9026   3.523   4.601  16.223  0.1381  0.2846  0.1564
  605TMC3    O1 9027   3.049   4.527  16.167 -0.1422  1.0000 -0.0609
  605TMC3    O2 9028   3.633   4.554  16.189 -0.5139 -0.1858 -0.3016
  606TMC3    C1 9029   0.283   2.620  17.044 -0.0892 -0.3185  0.0081
  606TMC3    C2 9030   0.252   2.676  17.171 -0.2083 -0.7513  0.6990
  606TMC3    C3 9031   0.184   2.603  17.255 -0.1991  0.4472 -0.7534
  606TMC3    C4 9032   0.253   2.492  17.011 -0.4182 -0.0303  0.4821
  606TMC3    C5 9033   0.173   2.419  17.102  0.2137  0.0228 -0.5532
  606TMC3    C6 9034   0.140   2.475  17.223 -0.7966  0.4407  0.0262
  606TMC3     C 9035   0.378   2.683  16.963 -0.1048 -0.3159  0.0966
  606TMC3     O 9036   0.441   2.611  16.880  0.2111 -0.2981 -0.4221
  606TMC3     H 9037   0.307   2.760  17.212 -0.8004 -1.1091  2.2214
  606TMC3    H1 9038   0.276   2.441  16.918 -0.3137  0.9181 -0.0131
  606TMC3    H2 9039   0.109   2.406  17.300 -3.2715  0.8351 -0.6129
  606TMC3    C7 9040   0.137   2.288  17.057  0.3757 -0.2486  0.0850
  606TMC3    C8 9041   0.190   2.645  17.394 -0.0516  0.8181 -0.3843
  606TMC3    O1 9042   0.191   2.233  16.960  0.1646 -0.0304  0.1118
  606TMC3    O2 9043   0.273   2.732  17.422  0.3622 -0.1165  0.5523
  607MPD2     C 9044   2.192   0.224  11.775 -0.3115 -0.0067 -0.0749
  607MPD2    C1 9045   2.106   0.326  11.816 -1.4360 -0.3373  0.0938
  607MPD2    C2 9046   2.008   0.298  11.909 -0.2920 -0.3004 -0.8652
  607MPD2    C3 9047   1.998   0.172  11.969  0.3844  0.3601 -0.0628
  607MPD2    C4 9048   2.084   0.072  11.926  0.3832  0.0984  0.6472
  607MPD2    C5 9049   2.186   0.104  11.839  0.0831 -0.3882 -0.5463
  607MPD2     H 9050   1.956   0.389  11.938  1.9446 -0.0193  2.3008
  607MPD2    H1 9051   2.085   4.706  11.964 -2.4501 -0.7566 -1.5711
  607MPD2    H2 9052   2.274   0.238  11.706 -0.4700 -0.8996 -0.4530
  607MPD2    H3 9053   2.261   0.027  11.826  0.5787 -0.4344  2.8051
  607MPD2     N 9054   1.919   0.166  12.081  0.1612  0.0920  0.7091
  607MPD2    H5 9055   1.871   0.250  12.112  2.6195  1.4229  0.9094
  607MPD2    N1 9056   2.123   0.464  11.787  0.0662  0.0625 -0.2323
  607MPD2    H7 9057   2.069   0.526  11.846  0.6484 -0.2049  0.5850
  608TMC3    C1 9058   2.236   0.668  11.738  0.1663 -0.0637 -0.3468
  608TMC3    C2 9059   2.205   0.697  11.868  0.3895 -0.4297  0.5997
  608TMC3    C3 9060   2.250   0.821  11.919 -0.3277 -0.3399 -0.1242
  608TMC3    C4 9061   2.326   0.745  11.667 -0.0620  0.1510  0.1544
  608TMC3    C5 9062   2.371   0.856  11.726  0.2575 -0.4619  0.2391
  608TMC3    C6 9063   2.331   0.899  11.849 -0.1801 -1.5291  0.1636
  608TMC3     C 9064   2.215   0.524  11.706 -0.5201 -0.4048 -0.1671
  608TMC3     O 9065   2.289   0.477  11.623 -0.2751 -0.0282 -0.2039
  608TMC3     H 9066   2.144   0.632  11.929  0.2824 -0.3142  0.6166
  608TMC3    H1 9067   2.353   0.709  11.568  0.6082 -2.5003  1.2932
  608TMC3    H2 9068   2.337   1.000  11.887 -0.2377 -1.4106 -0.1389
  608TMC3    C7 9069   2.429   0.960  11.630 -0.4907 -0.3019 -0.2129
  608TMC3    C8 9070   2.191   0.871  12.042 -0.0175 -0.1978 -0.3908
  608TMC3    O1 9071   2.434   0.938  11.510  0.2380 -0.3849  0.3637
  608TMC3    O2 9072   2.196   0.991  12.066 -0.2619  0.0186 -0.0085
  609TMC3    C1 9073   2.256   4.429   9.101  0.6567 -0.0515  0.5561
  609TMC3    C2 9074   2.329   4.420   8.992  0.5444 -0.7616 -0.5424
  609TMC3    C3 9075   2.443   4.344   8.991  0.5558  0.3564 -0.8659
  609TMC3    C4 9076   2.305   4.386   9.221 -0.9431 -0.4514 -0.4751
  609TMC3    C5 9077   2.416   4.303   9.218 -0.1203  0.2129 -0.1147
  609TMC3    C6 9078   2.490   4.283   9.108  0.0957  0.4052 -0.2271
  609TMC3     C 9079   2.153   4.531   9.109  0.4139 -0.1900 -0.7094
  609TMC3     O 9080   2.168   4.633   9.046 -0.4783  0.2116 -0.2882
  609TMC3     H 9081   2.287   4.475   8.909 -0.3470  2.8409  2.2754
  609TMC3    H1 9082   2.239   4.401   9.305  0.8870 -0.3468  0.9450
  609TMC3    H2 9083   2.582   4.226   9.105 -0.3839 -0.3449 -0.8006
  609TMC3    C7 9084   2.454   4.248   9.345 -0.4079 -0.2246  0.5157
  609TMC3    C8 9085   2.546   4.361   8.887 -0.0751  0.0573 -0.9787
  609TMC3    O1 9086   2.381   4.274   9.441  0.2989 -0.0730  0.3734
  609TMC3    O2 9087   2.635   4.275   8.869 -0.4677  0.9631 -0.0758
  610TMC3    C1 9088   2.202   0.503  12.905  0.1035 -0.3827  0.4710
  610TMC3    C2 9089   2.281   0.580  12.842 -0.6654 -0.3089 -0.7184
  610TMC3    C3 9090   2.392   0.530  12.779 -0.8005  0.3401 -0.8997
  610TMC3    C4 9091   2.233   0.373  12.926  0.0171 -0.3938  0.3957
  610TMC3    C5 9092   2.345   0.322  12.870 -0.0299  0.4033 -1.0149
  610TMC3    C6 9093   2.423   0.399  12.792 -0.0071  0.4513 -0.3735
  610TMC3     C 9094   2.159   0.564  13.030  0.1069 -0.1743 -0.7819
  610TMC3     O 9095   2.202   0.509  13.130  1.1083 -0.2630  0.2170
  610TMC3     H 9096   2.269   0.687  12.855 -1.6564 -1.0994  4.7567
  610TMC3    H1 9097   2.183   0.313  13.001  0.0170  1.3115  1.7753
  610TMC3    H2 9098   2.514   0.367  12.743 -1.0449  0.2039 -2.1441
  610TMC3    C7 9099   2.397   0.205  12.935  0.3424  0.0632  0.0979
  610TMC3    C8 9100   2.458   0.614  12.685  0.8608 -0.3261 -0.1789
  610TMC3    O1 9101   2.317   0.140  12.998 -0.0122  0.3193 -0.1080
  610TMC3    O2 9102   2.574   0.584  12.651 -0.2907  0.6185  0.0151
  611MPD2     C 9103   2.491   0.318  10.394 -0.5618  0.3938  0.1648
  611MPD2    C1 9104   2.401   0.413  10.345  0.1203  0.5353  0.3014
  611MPD2    C2 9105   2.424   0.550  10.347 -0.0925  0.3035  0.2261
  611MPD2    C3 9106   2.549   0.597  10.382 -0.1920  0.2567  0.6485
  611MPD2    C4 9107   2.636   0.512  10.439 -0.2322  0.0899 -0.0281
  611MPD2    C5 9108   2.606   0.376  10.445 -0.0885  0.0029 -0.2825
  611MPD2     H 9109   2.358   0.618  10.296 -0.5980  0.4849  1.1275
  611MPD2    H1 9110   2.724   0.558  10.482  0.7613 -1.2498 -0.6440
  611MPD2    H2 9111   2.478   0.210  10.397 -0.1403  0.4006  2.1250
  611MPD2    H3 9112   2.682   0.310  10.485 -1.2077 -2.0067 -1.5103
  611MPD2     N 9113   2.593   0.734  10.366  0.0784 -0.0604  0.3154
  611MPD2    H5 9114   2.675   0.759  10.421  0.3255 -2.4932  1.0711
  611MPD2    N1 9115   2.285   0.349  10.300 -0.2265 -0.2610 -0.0287
  611MPD2    H7 9116   2.279   0.248  10.306 -0.4333 -0.2519 -0.1024
  612TMC3    C1 9117   2.613   0.942  10.287 -0.1102 -0.0696  0.0469
  612TMC3    C2 9118   2.677   0.989  10.398  0.2351 -0.6269  0.1575
  612TMC3    C3 9119   2.750   1.103  10.388 -0.1457 -0.4351 -0.1438
  612TMC3    C4 9120   2.619   1.001  10.164 -0.0020  0.3857 -0.0483
  612TMC3    C5 9121   2.698   1.116  10.153 -0.3054  0.1134 -0.2505
  612TMC3    C6 9122   2.766   1.162  10.265 -0.0795  0.3264 -0.3773
  612TMC3     C 9123   2.535   0.824  10.288  0.7608 -0.1751 -0.3659
  612TMC3     O 9124   2.450   0.818  10.204 -0.2288 -0.0265  0.0768
  612TMC3     H 9125   2.675   0.932  10.490  0.4108 -2.0640 -0.7382
  612TMC3    H1 9126   2.565   0.960  10.080  0.6599 -4.5590  1.9632
  612TMC3    H2 9127   2.810   1.261  10.257  2.0463 -0.5187  0.9308
  612TMC3    C7 9128   2.665   1.211  10.056 -0.5679 -0.0107 -0.1056
  612TMC3    C8 9129   2.823   1.150  10.508  0.3718 -0.1398  0.1954
  612TMC3    O1 9130   2.721   1.320  10.063 -0.6884 -0.2153 -0.1059
  612TMC3    O2 9131   2.883   1.256  10.503  0.2603  0.0347 -0.2930
  613MPD2     C 9132   1.313   3.491  16.332 -0.0832 -0.6292 -0.2148
  613MPD2    C1 9133   1.339   3.380  16.250 -0.7288  0.5855  0.4673
  613MPD2    C2 9134   1.322   3.251  16.294  0.0634 -0.4574 -0.4463
  613MPD2    C3 9135   1.255   3.238  16.421 -0.5152 -0.2048  0.1175
  613MPD2    C4 9136   1.232   3.353  16.498  0.2159  0.5133 -0.5539
  613MPD2    C5 9137   1.260   3.480  16.453  0.1350  0.1820 -0.5590
  613MPD2     H 9138   1.343   3.167  16.229  3.3469  0.1464 -0.1891
  613MPD2    H1 9139   1.181   3.351  16.594 -3.3009 -1.0714 -2.4271
  613MPD2    H2 9140   1.345   3.588  16.296  1.8065 -0.8759  0.7735
  613MPD2    H3 9141   1.234   3.575  16.500 -1.5500 -1.4938  1.9535
  613MPD2     N 9142   1.217   3.105  16.459 -0.0589  1.0973  0.2853
  613MPD2    H5 9143   1.252   3.029  16.401 -0.5689 -0.0637  1.5177
  613MPD2    N1 9144   1.381   3.388  16.111 -0.5496 -0.6550  0.1902
  613MPD2    H7 9145   1.401   3.300  16.063 -1.4468 -0.7533  0.0040
  614TMC3    C1 9146   1.408   3.462  15.894 -0.3756  0.2776  0.3902
  614TMC3    C2 9147   1.472   3.343  15.882  0.7212  0.1704  0.7875
  614TMC3    C3 9148   1.410   3.244  15.804  0.0336 -0.1031 -0.2816
  614TMC3    C4 9149   1.298   3.484  15.821  0.1329  0.0931 -0.2154
  614TMC3    C5 9150   1.239   3.386  15.749  0.2741 -0.4985 -0.1027
  614TMC3    C6 9151   1.291   3.261  15.738 -0.1761 -0.1002 -0.4514
  614TMC3     C 9152   1.404   3.502  16.035 -0.0935 -0.1407 -1.4783
  614TMC3     O 9153   1.376   3.620  16.055  0.6888  0.6681  0.0036
  614TMC3     H 9154   1.569   3.313  15.920  0.3820 -0.2257  1.3230
  614TMC3    H1 9155   1.246   3.579  15.821  1.9328  1.0855 -2.1130
  614TMC3    H2 9156   1.241   3.182  15.683  0.7979 -1.9550  1.3690
  614TMC3    C7 9157   1.115   3.424  15.680  0.1095  0.0892 -0.2113
  614TMC3    C8 9158   1.402   3.127  15.881  0.2929  0.4908  0.1723
  614TMC3    O1 9159   1.061   3.530  15.715  0.5510 -0.1326  0.0303
  614TMC3    O2 9160   1.412   3.138  16.002 -0.6315  0.3205 -0.7213
  615MPD2     C 9161   0.540   4.711  15.722  0.2371 -0.9659  0.1075
  615MPD2    C1 9162   0.450   0.062  15.668  0.1234 -0.8430  0.5449
  615MPD2    C2 9163   0.353   0.005  15.585  0.3050  0.1850 -0.7330
  615MPD2    C3 9164   0.345   4.606  15.560  0.2255  0.0237 -0.2905
  615MPD2    C4 9165   0.444   4.524  15.607  0.4824  0.0120 -0.1548
  615MPD2    C5 9166   0.535   4.575  15.699  0.1570 -0.0363 -0.8981
  615MPD2     H 9167   0.276   0.067  15.541  3.4143  2.6610 -2.6728
  615MPD2    H1 9168   0.451   4.417  15.593 -2.4290 -0.1507 -0.3867
  615MPD2    H2 9169   0.621   0.005  15.788  1.3075 -1.3032 -1.0526
  615MPD2    H3 9170   0.606   4.510  15.749 -2.1329 -1.8959 -0.0714
  615MPD2     N 9171   0.240   4.562  15.473  0.1006  0.0776  0.8087
  615MPD2    H5 9172   0.182   4.638  15.439 -0.0668 -0.3630  0.1294
  615MPD2    N1 9173   0.453   0.203  15.692 -0.1020  0.0759 -0.2554
  615MPD2    H7 9174   0.379   0.259  15.653 -1.0488  2.1833  4.5598
  616TMC3    C1 9175   0.535   0.403  15.792  0.7408 -0.4173 -0.8614
  616TMC3    C2 9176   0.642   0.473  15.843  0.6518 -0.0711 -0.1680
  616TMC3    C3 9177   0.627   0.579  15.925  0.2080 -0.0502  0.1555
  616TMC3    C4 9178   0.418   0.431  15.841  0.2586  0.1792  0.0867
  616TMC3    C5 9179   0.398   0.543  15.919 -0.0795  0.3402  0.5533
  616TMC3    C6 9180   0.504   0.618  15.960  0.8999 -0.1285  0.0043
  616TMC3     C 9181   0.561   0.264  15.761  0.1305 -0.0519  0.5469
  616TMC3     O 9182   0.669   0.227  15.797  0.3656  0.4192  0.4245
  616TMC3     H 9183   0.741   0.446  15.806  0.3141 -4.5279  2.1804
  616TMC3    H1 9184   0.333   0.371  15.812  0.1155  0.2970  0.2617
  616TMC3    H2 9185   0.501   0.709  16.017 -1.2062 -1.4634  2.0022
  616TMC3    C7 9186   0.273   0.611  15.903 -0.4165  0.6567 -0.4923
  616TMC3    C8 9187   0.744   0.658  15.972  0.2462  0.0778  0.3693
  616TMC3    O1 9188   0.187   0.551  15.840 -0.2974 -0.1515 -0.5180
  616TMC3    O2 9189   0.718   0.753  16.042 -0.3196 -0.1733  0.2034
  617MPD2     C 9190   3.158   2.407  13.545 -0.8170 -0.4545  0.3958
  617MPD2    C1 9191   3.228   2.443  13.662  0.0421  0.7614 -0.3509
  617MPD2    C2 9192   3.151   2.477  13.772  0.8334  0.8402  0.0832
  617MPD2    C3 9193   3.014   2.465  13.768  0.4678  0.3949  0.0201
  617MPD2    C4 9194   2.951   2.421  13.652  0.3399 -0.4052  0.1796
  617MPD2    C5 9195   3.023   2.398  13.538  0.3973  0.4976  0.0466
  617MPD2     H 9196   3.194   2.510  13.866 -0.8059  1.3365  0.6546
  617MPD2    H1 9197   2.845   2.397  13.651  0.1143  0.5421  0.8913
  617MPD2    H2 9198   3.217   2.368  13.463 -0.6587  0.6969 -0.0427
  617MPD2    H3 9199   2.990   2.357  13.443  1.3212 -1.8657  0.7186
  617MPD2     N 9200   2.930   2.492  13.883  0.6928 -0.0450  0.4148
  617MPD2    H5 9201   2.831   2.508  13.867  0.4111 -1.4245  0.7949
  617MPD2    N1 9202   3.366   2.451  13.656 -0.0096 -0.2157  0.3857
  617MPD2    H7 9203   3.410   2.439  13.566 -2.7087 -0.5781 -0.8922
  618TMC3    C1 9204   3.572   2.539  13.705  0.6110  0.5482 -0.2680
  618TMC3    C2 9205   3.666   2.567  13.802 -0.2096  0.5955  1.0929
  618TMC3    C3 9206   3.802   2.568  13.762  0.0942 -0.0253 -1.0624
  618TMC3    C4 9207   3.615   2.503  13.582 -0.3186  0.4127  0.0328
  618TMC3    C5 9208   3.749   2.499  13.555  0.0809  0.9459 -0.2267
  618TMC3    C6 9209   3.850   2.529  13.644 -0.1384 -1.0327  0.4905
  618TMC3     C 9210   3.451   2.484  13.760 -0.4169  0.3888 -0.4932
  618TMC3     O 9211   3.427   2.494  13.880 -0.1833  0.4121  0.4562
  618TMC3     H 9212   3.628   2.586  13.901 -2.5005  2.6208 -0.1768
  618TMC3    H1 9213   3.542   2.487  13.503  1.0176  0.5410 -1.2227
  618TMC3    H2 9214   3.955   2.520  13.619 -0.7322 -1.2912 -2.0073
  618TMC3    C7 9215   3.787   2.454  13.424  0.0988 -0.0264  0.7840
  618TMC3    C8 9216   3.895   2.566  13.866 -0.6735 -0.4518 -0.0484
  618TMC3    O1 9217   3.890   2.504  13.377 -0.0518 -0.3942  0.5086
  618TMC3    O2 9218   3.881   2.640  13.964 -0.0869 -0.4470  0.3401
  619MPD2     C 9219   0.329   3.935  13.381  0.2137 -0.1230  0.0904
  619MPD2    C1 9220   0.216   3.953  13.305  0.4316  0.2007 -0.6627
  619MPD2    C2 9221   0.138   3.842  13.262  0.0133 -0.5629 -0.2694
  619MPD2    C3 9222   0.184   3.718  13.290 -0.9835  0.1402  0.2404
  619MPD2    C4 9223   0.297   3.699  13.372  0.5382  1.0151 -0.0285
  619MPD2    C5 9224   0.363   3.807  13.417 -0.4260 -0.7675  0.2987
  619MPD2     H 9225   0.052   3.863  13.200 -0.1823  1.5262  0.7045
  619MPD2    H1 9226   0.340   3.605  13.405  1.8358  1.2558 -1.0008
  619MPD2    H2 9227   0.393   4.011  13.424  0.4234 -1.2917  1.8009
  619MPD2    H3 9228   0.439   3.788  13.493 -0.2576 -0.4240  0.2176
  619MPD2     N 9229   0.116   3.607  13.231 -0.7307 -0.3646 -0.2200
  619MPD2    H5 9230   0.145   3.515  13.263 -1.1473  0.1827  1.7253
  619MPD2    N1 9231   0.168   4.077  13.263  0.1443 -0.0201 -0.0411
  619MPD2    H7 9232   0.086   4.075  13.203 -1.6622 -1.6403  2.4427
  620TMC3    C1 9233   0.080   4.285  13.274  0.4095 -0.5420 -0.0859
  620TMC3    C2 9234   0.007   4.246  13.156 -0.3124 -1.0680  0.1079
  620TMC3    C3 9235   4.601   4.247  13.164 -0.0665 -0.2788  1.2367
  620TMC3    C4 9236   0.016   4.351  13.375 -0.5391  0.3258  0.1522
  620TMC3    C5 9237   4.622   4.365  13.367 -0.3116 -0.0766  0.5539
  620TMC3    C6 9238   4.544   4.314  13.267 -0.2240  0.2523 -0.0392
  620TMC3     C 9239   0.197   4.203  13.310 -0.5596  0.0352  0.4429
  620TMC3     O 9240   0.268   4.229  13.406 -0.9439  0.9655 -0.4418
  620TMC3     H 9241   0.052   4.212  13.064 -0.7042  0.1666 -0.5480
  620TMC3    H1 9242   0.073   4.390  13.459  0.8926 -1.6700  0.0985
  620TMC3    H2 9243   4.443   4.350  13.254 -0.4481 -0.4532 -0.2526
  620TMC3    C7 9244   4.551   4.454  13.451  0.2009  1.1013  0.1066
  620TMC3    C8 9245   4.550   4.118  13.145  0.4916 -0.1541 -0.2061
  620TMC3    O1 9246   4.586   4.570  13.448  0.2891 -0.4848  0.2541
  620TMC3    O2 9247   4.635   4.028  13.149  0.7108 -0.1738 -0.5371
  621MPD2     C 9248   1.001   3.190   9.836  1.1403  0.0212 -0.9662
  621MPD2    C1 9249   1.028   3.175   9.703 -0.0018  0.3060 -0.4413
  621MPD2    C2 9250   1.117   3.260   9.646  0.2230  0.4109  0.5070
  621MPD2    C3 9251   1.173   3.369   9.717  0.7020  0.1319  0.6259
  621MPD2    C4 9252   1.144   3.384   9.851 -0.4115 -0.4875 -0.4949
  621MPD2    C5 9253   1.069   3.290   9.909  0.7701  0.3413 -0.0992
  621MPD2     H 9254   1.134   3.259   9.539  1.2806  1.1687  0.6623
  621MPD2    H1 9255   1.173   3.468   9.913  2.4684 -1.9475  0.1497
  621MPD2    H2 9256   0.925   3.131   9.885  1.9539 -1.9790 -2.1372
  621MPD2    H3 9257   1.062   3.302  10.017 -0.1873 -0.6964 -0.0453
  621MPD2     N 9258   1.250   3.465   9.645 -0.5535  0.4431  0.1967
  621MPD2    H5 9259   1.251   3.470   9.543 -1.0543 -1.4128  0.0989
  621MPD2    N1 9260   0.958   3.084   9.622 -0.1185 -0.0248 -0.4028
  621MPD2    H7 9261   0.980   3.096   9.524  0.6002  1.4628 -0.0668
  622TMC3    C1 9262   0.815   2.900   9.574 -0.7752  0.6264 -0.1057
  622TMC3    C2 9263   0.698   2.846   9.624  0.4506 -0.4841  0.2429
  622TMC3    C3 9264   0.586   2.842   9.545 -0.0904 -0.2558 -0.0581
  622TMC3    C4 9265   0.824   2.930   9.442 -0.1245  0.5362 -0.4409
  622TMC3    C5 9266   0.709   2.923   9.365  0.6430 -0.3955 -0.5101
  622TMC3    C6 9267   0.592   2.874   9.414 -0.5157  0.1107  0.0129
  622TMC3     C 9268   0.890   2.976   9.673  0.3238  0.5642  0.1546
  622TMC3     O 9269   0.864   2.944   9.785  0.7746  0.1365 -0.0578
  622TMC3     H 9270   0.689   2.811   9.727  0.4503  1.4455  0.8916
  622TMC3    H1 9271   0.915   2.970   9.399  0.5012  0.3033  0.6761
  622TMC3    H2 9272   0.507   2.871   9.347  1.5590  1.1616 -2.6740
  622TMC3    C7 9273   0.698   2.987   9.234 -0.4769  0.3623 -0.3143
  622TMC3    C8 9274   0.462   2.769   9.581 -0.1746 -0.2056 -0.7384
  622TMC3    O1 9275   0.797   2.979   9.165  0.4700  0.0087 -0.1063
  622TMC3    O2 9276   0.396   2.722   9.494  0.3442 -0.0361 -0.3375
  623MPD2     C 9277   3.923   4.380  15.703  0.6856  0.4949  0.1094
  623MPD2    C1 9278   3.879   4.502  15.750 -0.7023  0.2584 -0.2434
  623MPD2    C2 9279   3.936   4.556  15.866 -0.1458 -0.7575 -0.7244
  623MPD2    C3 9280   4.042   4.491  15.933 -0.0923  0.0660 -0.5224
  623MPD2    C4 9281   4.090   4.375  15.877 -0.7967  0.1614  0.2383
  623MPD2    C5 9282   4.026   4.318  15.771 -0.2306 -0.1355  0.2641
  623MPD2     H 9283   3.906   4.653  15.904 -1.1940 -0.5918 -1.9632
  623MPD2    H1 9284   4.173   4.321  15.921 -1.1797  0.1159  0.8993
  623MPD2    H2 9285   3.884   4.338  15.610  1.4580  1.0916 -0.4878
  623MPD2    H3 9286   4.054   4.217  15.740 -0.5264  0.9288 -3.4487
  623MPD2     N 9287   4.115   4.549  16.045  1.0860  0.1295  0.5465
  623MPD2    H5 9288   4.106   4.649  16.058  0.1777 -0.1274  1.9108
  623MPD2    N1 9289   3.771   4.581  15.700 -0.2958  0.0228  0.1521
  623MPD2    H7 9290   3.742   4.660  15.758 -2.5089 -0.1888 -0.7093
  624TMC3    C1 9291   4.380   4.579  16.429 -0.8981  0.0503 -0.6800
  624TMC3    C2 9292   4.299   4.665  16.501  0.5374 -0.4535  0.6644
  624TMC3    C3 9293   4.185   4.708  16.431 -0.1974  0.4569 -0.1676
  624TMC3    C4 9294   4.347   4.526  16.307  0.4869  0.4124 -0.2086
  624TMC3    C5 9295   4.241   4.580  16.242 -0.2062  0.9239 -0.2624
  624TMC3    C6 9296   4.152   4.661  16.305 -0.6331  0.3946  0.8000
  624TMC3     C 9297   4.498   4.530  16.501 -0.2844  0.0708 -0.7708
  624TMC3     O 9298   4.542   4.602  16.588  0.7036 -0.2131 -0.0834
  624TMC3     H 9299   4.327   4.700  16.600  1.5822  0.8311 -0.0833
  624TMC3    H1 9300   4.408   4.463  16.243 -0.8600  0.6246 -1.6823
  624TMC3    H2 9301   4.076   4.717  16.252 -0.0435  0.8795  0.4696
  624TMC3    C7 9302   4.193   4.489  16.139  0.3212 -0.0459 -0.5651
  624TMC3    C8 9303   4.071   0.025  16.505 -0.5475  0.8411 -0.0479
  624TMC3    O1 9304   4.227   4.370  16.150  0.8968  0.3039 -0.3836
  624TMC3    O2 9305   4.096   0.096  16.602 -0.0450 -0.6476  0.4060
  625MPD2     C 9306   0.160   1.154   0.728 -0.7547  0.4262  0.0192
  625MPD2    C1 9307   0.060   1.169   0.818  1.3156  0.0823 -0.0529
  625MPD2    C2 9308   0.092   1.206   0.949  0.6863  0.4286  0.1519
  625MPD2    C3 9309   0.223   1.236   0.985  0.5527 -0.2071 -0.7614
  625MPD2    C4 9310   0.321   1.226   0.886 -0.1176  0.9713  0.1282
  625MPD2    C5 9311   0.291   1.180   0.758 -0.3032 -0.3838  0.1069
  625MPD2     H 9312   0.010   1.195   1.019  0.6758  0.0743  0.0830
  625MPD2    H1 9313   0.425   1.253   0.900  0.5448 -1.2611 -0.4288
  625MPD2    H2 9314   0.142   1.108   0.631 -0.0148  0.3516 -0.0797
  625MPD2    H3 9315   0.367   1.158   0.684 -1.0213 -1.0559 -0.4421
  625MPD2     N 9316   0.255   1.260   1.123  0.2971  0.1349  0.1588
  625MPD2    H5 9317   0.180   1.261   1.191  0.6729 -1.6526  0.6121
  625MPD2    N1 9318   4.663   1.140   0.789  0.3532 -0.2064 -0.0109
  625MPD2    H7 9319   4.603   1.150   0.870 -1.1878  1.8919 -1.4410
  626TMC3    C1 9320   4.463   1.117   0.657 -0.2552  0.3724 -0.4393
  626TMC3    C2 9321   4.407   1.142   0.534  0.9968 -0.4090 -0.6604
  626TMC3    C3 9322   4.281   1.094   0.514  0.0982 -0.3285 -0.1088
  626TMC3    C4 9323   4.409   1.022   0.747  0.8601 -0.2422  0.7400
  626TMC3    C5 9324   4.285   0.970   0.720  0.4039 -0.5232  0.5157
  626TMC3    C6 9325   4.217   1.005   0.600 -0.0842 -1.0212 -0.7067
  626TMC3     C 9326   4.611   1.135   0.663 -0.2439 -0.9200 -0.6035
  626TMC3     O 9327   4.668   1.159   0.559 -0.6071 -0.2241 -0.4488
  626TMC3     H 9328   4.456   1.214   0.471  0.1362 -0.0564 -0.9341
  626TMC3    H1 9329   4.467   0.982   0.830 -1.4228 -2.7056  1.1632
  626TMC3    H2 9330   4.127   0.949   0.576  1.3161 -4.2287  1.5621
  626TMC3    C7 9331   4.212   0.894   0.820 -0.1212  0.6712  0.3395
  626TMC3    C8 9332   4.209   1.129   0.389 -0.2801  0.3534  0.1421
  626TMC3    O1 9333   4.278   0.849   0.914 -0.5358 -0.3999 -0.3259
  626TMC3    O2 9334   4.270   1.208   0.319  0.8103 -0.2279 -0.4296
  627MPD2     C 9335   2.376   1.449  14.710  0.2678  0.0153  0.4178
  627MPD2    C1 9336   2.469   1.388  14.790  0.4483 -0.5109 -0.3328
  627MPD2    C2 9337   2.448   1.255  14.810 -0.7229 -0.1877 -0.5711
  627MPD2    C3 9338   2.337   1.187  14.759 -0.8338 -0.2061 -0.4508
  627MPD2    C4 9339   2.248   1.259  14.680 -0.2287  0.2849 -0.0839
  627MPD2    C5 9340   2.265   1.393  14.658  0.2479  0.0317 -0.0517
  627MPD2     H 9341   2.525   1.196  14.860 -1.3227 -0.4049  0.0891
  627MPD2    H1 9342   2.169   1.209  14.626  0.2275  1.4394 -1.8125
  627MPD2    H2 9343   2.381   1.554  14.685  3.9414  0.1055  1.5408
  627MPD2    H3 9344   2.207   1.450  14.587 -1.7342  0.9147  2.2744
  627MPD2     N 9345   2.322   1.051  14.782 -0.0556  0.3895  0.1494
  627MPD2    H5 9346   2.387   1.008  14.847 -1.2723 -3.1412 -0.9870
  627MPD2    N1 9347   2.584   1.456  14.831  0.1494  0.2740  0.1519
  627MPD2    H7 9348   2.656   1.397  14.873  0.3886  0.4858  0.0342
  628TMC3    C1 9349   2.749   1.609  14.808  0.4456  0.5058 -0.5714
  628TMC3    C2 9350   2.825   1.508  14.763 -0.2236  0.5074  0.9046
  628TMC3    C3 9351   2.962   1.512  14.764  0.7275  0.0819  0.8851
  628TMC3    C4 9352   2.807   1.730  14.837 -0.2426  0.3946  0.4652
  628TMC3    C5 9353   2.944   1.734  14.830  0.5248 -0.5671  1.1813
  628TMC3    C6 9354   3.024   1.626  14.807  0.4653  0.1558 -0.2845
  628TMC3     C 9355   2.606   1.588  14.817 -0.1870 -0.0201  0.1334
  628TMC3     O 9356   2.530   1.682  14.833 -0.6355  0.3202 -0.1297
  628TMC3     H 9357   2.780   1.430  14.703 -1.2055  1.1035  0.8792
  628TMC3    H1 9358   2.748   1.814  14.871  0.9694  1.6923 -0.6504
  628TMC3    H2 9359   3.129   1.648  14.792  0.1150  0.3704 -2.3983
  628TMC3    C7 9360   3.010   1.868  14.846  0.6909 -0.7747  0.1761
  628TMC3    C8 9361   3.033   1.423  14.673  0.3123  0.1754  1.1532
  628TMC3    O1 9362   3.128   1.869  14.880  0.4584  0.0371 -0.0834
  628TMC3    O2 9363   2.963   1.365  14.591  0.7174 -0.1288  0.1086
  629MPD2     C 9364   1.219   0.657  16.160 -0.2372  0.2331 -0.2918
  629MPD2    C1 9365   1.211   0.561  16.057  0.2238  0.1879  0.8492
  629MPD2    C2 9366   1.094   0.545  15.997  0.8530  0.5041  0.2708
  629MPD2    C3 9367   0.983   0.626  16.019  0.6615 -0.3727  0.1870
  629MPD2    C4 9368   0.996   0.734  16.111 -0.1496  0.6932  0.0334
  629MPD2    C5 9369   1.113   0.742  16.185  0.1658  0.3153 -0.4672
  629MPD2     H 9370   1.088   0.470  15.919  1.0062  0.6390  0.1298
  629MPD2    H1 9371   0.915   0.798  16.141 -0.1900  0.2753  0.8242
  629MPD2    H2 9372   1.315   0.671  16.208 -1.5311  0.4476  2.2353
  629MPD2    H3 9373   1.140   0.819  16.256 -0.6783 -1.3888  1.6915
  629MPD2     N 9374   0.867   0.600  15.944 -0.2871 -0.2323  0.3795
  629MPD2    H5 9375   0.874   0.535  15.866  1.8242  2.2016 -1.4605
  629MPD2    N1 9376   1.336   0.492  16.033  0.1457  0.4201  0.0032
  629MPD2    H7 9377   1.412   0.508  16.098  0.6509  0.0764 -0.5016
  630TMC3    C1 9378   1.495   0.338  15.938  0.0598 -0.3446  0.2079
  630TMC3    C2 9379   1.554   0.303  15.823  0.3626  0.4243  0.2762
  630TMC3    C3 9380   1.679   0.246  15.820 -0.2661  0.0930  1.4161
  630TMC3    C4 9381   1.541   0.299  16.061  0.2556 -0.7101  0.0561
  630TMC3    C5 9382   1.645   0.220  16.056  0.3568 -0.1817  0.5906
  630TMC3    C6 9383   1.722   0.203  15.941 -0.5275 -0.2241 -0.4732
  630TMC3     C 9384   1.360   0.399  15.933  0.7756 -0.2992 -0.5566
  630TMC3     O 9385   1.302   0.364  15.830 -0.5181 -0.0115 -0.1688
  630TMC3     H 9386   1.509   0.342  15.732  0.6827  1.9266  0.7487
  630TMC3    H1 9387   1.472   0.310  16.145 -0.0562  1.0563 -0.4250
  630TMC3    H2 9388   1.810   0.142  15.957 -0.4651  0.3228  1.3711
  630TMC3    C7 9389   1.713   0.173  16.177  0.0131  0.1509  0.9634
  630TMC3    C8 9390   1.787   0.321  15.766  0.1742  0.3508 -0.4492
  630TMC3    O1 9391   1.762   0.060  16.185  0.3919 -0.4153 -0.1896
  630TMC3    O2 9392   1.873   0.351  15.855 -0.6154 -0.2082 -0.0533
  631MPD2     C 9393   4.157   4.601  15.445 -0.4311  0.0485 -0.1119
  631MPD2    C1 9394   4.218   4.661  15.341  0.2848 -0.2610 -0.3519
  631MPD2    C2 9395   4.319   4.595  15.273  0.2147  0.2180 -0.0857
  631MPD2    C3 9396   4.367   4.477  15.317 -0.0605 -0.6365  1.1579
  631MPD2    C4 9397   4.305   4.414  15.420  0.6472  0.7703  0.0395
  631MPD2    C5 9398   4.207   4.483  15.484 -0.0953 -0.6713 -0.7997
  631MPD2     H 9399   4.366   4.621  15.179 -1.9222  0.3591 -1.1068
  631MPD2    H1 9400   4.315   4.309  15.447 -0.0687  0.5083 -0.7068
  631MPD2    H2 9401   4.081   4.654  15.501  0.5281 -0.9303  2.1014
  631MPD2    H3 9402   4.161   4.438  15.571 -2.2086  0.0017 -1.5706
  631MPD2     N 9403   4.470   4.413  15.244 -0.0052  0.1219  0.3502
  631MPD2    H5 9404   4.509   4.455  15.160  2.4237  1.1607  2.0310
  631MPD2    N1 9405   4.179   0.056  15.295  0.0762 -0.4026 -0.4437
  631MPD2    H7 9406   4.094   0.094  15.335  1.7099  1.2023  1.5457
  632TMC3    C1 9407   4.189   0.261  15.171 -0.0390 -0.4707 -0.0414
  632TMC3    C2 9408   4.075   0.302  15.223  0.4018 -0.3230 -0.2973
  632TMC3    C3 9409   4.013   0.411  15.164 -0.7224 -0.4392  0.1159
  632TMC3    C4 9410   4.248   0.312  15.059 -0.9732  0.4754  0.4676
  632TMC3    C5 9411   4.189   0.425  15.017  1.4297  0.2208 -0.2731
  632TMC3    C6 9412   4.079   0.475  15.067  0.6121  0.1350  0.0962
  632TMC3     C 9413   4.261   0.138  15.219 -0.0668 -0.4313  0.0089
  632TMC3     O 9414   4.376   0.123  15.174  0.5411  0.1757  1.1508
  632TMC3     H 9415   4.019   0.246  15.297  0.7749  1.4961  1.3762
  632TMC3    H1 9416   4.338   0.275  15.012  0.6535  1.6324  2.6583
  632TMC3    H2 9417   4.029   0.558  15.018 -1.8742 -0.0184  2.3957
  632TMC3    C7 9418   4.256   0.500  14.912 -0.5998  0.2484  0.1963
  632TMC3    C8 9419   3.928   0.487  15.259  0.0737 -0.4912  0.9358
  632TMC3    O1 9420   4.187   0.568  14.843  0.0805 -0.0690 -0.5139
  632TMC3    O2 9421   3.937   0.442  15.375 -0.7597  0.5191 -0.3258
  633MPD2     C 9422   4.213   2.710  17.327 -0.2277  0.1705 -0.5666
  633MPD2    C1 9423   4.176   2.666  17.204 -0.3693 -0.3456  0.9499
  633MPD2    C2 9424   4.123   2.536  17.195 -0.2948 -0.1572 -0.8289
  633MPD2    C3 9425   4.101   2.455  17.305 -0.3862 -0.0944 -0.1035
  633MPD2    C4 9426   4.139   2.508  17.426  0.4662  0.1677 -0.3452
  633MPD2    C5 9427   4.184   2.632  17.434  0.9346  0.0013 -0.1684
  633MPD2     H 9428   4.102   2.507  17.093 -2.8827 -0.7503 -0.1329
  633MPD2    H1 9429   4.135   2.453  17.519  1.6534  1.0534  0.2259
  633MPD2    H2 9430   4.273   2.799  17.345 -1.2966  0.7591  0.0976
  633MPD2    H3 9431   4.191   2.681  17.531  0.8321  0.1397 -0.2311
  633MPD2     N 9432   4.055   2.320  17.289  0.0254  0.6692 -0.4083
  633MPD2    H5 9433   4.045   2.258  17.369  1.8563  1.2949  0.3163
  633MPD2    N1 9434   4.206   2.734  17.080  0.0491  0.0103  0.9536
  633MPD2    H7 9435   4.198   2.676  16.997 -0.3741  2.0694 -0.4449
  634TMC3    C1 9436   4.297   2.894  16.941 -0.0388  0.1941 -0.8210
  634TMC3    C2 9437   4.364   2.796  16.873  1.1020  0.7586  0.0614
  634TMC3    C3 9438   4.392   2.813  16.738 -0.0595  0.5639 -0.3738
  634TMC3    C4 9439   4.265   3.012  16.883  0.2455 -0.3001 -0.1259
  634TMC3    C5 9440   4.301   3.023  16.749  0.8015 -0.7131 -0.0637
  634TMC3    C6 9441   4.362   2.930  16.667  0.2594  0.3785 -0.7543
  634TMC3     C 9442   4.242   2.866  17.069  0.8839  0.1408  0.8901
  634TMC3     O 9443   4.244   2.959  17.150  1.0383  0.2825  0.5641
  634TMC3     H 9444   4.383   2.699  16.917 -0.4711  0.1433 -0.6161
  634TMC3    H1 9445   4.211   3.083  16.944  0.7823 -1.2392  1.4338
  634TMC3    H2 9446   4.386   2.946  16.563 -1.5143  1.8534 -0.9361
  634TMC3    C7 9447   4.273   3.145  16.675  0.1154 -0.5445  0.7888
  634TMC3    C8 9448   4.456   2.696  16.667  0.1386  0.0692 -0.3130
  634TMC3    O1 9449   4.303   3.152  16.557 -0.1214  0.1392  0.0845
  634TMC3    O2 9450   4.427   2.589  16.716 -0.8046  0.1068 -0.4232
  635TMC3    C1 9451   3.564   3.797  17.622 -0.1893  0.1810 -0.0012
  635TMC3    C2 9452   3.535   3.681  17.681 -0.7901 -0.0787  0.8407
  635TMC3    C3 9453   3.405   3.665  17.723  0.3220  0.0044  0.8703
  635TMC3    C4 9454   3.486   3.911  17.616  0.4768  0.4586  0.4039
  635TMC3    C5 9455   3.362   3.895  17.668  0.9500 -0.7165 -0.7884
  635TMC3    C6 9456   3.323   3.769  17.719  0.0793  0.1815  0.0528
  635TMC3     C 9457   3.699   3.834  17.586  0.8818  0.0086  0.2125
  635TMC3     O 9458   3.737   3.946  17.583 -0.1588  0.2219 -0.3393
  635TMC3     H 9459   3.608   3.600  17.676 -2.0658 -1.2595  1.2762
  635TMC3    H1 9460   3.524   4.003  17.574 -0.9361 -0.6089 -3.1701
  635TMC3    H2 9461   3.222   3.740   0.004 -0.7169  1.1158 -1.8933
  635TMC3    C7 9462   3.277   4.017  17.675  1.1984  0.1610  0.2011
  635TMC3    C8 9463   3.367   3.532   0.017  0.0060  1.0370  0.0015
  635TMC3    O1 9464   3.301   4.121  17.620  0.1458  0.0317  0.5443
  635TMC3    O2 9465   3.249   3.522   0.053  0.2742  0.0833  0.0114
  636MPD2     C 9466   0.495   3.242  16.286  0.4294 -0.3406 -0.2165
  636MPD2    C1 9467   0.603   3.299  16.350 -0.4670  0.3438  0.0238
  636MPD2    C2 9468   0.698   3.214  16.410  0.8898  0.0663  0.4476
  636MPD2    C3 9469   0.689   3.081  16.389  0.3333 -0.0694  0.3272
  636MPD2    C4 9470   0.576   3.025  16.326  1.2957 -0.7880  0.0139
  636MPD2    C5 9471   0.482   3.107  16.279 -0.6867  0.2952  0.0199
  636MPD2     H 9472   0.786   3.255  16.458  0.2019 -1.1161  2.7069
  636MPD2    H1 9473   0.575   2.918  16.310 -1.6553 -0.5207 -1.6208
  636MPD2    H2 9474   0.408   3.297  16.253 -0.1955 -0.0073  1.9810
  636MPD2    H3 9475   0.389   3.070  16.238 -0.1650 -0.7293 -0.2202
  636MPD2     N 9476   0.797   3.003  16.434 -0.0765  0.0695 -0.1733
  636MPD2    H5 9477   0.862   3.045  16.501 -0.8001  1.6593 -0.4713
  636MPD2    N1 9478   0.610   3.443  16.368  0.2465 -0.2237 -0.1408
  636MPD2    H7 9479   0.690   3.475  16.422 -0.9802 -0.3403  1.7692
  637TMC3    C1 9480   0.927   2.820  16.466  0.0622  0.1506  0.1054
  637TMC3    C2 9481   0.980   2.912  16.553 -0.0341 -0.2219  0.9033
  637TMC3    C3 9482   1.111   2.935  16.558 -0.7631  0.1021 -0.0194
  637TMC3    C4 9483   1.019   2.762  16.383  0.0584 -0.4767 -0.4097
  637TMC3    C5 9484   1.158   2.779  16.386  0.1629 -0.1356  0.1383
  637TMC3    C6 9485   1.201   2.868  16.483 -0.0022 -0.1459  0.2528
  637TMC3     C 9486   0.820   2.871  16.391 -0.2932 -0.0016  0.3382
  637TMC3     O 9487   0.785   2.831  16.281 -0.5063  0.5945 -0.6638
  637TMC3     H 9488   0.918   2.948  16.634 -0.4915  0.2862  0.3198
  637TMC3    H1 9489   0.977   2.709  16.299 -1.0917  0.7970 -0.6430
  637TMC3    H2 9490   1.307   2.888  16.498 -0.2153  1.0380  0.1854
  637TMC3    C7 9491   1.233   2.797  16.257 -0.3195  0.2648 -0.0671
  637TMC3    C8 9492   1.144   3.077  16.571  0.1642 -0.5921  0.0709
  637TMC3    O1 9493   1.323   2.879  16.263 -0.6881 -0.0740 -0.2386
  637TMC3    O2 9494   1.077   3.143  16.646 -0.3758  0.5727  0.1316
  638MPD2     C 9495   0.394   1.864  15.079 -0.1858 -0.0428 -0.2059
  638MPD2    C1 9496   0.429   1.750  15.004 -0.6025  0.6346  0.0021
  638MPD2    C2 9497   0.407   1.622  15.064 -0.1382 -0.1517 -0.5176
  638MPD2    C3 9498   0.344   1.615  15.187  1.0262 -0.1060 -0.3293
  638MPD2    C4 9499   0.310   1.729  15.263  0.1297 -0.2666  0.7718
  638MPD2    C5 9500   0.326   1.853  15.200 -0.4255 -0.0502 -0.3786
  638MPD2     H 9501   0.435   1.532  15.009 -0.6594 -0.3382 -0.4776
  638MPD2    H1 9502   0.272   1.701  15.361 -1.3029  0.3752  0.4008
  638MPD2    H2 9503   0.411   1.967  15.051  0.7313  0.1220  0.9494
  638MPD2    H3 9504   0.307   1.944  15.255 -1.4595 -1.2269  1.2219
  638MPD2     N 9505   0.335   1.487  15.244  0.0567 -0.7419 -0.0580
  638MPD2    H5 9506   0.388   1.419  15.191 -0.1077 -0.3155 -0.7756
  638MPD2    N1 9507   0.486   1.771  14.877 -0.0610 -0.2771  0.9926
  638MPD2    H7 9508   0.542   1.853  14.857 -0.5097 -0.8492 -2.6942
  639TMC3    C1 9509   0.250   1.306  15.339  0.0210 -0.3484 -0.0803
  639TMC3    C2 9510   0.175   1.252  15.241  0.1313  0.3203  0.4560
  639TMC3    C3 9511   0.218   1.142  15.172 -0.1475  0.4878 -0.0359
  639TMC3    C4 9512   0.371   1.251  15.368 -0.3029  0.5273  0.5843
  639TMC3    C5 9513   0.410   1.139  15.297 -0.0211  0.4635  0.1787
  639TMC3    C6 9514   0.340   1.074  15.197  0.8798  0.1905 -0.4863
  639TMC3     C 9515   0.250   1.446  15.344  0.3729 -0.4345  0.0404
  639TMC3     O 9516   0.189   1.502  15.434  0.1096 -0.5904 -0.4973
  639TMC3     H 9517   0.078   1.301  15.232 -0.1131 -0.1332  0.6205
  639TMC3    H1 9518   0.435   1.306  15.437 -0.0114  0.6647  0.2056
  639TMC3    H2 9519   0.387   0.992  15.144  3.6104  1.6325 -0.2919
  639TMC3    C7 9520   0.533   1.074  15.347  0.5064 -0.5368 -0.7250
  639TMC3    C8 9521   0.134   1.095  15.062  0.2680 -0.3139  0.5841
  639TMC3    O1 9522   0.525   1.027  15.461  0.0520 -0.0535  0.2133
  639TMC3    O2 9523   0.193   1.049  14.967  0.4337  0.2934 -0.0147
  640MPD2     C 9524   1.389   0.245   9.789  1.0186  0.2380 -1.0656
  640MPD2    C1 9525   1.441   0.371   9.812 -1.0887  0.3023 -0.7388
  640MPD2    C2 9526   1.382   0.459   9.906  0.0457  0.2413  0.7348
  640MPD2    C3 9527   1.277   0.400   9.977 -0.1465 -0.3495  0.2941
  640MPD2    C4 9528   1.220   0.280   9.948 -0.1589 -0.0050 -0.6344
  640MPD2    C5 9529   1.281   0.204   9.857 -0.6212 -0.1752  0.3437
  640MPD2     H 9530   1.415   0.558   9.934  2.2771  0.4684 -2.7153
  640MPD2    H1 9531   1.135   0.240  10.000 -0.3007 -0.7384 -1.4213
  640MPD2    H2 9532   1.447   0.174   9.731  1.0625 -0.3676 -0.2798
  640MPD2    H3 9533   1.241   0.104   9.847  0.1916 -0.3083 -1.6667
  640MPD2     N 9534   1.212   0.463  10.086 -0.1123 -0.3737 -0.7469
  640MPD2    H5 9535   1.139   0.410  10.134 -1.5189  2.9604  0.7790
  640MPD2    N1 9536   1.561   0.407   9.742  0.3506  0.7949 -0.0524
  640MPD2    H7 9537   1.610   0.333   9.692 -0.2561  1.0883 -1.0800
  641TMC3    C1 9538   1.735   0.540   9.672 -0.0167 -0.4343  0.8706
  641TMC3    C2 9539   1.820   0.430   9.693 -0.2803  0.2211  0.6703
  641TMC3    C3 9540   1.956   0.457   9.673  0.1194  0.3529  0.8094
  641TMC3    C4 9541   1.782   0.658   9.614 -0.4640 -0.2585 -0.5124
  641TMC3    C5 9542   1.917   0.663   9.586 -0.0898 -0.1486 -0.6237
  641TMC3    C6 9543   2.008   0.567   9.617  0.4691 -0.7095 -0.0549
  641TMC3     C 9544   1.605   0.537   9.734 -0.0634  0.5421  0.2509
  641TMC3     O 9545   1.538   0.633   9.745  0.5132 -0.6441  0.0350
  641TMC3     H 9546   1.787   0.343   9.750 -0.1575  0.0587  0.4930
  641TMC3    H1 9547   1.707   0.730   9.586  0.3130  0.9974  0.6527
  641TMC3    H2 9548   2.111   0.583   9.589  0.2637  0.8113  0.0781
  641TMC3    C7 9549   1.970   0.786   9.524 -0.5603 -0.0388 -0.9564
  641TMC3    C8 9550   2.050   0.373   9.746 -0.0530  0.1625  0.1363
  641TMC3    O1 9551   2.072   0.819   9.585 -0.2305  0.5484 -0.3425
  641TMC3    O2 9552   2.018   0.257   9.774  0.2331 -0.2418  0.0567
  642TMC3    C1 9553   2.009   1.717  12.479 -0.1099  0.4393  0.4639
  642TMC3    C2 9554   2.136   1.732  12.435  0.9350 -0.6578  0.6308
  642TMC3    C3 9555   2.192   1.638  12.349 -0.9966  0.1183 -0.4077
  642TMC3    C4 9556   1.940   1.602  12.455  0.9421  0.8321 -0.0630
  642TMC3    C5 9557   1.996   1.505  12.372  0.1522 -0.3654 -0.1155
  642TMC3    C6 9558   2.121   1.519  12.325  0.3556 -0.0087 -0.2114
  642TMC3     C 9559   1.947   1.830  12.554  0.3737 -0.2434  0.1396
  642TMC3     O 9560   1.989   1.942  12.529  0.0120 -0.3413 -0.1697
  642TMC3     H 9561   2.190   1.818  12.472  0.8550  0.3535 -1.6180
  642TMC3    H1 9562   1.838   1.600  12.492  0.6360  0.6888 -0.9111
  642TMC3    H2 9563   2.161   1.440  12.264  0.6145 -0.3696  0.4227
  642TMC3    C7 9564   1.936   1.374  12.357  0.5451  0.1945  0.6606
  642TMC3    C8 9565   2.334   1.654  12.316  0.2936  0.0830  0.7831
  642TMC3    O1 9566   1.971   1.296  12.272 -0.5173 -0.1143 -0.4054
  642TMC3    O2 9567   2.395   1.745  12.371  0.1501 -0.4596 -0.1709
  643TMC3    C1 9568   0.968   0.800  17.691 -0.1227  0.1196 -0.0300
  643TMC3    C2 9569   0.902   0.908  17.637  0.5676 -0.5258  0.0609
  643TMC3    C3 9570   0.893   0.899  17.501  0.1855  0.7721 -0.4911
  643TMC3    C4 9571   1.014   0.694  17.619 -0.0188 -0.4407  0.2453
  643TMC3    C5 9572   1.015   0.700  17.483 -0.4372  0.3754  0.0301
  643TMC3    C6 9573   0.954   0.808  17.422 -0.1962 -0.1956 -0.5376
  643TMC3     C 9574   0.978   0.799   0.093  0.6778  0.2492 -0.0693
  643TMC3     O 9575   0.893   0.851   0.167  0.1560 -0.5680  0.1957
  643TMC3     H 9576   0.856   0.986  17.697 -0.9822 -0.5117 -1.1517
  643TMC3    H1 9577   1.054   0.606  17.668  1.8498  0.3558  0.1771
  643TMC3    H2 9578   0.947   0.818  17.314 -1.2203 -1.0210 -0.5434
  643TMC3    C7 9579   1.106   0.614  17.417  0.2143  0.2557  0.4643
  643TMC3    C8 9580   0.865   1.026  17.440 -0.2558  0.3481 -0.1136
  643TMC3    O1 9581   1.131   0.509  17.470 -0.0109 -0.8088  0.0017
  643TMC3    O2 9582   0.797   1.028  17.334 -0.5085  0.2302  0.5348
  644MPD2     C 9583   2.779   1.567   9.295  0.9159  0.0661  0.6151
  644MPD2    C1 9584   2.817   1.533   9.424 -0.0824  0.6135  0.1413
  644MPD2    C2 9585   2.900   1.619   9.496  0.8369 -0.6005 -0.4051
  644MPD2    C3 9586   2.922   1.746   9.452  0.0047  0.3226 -0.5655
  644MPD2    C4 9587   2.883   1.779   9.326 -0.7378  0.4253  0.5578
  644MPD2    C5 9588   2.816   1.691   9.250 -0.1527 -0.4839  0.1914
  644MPD2     H 9589   2.916   1.598   9.601  2.0978  0.5287 -0.3727
  644MPD2    H1 9590   2.909   1.874   9.282 -0.0676 -0.2059 -0.4053
  644MPD2    H2 9591   2.710   1.509   9.234 -0.0715  1.7927  0.0965
  644MPD2    H3 9592   2.779   1.721   9.153 -0.2159  0.4258  0.4939
  644MPD2     N 9593   2.994   1.831   9.536  0.1869  0.0930  0.6315
  644MPD2    H5 9594   3.008   1.784   9.625  2.0697  1.2143  0.9349
  644MPD2    N1 9595   2.764   1.406   9.468 -0.0542 -0.4580  0.1526
  644MPD2    H7 9596   2.712   1.353   9.400 -2.1934  1.5787  0.1802
  645TMC3    C1 9597   3.121   2.026   9.622 -0.5094 -0.1024  0.2198
  645TMC3    C2 9598   3.161   1.967   9.732  0.0130  0.4634  0.1090
  645TMC3    C3 9599   3.220   2.039   9.831 -0.9328  0.2806  0.2929
  645TMC3    C4 9600   3.156   2.157   9.602 -0.2237  0.0068  0.3689
  645TMC3    C5 9601   3.227   2.223   9.698  0.0029  0.0725  0.5522
  645TMC3    C6 9602   3.255   2.167   9.823 -0.9815 -0.2701  0.2705
  645TMC3     C 9603   3.051   1.957   9.515  0.1679  0.7370  0.4837
  645TMC3     O 9604   3.040   2.020   9.413 -0.0837 -0.3229 -0.1880
  645TMC3     H 9605   3.156   1.858   9.735 -0.1687  0.4572 -0.3298
  645TMC3    H1 9606   3.141   2.213   9.510  1.1823 -1.0209 -0.4934
  645TMC3    H2 9607   3.316   2.217   9.897 -0.0004  0.7448 -1.1984
  645TMC3    C7 9608   3.245   2.365   9.678  0.0395 -0.3612  0.0220
  645TMC3    C8 9609   3.249   1.970   9.953 -0.5451  0.7650  0.0423
  645TMC3    O1 9610   3.251   2.402   9.561  0.3207 -0.2694 -0.4109
  645TMC3    O2 9611   3.308   2.037  10.038 -0.0753 -0.4118  0.6848
  646MPD2     C 9612   0.453   0.379  14.490 -0.2174  0.4713  0.6622
  646MPD2    C1 9613   0.399   0.438  14.605  0.6049 -0.6266 -0.8551
  646MPD2    C2 9614   0.323   0.547  14.589 -0.7779 -0.6992 -0.5644
  646MPD2    C3 9615   0.301   0.601  14.455 -0.0779  0.1209  0.2617
  646MPD2    C4 9616   0.365   0.543  14.349  0.0943 -0.4134 -0.1117
  646MPD2    C5 9617   0.430   0.426  14.367  0.0473 -0.4589 -0.6838
  646MPD2     H 9618   0.290   0.599  14.679 -0.5215 -1.6980  0.1146
  646MPD2    H1 9619   0.353   0.577  14.246  0.4961  0.9084  0.2793
  646MPD2    H2 9620   0.509   0.287  14.504 -1.4234 -0.5163 -0.8949
  646MPD2    H3 9621   0.473   0.367  14.287  1.0847 -1.0608  0.3215
  646MPD2     N 9622   0.222   0.719  14.444 -0.1219 -0.0567  0.1819
  646MPD2    H5 9623   0.189   0.762  14.530 -1.8637  1.6056 -1.3030
  646MPD2    N1 9624   0.457   0.375  14.723  0.6259 -0.0231  0.1937
  646MPD2    H7 9625   0.523   0.299  14.707  1.0080  0.4025 -0.2425
  647TMC3    C1 9626   0.534   0.353  14.938 -0.1586 -0.6782 -0.0130
  647TMC3    C2 9627   0.494   0.327  15.065  0.2733 -0.5845  0.0033
  647TMC3    C3 9628   0.586   0.294  15.156 -0.4045  0.3880  0.4018
  647TMC3    C4 9629   0.662   0.341  14.895  0.1095 -0.5973  0.2738
  647TMC3    C5 9630   0.747   0.308  14.993  0.1002 -0.0356 -0.5328
  647TMC3    C6 9631   0.719   0.305  15.130  1.0233 -0.2425  0.0902
  647TMC3     C 9632   0.425   0.405  14.850 -0.7860 -0.1705 -0.4263
  647TMC3     O 9633   0.322   0.457  14.898  0.1805 -0.0051  0.0559
  647TMC3     H 9634   0.390   0.347  15.088  0.1536 -0.2990 -0.7644
  647TMC3    H1 9635   0.694   0.363  14.794  0.8464 -0.6121  0.5028
  647TMC3    H2 9636   0.783   0.254  15.201 -1.0513  2.0136  3.5159
  647TMC3    C7 9637   0.872   0.243  14.960 -0.0127  0.2405  0.8092
  647TMC3    C8 9638   0.557   0.170  15.228  0.5225  0.6006  0.0595
  647TMC3    O1 9639   0.948   0.222  15.050 -0.4600 -0.0170 -0.0880
  647TMC3    O2 9640   0.616   0.152  15.335  0.3580  0.6431 -0.1331
  648TMC3    C1 9641   0.231   2.810  16.179  0.4399  0.2207 -0.0144
  648TMC3    C2 9642   0.275   2.687  16.144 -0.1293 -0.0700  0.4560
  648TMC3    C3 9643   0.260   2.649  16.008 -0.0136 -0.3651 -0.1308
  648TMC3    C4 9644   0.164   2.883  16.087  0.5774  1.3958  0.4145
  648TMC3    C5 9645   0.139   2.848  15.961 -1.1112  0.1658 -0.3141
  648TMC3    C6 9646   0.191   2.724  15.917  0.3450 -0.4477  0.2698
  648TMC3     C 9647   0.205   2.838  16.323 -0.3475 -0.3047 -0.2853
  648TMC3     O 9648   0.155   2.947  16.351  0.8262  0.0318  0.2478
  648TMC3     H 9649   0.335   2.631  16.214  1.7983  2.0800  0.5689
  648TMC3    H1 9650   0.131   2.983  16.112  0.4673  1.0903  1.4863
  648TMC3    H2 9651   0.168   2.686  15.818 -0.8288  0.7184  0.0862
  648TMC3    C7 9652   0.099   2.947  15.857 -0.4169  0.1645  0.3457
  648TMC3    C8 9653   0.253   2.507  15.991  0.1935  0.0566  0.1546
  648TMC3    O1 9654   0.163   2.954  15.755 -1.1492 -0.1660 -0.2604
  648TMC3    O2 9655   0.231   2.448  16.092  0.3043 -0.0277 -0.0732
  649TMC3    C1 9656   4.003   3.793  12.410  0.0657  0.3294  0.0494
  649TMC3    C2 9657   4.129   3.831  12.385 -0.0410  0.0066 -0.4794
  649TMC3    C3 9658   4.225   3.770  12.465 -0.5409  0.1158  0.0094
  649TMC3    C4 9659   3.962   3.704  12.508  0.1403 -0.5798 -0.6884
  649TMC3    C5 9660   4.062   3.639  12.579 -0.2754  0.4750  0.4684
  649TMC3    C6 9661   4.192   3.673  12.556 -0.8451 -0.4492  0.1151
  649TMC3     C 9662   3.907   3.817  12.306  0.0399 -0.5075  0.6782
  649TMC3     O 9663   3.790   3.806  12.341 -0.3613  0.4872  0.7830
  649TMC3     H 9664   4.150   3.922  12.330 -1.6097  1.5154  1.3736
  649TMC3    H1 9665   3.859   3.679  12.528  0.3571 -0.1957  0.8582
  649TMC3    H2 9666   4.271   3.627  12.616  0.7395 -0.7019 -2.1794
  649TMC3    C7 9667   4.023   3.532  12.669  0.1344 -0.0694  0.5279
  649TMC3    C8 9668   4.354   3.833  12.460  0.2264 -0.0161 -0.1355
  649TMC3    O1 9669   3.909   3.531  12.712  0.3325 -0.4720  0.5150
  649TMC3    O2 9670   4.375   3.935  12.396 -0.1457  0.0958  0.5370
  650TMC3    C1 9671   1.535   0.546  13.384  0.3210  0.2625 -0.3314
  650TMC3    C2 9672   1.544   0.675  13.430  1.0541 -0.4786 -0.0537
  650TMC3    C3 9673   1.429   0.742  13.450 -0.3941  0.0883  0.1469
  650TMC3    C4 9674   1.418   0.480  13.365  0.2743 -0.1415 -0.4661
  650TMC3    C5 9675   1.306   0.558  13.377 -0.1604 -0.0077  0.0490
  650TMC3    C6 9676   1.313   0.686  13.414  0.2624 -0.4889 -0.4406
  650TMC3     C 9677   1.665   0.473  13.385  0.2266  0.3081  0.0141
  650TMC3     O 9678   1.771   0.529  13.416  0.0805 -0.4019  0.6461
  650TMC3     H 9679   1.636   0.725  13.457  0.3100  0.1206  1.3724
  650TMC3    H1 9680   1.401   0.383  13.320  1.6502 -1.2855  1.4732
  650TMC3    H2 9681   1.216   0.735  13.413  0.9891  0.9775  1.1422
  650TMC3    C7 9682   1.211   0.528  13.269 -0.1861  0.1203  0.0953
  650TMC3    C8 9683   1.434   0.887  13.452  0.3078  0.0550  0.4582
  650TMC3    O1 9684   1.173   0.413  13.253 -0.5495 -0.1143 -0.5776
  650TMC3    O2 9685   1.520   0.939  13.385 -0.4947 -0.1263  0.3681
  651MPD2     C 9686   0.663   2.469  10.693  0.4997  0.1759  0.8190
  651MPD2    C1 9687   0.643   2.549  10.585  0.5273 -0.5409 -0.5612
  651MPD2    C2 9688   0.753   2.616  10.524 -0.0179  0.1245 -0.1276
  651MPD2    C3 9689   0.884   2.595  10.569 -0.3236  0.2929 -0.0265
  651MPD2    C4 9690   0.904   2.518  10.684 -0.0369  0.0274  0.1361
  651MPD2    C5 9691   0.794   2.451  10.737  0.4739 -0.7933 -0.2739
  651MPD2     H 9692   0.729   2.676  10.437  1.1692  1.2023  0.2824
  651MPD2    H1 9693   0.999   2.489  10.727  2.2725  5.3835 -1.4703
  651MPD2    H2 9694   0.590   2.403  10.737 -0.0440  0.4131  0.2834
  651MPD2    H3 9695   0.814   2.378  10.815  3.0703  1.3841  1.1050
  651MPD2     N 9696   0.985   2.665  10.502 -0.0491  0.3899 -0.1883
  651MPD2    H5 9697   0.956   2.707  10.414  0.8059 -1.9229 -1.5628
  651MPD2    N1 9698   0.522   2.588  10.532 -0.0421 -0.2565 -0.0496
  651MPD2    H7 9699   0.540   2.659  10.462 -1.6205 -0.5048 -0.7109
  652TMC3    C1 9700   1.370   2.893  10.384 -0.1919  0.3468  0.4868
  652TMC3    C2 9701   1.310   2.788  10.457 -0.3107 -0.0839 -0.4257
  652TMC3    C3 9702   1.173   2.789  10.463  0.6963  0.2414  0.0253
  652TMC3    C4 9703   1.302   2.996  10.335  0.1575 -0.4027  0.0738
  652TMC3    C5 9704   1.166   2.987  10.351 -0.1653 -0.0052 -0.4486
  652TMC3    C6 9705   1.100   2.890  10.419 -0.1126 -0.2092  0.1587
  652TMC3     C 9706   1.511   2.879  10.348 -0.3546  0.1924 -0.4440
  652TMC3     O 9707   1.549   2.927  10.241  0.0382 -0.0677 -0.7030
  652TMC3     H 9708   1.361   2.698  10.489  2.1127  0.8323 -1.6396
  652TMC3    H1 9709   1.359   3.077  10.291  0.2177  0.1983  1.2870
  652TMC3    H2 9710   0.992   2.890  10.428 -0.2913  1.6326 -2.0042
  652TMC3    C7 9711   1.083   3.104  10.320 -0.2496 -0.3056 -0.3447
  652TMC3    C8 9712   1.115   2.687  10.541 -0.1542 -0.2003  0.5578
  652TMC3    O1 9713   0.964   3.092  10.328 -0.0693 -0.2207  0.2262
  652TMC3    O2 9714   1.180   2.638  10.635 -0.2239  0.6009 -0.1479
  653MPD2     C 9715   3.737   3.144  17.621 -0.0156  0.1096 -0.2109
  653MPD2    C1 9716   3.746   3.142  17.483 -0.2558  0.9717 -0.5101
  653MPD2    C2 9717   3.783   3.029  17.419 -0.3170 -0.4754 -0.6601
  653MPD2    C3 9718   3.784   2.913  17.486 -0.0892 -0.0870  0.2108
  653MPD2    C4 9719   3.779   2.908  17.620 -0.5640 -0.1432 -0.1357
  653MPD2    C5 9720   3.757   3.027  17.684 -0.2417 -0.7286 -0.2212
  653MPD2     H 9721   3.778   3.040  17.311 -1.4868 -2.0984 -0.7780
  653MPD2    H1 9722   3.778   2.815  17.677 -1.7004 -1.0575 -1.6459
  653MPD2    H2 9723   3.708   3.237  17.669  4.0817  0.7900  0.9189
  653MPD2    H3 9724   3.761   3.034   0.050 -2.2433 -1.6706 -0.0754
  653MPD2     N 9725   3.792   2.800  17.405 -0.4945  0.0280 -0.4111
  653MPD2    H5 9726   3.796   2.815  17.305  1.3131  2.3134  0.0111
  653MPD2    N1 9727   3.716   3.250  17.400 -0.5626 -0.4940  0.1642
  653MPD2    H7 9728   3.739   3.240  17.302 -0.1054  0.8992  0.1282
  654TMC3    C1 9729   3.702   2.582  17.359  0.3156  0.4108 -0.2927
  654TMC3    C2 9730   3.604   2.642  17.274  0.4937 -0.4607 -0.0492
  654TMC3    C3 9731   3.543   2.558  17.186 -0.4059  0.0786 -0.3813
  654TMC3    C4 9732   3.720   2.446  17.352 -0.0722 -0.4109  0.6968
  654TMC3    C5 9733   3.643   2.370  17.266  0.2532 -0.8151  1.2220
  654TMC3    C6 9734   3.548   2.422  17.182  0.1267 -0.7373  0.0953
  654TMC3     C 9735   3.784   2.670  17.447 -0.3750 -0.2311 -0.3681
  654TMC3     O 9736   3.832   2.618  17.547 -0.5070 -0.2488  0.3518
  654TMC3     H 9737   3.575   2.745  17.290  1.4848 -0.0874 -0.6265
  654TMC3    H1 9738   3.802   2.400  17.406 -1.6913 -3.4125  0.6201
  654TMC3    H2 9739   3.486   2.368  17.111 -0.0242 -2.0084  1.1991
  654TMC3    C7 9740   3.658   2.229  17.276 -0.3206  0.1561 -0.8349
  654TMC3    C8 9741   3.461   2.628  17.085 -0.3767  0.3620 -0.2432
  654TMC3    O1 9742   3.740   2.183  17.353 -0.0497 -0.8036  0.3733
  654TMC3    O2 9743   3.405   2.728  17.132 -0.1930 -0.3520  0.4442
  655MPD2     C 9744   0.632   2.924  15.588  0.1812 -0.0365  0.0033
  655MPD2    C1 9745   0.512   2.959  15.536  0.3586  0.3444 -0.0353
  655MPD2    C2 9746   0.458   2.892  15.426 -0.1926  0.0698  0.0772
  655MPD2    C3 9747   0.519   2.776  15.379 -0.2776  0.5468 -1.1382
  655MPD2    C4 9748   0.645   2.750  15.429 -0.8494  0.3500  0.3678
  655MPD2    C5 9749   0.703   2.819  15.531  0.6659  0.1544  0.2280
  655MPD2     H 9750   0.371   2.932  15.376 -1.2544 -0.4654  1.5165
  655MPD2    H1 9751   0.701   2.665  15.390 -1.8236 -0.8276  1.5278
  655MPD2    H2 9752   0.677   2.973  15.673  0.4364 -0.4020  0.0781
  655MPD2    H3 9753   0.806   2.798  15.558  0.5135 -2.6164 -1.3158
  655MPD2     N 9754   0.466   2.705  15.275  0.0505  0.0035 -0.0702
  655MPD2    H5 9755   0.525   2.635  15.231  2.9550 -0.0570  3.9360
  655MPD2    N1 9756   0.440   3.074  15.585 -0.2754  0.4823  0.3284
  655MPD2    H7 9757   0.359   3.103  15.532 -1.0077 -2.0892  0.0190
  656TMC3    C1 9758   0.383   3.245  15.746  0.8935 -0.3560  0.4058
  656TMC3    C2 9759   0.332   3.248  15.874 -0.5041  0.4824 -0.8720
  656TMC3    C3 9760   0.244   3.349  15.909 -0.5610 -0.1015 -0.2928
  656TMC3    C4 9761   0.357   3.333  15.641 -0.2760  0.6675  0.3667
  656TMC3    C5 9762   0.264   3.422  15.684  0.0785  0.4504 -0.3915
  656TMC3    C6 9763   0.198   3.428  15.804  0.1788  0.5377  0.2780
  656TMC3     C 9764   0.465   3.131  15.716 -0.9599 -0.3259 -0.0890
  656TMC3     O 9765   0.537   3.090  15.806 -0.2838  0.1485  0.0967
  656TMC3     H 9766   0.375   3.182  15.948 -0.0716  1.0942 -0.5754
  656TMC3    H1 9767   0.390   3.315  15.539  0.0624  0.1711  0.5589
  656TMC3    H2 9768   0.125   3.504  15.828 -0.1296  0.4826 -0.4805
  656TMC3    C7 9769   0.216   3.506  15.575 -0.2857 -0.0360 -0.6458
  656TMC3    C8 9770   0.162   3.327  16.026  0.6975 -0.0174 -0.6016
  656TMC3    O1 9771   0.288   3.518  15.478 -0.0476 -0.2676 -0.0181
  656TMC3    O2 9772   0.187   3.226  16.097  0.7603 -0.5401 -0.9668
  657TMC3    C1 9773   3.810   2.343  15.076 -1.0451 -0.4402 -0.1229
  657TMC3    C2 9774   3.919   2.411  15.133  0.3291 -0.2419 -0.3088
  657TMC3    C3 9775   3.881   2.526  15.197 -0.1584  0.4438  0.6881
  657TMC3    C4 9776   3.677   2.372  15.099 -0.1250  0.1025 -0.7932
  657TMC3    C5 9777   3.653   2.484  15.168 -0.5659  0.1272 -0.8864
  657TMC3    C6 9778   3.752   2.566  15.209 -0.9586  0.5456 -0.0421
  657TMC3     C 9779   3.842   2.231  14.988 -0.1382 -0.6584  0.1636
  657TMC3     O 9780   3.755   2.191  14.910 -0.0716 -0.2477 -0.0170
  657TMC3     H 9781   4.021   2.392  15.100 -0.1475 -0.5140 -1.6323
  657TMC3    H1 9782   3.596   2.307  15.068 -0.6647  1.3566 -2.0232
  657TMC3    H2 9783   3.727   2.655  15.266  0.7426  1.0251 -0.0434
  657TMC3    C7 9784   3.521   2.547  15.148  0.0823  0.3736  0.0300
  657TMC3    C8 9785   3.967   2.579  15.306 -0.7131  0.2726 -0.0278
  657TMC3    O1 9786   3.444   2.496  15.068 -0.2327  0.0891 -0.3479
  657TMC3    O2 9787   3.948   2.698  15.337  0.5831  0.2315 -0.2564
  658MPD2     C 9788   0.786   2.546  14.690 -0.0190 -0.0376 -0.8542
  658MPD2    C1 9789   0.670   2.612  14.690  0.3516 -0.6589  0.1234
  658MPD2    C2 9790   0.651   2.705  14.594  0.1106  0.4382 -0.4014
  658MPD2    C3 9791   0.715   2.699  14.472 -0.4021 -0.2618  0.0936
  658MPD2    C4 9792   0.826   2.622  14.462  0.9322 -0.4530 -0.3433
  658MPD2    C5 9793   0.863   2.550  14.577 -0.0370 -1.0415  0.0768
  658MPD2     H 9794   0.569   2.776  14.596  0.5225  0.8834  0.4852
  658MPD2    H1 9795   0.899   2.627  14.382  0.7989  0.5041 -0.4127
  658MPD2    H2 9796   0.824   2.480  14.767  1.0948  2.0711  0.4291
  658MPD2    H3 9797   0.953   2.492  14.591  0.6101 -0.2026 -0.5647
  658MPD2     N 9798   0.665   2.778  14.364 -0.6799 -0.2119  0.1304
  658MPD2    H5 9799   0.590   2.844  14.385 -0.6652  0.3661 -1.5599
  658MPD2    N1 9800   0.574   2.592  14.795  0.3486 -0.1395  0.0772
  658MPD2    H7 9801   0.610   2.543  14.877 -0.6549  1.4200  1.4387
  659TMC3    C1 9802   0.366   2.577  14.906 -0.0032  0.4197 -0.0857
  659TMC3    C2 9803   0.402   2.624  15.026 -0.1436  0.6202 -0.4127
  659TMC3    C3 9804   0.306   2.632  15.120 -0.0375 -0.4814 -0.5417
  659TMC3    C4 9805   0.236   2.545  14.883  0.0589  0.1919  0.5102
  659TMC3    C5 9806   0.144   2.547  14.980  0.0358  0.0261  0.1218
  659TMC3    C6 9807   0.179   2.585  15.103  0.1289  0.1573 -0.0296
  659TMC3     C 9808   0.441   2.622  14.793  0.0013  0.5734  0.1332
  659TMC3     O 9809   0.378   2.669  14.698  0.1249  0.1658  0.1146
  659TMC3     H 9810   0.495   2.678  15.040  0.1288  0.6118 -2.1203
  659TMC3    H1 9811   0.219   2.512  14.781  0.7520  0.0040  0.4591
  659TMC3    H2 9812   0.103   2.605  15.178  2.0594 -0.1357  1.9793
  659TMC3    C7 9813   0.005   2.560  14.943  0.0222 -0.3066  0.4841
  659TMC3    C8 9814   0.335   2.708  15.235 -0.7416 -0.0159 -0.3088
  659TMC3    O1 9815   4.676   2.619  15.025 -0.0572  0.2209  0.1246
  659TMC3    O2 9816   0.238   2.766  15.285  0.0053  0.0881 -0.5008
  660MPD2     C 9817   3.144   2.048  12.642  0.1219  0.5265  0.5524
  660MPD2    C1 9818   3.039   2.014  12.559 -0.4771 -0.2264  0.5362
  660MPD2    C2 9819   2.943   1.922  12.607 -0.7358 -0.5414  0.3856
  660MPD2    C3 9820   2.962   1.853  12.730  0.7467  0.0724 -1.3179
  660MPD2    C4 9821   3.071   1.881  12.803 -0.3447  0.0607  0.4476
  660MPD2    C5 9822   3.160   1.978  12.760 -0.1192 -0.7466  0.0279
  660MPD2     H 9823   2.853   1.906  12.550 -1.0512 -2.1349  1.3546
  660MPD2    H1 9824   3.075   1.847  12.905 -0.7694  0.3217  0.5509
  660MPD2    H2 9825   3.214   2.130  12.633  0.6740 -0.2793 -2.3813
  660MPD2    H3 9826   3.245   2.015  12.817 -0.1312 -1.8112  0.7405
  660MPD2     N 9827   2.875   1.766  12.791 -0.1096  0.3732  0.3185
  660MPD2    H5 9828   2.905   1.715  12.873  0.2676 -0.4542 -0.3366
  660MPD2    N1 9829   3.018   2.085  12.437  0.3067  0.3034 -0.2240
  660MPD2    H7 9830   2.930   2.066  12.390 -1.0187  2.6755  1.2752
  661TMC3    C1 9831   3.047   2.236  12.267  0.6540 -0.4306  0.3138
  661TMC3    C2 9832   3.103   2.178  12.157  0.2244  0.5085 -0.3212
  661TMC3    C3 9833   3.037   2.191  12.036 -0.8675  0.5491  0.1278
  661TMC3    C4 9834   2.924   2.291  12.262  0.3998 -0.4324  0.2048
  661TMC3    C5 9835   2.851   2.290  12.145 -0.3990  0.5264  0.7055
  661TMC3    C6 9836   2.910   2.242  12.026 -0.3300  0.3998 -0.7700
  661TMC3     C 9837   3.101   2.176  12.387 -0.4079 -0.4037 -0.0592
  661TMC3     O 9838   3.222   2.199  12.407  0.0840 -0.5712  0.2191
  661TMC3     H 9839   3.195   2.122  12.155  0.9464  1.5890  2.0134
  661TMC3    H1 9840   2.869   2.331  12.347  0.0350 -0.3681 -0.0585
  661TMC3    H2 9841   2.850   2.249  11.937 -1.7022  0.1031  0.1337
  661TMC3    C7 9842   2.706   2.275  12.155  0.1941  0.4727 -0.2707
  661TMC3    C8 9843   3.087   2.115  11.927  0.3753 -0.1057 -0.2813
  661TMC3    O1 9844   2.656   2.355  12.232 -0.0367  0.3019  0.1797
  661TMC3    O2 9845   3.159   2.018  11.951 -0.5307  0.3905 -0.0236
  662MPD2     C 9846   3.176   1.846  16.989  0.5660  0.4742 -0.0934
  662MPD2    C1 9847   3.214   1.760  17.083 -0.0643 -0.5552 -0.5523
  662MPD2    C2 9848   3.231   1.806  17.211 -0.4612 -0.0665  0.1703
  662MPD2    C3 9849   3.213   1.933  17.252  0.1839  0.3126  0.1799
  662MPD2    C4 9850   3.187   2.018  17.147  0.2067 -0.0859  0.5028
  662MPD2    C5 9851   3.169   1.982  17.018 -0.2913  0.7279  0.7661
  662MPD2     H 9852   3.253   1.730  17.286  1.6207  2.6519  2.3210
  662MPD2    H1 9853   3.186   2.125  17.167  1.2599  0.1027 -0.4189
  662MPD2    H2 9854   3.147   1.812  16.890  1.8612 -0.3209 -0.2018
  662MPD2    H3 9855   3.156   2.054  16.938 -2.5181  1.7090  1.9983
  662MPD2     N 9856   3.217   1.975  17.386 -0.4586 -0.5326 -0.0265
  662MPD2    H5 9857   3.178   2.065  17.412 -0.3044 -1.0443  2.0280
  662MPD2    N1 9858   3.241   1.619  17.063  0.0914 -0.4531 -0.4983
  662MPD2    H7 9859   3.247   1.561  17.147  2.5174  0.1280 -0.2719
  663TMC3    C1 9860   3.207   1.409  16.966 -0.2711  0.5560  0.0206
  663TMC3    C2 9861   3.232   1.367  17.089  0.2495  0.2608 -0.1856
  663TMC3    C3 9862   3.137   1.290  17.152 -0.0756 -0.2142  0.1267
  663TMC3    C4 9863   3.105   1.361  16.888 -0.1396 -0.4341  0.2508
  663TMC3    C5 9864   3.002   1.296  16.956  0.0745  0.2607  0.3962
  663TMC3    C6 9865   3.021   1.263  17.088 -0.5557  0.5277 -0.2882
  663TMC3     C 9866   3.235   1.549  16.945  0.4317 -0.2393 -0.0485
  663TMC3     O 9867   3.217   1.594  16.832 -0.3991 -0.4419  0.3932
  663TMC3     H 9868   3.314   1.406  17.147 -0.7385  0.6404  0.9656
  663TMC3    H1 9869   3.094   1.389  16.784 -1.5747 -0.3600  0.4225
  663TMC3    H2 9870   2.930   1.255  17.146 -0.6027 -0.8610 -0.5640
  663TMC3    C7 9871   2.899   1.227  16.880  0.1499  0.0753  0.2491
  663TMC3    C8 9872   3.123   1.339  17.288  0.5203 -0.5401  0.0743
  663TMC3    O1 9873   2.905   1.256  16.763  0.4239  0.7120 -0.2441
  663TMC3    O2 9874   3.177   1.451  17.300 -0.0341 -0.2932 -0.4043
  664MPD2     C 9875   1.352   4.074  17.093 -0.6429 -0.6215 -0.0217
  664MPD2    C1 9876   1.353   4.208  17.145 -0.2375  0.4165  0.1226
  664MPD2    C2 9877   1.290   4.231  17.261 -0.1172  0.1414 -0.0182
  664MPD2    C3 9878   1.257   4.127  17.348  0.2194  0.2363 -0.1971
  664MPD2    C4 9879   1.278   3.996  17.305  0.7996  1.0640  0.3528
  664MPD2    C5 9880   1.324   3.973  17.177  0.1464  0.2746 -0.6135
  664MPD2     H 9881   1.290   4.335  17.292 -0.3390  0.1457 -0.0367
  664MPD2    H1 9882   1.230   3.913  17.355  2.7220 -0.2989 -0.0602
  664MPD2    H2 9883   1.369   4.035  16.993 -1.5528  2.5308 -1.4187
  664MPD2    H3 9884   1.317   3.877  17.127  0.6263 -0.4811  0.7660
  664MPD2     N 9885   1.209   4.165  17.475  0.6032 -0.2052 -0.6826
  664MPD2    H5 9886   1.198   4.264  17.496 -1.2513 -1.1603  2.9277
  664MPD2    N1 9887   1.402   4.317  17.066  0.6978 -0.2046 -0.0756
  664MPD2    H7 9888   1.401   4.407  17.112 -0.5909 -0.6383  0.7443
  665TMC3    C1 9889   1.136   4.159  17.693 -0.2374  0.0795 -0.0124
  665TMC3    C2 9890   1.061   4.095   0.039 -0.2498  0.1134 -0.1119
  665TMC3    C3 9891   1.011   4.164   0.143 -0.2091  0.3845 -0.1131
  665TMC3    C4 9892   1.166   4.292  17.700  0.4352  0.1224  0.0489
  665TMC3    C5 9893   1.117   4.356   0.067  0.2679 -0.2839 -0.0637
  665TMC3    C6 9894   1.034   4.298   0.155  0.2240 -0.1139 -0.1606
  665TMC3     C 9895   1.178   4.085  17.573  0.4469  0.2579  0.0586
  665TMC3     O 9896   1.180   3.963  17.574  0.3829 -0.0336  0.4415
  665TMC3     H 9897   1.014   4.000   0.016  0.8970 -0.3102 -0.6647
  665TMC3    H1 9898   1.246   4.338  17.644  1.2818 -2.5033 -0.9074
  665TMC3    H2 9899   0.979   4.360   0.225 -0.4233  1.0566 -1.7222
  665TMC3    C7 9900   1.180   4.487   0.093 -0.7326 -0.4749  0.2547
  665TMC3    C8 9901   0.894   4.110   0.210  0.9759  0.3150  1.3432
  665TMC3    O1 9902   1.248   4.533  17.740  0.6789 -1.1430  0.2492
  665TMC3    O2 9903   0.784   4.169   0.210  0.6437 -0.2213  0.7903
  666TMC3    C1 9904   1.350   3.674   9.602 -0.1082 -0.4300  0.1757
  666TMC3    C2 9905   1.436   3.650   9.494 -0.6205 -0.9401 -0.0188
  666TMC3    C3 9906   1.521   3.756   9.455 -0.3152  0.2823 -0.3402
  666TMC3    C4 9907   1.355   3.792   9.664  0.0787 -0.1555 -0.1519
  666TMC3    C5 9908   1.434   3.896   9.616  0.3786  0.1088 -0.3542
  666TMC3    C6 9909   1.515   3.883   9.505  0.3064 -0.0290  0.1153
  666TMC3     C 9910   1.308   3.573   9.700  0.7472  0.0512  0.1079
  666TMC3     O 9911   1.330   3.596   9.822  0.1589 -0.0882 -0.0925
  666TMC3     H 9912   1.456   3.549   9.461  0.9852 -0.4329 -0.6080
  666TMC3    H1 9913   1.311   3.800   9.763  0.4302 -1.1703  0.0861
  666TMC3    H2 9914   1.578   3.962   9.466 -1.9741  1.7700  0.0940
  666TMC3    C7 9915   1.438   4.011   9.699 -0.2518  0.1786  0.5866
  666TMC3    C8 9916   1.646   3.734   9.385  0.3167 -0.0459 -0.4035
  666TMC3    O1 9917   1.356   4.015   9.791 -0.1288 -0.2865  0.0173
  666TMC3    O2 9918   1.656   3.811   9.291 -0.0664 -0.5034 -0.6018
  667MPD2     C 9919   2.248   4.343  14.571  0.2503  0.9218  0.4706
  667MPD2    C1 9920   2.154   4.377  14.664  0.0835 -0.2261 -0.0804
  667MPD2    C2 9921   2.027   4.337  14.646 -0.1386 -0.2816  0.7769
  667MPD2    C3 9922   1.982   4.268  14.531 -0.2556  0.4014  0.4003
  667MPD2    C4 9923   2.073   4.233  14.434 -0.1809 -0.2883 -0.3225
  667MPD2    C5 9924   2.204   4.274  14.456  0.4508 -0.1311  0.5449
  667MPD2     H 9925   1.952   4.361  14.721 -0.6161 -0.4734  0.3596
  667MPD2    H1 9926   2.056   4.179  14.341  0.9585 -0.3253 -0.5089
  667MPD2    H2 9927   2.349   4.381  14.569  1.1896 -1.5259  0.3603
  667MPD2    H3 9928   2.268   4.260  14.370 -1.1608 -0.9244 -0.5356
  667MPD2     N 9929   1.851   4.221  14.508  0.1029  0.7602  0.1128
  667MPD2    H5 9930   1.842   4.182  14.415  1.6422  2.0382 -0.5825
  667MPD2    N1 9931   2.177   4.452  14.778  0.4267  0.3383 -0.0897
  667MPD2    H7 9932   2.115   4.427  14.855 -0.1892 -0.9235 -0.9924
  668TMC3    C1 9933   2.287   4.582  14.932 -0.1898 -0.2075  0.3706
  668TMC3    C2 9934   2.351   4.703  14.950  0.5200 -0.1096 -0.4169
  668TMC3    C3 9935   2.385   0.009  15.075  0.0794 -0.4117  0.2395
  668TMC3    C4 9936   2.252   4.504  15.036 -0.5458  0.5178 -0.6479
  668TMC3    C5 9937   2.268   4.553  15.160  0.2924 -0.0254 -0.8475
  668TMC3    C6 9938   2.345   4.663  15.182 -0.2761 -0.1938 -0.2825
  668TMC3     C 9939   2.285   4.535  14.797 -0.7417 -0.1684  0.4387
  668TMC3     O 9940   2.368   4.582  14.722 -0.2250 -0.6220  0.1437
  668TMC3     H 9941   2.381   0.021  14.860 -1.5068  0.1901 -0.9081
  668TMC3    H1 9942   2.201   4.410  15.019  0.7846  0.1504 -2.5618
  668TMC3    H2 9943   2.360   4.691  15.286  0.0497  0.2164 -0.4430
  668TMC3    C7 9944   2.215   4.474  15.271  0.3925  0.6413 -0.7875
  668TMC3    C8 9945   2.415   0.149  15.100 -0.1322 -0.6225 -0.3584
  668TMC3    O1 9946   2.273   4.490  15.379 -0.0112  0.2707 -0.2260
  668TMC3    O2 9947   2.399   0.187  15.213  0.4424  0.6920 -0.0380
  669TMC3    C1 9948   0.118   4.217  14.603  0.1132  0.0567 -0.5890
  669TMC3    C2 9949   0.023   4.148  14.529 -0.5709  0.4072 -0.1339
  669TMC3    C3 9950   0.031   4.174  14.394 -0.7619 -0.6487  0.1180
  669TMC3    C4 9951   0.204   4.310  14.554 -0.5342  0.3918 -0.8399
  669TMC3    C5 9952   0.193   4.353  14.423 -1.0595  0.1021 -0.4987
  669TMC3    C6 9953   0.113   4.278  14.340 -0.4619  0.2249 -0.1462
  669TMC3     C 9954   0.134   4.177  14.742  0.1673  0.1211  0.0294
  669TMC3     O 9955   0.033   4.127  14.790 -0.3062  0.4957  0.3008
  669TMC3     H 9956   4.694   4.070  14.566  0.4547 -0.4889 -0.2405
  669TMC3    H1 9957   0.279   4.356  14.617 -0.8349 -0.4874  0.1516
  669TMC3    H2 9958   0.098   4.298  14.235 -0.3504  1.9903  0.1762
  669TMC3    C7 9959   0.287   4.456  14.376  0.8675 -0.1402 -0.0957
  669TMC3    C8 9960   4.707   4.085  14.299  0.3525  0.2044  0.1159
  669TMC3    O1 9961   0.360   4.501  14.462  0.1358 -0.2800  0.3324
  669TMC3    O2 9962   0.037   4.057  14.200  0.0772  0.4506 -0.3256
  670MPD2     C 9963   2.908   2.020  13.620 -0.1475  0.3661  0.5603
  670MPD2    C1 9964   2.998   1.928  13.673 -0.5362  0.3726  0.3608
  670MPD2    C2 9965   3.030   1.939  13.808 -0.1026 -0.1518 -0.1766
  670MPD2    C3 9966   2.962   2.018  13.894 -0.2267  0.5007  0.2835
  670MPD2    C4 9967   2.858   2.098  13.847 -0.2378  0.4058 -0.2096
  670MPD2    C5 9968   2.840   2.101  13.710 -0.6608 -0.3368 -0.0623
  670MPD2     H 9969   3.111   1.874  13.839 -0.3729 -0.8623 -0.9536
  670MPD2    H1 9970   2.804   2.172  13.905 -0.1631  0.3057 -0.0136
  670MPD2    H2 9971   2.878   2.025  13.516 -0.9575  1.5566  0.8577
  670MPD2    H3 9972   2.766   2.172  13.674  1.0190  0.2358 -2.4258
  670MPD2     N 9973   3.014   2.016  14.030 -0.2226  0.0639  0.2095
  670MPD2    H5 9974   3.092   1.955  14.051  0.1372  0.5861  0.3940
  670MPD2    N1 9975   3.084   1.847  13.596 -0.4662 -0.2982 -0.3605
  670MPD2    H7 9976   3.172   1.821  13.640 -2.0906 -0.8192  2.5746
  671TMC3    C1 9977   3.014   2.046  14.265 -0.2986 -0.1060 -0.1612
  671TMC3    C2 9978   3.149   2.019  14.259 -0.6762  0.2917 -0.9327
  671TMC3    C3 9979   3.204   1.931  14.355 -0.0497  0.1992  0.8583
  671TMC3    C4 9980   2.933   1.982  14.355 -0.0728  0.7967  0.0301
  671TMC3    C5 9981   2.989   1.877  14.436  0.3286  0.3445  0.5131
  671TMC3    C6 9982   3.124   1.852  14.435  0.4227  0.0228  0.0141
  671TMC3     C 9983   2.949   2.078  14.138 -0.1297 -0.1142 -0.6079
  671TMC3     O 9984   2.833   2.118  14.150  0.0756 -1.0169 -0.0595
  671TMC3     H 9985   3.221   2.076  14.201  2.3437 -1.2080  1.3519
  671TMC3    H1 9986   2.828   1.986  14.330 -0.0145  2.8313  0.0517
  671TMC3    H2 9987   3.160   1.763  14.485 -2.2341 -1.0944 -0.1084
  671TMC3    C7 9988   2.912   1.754  14.429  0.3189  0.1948 -0.1791
  671TMC3    C8 9989   3.329   1.872  14.307 -0.5379 -0.4839  0.1123
  671TMC3    O1 9990   2.979   1.664  14.378  0.5540  0.2957 -0.1495
  671TMC3    O2 9991   3.351   1.870  14.186 -0.3091 -0.4617 -0.1374
  672MPD2     C 9992   3.203   3.010   0.814  0.3712  0.8574  0.6251
  672MPD2    C1 9993   3.323   3.034   0.747 -0.6461  0.2845 -0.2603
  672MPD2    C2 9994   3.364   3.158   0.710 -0.3227 -0.7932  0.5490
  672MPD2    C3 9995   3.281   3.267   0.734 -0.4769  0.0626  0.4614
  672MPD2    C4 9996   3.174   3.249   0.814  0.3819 -0.3898 -0.2774
  672MPD2    C5 9997   3.125   3.123   0.845  0.6556  0.0474  0.2371
  672MPD2     H 9998   3.454   3.165   0.650  0.6956 -2.6213  1.8587
  672MPD2    H1 9999   3.110   3.332   0.844  1.1925  0.4107 -0.7465
  672MPD2    H210000   3.165   2.910   0.832 -0.1223  1.1835  1.4071
  672MPD2    H310001   3.031   3.104   0.896  0.7132 -2.9259 -0.7823
  672MPD2     N10002   3.301   3.393   0.677 -0.5203  0.7375  0.1230
  672MPD2    H510003   3.222   3.456   0.678 -0.4639  0.7820  1.6577
  672MPD2    N110004   3.408   2.924   0.716  0.3875 -0.0029  0.2329
  672MPD2    H710005   3.487   2.949   0.658 -0.5571 -0.6757 -1.3444
  673TMC3    C110006   3.498   2.720   0.687 -0.9217 -1.1046  0.1114
  673TMC3    C210007   3.611   2.691   0.759 -0.1813 -0.2583  0.6711
  673TMC3    C310008   3.729   2.657   0.691  0.6944 -0.2315  0.2623
  673TMC3    C410009   3.499   2.744   0.550 -0.1486  0.8037  0.4078
  673TMC3    C510010   3.618   2.706   0.489 -0.5434 -0.5061  0.4198
  673TMC3    C610011   3.735   2.668   0.553 -0.1003  0.0469 -0.3775
  673TMC3     C10012   3.398   2.790   0.759 -0.2650 -0.2155 -0.0926
  673TMC3     O10013   3.319   2.731   0.832 -0.3066 -0.2474  0.4962
  673TMC3     H10014   3.596   2.703   0.866 -1.8035  1.3827  0.2533
  673TMC3    H110015   3.413   2.779   0.494  0.5080  1.9385  0.0956
  673TMC3    H210016   3.820   2.627   0.500 -0.5024 -1.8325  0.4275
  673TMC3    C710017   3.613   2.671   0.350 -0.5817  0.2756  0.8734
  673TMC3    C810018   3.846   2.664   0.768  0.1263  0.4005 -0.6947
  673TMC3    O110019   3.673   2.571   0.316  0.0699  0.3784  0.5866
  673TMC3    O210020   3.832   2.652   0.893  0.2899 -0.2690  0.2896
  674MPD2     C10021   3.577   2.081  17.626 -0.2101  0.8178  0.3088
  674MPD2    C110022   3.555   2.009   0.003 -0.5080  0.5350 -0.0254
  674MPD2    C210023   3.515   2.079   0.110 -0.1111 -0.7636  0.0658
  674MPD2    C310024   3.484   2.206   0.103 -0.0510  0.1546  0.2084
  674MPD2    C410025   3.487   2.277  17.727 -0.2682 -0.3734 -0.2567
  674MPD2    C510026   3.545   2.213  17.626  0.4582  0.1317 -0.2881
  674MPD2     H10027   3.523   2.025   0.204  1.0786 -0.1917  0.2973
  674MPD2    H110028   3.467   2.384  17.723 -1.4539 -0.6280 -1.2447
  674MPD2    H210029   3.614   2.032  17.536  0.5998  2.6440 -0.3588
  674MPD2    H310030   3.548   2.270  17.534  2.0425 -0.3980 -0.5732
  674MPD2     N10031   3.460   2.269   0.228 -0.4912 -0.2284 -0.0897
  674MPD2    H510032   3.459   2.209   0.310 -0.7317 -1.4914 -1.0126
  674MPD2    N110033   3.576   1.876   0.018  0.0765 -0.1653 -0.5446
  674MPD2    H710034   3.525   1.840   0.099  2.4258 -1.4016  0.3625
  675TMC3    C110035   3.705   1.684   0.001  0.4713  0.0413  0.1192
  675TMC3    C210036   3.612   1.616   0.078 -0.2437 -0.2111  0.2007
  675TMC3    C310037   3.661   1.540   0.188  0.0230 -0.2802  0.2209
  675TMC3    C410038   3.830   1.688   0.055  0.1506 -0.9264  0.2129
  675TMC3    C510039   3.877   1.625   0.168  0.6764 -0.1833 -0.1913
  675TMC3    C610040   3.793   1.535   0.236  0.1232 -0.2097  0.3579
  675TMC3     C10041   3.660   1.803  17.680 -0.1238  0.2149  0.2770
  675TMC3     O10042   3.723   1.844  17.586 -0.0763  0.5365 -0.2853
  675TMC3     H10043   3.508   1.631   0.054 -0.0490  0.6690 -0.0937
  675TMC3    H110044   3.897   1.761   0.010  1.4157 -1.8244  0.6432
  675TMC3    H210045   3.834   1.475   0.316 -0.5777 -2.6765 -1.1127
  675TMC3    C710046   3.982   1.679   0.244 -0.1228  0.4930  0.8630
  675TMC3    C810047   3.566   1.462   0.272  0.0067  0.6435  0.0516
  675TMC3    O110048   4.024   1.601   0.331  0.7382 -0.6843 -0.1052
  675TMC3    O210049   3.612   1.411   0.372  0.6390  0.1325  0.1454
  676MPD2     C10050   1.577   0.148  11.146  0.1475  0.2123 -0.0181
  676MPD2    C110051   1.611   0.076  11.265  0.0619  0.0109  0.3155
  676MPD2    C210052   1.672   4.685  11.253  0.5630  0.2270  0.5040
  676MPD2    C310053   1.709   4.639  11.129  0.6881 -0.0232  1.2513
  676MPD2    C410054   1.677   4.715  11.017  0.2050 -0.1742 -0.5805
  676MPD2    C510055   1.602   0.096  11.030  0.1478  0.3403 -0.3043
  676MPD2     H10056   1.694   4.624  11.340  1.1257  1.0396  0.9314
  676MPD2    H110057   1.701   4.681  10.917 -0.9918  2.0685 -1.6246
  676MPD2    H210058   1.542   0.250  11.138  1.0244  0.3113 -2.6125
  676MPD2    H310059   1.584   0.160  10.945  1.1416  2.1464  0.8557
  676MPD2     N10060   1.775   4.517  11.110 -0.0782 -0.0341  0.3521
  676MPD2    H510061   1.806   4.503  11.014  2.2581 -1.2375  1.2971
  676MPD2    N110062   1.568   0.125  11.389  0.0190 -0.0442  0.6289
  676MPD2    H710063   1.563   0.059  11.465 -0.0198 -0.3089  0.3953
  677TMC3    C110064   1.490   0.262  11.557 -0.0403  0.1433 -0.6343
  677TMC3    C210065   1.456   0.150  11.628  0.0514 -0.5259 -0.3618
  677TMC3    C310066   1.353   0.157  11.718  0.6770  0.5418  0.4189
  677TMC3    C410067   1.431   0.381  11.592  1.2101  0.4031 -0.2759
  677TMC3    C510068   1.340   0.383  11.692 -0.8150 -0.1830 -0.2324
  677TMC3    C610069   1.279   0.273  11.739 -0.5264 -0.5536 -0.1382
  677TMC3     C10070   1.536   0.255  11.420 -0.5698  0.3376 -0.3493
  677TMC3     O10071   1.531   0.347  11.345  0.3764 -0.0843 -0.4547
  677TMC3     H10072   1.506   0.054  11.620  1.6980  0.4270 -1.6895
  677TMC3    H110073   1.456   0.477  11.547  0.9412  0.5798 -0.0471
  677TMC3    H210074   1.189   0.278  11.799  1.3937 -0.2874  2.7543
  677TMC3    C710075   1.294   0.499  11.765  0.2344 -0.2772 -0.4764
  677TMC3    C810076   1.317   0.029  11.774 -0.0766  0.1056  0.4002
  677TMC3    O110077   1.186   0.493  11.822  0.2599 -0.5844 -0.2439
  677TMC3    O210078   1.313   4.674  11.688 -0.2665 -0.6102  0.5050
  678MPD2     C10079   2.291   0.637   1.497  0.8257  0.1418 -0.1095
  678MPD2    C110080   2.284   0.564   1.380 -0.0918  0.7667  0.0800
  678MPD2    C210081   2.166   0.524   1.323  0.6334  0.4403  0.2648
  678MPD2    C310082   2.043   0.550   1.392 -1.0596 -0.3686 -0.0742
  678MPD2    C410083   2.048   0.622   1.508  0.1460 -1.3448 -0.2880
  678MPD2    C510084   2.170   0.668   1.554  0.0683  0.1900 -0.7804
  678MPD2     H10085   2.174   0.466   1.232  0.0514  0.9729 -0.1186
  678MPD2    H110086   1.958   0.661   1.552  1.1450 -1.0969  1.5549
  678MPD2    H210087   2.390   0.664   1.532  1.9376 -0.9593 -2.4163
  678MPD2    H310088   2.159   0.743   1.633 -0.0152 -0.3858 -0.2466
  678MPD2     N10089   1.920   0.508   1.325 -0.1586 -1.2506 -0.2536
  678MPD2    H510090   1.932   0.473   1.230 -0.3364  2.1973 -1.5211
  678MPD2    N110091   2.396   0.526   1.299  0.6248  0.4760 -0.7004
  678MPD2    H710092   2.375   0.492   1.205 -0.3571  0.0728 -0.3308
  679TMC3    C110093   2.828   0.408   1.172  0.0352  0.0680  0.6991
  679TMC3    C210094   2.739   0.440   1.264  0.1657  0.3206  0.0470
  679TMC3    C310095   2.605   0.437   1.235  0.2352 -0.2832  0.0974
  679TMC3    C410096   2.783   0.356   1.053  0.4970 -0.5105 -0.7055
  679TMC3    C510097   2.650   0.361   1.027  0.4339  0.2663  0.1691
  679TMC3    C610098   2.553   0.403   1.114  0.0157 -0.5610  0.2775
  679TMC3     C10099   2.965   0.459   1.174  0.5847 -0.2531  0.1011
  679TMC3     O10100   3.026   0.434   1.071  0.1049  0.0894  0.3424
  679TMC3     H10101   2.775   0.455   1.365  1.2538 -0.4357 -0.2258
  679TMC3    H110102   2.860   0.325   0.983  1.1932 -0.9416  0.2368
  679TMC3    H210103   2.446   0.395   1.095 -0.1289  2.0956 -0.0032
  679TMC3    C710104   2.618   0.384   0.886 -0.1120 -0.6475  0.4770
  679TMC3    C810105   2.526   0.506   1.336  0.2355  0.8373 -0.6445
  679TMC3    O110106   2.527   0.459   0.854  0.6393  0.4635  0.2956
  679TMC3    O210107   2.575   0.537   1.442  1.1147  0.1890  0.3925
  680MPD2     C10108   3.916   3.579  13.889 -0.2255  0.0160 -0.2466
  680MPD2    C110109   3.819   3.587  13.788 -0.1978 -0.0994  0.0793
  680MPD2    C210110   3.739   3.705  13.788  0.7674  1.1405  0.1139
  680MPD2    C310111   3.752   3.803  13.886 -0.0452  0.7275 -0.0017
  680MPD2    C410112   3.857   3.791  13.974  0.0523 -1.5580  0.0260
  680MPD2    C510113   3.937   3.683  13.968  0.0281  0.1297 -0.4686
  680MPD2     H10114   3.657   3.724  13.719  0.8318  1.8823  0.2370
  680MPD2    H110115   3.874   3.861  14.054  2.3033 -0.8637 -1.0756
  680MPD2    H210116   3.962   3.482  13.899 -1.1144 -0.4112 -0.2933
  680MPD2    H310117   4.018   3.678  14.040  0.0674  1.0378 -0.4398
  680MPD2     N10118   3.675   3.918  13.895  0.5163  0.4458  0.2365
  680MPD2    H510119   3.712   3.982  13.965 -0.7150  1.1516  0.2370
  680MPD2    N110120   3.788   3.487  13.687  0.3660  0.1518 -0.6307
  680MPD2    H710121   3.711   3.505  13.623 -0.4568 -1.7634 -0.2022
  681TMC3    C110122   3.810   3.305  13.556  0.0990 -0.1439 -0.6273
  681TMC3    C210123   3.677   3.317  13.538  0.5257  0.2114 -0.2637
  681TMC3    C310124   3.626   3.299  13.410  0.2760  0.1099  0.1528
  681TMC3    C410125   3.897   3.278  13.451 -0.5745  0.2812 -0.4197
  681TMC3    C510126   3.843   3.256  13.327  0.0303  0.8749 -0.4128
  681TMC3    C610127   3.706   3.264  13.306 -0.0197 -0.3886  0.3480
  681TMC3     C10128   3.867   3.380  13.669  0.0740 -0.3157  0.0555
  681TMC3     O10129   3.979   3.349  13.705 -0.5910  0.5970 -0.2814
  681TMC3     H10130   3.615   3.321  13.627 -0.7226 -1.3134 -1.0687
  681TMC3    H110131   4.004   3.294  13.461 -0.5690 -0.2522  0.3572
  681TMC3    H210132   3.671   3.216  13.215 -1.6968 -1.0610  1.3436
  681TMC3    C710133   3.946   3.202  13.242 -0.1195 -0.2228  0.1136
  681TMC3    C810134   3.477   3.296  13.395 -0.0299 -0.7258  0.0693
  681TMC3    O110135   4.044   3.156  13.299  0.1632 -0.4252 -0.4993
  681TMC3    O210136   3.439   3.224  13.305 -0.0292 -0.1601 -0.0224
  682MPD2     C10137   1.098   0.333  10.547  0.1139  0.0851 -0.1145
  682MPD2    C110138   1.026   0.217  10.522 -0.1161  0.0374 -0.4076
  682MPD2    C210139   0.912   0.195  10.598 -0.0810 -0.4174 -0.2471
  682MPD2    C310140   0.870   0.282  10.698 -0.0153  0.0594  0.9603
  682MPD2    C410141   0.943   0.400  10.712 -0.0901 -0.1230  0.0017
  682MPD2    C510142   1.051   0.425  10.634  0.1000 -0.4829  0.2894
  682MPD2     H10143   0.857   0.102  10.588 -0.1908 -0.4240  0.4360
  682MPD2    H110144   0.915   0.480  10.780  0.5744  0.5661 -0.5421
  682MPD2    H210145   1.188   0.356  10.491  1.4442 -0.2554  1.8836
  682MPD2    H310146   1.101   0.520  10.651  0.2136 -0.3758 -0.6349
  682MPD2     N10147   0.760   0.275  10.786  0.5409  0.4057  0.0949
  682MPD2    H510148   0.745   0.363  10.834 -1.4801  0.1038  0.0274
  682MPD2    N110149   1.078   0.118  10.438  0.5573  0.3052 -0.1370
  682MPD2    H710150   1.040   0.024  10.438  2.8403 -0.6395  0.1753
  683TMC3    C110151   0.525   0.180  11.115  0.3004  0.4930  0.5036
  683TMC3    C210152   0.462   0.059  11.098 -0.2990  0.6469  0.2254
  683TMC3    C310153   0.436   0.025  10.970 -0.2411 -0.0422 -0.5884
  683TMC3    C410154   0.579   0.245  11.003 -0.2191  0.9507  0.1371
  683TMC3    C510155   0.557   0.191  10.879  0.0405  0.5708 -0.3646
  683TMC3    C610156   0.469   0.089  10.858 -0.4635 -0.5986 -0.4269
  683TMC3     C10157   0.519   0.260  11.236  0.4084  0.8180 -0.2113
  683TMC3     O10158   0.544   0.376  11.229 -0.0306  0.2400  0.0572
  683TMC3     H10159   0.427   4.729  11.176  4.3759  0.8320  2.4559
  683TMC3    H110160   0.651   0.324  11.023 -1.7835  2.4375 -0.0282
  683TMC3    H210161   0.464   0.035  10.764 -0.1820  1.0052 -1.3655
  683TMC3    C710162   0.675   0.166  10.789 -0.5736 -0.1318 -0.2115
  683TMC3    C810163   0.395   4.626  10.947 -0.1363 -0.4243 -0.0825
  683TMC3    O110164   0.682   0.059  10.730  0.0839  0.0429 -0.8157
  683TMC3    O210165   0.317   4.613  10.853 -0.0000 -1.1492 -0.4166
  684MPD2     C10166   3.553   0.266  16.130  0.3984 -0.7392  0.6283
  684MPD2    C110167   3.440   0.241  16.058  0.0906 -0.5984  0.1327
  684MPD2    C210168   3.318   0.257  16.113  0.0599  0.4736  0.9139
  684MPD2    C310169   3.302   0.326  16.229  0.4654  0.2735  0.2802
  684MPD2    C410170   3.419   0.363  16.306 -0.3102 -0.2036 -0.0009
  684MPD2    C510171   3.544   0.324  16.255  0.3824 -0.0837  0.6024
  684MPD2     H10172   3.228   0.227  16.060  0.4746 -0.8977  0.9910
  684MPD2    H110173   3.406   0.412  16.402 -2.7735 -2.1007  0.6224
  684MPD2    H210174   3.649   0.230  16.094  0.1561 -2.7478  1.9772
  684MPD2    H310175   3.631   0.328  16.320  0.2268  0.0861  0.7984
  684MPD2     N10176   3.183   0.361  16.292  0.2622  0.0250  0.0478
  684MPD2    H510177   3.192   0.402  16.384  1.4972  0.9808 -0.5007
  684MPD2    N110178   3.435   0.183  15.926 -0.6108 -0.1618 -0.7759
  684MPD2    H710179   3.340   0.191  15.891  0.1677  1.0919 -2.5872
  685TMC3    C110180   3.490   0.059  15.733 -0.3559 -0.0489 -0.6788
  685TMC3    C210181   3.366   4.734  15.728 -0.4513  0.3608 -0.3527
  685TMC3    C310182   3.354   4.620  15.654  0.0608  0.4780  0.6098
  685TMC3    C410183   3.594   0.015  15.655  0.2851 -0.2167 -0.0033
  685TMC3    C510184   3.573   4.633  15.584  0.3413  0.4543  0.5706
  685TMC3    C610185   3.453   4.569  15.576 -0.4596  0.0353  0.3771
  685TMC3     C10186   3.535   0.124  15.853 -0.1393  0.0691  0.4214
  685TMC3     O10187   3.656   0.111  15.878  0.2366  0.4785  0.2278
  685TMC3     H10188   3.286   0.025  15.796  0.2546  0.0566  0.6103
  685TMC3    H110189   3.683   0.075  15.644 -0.1851  0.3075 -1.0237
  685TMC3    H210190   3.438   4.479  15.518  0.6951  0.7052 -0.9551
  685TMC3    C710191   3.686   4.543  15.599  0.9023 -0.0773  0.4198
  685TMC3    C810192   3.248   4.521  15.672 -0.5909 -0.1459 -0.2583
  685TMC3    O110193   3.677   4.439  15.538  0.7442  0.0364 -0.0410
  685TMC3    O210194   3.291   4.405  15.664  0.3344  0.9778  0.2378
  686MPD2     C10195   0.054   0.263  15.227  0.2510 -0.2711 -0.8471
  686MPD2    C110196   4.730   0.143  15.261 -0.1020  0.2138  0.0583
  686MPD2    C210197   0.007   0.039  15.167 -0.0335  0.3315  0.2926
  686MPD2    C310198   0.091   0.048  15.057  0.7343  0.2710 -0.4766
  686MPD2    C410199   0.149   0.169  15.027 -0.2361  0.0143  0.7414
  686MPD2    C510200   0.128   0.268  15.113 -0.0989  0.4059  0.6549
  686MPD2     H10201   4.680   4.688  15.180  1.6009 -0.9430 -0.3726
  686MPD2    H110202   0.214   0.187  14.942 -2.3192  0.1463 -0.8252
  686MPD2    H210203   0.054   0.348  15.294  2.2441 -0.1774 -0.9908
  686MPD2    H310204   0.172   0.364  15.087 -0.3880  0.0535 -1.1400
  686MPD2     N10205   0.127   4.674  14.974 -0.4990  0.3418 -0.2909
  686MPD2    H510206   0.174   4.698  14.888  1.7313  1.5662  1.2756
  686MPD2    N110207   4.660   0.131  15.378 -0.5081 -0.5133 -0.2443
  686MPD2    H710208   4.630   0.212  15.432  0.0077 -0.1785 -0.4524
  687TMC3    C110209   0.059   4.491  15.114 -0.1777  0.3682  0.4313
  687TMC3    C210210   4.693   4.401  15.122 -0.0562  0.5268  0.3901
  687TMC3    C310211   4.685   4.313  15.228 -0.7678  0.1256 -0.0316
  687TMC3    C410212   0.152   4.500  15.219 -0.1427 -0.5073 -0.1665
  687TMC3    C510213   0.134   4.416  15.326  0.4560 -0.4507  0.3183
  687TMC3    C610214   0.047   4.311  15.322 -0.2933  0.0309 -0.8516
  687TMC3     C10215   0.084   4.543  14.983  0.3588  0.1252 -1.0049
  687TMC3     O10216   0.092   4.465  14.891  0.6625  0.3525  0.4299
  687TMC3     H10217   4.629   4.377  15.037 -1.4323  3.9775  0.4274
  687TMC3    H110218   0.226   4.579  15.218 -0.2785 -0.3813 -0.8575
  687TMC3    H210219   0.030   4.259  15.416  4.9969 -0.9194 -0.3865
  687TMC3    C710220   0.219   4.437  15.441 -0.0234 -0.1995  0.2127
  687TMC3    C810221   4.548   4.311  15.285 -0.0871  0.1625  0.4155
  687TMC3    O110222   0.257   4.332  15.490  0.5054 -0.6727  0.3251
  687TMC3    O210223   4.525   4.226  15.369 -0.0835 -0.3818 -0.4303
  688MPD2     C10224   4.157   3.765  17.172 -0.3190  0.1443 -0.1235
  688MPD2    C110225   4.118   3.629  17.164  0.3471 -0.3491  0.0012
  688MPD2    C210226   4.218   3.533  17.154 -0.7367  0.5840 -0.3264
  688MPD2    C310227   4.349   3.560  17.160 -0.3886 -0.1256 -0.4624
  688MPD2    C410228   4.389   3.692  17.172 -0.0697  0.6601  0.0785
  688MPD2    C510229   4.291   3.793  17.188  0.2073  0.1669 -0.2776
  688MPD2     H10230   4.181   3.432  17.139  0.2099  0.0582  0.8103
  688MPD2    H110231   4.494   3.715  17.186  0.2864  0.1766 -1.8695
  688MPD2    H210232   4.087   3.847  17.163  1.0710  1.2905 -0.5071
  688MPD2    H310233   4.323   3.894  17.211 -1.6629  0.8835 -0.7550
  688MPD2     N10234   4.451   3.465  17.136  0.6468 -0.3183  0.2258
  688MPD2    H510235   4.546   3.495  17.152  0.1058  0.7468  1.4807
  688MPD2    N110236   3.985   3.592  17.143 -1.1274  0.4172  0.0632
  688MPD2    H710237   3.964   3.496  17.117 -1.1423  0.5212 -0.3099
  689TMC3    C110238   3.752   3.594  17.178  0.4941  0.0559 -0.1452
  689TMC3    C210239   3.644   3.675  17.174 -0.5077  1.7572  0.3812
  689TMC3    C310240   3.535   3.637  17.256  0.4199  0.2713 -0.0798
  689TMC3    C410241   3.767   3.482  17.256 -0.1663  0.5023  0.6810
  689TMC3    C510242   3.645   3.447  17.322 -0.4897  0.1790  0.0661
  689TMC3    C610243   3.532   3.529  17.339  0.0660  0.0709  1.0405
  689TMC3     C10244   3.873   3.673  17.168 -0.4431  0.0175 -0.1427
  689TMC3     O10245   3.867   3.794  17.181  0.2154  0.0181 -0.2828
  689TMC3     H10246   3.640   3.764  17.112  0.2389  1.2821 -0.3392
  689TMC3    H110247   3.862   3.432  17.271  0.4251  0.7807 -2.1052
  689TMC3    H210248   3.446   3.507  17.401  0.5037  0.3848  1.7532
  689TMC3    C710249   3.652   3.360  17.433  0.0886  0.3785 -0.9376
  689TMC3    C810250   3.439   3.740  17.285 -0.4351 -0.3679 -0.1440
  689TMC3    O110251   3.601   3.404  17.534  0.4790  0.3263  0.5643
  689TMC3    O210252   3.369   3.723  17.383  0.3799 -0.0815 -0.4194
  690MPD2     C10253   1.839   0.732  15.707 -0.3719  0.8767  0.5029
  690MPD2    C110254   1.814   0.706  15.578 -0.1086 -0.0850 -0.4553
  690MPD2    C210255   1.914   0.731  15.482 -0.7527  0.1911  0.0201
  690MPD2    C310256   2.034   0.788  15.517 -0.1358 -0.5953 -0.3222
  690MPD2    C410257   2.062   0.809  15.650 -0.3145  0.1649 -0.2415
  690MPD2    C510258   1.966   0.776  15.745 -1.0267 -0.7413 -0.0985
  690MPD2     H10259   1.892   0.706  15.378  4.0357  0.9097 -1.1770
  690MPD2    H110260   2.153   0.852  15.689  0.5931  0.9274 -3.1709
  690MPD2    H210261   1.770   0.729  15.791 -1.8049 -2.3750 -0.8019
  690MPD2    H310262   1.976   0.806  15.849  2.2368 -0.6794 -0.4566
  690MPD2     N10263   2.129   0.808  15.413 -0.3213 -0.1299 -0.8096
  690MPD2    H510264   2.099   0.783  15.319  0.8144 -0.9487 -0.9584
  690MPD2    N110265   1.685   0.657  15.534  0.2321  0.1769 -0.0054
  690MPD2    H710266   1.675   0.636  15.436 -0.2310  1.7032 -0.2903
  691TMC3    C110267   1.460   0.589  15.525  0.3376 -0.2573  0.1033
  691TMC3    C210268   1.337   0.617  15.563  0.0644  0.0163  0.0048
  691TMC3    C310269   1.235   0.524  15.548 -0.2455  0.2865 -0.2570
  691TMC3    C410270   1.483   0.474  15.456  0.0994  0.7914  0.0254
  691TMC3    C510271   1.380   0.376  15.448  0.2368 -0.0991  0.7791
  691TMC3    C610272   1.254   0.401  15.496  0.2625 -0.3935  0.7407
  691TMC3     C10273   1.571   0.650  15.605  0.5430 -0.1552  0.8124
  691TMC3     O10274   1.545   0.683  15.723 -0.6321 -0.0656 -0.2562
  691TMC3     H10275   1.320   0.707  15.621 -0.4505  1.2665 -2.0836
  691TMC3    H110276   1.579   0.439  15.420 -0.3927 -1.0773  0.5321
  691TMC3    H210277   1.176   0.327  15.494 -2.7397  2.8411 -1.5141
  691TMC3    C710278   1.423   0.236  15.465 -0.3548 -0.2189 -0.0443
  691TMC3    C810279   1.098   0.574  15.584 -0.0288  0.7258  0.2016
  691TMC3    O110280   1.544   0.221  15.490  0.1190  0.3137  0.1850
  691TMC3    O210281   1.098   0.671  15.658  0.3199  0.6198  0.1620
  692TMC3    C110282   3.224   1.588  15.781 -0.1756 -0.1411 -0.2571
  692TMC3    C210283   3.343   1.647  15.810  0.4018  0.7205  0.5389
  692TMC3    C310284   3.463   1.573  15.816 -0.7023  0.0131 -0.2510
  692TMC3    C410285   3.209   1.456  15.775  0.1028 -0.2217  0.0659
  692TMC3    C510286   3.326   1.382  15.782 -0.7509 -0.2971  0.7002
  692TMC3    C610287   3.455   1.439  15.783 -0.4956 -0.4101 -0.4229
  692TMC3     C10288   3.114   1.677  15.739  0.1858  0.4515  0.0442
  692TMC3     O10289   3.150   1.783  15.685  0.2681  0.3152 -0.2405
  692TMC3     H10290   3.355   1.754  15.810 -0.7862  0.8633 -0.6421
  692TMC3    H110291   3.123   1.412  15.727 -0.7361  1.2249  0.2289
  692TMC3    H210292   3.536   1.367  15.792 -0.2901 -0.2679 -1.1677
  692TMC3    C710293   3.317   1.242  15.740  0.6177  0.0179 -0.1527
  692TMC3    C810294   3.532   1.582  15.949  0.1687  0.4903  0.4072
  692TMC3    O110295   3.421   1.198  15.695 -0.6155  0.4077 -0.4643
  692TMC3    O210296   3.568   1.479  15.996 -0.4081 -0.5431 -0.1012
  693MPD2     C10297   2.748   4.500  10.785  0.0093 -0.3621  0.3129
  693MPD2    C110298   2.696   4.446  10.899 -0.4932  0.2046  0.2089
  693MPD2    C210299   2.778   4.420  11.007  0.6703  0.0448 -0.3009
  693MPD2    C310300   2.916   4.436  10.997 -0.4694 -0.2635 -0.5329
  693MPD2    C410301   2.970   4.476  10.878  0.1933 -0.4311  0.8368
  693MPD2    C510302   2.889   4.512  10.773  0.3593  0.5915 -0.0559
  693MPD2     H10303   2.740   4.367  11.093 -1.1359 -1.9051 -2.3194
  693MPD2    H110304   3.078   4.486  10.868  0.0533  0.1348 -0.1249
  693MPD2    H210305   2.687   4.525  10.700  0.7347 -0.8043 -0.3360
  693MPD2    H310306   2.935   4.530  10.677  1.9376 -1.1347  0.3650
  693MPD2     N10307   2.997   4.398  11.103  0.4821 -0.1331  0.2514
  693MPD2    H510308   3.097   4.412  11.086  0.5684 -1.1019 -0.0200
  693MPD2    N110309   2.562   4.414  10.878  0.5898 -0.5014  0.4534
  693MPD2    H710310   2.512   4.419  10.790  1.1044 -1.8072  0.0752
  694TMC3    C110311   2.392   4.293  10.969  0.1412 -0.1782 -0.1026
  694TMC3    C210312   2.418   4.178  10.897 -0.0287 -0.0203  0.4222
  694TMC3    C310313   2.383   4.055  10.957 -0.7047  0.0130  0.5069
  694TMC3    C410314   2.315   4.279  11.085  0.4910 -0.0766  0.1411
  694TMC3    C510315   2.283   4.156  11.140 -0.2097 -0.3164 -0.9133
  694TMC3    C610316   2.321   4.045  11.074 -0.6733 -0.1675 -0.6030
  694TMC3     C10317   2.492   4.392  10.989  0.7216  1.0043  0.1485
  694TMC3     O10318   2.519   4.414  11.108 -0.3672 -0.7342  0.1649
  694TMC3     H10319   2.492   4.174  10.818 -0.2063  2.5403  0.1336
  694TMC3    H110320   2.293   4.370  11.140  1.0056  0.8747 -1.2199
  694TMC3    H210321   2.289   3.951  11.117  1.2087 -0.3302  0.3926
  694TMC3    C710322   2.284   4.154  11.286 -0.0998 -0.0095 -0.0840
  694TMC3    C810323   2.376   3.937  10.873  0.5771  0.2573 -0.0717
  694TMC3    O110324   2.248   4.255  11.347  0.2423 -0.3744  0.0160
  694TMC3    O210325   2.352   3.832  10.927  0.0717  1.4472 -0.3689
  695MPD2     C10326   3.361   1.317  13.440 -0.5495 -0.0452 -0.2279
  695MPD2    C110327   3.364   1.374  13.563 -0.7188 -0.1567 -0.6458
  695MPD2    C210328   3.249   1.419  13.615  0.3458  0.3123  0.1737
  695MPD2    C310329   3.138   1.430  13.536  0.6435  0.4391  0.1104
  695MPD2    C410330   3.139   1.380  13.405 -0.5582  0.0093  0.2750
  695MPD2    C510331   3.256   1.331  13.354  0.6252 -0.5399 -0.1788
  695MPD2     H10332   3.252   1.464  13.714 -0.6673 -1.6323  1.0823
  695MPD2    H110333   3.051   1.380  13.342 -1.1020  1.7586  1.0175
  695MPD2    H210334   3.449   1.277  13.392 -1.5187  0.6889 -2.6051
  695MPD2    H310335   3.262   1.276  13.260 -1.1467  3.0616 -2.3657
  695MPD2     N10336   3.019   1.490  13.595 -0.0102  0.5701  0.2603
  695MPD2    H510337   3.025   1.517  13.693  0.1270 -1.3048  0.7774
  695MPD2    N110338   3.477   1.378  13.648  0.6360 -0.0502  0.0057
  695MPD2    H710339   3.457   1.421  13.737  1.2184  0.8972 -0.3242
  696TMC3    C110340   2.801   1.563  13.624  0.7643  0.1440  0.3954
  696TMC3    C210341   2.799   1.506  13.751  0.3390 -1.0493 -1.0061
  696TMC3    C310342   2.704   1.571  13.835  0.2209 -0.0689 -0.3703
  696TMC3    C410343   2.706   1.651  13.571  0.0412  0.3304 -0.0194
  696TMC3    C510344   2.609   1.694  13.653  0.3917 -0.1731  0.4906
  696TMC3    C610345   2.615   1.667  13.788 -0.4453  0.1509  0.3642
  696TMC3     C10346   2.897   1.504  13.525 -0.3317 -0.5402  0.1095
  696TMC3     O10347   2.871   1.501  13.405  0.3584 -0.3965  0.4318
  696TMC3     H10348   2.871   1.436  13.793  1.3613 -0.8333 -2.4128
  696TMC3    H110349   2.705   1.688  13.469  3.0298  3.2326  1.0132
  696TMC3    H210350   2.540   1.715  13.851 -0.5553 -0.5586  0.7781
  696TMC3    C710351   2.539   1.817  13.612 -0.5372  0.1435  0.0709
  696TMC3    C810352   2.722   1.562  13.977  0.7037 -0.3677  0.1734
  696TMC3    O110353   2.532   1.832  13.493 -0.3310 -0.1892 -0.7464
  696TMC3    O210354   2.839   1.545  14.015 -0.3015 -0.7927  0.0459
  697MPD2     C10355   2.998   3.388  15.613 -0.2159 -0.1226  0.6300
  697MPD2    C110356   2.899   3.348  15.528  0.3159  0.4345 -0.1990
  697MPD2    C210357   2.871   3.429  15.423 -0.3876  0.3844  0.1971
  697MPD2    C310358   2.935   3.547  15.402 -0.8280 -0.2306 -0.1548
  697MPD2    C410359   3.039   3.579  15.487 -0.1732 -0.0416  0.7053
  697MPD2    C510360   3.073   3.501  15.589  0.0166 -0.4199  1.4156
  697MPD2     H10361   2.802   3.392  15.348 -0.8145 -0.1187  0.8418
  697MPD2    H110362   3.104   3.665  15.474  0.7360 -0.5505  1.8903
  697MPD2    H210363   3.032   3.332  15.698  1.3013  1.3318  0.9743
  697MPD2    H310364   3.167   3.518  15.641  0.9244 -0.7999 -0.1070
  697MPD2     N10365   2.887   3.621  15.292 -0.3323 -0.3108  0.5008
  697MPD2    H510366   2.804   3.595  15.239 -0.2902 -0.0663  0.3086
  697MPD2    N110367   2.836   3.221  15.532  0.1067 -0.5647  0.8503
  697MPD2    H710368   2.761   3.204  15.466 -0.1768  2.3657  0.3820
  698TMC3    C110369   2.870   3.812  15.143 -0.5018  0.4833 -0.5611
  698TMC3    C210370   2.886   3.949  15.133  0.4107 -0.5916  0.3453
  698TMC3    C310371   2.823   4.001  15.028 -0.1833 -0.2636 -0.6315
  698TMC3    C410372   2.817   3.726  15.046 -0.3865  0.1237  0.2033
  698TMC3    C510373   2.769   3.792  14.934 -0.1660  0.0069  0.3653
  698TMC3    C610374   2.761   3.931  14.929  0.2714 -0.4709 -0.3521
  698TMC3     C10375   2.933   3.748  15.263  0.3500  0.1913  0.5542
  698TMC3     O10376   2.996   3.818  15.338  0.0650 -0.1744 -0.2212
  698TMC3     H10377   2.935   3.999  15.215 -0.2494 -0.8785  0.9154
  698TMC3    H110378   2.816   3.617  15.046 -0.2420  0.1097 -1.7042
  698TMC3    H210379   2.721   3.987  14.845  0.1041 -2.7580 -1.7963
  698TMC3    C710380   2.749   3.723  14.812 -0.0565  0.0648  0.9846
  698TMC3    C810381   2.853   4.140  15.000 -0.8845  0.0104 -0.2053
  698TMC3    O110382   2.697   3.781  14.715  0.8504  0.0847 -0.2741
  698TMC3    O210383   2.756   4.208  14.957  0.4697 -0.6732 -0.1261
  699TMC3    C110384   2.682   1.646  12.843 -0.0194 -0.0170  0.0436
  699TMC3    C210385   2.758   1.541  12.889 -0.1166 -0.1407  0.3213
  699TMC3    C310386   2.703   1.483  13.005 -0.2422  0.1312  0.0201
  699TMC3    C410387   2.562   1.689  12.892 -0.3772  0.8440  0.7338
  699TMC3    C510388   2.511   1.613  12.989  0.1286  0.6062 -0.2280
  699TMC3    C610389   2.574   1.501  13.041 -0.4424 -0.0498  0.0655
  699TMC3     C10390   2.744   1.745  12.761 -0.1396 -0.4853 -0.6783
  699TMC3     O10391   2.668   1.801  12.680 -0.8004 -0.8233  0.0544
  699TMC3     H10392   2.847   1.507  12.838 -0.8019 -1.6324  0.1161
  699TMC3    H110393   2.514   1.784  12.872 -0.7953  0.1525 -1.4601
  699TMC3    H210394   2.540   1.451  13.131 -1.7903  0.6623 -0.0498
  699TMC3    C710395   2.392   1.666  13.055 -0.0268  0.4466  0.8951
  699TMC3    C810396   2.749   1.347  13.022 -0.5213 -0.3913  0.5028
  699TMC3    O110397   2.381   1.619  13.170 -0.3902  0.1245 -0.1496
  699TMC3    O210398   2.655   1.271  13.036 -0.8211  0.3833  0.4131
  700TMC3    C110399   2.012   3.648  17.010  0.4759  0.6139  0.1388
  700TMC3    C210400   2.026   3.520  17.052  0.3647 -0.6774 -0.5280
  700TMC3    C310401   2.022   3.493  17.186 -0.4945  0.3750  0.1670
  700TMC3    C410402   2.004   3.758  17.094 -0.2529 -0.1990 -0.1856
  700TMC3    C510403   2.027   3.723  17.226  0.1201  0.6715  0.4023
  700TMC3    C610404   2.035   3.597  17.273 -0.3648  0.2252  0.4226
  700TMC3     C10405   1.992   3.668  16.865 -0.0501 -0.4765  0.9019
  700TMC3     O10406   2.012   3.568  16.793 -0.1887  0.0410  0.1124
  700TMC3     H10407   2.034   3.438  16.982  1.7953 -1.2703  0.3151
  700TMC3    H110408   1.983   3.863  17.079 -2.2262 -0.5167  0.2543
  700TMC3    H210409   2.051   3.581  17.379 -1.2798  0.2035  0.5598
  700TMC3    C710410   2.000   3.826  17.322  0.8075  0.1765  0.2633
  700TMC3    C810411   2.048   3.357  17.230 -0.2893  0.3265 -0.3843
  700TMC3    O110412   2.051   3.937  17.297 -0.0901 -0.1423  0.4617
  700TMC3    O210413   1.997   3.326  17.337 -0.1293  0.0786 -0.6073
  701TMC3    C110414   2.019   2.665  15.941  0.3889 -1.0040  0.0132
  701TMC3    C210415   1.973   2.622  15.818 -0.3641 -0.0583 -0.2863
  701TMC3    C310416   2.023   2.697  15.716 -0.2328 -0.2508 -0.6119
  701TMC3    C410417   2.121   2.750  15.955  0.5951 -0.2204 -1.0184
  701TMC3    C510418   2.182   2.805  15.846  0.8131 -0.3708 -0.0628
  701TMC3    C610419   2.130   2.785  15.722 -0.1723 -0.5622 -0.5913
  701TMC3     C10420   1.976   2.595  16.059 -0.9231 -0.3102  0.2213
  701TMC3     O10421   1.992   2.659  16.159  0.3270  0.2512  0.6482
  701TMC3     H10422   1.874   2.580  15.809 -0.1681 -0.3850 -0.8616
  701TMC3    H110423   2.164   2.778  16.050 -0.8310 -2.2643  0.2372
  701TMC3    H210424   2.194   2.817  15.641  0.4749  1.0030  0.5355
  701TMC3    C710425   2.299   2.885  15.856 -0.1149  0.1841  0.0336
  701TMC3    C810426   1.951   2.731  15.596 -0.0435  0.1105  0.7170
  701TMC3    O110427   2.290   2.984  15.787 -0.0189  0.3227 -0.1344
  701TMC3    O210428   1.993   2.832  15.539  0.2427  0.4037 -0.1988
  702MPD2     C10429   2.142   4.272  10.580  1.0260 -0.4314 -0.6132
  702MPD2    C110430   2.077   4.359  10.660 -0.0799 -0.0984 -0.3943
  702MPD2    C210431   2.052   4.487  10.614 -0.3678  0.6579 -0.0709
  702MPD2    C310432   2.080   4.517  10.487  0.0082 -0.1967  0.0069
  702MPD2    C410433   2.146   4.426  10.402 -0.3705 -0.2702  0.0036
  702MPD2    C510434   2.185   4.305  10.451  0.4104  0.4697 -0.1504
  702MPD2     H10435   1.999   4.556  10.679 -0.2779 -0.5090  1.2518
  702MPD2    H110436   2.170   4.437  10.297 -2.0501 -3.2081 -0.6851
  702MPD2    H210437   2.182   4.174  10.604  1.5015  0.6539  3.0934
  702MPD2    H310438   2.220   4.227  10.385  1.4080  1.0224 -0.2644
  702MPD2     N10439   2.034   4.638  10.435  0.6696  0.4628  0.5661
  702MPD2    H510440   1.968   4.682  10.498 -0.1473 -0.3334  0.2732
  702MPD2    N110441   2.040   4.336  10.791  0.4604 -1.1341  0.2760
  702MPD2    H710442   1.996   4.410  10.844  0.6216 -2.2193  1.9441
  703TMC3    C110443   2.009   0.089  10.300 -0.1868 -0.1128  0.3176
  703TMC3    C210444   1.908   0.141  10.380  0.6262 -0.0056 -0.1149
  703TMC3    C310445   1.887   0.274  10.378  0.3412 -0.1618  0.0766
  703TMC3    C410446   2.090   0.179  10.226  0.0573  0.2018  0.5439
  703TMC3    C510447   2.071   0.313  10.236 -0.3442 -0.4250  0.1941
  703TMC3    C610448   1.966   0.365  10.310 -0.1399  0.8265 -1.1029
  703TMC3     C10449   2.050   4.686  10.309 -0.2898 -0.6225  0.5772
  703TMC3     O10450   2.130   4.649  10.222  0.4987 -0.1830  0.1732
  703TMC3     H10451   1.848   0.079  10.446 -0.5467 -0.8485 -1.9860
  703TMC3    H110452   2.174   0.149  10.164 -0.3853  1.6513 -0.7573
  703TMC3    H210453   1.954   0.473  10.314 -0.2023  0.6418  3.3653
  703TMC3    C710454   2.175   0.411  10.241 -0.2328  0.1947  0.1024
  703TMC3    C810455   1.790   0.334  10.468  0.5551  0.1386 -0.3230
  703TMC3    O110456   2.148   0.529  10.225 -0.9163 -0.5453  0.4762
  703TMC3    O210457   1.791   0.456  10.479  0.3582  0.0928  0.0688
  704TMC3    C110458   3.795   2.837  12.118  0.3246  0.0841  0.6577
  704TMC3    C210459   3.922   2.839  12.052  0.4135  0.4397 -0.5208
  704TMC3    C310460   4.029   2.773  12.115 -0.4150 -0.5138  0.0664
  704TMC3    C410461   3.784   2.781  12.242  0.3380  0.2776 -0.0012
  704TMC3    C510462   3.890   2.720  12.294  0.5087 -0.6650  0.1150
  704TMC3    C610463   4.008   2.711  12.230 -0.0060  0.3409 -0.0587
  704TMC3     C10464   3.682   2.921  12.068 -0.4508 -0.2787 -0.3968
  704TMC3     O10465   3.584   2.932  12.138 -0.3895 -0.2835  0.2207
  704TMC3     H10466   3.943   2.882  11.955  0.0087 -0.4089 -0.9817
  704TMC3    H110467   3.691   2.772  12.298  0.2718  2.2395  0.2153
  704TMC3    H210468   4.094   2.657  12.270 -0.0361  0.7119  0.4898
  704TMC3    C710469   3.861   2.625  12.400  0.1690  0.7771  0.1268
  704TMC3    C810470   4.106   2.705  12.019 -0.0146  0.5378  0.3739
  704TMC3    O110471   3.787   2.656  12.496 -0.0704 -0.2501 -0.2030
  704TMC3    O210472   4.116   2.587  12.015 -0.6476  0.4790 -0.0478
  705MPD2     C10473   3.787   1.115  16.330 -0.9503 -0.4263 -0.0341
  705MPD2    C110474   3.681   1.081  16.255  0.0057 -0.3845 -0.3246
  705MPD2    C210475   3.555   1.136  16.282 -0.2540  0.3927 -0.3082
  705MPD2    C310476   3.531   1.228  16.384 -0.7066  0.2721  0.2246
  705MPD2    C410477   3.648   1.272  16.445 -0.0817 -0.3837  0.3263
  705MPD2    C510478   3.772   1.215  16.425  0.6697  0.3575 -0.4065
  705MPD2     H10479   3.470   1.100  16.226  0.4251  2.0453 -2.3963
  705MPD2    H110480   3.652   1.360  16.508 -0.2888  0.7014 -1.1829
  705MPD2    H210481   3.886   1.072  16.318 -1.5187 -2.2777  1.8499
  705MPD2    H310482   3.863   1.257  16.468  0.3125  1.6155 -0.8651
  705MPD2     N10483   3.402   1.282  16.402  0.7003  0.3190 -0.0251
  705MPD2    H510484   3.335   1.242  16.337 -2.0411  2.7915  1.2499
  705MPD2    N110485   3.702   1.020  16.127  0.6038  0.3299  0.3630
  705MPD2    H710486   3.614   1.007  16.077  0.0967  0.4480  1.2261
  706TMC3    C110487   3.958   1.027  15.745 -0.0227  0.5177 -0.0013
  706TMC3    C210488   3.922   1.160  15.727 -0.5779  0.0675 -0.9792
  706TMC3    C310489   3.832   1.207  15.813 -0.1749 -0.2600  0.1902
  706TMC3    C410490   3.900   0.947  15.840 -0.3128 -0.2397 -0.0619
  706TMC3    C510491   3.800   1.006  15.920 -0.0194  0.3342 -0.3652
  706TMC3    C610492   3.761   1.132  15.900  0.2646  0.4001 -0.7062
  706TMC3     C10493   4.040   0.964  15.644 -1.3416 -0.2589  0.5360
  706TMC3     O10494   4.106   0.867  15.680 -0.1834 -0.0861 -0.1110
  706TMC3     H10495   3.974   1.222  15.654  2.8895  1.2973  2.5349
  706TMC3    H110496   3.951   0.854  15.864 -0.3058  0.5849  3.1196
  706TMC3    H210497   3.687   1.183  15.960  0.2346 -0.7494  0.2392
  706TMC3    C710498   3.816   0.993  16.060  0.2000 -1.1091  0.7500
  706TMC3    C810499   3.864   1.342  15.853 -0.4006 -0.3973  1.0134
  706TMC3    O110500   3.929   0.998  16.106  0.2965  0.8273 -0.1709
  706TMC3    O210501   3.905   1.416  15.764  0.1957 -0.0453  0.3169
  707TMC3    C110502   0.006   0.265  17.612 -0.2470  0.8972 -0.3428
  707TMC3    C210503   0.017   0.132  17.579  0.1649  0.1138  0.1310
  707TMC3    C310504   4.661   0.075  17.496 -0.7623 -0.0860 -0.0926
  707TMC3    C410505   4.636   0.335  17.568 -0.3128  0.5678 -1.0543
  707TMC3    C510506   4.545   0.275  17.481 -0.3012 -0.5455  0.2173
  707TMC3    C610507   4.558   0.145  17.438 -0.0501 -0.4047 -0.2818
  707TMC3     C10508   0.106   0.313  17.699 -0.2014  0.3656  0.1648
  707TMC3     O10509   0.189   0.230  17.742 -0.1052 -0.3699 -0.3299
  707TMC3     H10510   0.103   0.077  17.614  0.3107 -0.2474 -0.7891
  707TMC3    H110511   4.623   0.440  17.592  0.0208  0.3253  0.2221
  707TMC3    H210512   4.488   0.093  17.374  1.0414 -1.4407 -0.6253
  707TMC3    C710513   4.445   0.360  17.412  0.3048 -0.1290  0.1046
  707TMC3    C810514   4.672   4.671  17.462 -0.0135  0.0606 -0.1748
  707TMC3    O110515   4.469   0.482  17.416  0.6751 -0.5781  0.2227
  707TMC3    O210516   4.624   4.638  17.354  0.2671 -0.8155 -0.1858
  708MPD2     C10517   1.542   3.927  13.712  0.0579 -0.5783  0.3728
  708MPD2    C110518   1.677   3.930  13.745 -1.0911  0.0553  0.6721
  708MPD2    C210519   1.749   4.051  13.747  0.5178 -0.5192  0.2149
  708MPD2    C310520   1.688   4.173  13.709  0.2047 -0.3404 -0.0638
  708MPD2    C410521   1.547   4.171  13.700  1.1788  0.3209  0.0247
  708MPD2    C510522   1.482   4.050  13.705 -0.2316  0.2593 -0.3945
  708MPD2     H10523   1.848   4.050  13.792 -0.0915 -0.1655  1.5515
  708MPD2    H110524   1.489   4.258  13.673  3.4087  1.0161 -2.4488
  708MPD2    H210525   1.475   3.842  13.722  0.9765 -1.4464 -0.7026
  708MPD2    H310526   1.375   4.057  13.686 -0.0222  3.3510 -0.3842
  708MPD2     N10527   1.748   4.301  13.705  0.3515  0.1991  0.7467
  708MPD2    H510528   1.691   4.385  13.707  0.5539  0.3196  1.5971
  708MPD2    N110529   1.736   3.797  13.757 -0.3373  0.2820 -0.6899
  708MPD2    H710530   1.686   3.721  13.711 -1.2419  1.4756 -1.6636
  709TMC3    C110531   1.926   3.659  13.737  0.4475  0.2334 -0.2692
  709TMC3    C210532   1.920   3.660  13.600 -0.6124 -0.3068 -0.8990
  709TMC3    C310533   2.024   3.620  13.526 -0.2037 -0.3188 -0.4424
  709TMC3    C410534   2.040   3.616  13.797 -0.6449  0.1811  0.6332
  709TMC3    C510535   2.147   3.585  13.718  0.3829  0.3806 -1.4543
  709TMC3    C610536   2.137   3.574  13.581 -0.5119  0.3235  0.0300
  709TMC3     C10537   1.861   3.773  13.801  0.5803 -0.0397 -0.1744
  709TMC3     O10538   1.924   3.835  13.881 -0.3604 -0.2721 -0.0422
  709TMC3     H10539   1.835   3.701  13.547 -0.4872  1.7733  0.4883
  709TMC3    H110540   2.052   3.633  13.904  2.8175  0.0942  0.2774
  709TMC3    H210541   2.211   3.535  13.512 -1.2313 -2.0826  0.6115
  709TMC3    C710542   2.265   3.661  13.752  0.3130 -0.7344 -0.3552
  709TMC3    C810543   2.027   3.621  13.378  0.4196 -0.4776  0.3200
  709TMC3    O110544   2.377   3.623  13.723  0.1640 -0.3501  0.3467
  709TMC3    O210545   2.082   3.524  13.325 -0.3908  0.3321  0.0159
  710TMC3    C110546   2.615   1.004   0.348  0.4345 -0.3743 -0.1791
  710TMC3    C210547   2.652   1.064   0.230 -0.3345 -0.1457  0.4270
  710TMC3    C310548   2.700   0.978   0.130 -0.1266  0.3687 -0.5775
  710TMC3    C410549   2.623   0.873   0.370 -0.3772 -0.0220  0.2681
  710TMC3    C510550   2.692   0.798   0.281  0.0311  0.9977 -0.2730
  710TMC3    C610551   2.738   0.848   0.164 -0.3459 -0.0581  0.1690
  710TMC3     C10552   2.591   1.102   0.455 -0.4813 -0.0732  0.3990
  710TMC3     O10553   2.606   1.216   0.428  0.1673  0.8949  0.4549
  710TMC3     H10554   2.605   1.159   0.207 -1.1654 -0.7456 -0.4025
  710TMC3    H110555   2.580   0.826   0.457 -1.1752 -1.3905 -0.8728
  710TMC3    H210556   2.798   0.779   0.105 -1.3935 -0.2474 -0.6762
  710TMC3    C710557   2.704   0.652   0.305  0.4507  0.0838  0.2461
  710TMC3    C810558   2.781   1.040   0.025 -0.3367 -0.4138 -0.9300
  710TMC3    O110559   2.761   0.597   0.209  0.1881  0.5063 -0.1653
  710TMC3    O210560   2.833   0.965  17.684 -0.2069  0.2632  0.1657
  711TMC3    C110561   2.710   2.309  15.157  0.9024 -0.7760 -0.1621
  711TMC3    C210562   2.751   2.363  15.277  0.2742  0.2673 -0.2567
  711TMC3    C310563   2.879   2.331  15.312  0.1275  0.0076  0.0954
  711TMC3    C410564   2.794   2.246  15.072  0.0649  0.6540  0.4756
  711TMC3    C510565   2.924   2.225  15.110 -0.2282 -0.1412  0.2644
  711TMC3    C610566   2.969   2.281  15.227  0.0359  0.0484 -0.3715
  711TMC3     C10567   2.577   2.250  15.152 -0.3566 -0.5592 -0.2311
  711TMC3     O10568   2.561   2.141  15.097 -0.0509  0.5197  0.3071
  711TMC3     H10569   2.689   2.396  15.360 -0.6774  0.8272 -1.1867
  711TMC3    H110570   2.748   2.221  14.977 -0.0372 -1.7575  1.1698
  711TMC3    H210571   3.072   2.259  15.252  0.2263  1.3711  0.0169
  711TMC3    C710572   2.958   2.086  15.100  0.1965  0.0074  0.2003
  711TMC3    C810573   2.902   2.318  15.456  0.1132 -0.1217 -0.4820
  711TMC3    O110574   3.069   2.054  15.135  0.3038  0.1327  0.0725
  711TMC3    O210575   2.806   2.335  15.525 -0.0401 -0.2787 -0.4257
  712MPD2     C10576   4.342   3.090  13.662  0.6346 -0.5791  0.1724
  712MPD2    C110577   4.259   3.113  13.551  0.1845  0.3369 -0.0588
  712MPD2    C210578   4.309   3.202  13.460 -0.0359  0.0424  0.1770
  712MPD2    C310579   4.433   3.259  13.479 -0.2126  0.2373 -0.7660
  712MPD2    C410580   4.511   3.238  13.591  0.7723  0.3140 -0.4966
  712MPD2    C510581   4.460   3.151  13.687  0.2909  0.1481 -0.3691
  712MPD2     H10582   4.252   3.206  13.368 -2.3484 -2.0422  1.5447
  712MPD2    H110583   4.611   3.279  13.592 -0.0862  2.3328  2.3896
  712MPD2    H210584   4.309   3.026  13.742  1.3238 -3.3701 -1.7829
  712MPD2    H310585   4.522   3.129  13.773 -0.4260  0.4243  0.2253
  712MPD2     N10586   4.483   3.347  13.379  0.4428  0.2416  0.1230
  712MPD2    H510587   4.582   3.369  13.380  0.4782  0.0637  0.6828
  712MPD2    N110588   4.135   3.050  13.532  0.1923 -0.4097 -0.0400
  712MPD2    H710589   4.091   3.058  13.441 -0.8706 -2.0490  0.3245
  713TMC3    C110590   4.483   3.464  13.177 -0.6747 -0.1603 -0.6070
  713TMC3    C210591   4.620   3.479  13.178  0.9134  0.7878  0.1691
  713TMC3    C310592   4.669   3.557  13.080 -0.3565 -0.8216  0.4234
  713TMC3    C410593   4.401   3.532  13.085  0.3833 -0.3473  0.2568
  713TMC3    C510594   4.457   3.617  12.994  0.1100  0.1832 -0.4168
  713TMC3    C610595   4.593   3.625  12.985 -0.1876 -0.5179 -0.3611
  713TMC3     C10596   4.406   3.396  13.277 -0.5117 -0.2002 -0.2201
  713TMC3     O10597   4.284   3.409  13.274  0.8710  0.5239  0.3052
  713TMC3     H10598   4.687   3.411  13.228  0.8798 -1.6489 -3.1371
  713TMC3    H110599   4.298   3.497  13.080 -0.4734  2.1807  0.4560
  713TMC3    H210600   4.636   3.708  12.931 -1.1368  1.1543  1.4474
  713TMC3    C710601   4.377   3.708  12.922  0.2675 -1.0462 -0.2916
  713TMC3    C810602   0.069   3.613  13.103 -0.2689  0.0629  0.5213
  713TMC3    O110603   4.434   3.766  12.832  0.1368  0.4046 -0.2647
  713TMC3    O210604   0.117   3.687  13.017  0.2420  0.6617 -0.8091
  714MPD2     C10605   1.474   1.841   0.785  0.4618 -0.5429  0.4362
  714MPD2    C110606   1.371   1.802   0.858  0.0754  0.2898  0.3200
  714MPD2    C210607   1.279   1.901   0.896  0.0603 -0.1293 -0.3815
  714MPD2    C310608   1.304   2.035   0.859 -0.0046  0.4505 -0.4230
  714MPD2    C410609   1.419   2.074   0.798 -0.4338  0.6430 -0.1568
  714MPD2    C510610   1.500   1.974   0.758 -0.2580  0.8165  0.0045
  714MPD2     H10611   1.198   1.865   0.957 -0.7589  0.0441 -1.3771
  714MPD2    H110612   1.445   2.177   0.778 -0.1408  1.1003  2.4976
  714MPD2    H210613   1.543   1.765   0.748 -0.5862 -1.0130 -0.5681
  714MPD2    H310614   1.592   1.990   0.702  0.4264 -2.9330  0.0545
  714MPD2     N10615   1.208   2.135   0.887 -0.4921 -0.5662  0.2520
  714MPD2    H510616   1.232   2.228   0.853  1.0771 -1.5513 -1.2788
  714MPD2    N110617   1.368   1.672   0.906  0.0243 -0.1744  0.2590
  714MPD2    H710618   1.436   1.609   0.864 -0.9342 -0.3851 -0.9737
  715TMC3    C110619   1.312   1.486   1.044  0.0333  0.1163 -0.7830
  715TMC3    C210620   1.385   1.402   0.959  0.0493 -0.1050  0.5785
  715TMC3    C310621   1.455   1.303   1.005  0.1868 -0.4079  0.4214
  715TMC3    C410622   1.310   1.454   1.175  0.4273  0.0479  1.1354
  715TMC3    C510623   1.377   1.342   1.221  0.1570  0.5361  0.2973
  715TMC3    C610624   1.452   1.263   1.139 -0.7669  0.0377 -0.5804
  715TMC3     C10625   1.297   1.629   1.014  0.2248  0.1063  0.0082
  715TMC3     O10626   1.235   1.700   1.091  0.0541 -1.1431 -0.6015
  715TMC3     H10627   1.401   1.432   0.856  0.5321  0.8268  0.9208
  715TMC3    H110628   1.255   1.523   1.238  0.6529  1.0953  0.1923
  715TMC3    H210629   1.494   1.167   1.168  1.2960  0.9082 -0.7088
  715TMC3    C710630   1.350   1.286   1.351 -0.2494 -0.0394  0.0920
  715TMC3    C810631   1.569   1.255   0.934 -0.0272  0.1462 -0.2626
  715TMC3    O110632   1.423   1.201   1.391  0.4483 -0.0994  0.6502
  715TMC3    O210633   1.564   1.270   0.813 -0.9538 -0.2456  0.0298
  716MPD2     C10634   2.359   0.476   9.909 -0.2004 -0.4073 -0.3120
  716MPD2    C110635   2.273   0.388   9.847 -0.5404  0.9303 -0.1426
  716MPD2    C210636   2.291   0.251   9.855 -0.1563  0.6573  0.1129
  716MPD2    C310637   2.396   0.203   9.946 -0.9555  0.5925  0.3423
  716MPD2    C410638   2.472   0.293  10.022  0.1734 -0.6543 -0.2963
  716MPD2    C510639   2.459   0.428   9.997 -0.3826 -1.0757  0.6663
  716MPD2     H10640   2.243   0.179   9.790  0.2600  0.8225 -0.3798
  716MPD2    H110641   2.556   0.261  10.083  1.8985 -0.3870 -2.5376
  716MPD2    H210642   2.343   0.583   9.901  1.3973 -0.3607 -2.7988
  716MPD2    H310643   2.534   0.485  10.051 -0.3053 -2.8957  2.4875
  716MPD2     N10644   2.400   0.064   9.960  0.1058  0.3679 -0.1241
  716MPD2    H510645   2.336   0.008   9.905 -0.5976  1.7351 -0.6834
  716MPD2    N110646   2.170   0.443   9.772 -0.4623  0.1151 -0.0687
  716MPD2    H710647   2.167   0.544   9.759  0.5812  0.2993  1.1508
  717TMC3    C110648   2.462   4.592  10.073  0.1251  0.0951 -0.0489
  717TMC3    C210649   2.499   4.535   9.957  0.8866 -0.0385  0.3741
  717TMC3    C310650   2.541   4.409   9.964  0.4319 -0.7929 -0.2973
  717TMC3    C410651   2.466   4.537  10.199 -0.1894 -0.2602  0.2156
  717TMC3    C510652   2.506   4.408  10.198  0.4225  0.4321 -0.3814
  717TMC3    C610653   2.553   4.347  10.084 -0.0539 -0.3809 -0.2085
  717TMC3     C10654   2.464   4.735  10.067  0.0233  0.2041  0.1354
  717TMC3     O10655   2.518   0.054  10.166  0.0921  0.0915 -0.1034
  717TMC3     H10656   2.505   4.588   9.862  1.2000  0.4200  0.6510
  717TMC3    H110657   2.441   4.593  10.288 -2.5505 -2.7942  1.1486
  717TMC3    H210658   2.578   4.242  10.095 -2.0185 -0.7130  0.9901
  717TMC3    C710659   2.564   4.372  10.321 -0.5333  0.1397 -0.0761
  717TMC3    C810660   2.524   4.330   9.853  0.1656  0.2418  0.1193
  717TMC3    O110661   2.578   4.464  10.407 -0.2962  0.4218  0.3131
  717TMC3    O210662   2.430   4.363   9.783  0.5382 -0.4460 -0.1522
  718MPD2     C10663   0.759   2.916  13.094  0.0871 -0.7285 -0.7225
  718MPD2    C110664   0.789   2.924  12.963  0.9115  0.0855  0.8118
  718MPD2    C210665   0.809   2.803  12.892  0.0369  0.9137 -0.0970
  718MPD2    C310666   0.807   2.677  12.959  0.0556  0.7823  0.2725
  718MPD2    C410667   0.803   2.682  13.096  0.1128 -0.5745  0.1200
  718MPD2    C510668   0.787   2.799  13.162  0.2721  0.4236  0.3231
  718MPD2     H10669   0.807   2.805  12.783 -2.7390 -2.5357 -0.1224
  718MPD2    H110670   0.803   2.591  13.154 -0.1884 -0.3958  0.4004
  718MPD2    H210671   0.738   3.001  13.157 -2.3650  0.0452 -2.5941
  718MPD2    H310672   0.781   2.793  13.270  0.2421 -0.1307  0.2887
  718MPD2     N10673   0.809   2.564  12.873 -0.1017  0.0657  0.3314
  718MPD2    H510674   0.819   2.586  12.774  0.0506  1.9479  0.7792
  718MPD2    N110675   0.775   3.043  12.898 -0.8424  0.4149  0.1450
  718MPD2    H710676   0.725   3.116  12.948 -1.1234 -0.2921  0.8988
  719TMC3    C110677   0.795   3.199  12.728 -0.1888  0.0424  0.7033
  719TMC3    C210678   0.666   3.186  12.697 -0.0532 -0.2895  0.0948
  719TMC3    C310679   0.640   3.201  12.563 -0.2935 -0.6325  0.1305
  719TMC3    C410680   0.888   3.242  12.639 -0.2911  0.2596  0.8541
  719TMC3    C510681   0.851   3.264  12.513 -0.0200 -0.7779 -0.6738
  719TMC3    C610682   0.723   3.248  12.465  0.2167 -1.0195  0.2944
  719TMC3     C10683   0.843   3.078  12.782  0.3031  0.1433 -0.4129
  719TMC3     O10684   0.927   3.021  12.714 -0.3766 -0.4362 -0.2004
  719TMC3     H10685   0.602   3.133  12.767  1.0549  0.6199  1.7812
  719TMC3    H110686   0.990   3.250  12.674 -0.7246  0.5297  2.0489
  719TMC3    H210687   0.696   3.287  12.367  1.5688  0.7384  0.6187
  719TMC3    C710688   0.943   3.352  12.434 -0.2200  0.3280 -0.3862
  719TMC3    C810689   0.539   3.097  12.517  0.1006 -0.0329  0.8201
  719TMC3    O110690   1.058   3.317  12.435 -0.6707 -0.9755  0.0174
  719TMC3    O210691   0.476   3.037  12.604  0.6779  0.2185  0.2566
  720MPD2     C10692   3.720   0.301  13.930  0.3546  0.3336  0.9105
  720MPD2    C110693   3.757   0.411  13.852  0.4173  0.5603 -0.9350
  720MPD2    C210694   3.881   0.468  13.872 -0.2152 -0.5339  0.3705
  720MPD2    C310695   3.976   0.407  13.963 -0.2154  0.1772 -0.8705
  720MPD2    C410696   3.929   0.312  14.051 -0.5428  0.4374 -0.2674
  720MPD2    C510697   3.807   0.259  14.021 -0.1024  0.0833 -0.2604
  720MPD2     H10698   3.907   0.549  13.805  1.4269 -1.3223  0.0622
  720MPD2    H110699   3.985   0.263  14.131 -0.0961 -0.3614 -1.0687
  720MPD2    H210700   3.622   0.255  13.924 -0.8768  2.7734  2.0709
  720MPD2    H310701   3.765   0.187  14.092 -1.0504  0.3927 -0.5012
  720MPD2     N10702   4.109   0.461  13.970 -0.3929  0.6239 -0.3344
  720MPD2    H510703   4.110   0.552  13.926  0.9100 -0.0817 -1.7245
  720MPD2    N110704   3.668   0.463  13.757  0.6712  0.1977  0.0188
  720MPD2    H710705   3.693   0.551  13.714  0.6343  1.2576  2.1794
  721TMC3    C110706   4.329   0.493  14.057  0.5783  0.0849 -0.5502
  721TMC3    C210707   4.379   0.502  14.185  0.2075 -0.2621  0.0619
  721TMC3    C310708   4.496   0.573  14.203 -0.1611 -0.7271  0.2831
  721TMC3    C410709   4.395   0.537  13.949 -0.2174  0.1132 -0.0944
  721TMC3    C510710   4.509   0.611  13.973 -0.4327 -0.1164  0.6568
  721TMC3    C610711   4.564   0.624  14.098 -0.4158  0.3371 -0.1720
  721TMC3     C10712   4.212   0.410  14.040 -0.2790 -0.2444 -0.2208
  721TMC3     O10713   4.227   0.302  14.095 -0.6198 -0.0419 -0.1027
  721TMC3     H10714   4.331   0.464  14.274 -1.4965  1.9649  0.1115
  721TMC3    H110715   4.340   0.539  13.855  0.3433 -0.2612 -0.4296
  721TMC3    H210716   4.654   0.676  14.130 -0.9267  1.0077  0.1597
  721TMC3    C710717   4.610   0.624  13.870  0.6719 -0.8832  0.2293
  721TMC3    C810718   4.572   0.563  14.332  0.1952  0.4386 -0.0618
  721TMC3    O110719   4.717   0.671  13.910 -0.0035 -0.2172 -0.2518
  721TMC3    O210720   4.687   0.523  14.325  0.1631 -0.0954 -0.3089
  722MPD2     C10721   3.265   3.756  13.471 -0.1196 -0.0018 -0.2550
  722MPD2    C110722   3.199   3.724  13.350  0.5306  0.4825 -0.2296
  722MPD2    C210723   3.061   3.728  13.351 -0.7017  0.0374  0.8392
  722MPD2    C310724   2.989   3.747  13.467 -1.0584  0.2774  0.2111
  722MPD2    C410725   3.058   3.761  13.587 -0.5574 -0.6366 -1.1098
  722MPD2    C510726   3.193   3.770  13.586  0.9408  0.1477  0.0096
  722MPD2     H10727   3.004   3.725  13.259 -0.7252 -1.6074  0.9191
  722MPD2    H110728   3.000   3.774  13.677 -1.0375  1.7944 -1.7816
  722MPD2    H210729   3.373   3.754  13.480 -0.0478  2.9543 -0.4653
  722MPD2    H310730   3.246   3.785  13.679 -0.6283 -1.2273  1.1243
  722MPD2     N10731   2.850   3.737  13.460 -0.1308  0.5971  0.4219
  722MPD2    H510732   2.820   3.703  13.369  2.5398 -0.0509 -0.2407
  722MPD2    N110733   3.259   3.705  13.227  0.4465 -0.3101  0.3138
  722MPD2    H710734   3.192   3.673  13.157  1.1958  1.0844 -1.0507
  723TMC3    C110735   2.636   3.717  13.539  0.3867 -0.8953  1.0575
  723TMC3    C210736   2.633   3.582  13.560  0.1477 -0.0703 -0.7967
  723TMC3    C310737   2.560   3.496  13.485  0.4122 -0.2494  0.4285
  723TMC3    C410738   2.551   3.766  13.438  0.6779  0.0719 -0.3310
  723TMC3    C510739   2.460   3.676  13.370 -0.4049  0.3776  0.0878
  723TMC3    C610740   2.473   3.543  13.398  0.1968 -1.0428  0.5530
  723TMC3     C10741   2.765   3.778  13.561 -0.0538  0.7313 -0.0488
  723TMC3     O10742   2.783   3.845  13.664  0.0966 -0.5039 -0.3324
  723TMC3     H10743   2.711   3.553  13.630 -1.0581 -0.1652  0.5304
  723TMC3    H110744   2.547   3.873  13.421  0.4238 -0.0918 -1.3171
  723TMC3    H210745   2.415   3.469  13.343 -2.6995  1.3701  0.3878
  723TMC3    C710746   2.409   3.705  13.244  1.1394 -0.7231 -0.1428
  723TMC3    C810747   2.598   3.358  13.513  0.3140 -0.1125  0.0358
  723TMC3    O110748   2.371   3.606  13.179  0.4766 -0.4129 -0.8249
  723TMC3    O210749   2.622   3.334  13.629 -0.7685  0.0998  1.0238
  724TMC3    C110750   3.681   2.187   9.668 -0.1579  0.3377  0.0775
  724TMC3    C210751   3.619   2.234   9.774 -0.1448  0.1715  0.1459
  724TMC3    C310752   3.689   2.327   9.839  0.7455 -0.1740 -0.2676
  724TMC3    C410753   3.784   2.255   9.608 -0.7673 -0.5707  0.0837
  724TMC3    C510754   3.845   2.353   9.673 -0.4328  0.3472  0.1685
  724TMC3    C610755   3.800   2.384   9.797  0.4145 -0.7037  0.6110
  724TMC3     C10756   3.599   2.097   9.583 -0.9894 -0.8667 -0.7625
  724TMC3     O10757   3.615   2.104   9.462 -0.0160 -0.0813 -0.0081
  724TMC3     H10758   3.565   2.167   9.839  2.0037 -0.8374  0.8755
  724TMC3    H110759   3.831   2.220   9.517 -0.9753  0.4110 -0.3984
  724TMC3    H210760   3.847   2.471   9.842 -0.6320  0.2078 -0.0774
  724TMC3    C710761   3.983   2.337   9.654 -0.1945  0.3578 -0.8109
  724TMC3    C810762   3.619   2.367   9.968 -0.2845  0.1716 -0.3313
  724TMC3    O110763   4.026   2.232   9.615  0.4620  0.1382 -0.1366
  724TMC3    O210764   3.526   2.297  10.005 -0.0313 -0.0529  0.5892
  725TMC3    C110765   0.353   0.602  12.955 -0.5483  0.3055 -0.7511
  725TMC3    C210766   0.218   0.618  12.954  0.4470 -0.3480 -0.4055
  725TMC3    C310767   0.153   0.606  12.835 -0.3682  0.0809 -0.4189
  725TMC3    C410768   0.428   0.560  12.849  0.1433  0.1907 -0.2842
  725TMC3    C510769   0.361   0.544  12.728  0.3850 -0.5111  0.0436
  725TMC3    C610770   0.221   0.561  12.722  0.4862  1.0972 -0.5923
  725TMC3     C10771   0.424   0.680  13.048  0.1982 -0.2682 -0.5803
  725TMC3     O10772   0.365   0.788  13.065  0.3997  0.1019  0.4131
  725TMC3     H10773   0.168   0.661  13.040  0.9659  0.2258 -0.3888
  725TMC3    H110774   0.535   0.559  12.866 -0.0308 -3.1722  0.7570
  725TMC3    H210775   0.168   0.552  12.627  0.1015 -1.8831 -0.0954
  725TMC3    C710776   0.423   0.477  12.626 -0.1201  0.4712 -0.3654
  725TMC3    C810777   0.028   0.680  12.821 -0.5319 -0.1331 -0.1470
  725TMC3    O110778   0.346   0.438  12.540  0.1698  0.1825  0.6134
  725TMC3    O210779   0.008   0.776  12.896 -0.7471 -0.2546  0.0417
  726MPD2     C10780   2.494   2.012  10.318 -0.3426  0.5783 -0.2025
  726MPD2    C110781   2.484   2.093  10.430 -0.3029 -0.1471 -1.1525
  726MPD2    C210782   2.406   2.054  10.534  0.2672  0.9464  0.9556
  726MPD2    C310783   2.331   1.935  10.525  0.2994 -0.8723 -0.1059
  726MPD2    C410784   2.326   1.874  10.405  0.2889 -0.4787 -0.5129
  726MPD2    C510785   2.423   1.899  10.318  0.5556  0.4286  0.3937
  726MPD2     H10786   2.413   2.105  10.629  0.8835 -0.5954  1.7354
  726MPD2    H110787   2.282   1.776  10.392  0.6267 -0.9120  1.6275
  726MPD2    H210788   2.566   2.018  10.237  1.7745 -1.7860  1.4846
  726MPD2    H310789   2.442   1.824  10.241 -0.8030 -0.7644  1.2266
  726MPD2     N10790   2.249   1.872  10.628  0.3010 -0.7768  0.2972
  726MPD2    H510791   2.196   1.792  10.595 -0.7504  0.1470 -0.2882
  726MPD2    N110792   2.558   2.216  10.435  0.1528  0.4948 -0.1616
  726MPD2    H710793   2.550   2.266  10.523 -0.1629 -1.1935  0.7815
  727TMC3    C110794   2.675   2.412  10.347 -0.7874 -0.4872 -0.6237
  727TMC3    C210795   2.708   2.457  10.472  0.3632  0.5183  0.3344
  727TMC3    C310796   2.762   2.580  10.495 -0.3811 -0.3428 -0.4762
  727TMC3    C410797   2.690   2.497  10.242  0.1562 -0.2123 -0.3147
  727TMC3    C510798   2.747   2.618  10.270  0.0647  0.6938 -0.4592
  727TMC3    C610799   2.788   2.664  10.392 -0.1540 -0.6935 -0.0016
  727TMC3     C10800   2.616   2.282  10.322  0.3520 -0.0148  0.7600
  727TMC3     O10801   2.605   2.248  10.205  0.2592 -0.1720  0.1398
  727TMC3     H10802   2.701   2.398  10.563  0.2920  3.4982  2.2374
  727TMC3    H110803   2.660   2.458  10.145 -1.1792  1.0864 -0.4084
  727TMC3    H210804   2.857   2.748  10.393 -0.9377 -0.0238 -1.6377
  727TMC3    C710805   2.719   2.717  10.171 -0.0750  0.0548 -0.0271
  727TMC3    C810806   2.829   2.585  10.625 -0.1049 -0.1643  0.2417
  727TMC3    O110807   2.667   2.674  10.068 -0.5833 -1.0941 -0.2968
  727TMC3    O210808   2.889   2.480  10.650  0.2202 -0.0110  0.1142
  728TMC3    C110809   2.281   0.940  15.294  0.0364  0.4098  0.0294
  728TMC3    C210810   2.381   1.037  15.315  0.2838 -0.1210  0.7757
  728TMC3    C310811   2.376   1.154  15.243  1.0928 -0.3025  1.2507
  728TMC3    C410812   2.173   0.964  15.214 -0.4791  0.2080 -0.0701
  728TMC3    C510813   2.168   1.087  15.151 -0.1496 -0.4297  0.1302
  728TMC3    C610814   2.265   1.186  15.165 -0.4109  0.0060 -0.2609
  728TMC3     C10815   2.244   0.873  15.422 -0.4231 -0.3160 -0.0464
  728TMC3     O10816   2.314   0.891  15.515 -0.2755  0.7760  0.2302
  728TMC3     H10817   2.461   1.018  15.386  1.8078  2.0325 -0.3419
  728TMC3    H110818   2.099   0.888  15.195 -1.6476  1.2504  0.3093
  728TMC3    H210819   2.278   1.266  15.093 -1.1100  1.4036  1.1796
  728TMC3    C710820   2.069   1.110  15.047 -0.4736 -0.0536  0.8173
  728TMC3    C810821   2.455   1.259  15.299  0.2540 -0.0239 -0.3296
  728TMC3    O110822   2.017   1.010  15.005 -0.1710 -0.0624 -0.0265
  728TMC3    O210823   2.552   1.226  15.358  0.0390  0.2985  0.4627
  729MPD2     C10824   4.101   1.511  16.596  0.1997 -0.0281  0.1315
  729MPD2    C110825   4.116   1.648  16.594  0.1955 -0.4693  0.5231
  729MPD2    C210826   4.059   1.727  16.686  0.4978 -0.2092  0.0298
  729MPD2    C310827   3.995   1.672  16.793  0.9689  0.1351  0.5974
  729MPD2    C410828   3.992   1.532  16.800  0.2659 -0.4629 -0.9692
  729MPD2    C510829   4.036   1.451  16.701  0.5898  0.6026  0.0554
  729MPD2     H10830   4.070   1.834  16.673 -2.9366  0.0613 -0.4722
  729MPD2    H110831   3.936   1.479  16.877  0.7885  0.8356  0.3039
  729MPD2    H210832   4.143   1.452  16.515  1.7349  1.4527 -0.1654
  729MPD2    H310833   4.033   1.343  16.709 -2.4994  0.6497 -0.4254
  729MPD2     N10834   3.935   1.740  16.903 -0.0999  0.4808 -0.3380
  729MPD2    H510835   3.887   1.688  16.976  2.6941  0.0222  1.1561
  729MPD2    N110836   4.212   1.706  16.505  0.3627  0.1374  0.0745
  729MPD2    H710837   4.272   1.642  16.456  0.3238  0.1341  0.0307
  730TMC3    C110838   3.952   1.909  17.077 -0.7037  0.2918  0.2969
  730TMC3    C210839   4.057   1.846  17.138 -0.1135  0.1392  0.5337
  730TMC3    C310840   4.146   1.922  17.214 -0.3379  0.3006 -0.3980
  730TMC3    C410841   3.939   2.044  17.095  0.0342  0.3401 -0.0563
  730TMC3    C510842   4.017   2.113  17.180 -0.0780 -0.0481 -0.5506
  730TMC3    C610843   4.123   2.052  17.233 -0.5512  0.7583  0.6797
  730TMC3     C10844   3.944   1.878  16.932  0.8036 -0.9423  0.6908
  730TMC3     O10845   3.958   1.969  16.851 -0.1336  0.1237  0.3698
  730TMC3     H10846   4.088   1.745  17.116  1.7592  0.5039  1.4695
  730TMC3    H110847   3.862   2.101  17.044  0.6395 -1.0816 -2.5088
  730TMC3    H210848   4.183   2.106  17.306  2.4638 -1.5134 -0.1181
  730TMC3    C710849   4.018   2.258  17.167  0.8106  0.3612  0.0242
  730TMC3    C810850   4.281   1.886  17.175 -0.2199  0.7951 -0.8934
  730TMC3    O110851   3.981   2.310  17.063 -0.4285 -0.1403  0.4308
  730TMC3    O210852   4.301   1.772  17.129 -0.2249  0.7657 -0.0730
  731MPD2     C10853   4.465   4.479  12.606 -0.0012  0.0219 -0.7954
  731MPD2    C110854   4.354   4.509  12.533 -0.0549  0.6978  0.1437
  731MPD2    C210855   4.301   4.643  12.534  0.4635  0.5004  0.1686
  731MPD2    C310856   4.352   4.736  12.617  0.7356  0.2061 -0.0037
  731MPD2    C410857   4.463   4.697  12.694 -0.2371 -0.0997  0.3365
  731MPD2    C510858   4.512   4.571  12.689  0.1403 -0.5646 -0.1047
  731MPD2     H10859   4.227   4.686  12.468  0.6991  0.4091 -0.1573
  731MPD2    H110860   4.512   0.037  12.754 -0.4484 -0.5893  1.1290
  731MPD2    H210861   4.520   4.387  12.597 -2.6381 -1.8597  2.0638
  731MPD2    H310862   4.604   4.549  12.742  0.4626  0.2073 -0.3406
  731MPD2     N10863   4.293   0.129  12.622  0.2770  0.0978 -0.4927
  731MPD2    H510864   4.218   0.149  12.556  1.5298  1.6569 -1.4468
  731MPD2    N110865   4.295   4.401  12.461 -0.0239  0.0404  0.2721
  731MPD2    H710866   4.344   4.312  12.451 -0.5733  0.0955 -2.9222
  732TMC3    C110867   4.169   4.272  12.306  0.0701  0.6369 -0.4149
  732TMC3    C210868   4.052   4.273  12.232  0.1112  0.1356  0.2680
  732TMC3    C310869   4.059   4.201  12.116 -1.1606  0.2040  0.3484
  732TMC3    C410870   4.282   4.210  12.269 -0.4853 -0.4076 -0.7637
  732TMC3    C510871   4.281   4.134  12.151 -0.4978  0.0230  0.5325
  732TMC3    C610872   4.171   4.138  12.069  0.6085  0.1949 -0.2791
  732TMC3     C10873   4.182   4.394  12.384  0.1447 -0.1284  0.6299
  732TMC3     O10874   4.104   4.487  12.356 -0.2429 -0.1692 -0.1839
  732TMC3     H10875   3.964   4.329  12.260 -0.2032 -0.2184 -0.0152
  732TMC3    H110876   4.361   4.190  12.341 -1.6323 -1.4232  0.2276
  732TMC3    H210877   4.167   4.078  11.979  0.7693  1.1371 -0.9232
  732TMC3    C710878   4.406   4.089  12.088 -0.1038  0.4463 -0.1624
  732TMC3    C810879   3.958   4.216  12.012  0.3815  0.7608  0.3553
  732TMC3    O110880   4.388   4.026  11.987 -0.0629  0.4122 -0.1897
  732TMC3    O210881   3.996   4.234  11.895 -0.9468 -0.0845  0.2804
  733TMC3    C110882   0.483   2.265  12.760 -0.5840  0.8141 -0.2783
  733TMC3    C210883   0.591   2.289  12.845 -0.0530 -0.1975 -0.1505
  733TMC3    C310884   0.694   2.372  12.806  0.0207  0.1229 -0.4204
  733TMC3    C410885   0.498   2.294  12.629  0.1278 -0.4876  0.5002
  733TMC3    C510886   0.605   2.375  12.597  0.5272  0.4065 -0.2221
  733TMC3    C610887   0.701   2.420  12.680 -0.4440  0.3866 -0.6512
  733TMC3     C10888   0.356   2.316  12.810 -0.4931 -0.2145 -0.0924
  733TMC3     O10889   0.283   2.328  12.712 -0.5364 -0.2953 -0.0909
  733TMC3     H10890   0.582   2.266  12.950 -1.7648  2.2528  0.2295
  733TMC3    H110891   0.434   2.263  12.547 -1.2828  0.6000  1.1993
  733TMC3    H210892   0.777   2.488  12.643  0.5306 -0.2904  0.1176
  733TMC3    C710893   0.584   2.453  12.478 -0.1678 -0.3630  0.3630
  733TMC3    C810894   0.762   2.444  12.913  0.3995  0.1518  0.3064
  733TMC3    O110895   0.527   2.409  12.377 -0.3588  0.0196 -0.4488
  733TMC3    O210896   0.751   2.396  13.027  0.6937  0.3184 -0.6690
  734MPD2     C10897   1.846   0.784  12.407 -0.0293 -0.1783 -0.1503
  734MPD2    C110898   1.867   0.674  12.339 -0.1406  0.0458  0.5817
  734MPD2    C210899   1.962   0.675  12.242 -0.3611  0.1158 -0.1833
  734MPD2    C310900   2.022   0.790  12.204 -0.4132  0.0906  0.4024
  734MPD2    C410901   2.000   0.905  12.279  0.3732 -0.1334  0.3785
  734MPD2    C510902   1.903   0.905  12.377 -0.6439  0.0783 -0.0488
  734MPD2     H10903   2.003   0.582  12.203  1.0048  1.1352 -1.1826
  734MPD2    H110904   2.055   0.997  12.262  0.2365  0.0284  0.8074
  734MPD2    H210905   1.782   0.786  12.494  1.8555 -1.1164  1.2663
  734MPD2    H310906   1.887   0.992  12.440  0.6130 -0.1146  0.5576
  734MPD2     N10907   2.116   0.774  12.104 -0.1550 -0.3065  0.0859
  734MPD2    H510908   2.143   0.677  12.091  2.1704  0.1228  1.5908
  734MPD2    N110909   1.810   0.549  12.377 -0.4903 -0.4068  0.1040
  734MPD2    H710910   1.762   0.538  12.466 -0.6708 -0.2434  0.0278
  735TMC3    C110911   1.767   0.312  12.359 -0.0666  0.5984  0.6190
  735TMC3    C210912   1.761   0.215  12.264  0.1999  0.0360  0.5957
  735TMC3    C310913   1.828   0.096  12.281  0.0871  0.3329  0.8237
  735TMC3    C410914   1.849   0.292  12.471  0.0863  0.5914  0.0651
  735TMC3    C510915   1.913   0.175  12.487  0.3704 -0.2668  0.2717
  735TMC3    C610916   1.898   0.072  12.393 -0.6204  0.2342  0.1825
  735TMC3     C10917   1.798   0.441  12.297  0.4964 -0.2195  0.5590
  735TMC3     O10918   1.816   0.440  12.174  0.2365  0.8599 -0.4758
  735TMC3     H10919   1.691   0.212  12.181 -0.1339  1.1934  0.8400
  735TMC3    H110920   1.872   0.365  12.548 -3.1050  0.4773  1.1326
  735TMC3    H210921   1.976   4.733  12.392 -0.1767  0.6869  0.8038
  735TMC3    C710922   2.055   0.192  12.523  0.1326  0.1723  0.3165
  735TMC3    C810923   1.895   0.054  12.160 -0.5154 -0.3347  0.1234
  735TMC3    O110924   2.116   0.283  12.475  0.7178  0.2012 -0.1119
  735TMC3    O210925   1.942   4.679  12.147 -0.0028 -0.4366 -0.2177
  736MPD2     C10926   2.262   4.651  12.654 -0.1602  0.4738 -0.0641
  736MPD2    C110927   2.236   0.043  12.604  0.8673  0.4617  0.4799
  736MPD2    C210928   2.346   0.117  12.562 -0.7011 -0.2178  0.6334
  736MPD2    C310929   2.481   0.071  12.567  0.0814  0.4737 -0.7621
  736MPD2    C410930   2.497   4.681  12.612 -0.5299  0.5708  0.0995
  736MPD2    C510931   2.393   4.604  12.660 -0.0412 -0.4087  0.5730
  736MPD2     H10932   2.331   0.211  12.511  1.2532 -0.7192 -0.8885
  736MPD2    H110933   2.591   4.629  12.596 -0.2769  1.7733 -2.3942
  736MPD2    H210934   2.194   4.581  12.701  0.8746 -1.2769 -1.2102
  736MPD2    H310935   2.415   4.502  12.690 -0.5938 -1.6890 -3.4175
  736MPD2     N10936   2.597   0.130  12.508  0.6040 -0.0174 -0.4412
  736MPD2    H510937   2.685   0.084  12.529  0.2093  0.1439  1.5346
  736MPD2    N110938   2.103   0.085  12.595 -0.3450 -0.0802  0.5160
  736MPD2    H710939   2.037   0.015  12.629 -0.3646 -0.8951 -1.1868
  737TMC3    C110940   2.725   0.295  12.400  0.7483 -0.0211 -0.5972
  737TMC3    C210941   2.730   0.433  12.374 -0.0846 -0.2136  0.3776
  737TMC3    C310942   2.785   0.479  12.259 -0.5145  0.6219 -0.5406
  737TMC3    C410943   2.791   0.215  12.317 -0.3684 -0.8990  0.2508
  737TMC3    C510944   2.855   0.265  12.206  0.7210  0.0305  0.8419
  737TMC3    C610945   2.854   0.400  12.172  0.0296 -0.1736 -0.7982
  737TMC3     C10946   2.597   0.248  12.437  1.0560 -0.5200  0.8126
  737TMC3     O10947   2.504   0.322  12.429 -0.2109 -0.0926 -0.2935
  737TMC3     H10948   2.674   0.505  12.433 -1.9918 -2.2254  1.0423
  737TMC3    H110949   2.815   0.114  12.348 -2.2270 -1.3424  0.2080
  737TMC3    H210950   2.892   0.448  12.083  1.9258 -0.6155 -0.2256
  737TMC3    C710951   2.918   0.168  12.117 -0.7848 -0.4670 -0.1293
  737TMC3    C810952   2.748   0.613  12.226 -0.2462 -0.2239 -0.1856
  737TMC3    O110953   2.900   0.046  12.135 -0.4352  0.1807  0.2973
  737TMC3    O210954   2.767   0.699  12.314 -0.3874 -0.0582  0.0176
  738MPD2     C10955   2.984   4.399  14.969 -0.3773  0.1927 -0.2073
  738MPD2    C110956   3.045   4.279  14.986  0.0952  0.6334 -0.2595
  738MPD2    C210957   3.183   4.266  14.971  0.7879 -0.2453 -0.3214
  738MPD2    C310958   3.263   4.379  14.945  0.4025 -1.0135  0.2750
  738MPD2    C410959   3.199   4.500  14.930  0.3764  0.7168  0.4000
  738MPD2    C510960   3.061   4.507  14.936  0.2442 -0.6444  0.2355
  738MPD2     H10961   3.234   4.171  14.982  1.8006  0.3104 -0.2110
  738MPD2    H110962   3.258   4.591  14.921  1.4600 -0.0068  0.1342
  738MPD2    H210963   2.877   4.415  14.968 -0.2552  1.0718  0.0864
  738MPD2    H310964   3.018   4.605  14.919  1.7789 -0.1425 -0.7755
  738MPD2     N10965   3.405   4.374  14.924 -0.7212 -0.6083  0.5029
  738MPD2    H510966   3.451   4.460  14.895 -0.0990 -0.4333  2.0297
  738MPD2    N110967   2.980   4.156  15.009  0.3097 -0.0359  0.2586
  738MPD2    H710968   3.033   4.070  15.022  0.1890 -0.0984  0.3423
  739TMC3    C110969   3.618   4.284  14.895 -0.4606 -0.0129 -0.1393
  739TMC3    C210970   3.612   4.332  14.765 -0.4106 -0.2226 -0.1687
  739TMC3    C310971   3.721   4.302  14.684  0.1179 -0.1294 -0.0137
  739TMC3    C410972   3.716   4.207  14.949  0.7372 -0.3859 -0.9824
  739TMC3    C510973   3.821   4.177  14.860 -0.5574  0.3549 -0.0239
  739TMC3    C610974   3.829   4.225  14.733  0.1263  0.5402 -0.1155
  739TMC3     C10975   3.491   4.274  14.959  0.1479 -0.0757 -0.1157
  739TMC3     O10976   3.469   4.167  15.015  0.1932 -0.0552 -0.2006
  739TMC3     H10977   3.528   4.385  14.722 -0.9885 -0.9967  0.0135
  739TMC3    H110978   3.721   4.158  15.046 -0.3663 -0.6161 -1.0346
  739TMC3    H210979   3.914   4.199  14.671 -0.4828 -0.2678 -0.6113
  739TMC3    C710980   3.944   4.144  14.927  0.2531  0.3606  0.9587
  739TMC3    C810981   3.702   4.323  14.543 -0.5504  0.1761  0.0654
  739TMC3    O110982   3.935   4.072  15.028 -0.2710 -0.4562 -0.3843
  739TMC3    O210983   3.589   4.332  14.496 -0.3462  0.6535 -0.3232
  740TMC3    C110984   3.684   0.771  14.377 -0.7002 -0.1615 -0.3028
  740TMC3    C210985   3.710   0.678  14.468  0.4177 -0.1364  0.7237
  740TMC3    C310986   3.809   0.587  14.441 -0.8913 -0.0473  0.4248
  740TMC3    C410987   3.753   0.775  14.258  0.6825  0.3017 -0.4778
  740TMC3    C510988   3.831   0.673  14.220  0.1989  0.4031  0.3818
  740TMC3    C610989   3.856   0.575  14.309 -0.6335  0.3826  0.2599
  740TMC3     C10990   3.598   0.884  14.411 -0.1053  0.2415  0.0468
  740TMC3     O10991   3.586   0.969  14.327 -0.5031 -0.6154 -0.0098
  740TMC3     H10992   3.671   0.683  14.569 -0.6913 -1.6657  0.3676
  740TMC3    H110993   3.745   0.861  14.194 -0.3794 -0.4930 -1.4167
  740TMC3    H210994   3.930   0.500  14.286 -0.7474  0.1480  0.6562
  740TMC3    C710995   3.949   0.709  14.153 -0.3474  0.3946  0.5686
  740TMC3    C810996   3.860   0.502  14.551  0.0667 -0.1710  0.4510
  740TMC3    O110997   4.055   0.679  14.214 -0.0923  0.6097  0.1297
  740TMC3    O210998   3.782   0.489  14.642 -0.5905  0.2569  0.3333
  741TMC3    C110999   3.597   4.708  14.440 -0.4472 -0.7579 -0.8827
  741TMC3    C211000   3.498   4.628  14.398 -0.3046 -0.4112 -0.3430
  741TMC3    C311001   3.413   4.581  14.495 -0.7526 -0.5555 -0.3111
  741TMC3    C411002   3.608   0.015  14.573  0.1602 -0.0669 -0.4857
  741TMC3    C511003   3.513   4.710  14.656  0.2507 -0.2039  0.0124
  741TMC3    C611004   3.417   4.620  14.624  0.0669  0.4182  0.1135
  741TMC3     C11005   3.704   4.729  14.342  0.1615  0.6019  0.2178
  741TMC3     O11006   3.684   0.015  14.222 -0.0777 -0.0585 -0.3036
  741TMC3     H11007   3.489   4.615  14.291 -1.5556  3.0840 -0.6745
  741TMC3    H111008   3.686   0.084  14.602 -0.1424 -0.2426  0.7605
  741TMC3    H211009   3.339   4.584  14.690  1.0548 -0.6786  0.6998
  741TMC3    C711010   3.553   4.711  14.795  0.4573 -0.2666 -0.6538
  741TMC3    C811011   3.287   4.528  14.440 -0.4878  0.1262  0.8748
  741TMC3    O111012   3.539   4.613  14.866 -0.1392  0.3445  0.5492
  741TMC3    O211013   3.187   4.541  14.513  0.1820 -0.1248 -0.1277
  742TMC3    C111014   3.454   3.445  15.425 -0.6945 -0.1951 -0.0562
  742TMC3    C211015   3.367   3.415  15.323 -0.0662  0.5271 -0.0714
  742TMC3    C311016   3.413   3.321  15.237  0.3719  0.0087  0.6980
  742TMC3    C411017   3.573   3.376  15.457 -0.4055 -0.2275 -0.2155
  742TMC3    C511018   3.614   3.277  15.373  0.1202 -0.4170 -0.4245
  742TMC3    C611019   3.531   3.253  15.263 -0.2672  0.1834  0.3383
  742TMC3     C11020   3.427   3.569  15.496 -0.1587 -0.2649 -0.2073
  742TMC3     O11021   3.346   3.646  15.442  1.0873  0.7503  0.6546
  742TMC3     H11022   3.272   3.467  15.313 -2.1766 -3.1129  0.8711
  742TMC3    H111023   3.650   3.416  15.522 -0.8210  0.5641 -0.2101
  742TMC3    H211024   3.563   3.176  15.194 -0.4796 -0.9174  1.4780
  742TMC3    C711025   3.754   3.233  15.352  0.0833 -0.5802 -0.1032
  742TMC3    C811026   3.326   3.258  15.141 -1.2972  0.2170 -0.0930
  742TMC3    O111027   3.768   3.117  15.320  0.2163  0.7019 -0.0384
  742TMC3    O211028   3.389   3.182  15.062  0.3579 -0.3938  0.2290
  743MPD2     C11029   0.197   4.655   0.708 -0.0242 -0.1275 -0.6809
  743MPD2    C111030   0.248   4.527   0.723 -0.5771  0.1892  0.1903
  743MPD2    C211031   0.342   4.509   0.822 -0.0901 -0.1867 -0.2318
  743MPD2    C311032   0.374   4.607   0.914  0.1623 -0.2719  0.3678
  743MPD2    C411033   0.321   4.734   0.902  0.1899  0.0160 -0.2372
  743MPD2    C511034   0.234   0.021   0.796 -0.1085 -0.0573 -0.4015
  743MPD2     H11035   0.374   4.408   0.843  0.1350  0.0856  0.7694
  743MPD2    H111036   0.336   0.083   0.968 -0.4187  0.6632 -0.9264
  743MPD2    H211037   0.121   4.674   0.633 -0.4617  2.3470  0.3840
  743MPD2    H311038   0.205   0.123   0.773 -1.3233 -0.4694 -0.6979
  743MPD2     N11039   0.457   4.560   1.021 -0.1101  0.5408 -0.2421
  743MPD2    H511040   0.463   4.459   1.029 -1.5308  0.3354 -1.7666
  743MPD2    N111041   0.203   4.422   0.633  0.2055  0.3148  0.0148
  743MPD2    H711042   0.148   4.454   0.554 -0.3643 -1.8260 -0.4647
  744TMC3    C111043   0.186   4.202   0.535  0.1402 -0.4536  0.1689
  744TMC3    C211044   0.108   4.249   0.442 -0.3659  0.3030  0.8240
  744TMC3    C311045   0.106   4.184   0.321  0.0351  0.1987  0.2947
  744TMC3    C411046   0.268   4.090   0.519  0.2871  0.1649 -0.0375
  744TMC3    C511047   0.266   4.034   0.395  0.1076  0.4252  0.5132
  744TMC3    C611048   0.186   4.079   0.294 -0.0230  0.6057  0.7108
  744TMC3     C11049   0.236   4.291   0.640 -0.2533  0.9889  0.0748
  744TMC3     O11050   0.303   4.236   0.726  0.2775  1.0916 -0.0972
  744TMC3     H11051   0.033   4.323   0.469 -0.8896 -0.1610  0.6474
  744TMC3    H111052   0.345   4.068   0.592 -1.9164  2.1764  2.9041
  744TMC3    H211053   0.185   4.019   0.203 -1.3268  1.4273  0.1929
  744TMC3    C711054   0.391   3.984   0.342 -0.3991  0.3740 -0.3740
  744TMC3    C811055   0.035   4.259   0.213 -0.3431  0.0992 -0.3791
  744TMC3    O111056   0.426   4.025   0.231  0.0876  0.1438  0.2924
  744TMC3    O211057   4.718   4.370   0.238  0.7694 -0.0794  0.6478
  745TMC3    C111058   3.934   2.943  13.588 -0.5581 -0.6361  0.2351
  745TMC3    C211059   3.832   2.942  13.683 -0.4595 -0.3624  0.8365
  745TMC3    C311060   3.705   2.914  13.629  0.7531 -0.7250  0.6922
  745TMC3    C411061   3.918   2.909  13.458  0.0841 -0.5795  0.5049
  745TMC3    C511062   3.789   2.885  13.411 -0.3500  0.2862  0.2279
  745TMC3    C611063   3.676   2.893  13.495 -0.7005 -0.2459 -0.0657
  745TMC3     C11064   4.068   2.978  13.628 -0.2877 -1.1615  0.4217
  745TMC3     O11065   4.095   2.970  13.748  0.6831  0.5989  0.2147
  745TMC3     H11066   3.858   2.963  13.786 -0.6017 -0.3697  0.8738
  745TMC3    H111067   4.007   2.903  13.397  0.2521 -1.3523  0.8247
  745TMC3    H211068   3.577   2.860  13.466 -1.4451  1.1098  0.9574
  745TMC3    C711069   3.755   2.907  13.269  0.1529  0.8370  0.4075
  745TMC3    C811070   3.595   2.898  13.722  0.5495  0.1543 -0.1808
  745TMC3    O111071   3.649   2.965  13.249 -0.0117 -0.2142  0.1844
  745TMC3    O211072   3.487   2.873  13.671 -0.0516 -0.4614 -0.2049
  746TMC3    C111073   1.840   4.291  11.131 -0.3467 -0.0608  0.2243
  746TMC3    C211074   1.934   4.304  11.034 -0.4766  0.0606 -0.3429
  746TMC3    C311075   1.987   4.195  10.973 -0.6379 -0.1898  0.4498
  746TMC3    C411076   1.796   4.172  11.175 -0.5962  0.7048  0.3117
  746TMC3    C511077   1.853   4.057  11.108  0.0010 -0.1884 -0.5122
  746TMC3    C611078   1.940   4.067  11.000 -0.0044  0.3002 -0.2059
  746TMC3     C11079   1.779   4.407  11.201 -0.5593 -0.0964  0.7717
  746TMC3     O11080   1.715   4.394  11.299  0.1744 -0.0291 -0.1707
  746TMC3     H11081   1.995   4.395  11.030 -0.1752 -0.1686 -0.9481
  746TMC3    H111082   1.711   4.172  11.242 -1.3186 -2.1662 -0.6142
  746TMC3    H211083   1.966   3.980  10.942 -1.6467  0.6431 -1.4771
  746TMC3    C711084   1.759   3.948  11.113 -0.4615  0.0688  0.2407
  746TMC3    C811085   2.042   4.209  10.847 -0.1903 -0.3623  1.0523
  746TMC3    O111086   1.746   3.881  11.005  0.1407 -0.3169 -0.0181
  746TMC3    O211087   2.069   4.106  10.788  0.0860  0.1488  0.0846
  747TMC3    C111088   3.348   0.452  11.185  0.4473 -0.2419 -0.4543
  747TMC3    C211089   3.285   0.356  11.264  0.2487  0.3889 -0.5687
  747TMC3    C311090   3.296   0.370  11.401 -0.3182 -0.1814 -0.1546
  747TMC3    C411091   3.396   0.571  11.247  0.2391 -0.2273 -0.1284
  747TMC3    C511092   3.414   0.573  11.385  0.0345 -0.3167  0.0916
  747TMC3    C611093   3.375   0.464  11.457 -0.1856 -0.0839  0.1878
  747TMC3     C11094   3.325   0.451  11.047 -0.2872  0.1968 -0.2731
  747TMC3     O11095   3.315   0.567  11.002  0.6119  0.8382  0.2045
  747TMC3     H11096   3.239   0.266  11.225  0.8741 -0.4987  0.7357
  747TMC3    H111097   3.418   0.657  11.186  2.4878 -0.7227 -0.0215
  747TMC3    H211098   3.409   0.461  11.560 -2.3105  0.3956  0.9018
  747TMC3    C711099   3.477   0.690  11.441 -0.1186  0.2161  0.8132
  747TMC3    C811100   3.252   0.253  11.481 -0.1830 -0.0738 -0.4813
  747TMC3    O111101   3.455   0.707  11.558  0.0253 -0.3415  0.4864
  747TMC3    O211102   3.254   0.147  11.417  0.5146 -0.5320  0.0387
  748MPD2     C11103   4.580   0.805   1.048  0.3137  0.1009 -0.0272
  748MPD2    C111104   4.647   0.783   0.928  0.1491  0.8947 -0.2126
  748MPD2    C211105   0.045   0.815   0.922 -0.3236  0.3728 -0.5082
  748MPD2    C311106   0.106   0.870   1.033 -0.5295  0.1392 -0.5167
  748MPD2    C411107   0.035   0.906   1.140 -0.2079 -0.1413  0.1913
  748MPD2    C511108   4.638   0.875   1.143 -0.6019 -0.5816  0.1006
  748MPD2     H11109   0.112   0.782   0.843 -1.1960 -1.2651 -0.5657
  748MPD2    H111110   0.080   0.946   1.230 -1.0829 -1.4421  1.2089
  748MPD2    H211111   4.473   0.787   1.049  0.2307  0.5373 -2.2653
  748MPD2    H311112   4.575   0.901   1.227 -0.1859 -2.4645  0.9883
  748MPD2     N11113   0.249   0.892   1.032  0.9854 -0.5702 -0.1500
  748MPD2    H511114   0.305   0.869   0.950  0.4962  0.8869 -0.8998
  748MPD2    N111115   4.581   0.720   0.821  0.0539  0.3606  0.3272
  748MPD2    H711116   4.493   0.684   0.854 -0.4457 -0.4276 -1.8429
  749TMC3    C111117   0.469   0.921   1.124  1.1789 -0.4775 -0.7104
  749TMC3    C211118   0.544   0.867   1.226  0.5655 -0.2613  0.4693
  749TMC3    C311119   0.683   0.874   1.230 -0.0280  0.8119  0.3142
  749TMC3    C411120   0.535   0.974   1.020 -0.8764  0.0467  0.1131
  749TMC3    C511121   0.676   0.968   1.022 -0.2823 -0.1562 -0.4418
  749TMC3    C611122   0.750   0.927   1.127  0.0632 -0.0313 -0.6246
  749TMC3     C11123   0.323   0.910   1.151 -0.0764  0.0172  0.1769
  749TMC3     O11124   0.297   0.894   1.269  0.4152 -0.8058 -0.3835
  749TMC3     H11125   0.505   0.809   1.310 -0.0265 -0.5204  0.0200
  749TMC3    H111126   0.481   1.009   0.933  0.7502 -1.0377 -1.3404
  749TMC3    H211127   0.858   0.934   1.121  0.1210 -0.7505 -0.3879
  749TMC3    C711128   0.730   1.064   0.927  0.1377  0.3304 -0.2285
  749TMC3    C811129   0.742   0.780   1.311 -0.3183  0.6091  0.0523
  749TMC3    O111130   0.810   1.029   0.843  0.2544  0.0120  0.6231
  749TMC3    O211131   0.707   0.787   1.427 -0.2618  0.5536  0.1785
  750MPD2     C11132   1.275   1.374  11.633 -1.0109 -0.8812 -0.1078
  750MPD2    C111133   1.175   1.287  11.626  0.4321  0.2000  0.3101
  750MPD2    C211134   1.196   1.154  11.602  0.7793  0.5915  0.0605
  750MPD2    C311135   1.318   1.116  11.551  0.3666  0.1588 -0.6342
  750MPD2    C411136   1.419   1.208  11.541 -0.0932 -0.2746 -0.2103
  750MPD2    C511137   1.399   1.331  11.594  0.2696  0.6079  0.9589
  750MPD2     H11138   1.122   1.078  11.621  1.4844 -0.1131 -0.0363
  750MPD2    H111139   1.519   1.182  11.507  0.3346 -1.8636  2.1825
  750MPD2    H211140   1.266   1.478  11.661  0.4404 -0.7029 -0.3344
  750MPD2    H311141   1.477   1.406  11.589  1.4321 -0.8495 -2.7565
  750MPD2     N11142   1.347   0.980  11.519 -0.0054  0.2960 -0.6198
  750MPD2    H511143   1.443   0.953  11.497 -0.0128  1.2264 -1.8060
  750MPD2    N111144   1.051   1.338  11.664 -0.6593  0.4940  0.4267
  750MPD2    H711145   1.043   1.438  11.681  0.4077  1.0682 -2.4205
  751TMC3    C111146   1.307   0.776  11.402 -0.5579  0.6163 -0.6502
  751TMC3    C211147   1.218   0.682  11.365 -0.0141 -0.5795 -0.4314
  751TMC3    C311148   1.264   0.587  11.276  0.6802  0.0912 -0.4986
  751TMC3    C411149   1.443   0.775  11.372  0.4965 -0.0965  0.2789
  751TMC3    C511150   1.480   0.680  11.284  0.6696  0.1408  0.7970
  751TMC3    C611151   1.391   0.589  11.234 -0.7315 -0.6869 -0.1676
  751TMC3     C11152   1.249   0.889  11.472  0.5474 -0.8208  0.5083
  751TMC3     O11153   1.130   0.880  11.492  0.6756  0.2755  0.1429
  751TMC3     H11154   1.122   0.668  11.412  1.4072  0.5498  2.8218
  751TMC3    H111155   1.511   0.855  11.399  3.5933 -2.9318  0.8200
  751TMC3    H211156   1.421   0.512  11.163 -1.1462 -0.8879 -0.1323
  751TMC3    C711157   1.604   0.683  11.212 -0.7580 -0.4819 -0.0484
  751TMC3    C811158   1.187   0.469  11.254  0.7430 -0.1104 -0.0331
  751TMC3    O111159   1.658   0.790  11.194 -0.4896 -0.3072 -0.2975
  751TMC3    O211160   1.228   0.403  11.159  0.1711 -0.2132 -0.3077
  752TMC3    C111161   4.715   1.438  17.388 -0.3078  0.0816 -0.1248
  752TMC3    C211162   0.062   1.461  17.494  0.1378  0.3921  0.3384
  752TMC3    C311163   0.021   1.549  17.586 -0.3547 -0.1500 -0.0261
  752TMC3    C411164   4.598   1.506  17.379  0.4618 -0.1017  0.0164
  752TMC3    C511165   4.560   1.590  17.479 -0.4285 -0.4946 -0.0045
  752TMC3    C611166   4.644   1.625  17.573 -0.3591  0.5560 -0.6242
  752TMC3     C11167   0.047   1.416  17.261 -0.5026  0.0295 -0.4374
  752TMC3     O11168   0.161   1.375  17.269 -0.8481  0.0887 -0.2455
  752TMC3     H11169   0.164   1.427  17.509  0.1980  0.3939 -0.0462
  752TMC3    H111170   4.527   1.486  17.299 -0.2989 -1.0799  0.9369
  752TMC3    H211171   4.615   1.684  17.660 -0.2990 -2.2171  1.2951
  752TMC3    C711172   4.421   1.631  17.481  0.4050 -1.3457  0.2290
  752TMC3    C811173   0.106   1.595  17.686  0.2750 -0.4612 -0.1630
  752TMC3    O111174   4.342   1.571  17.408  0.3500  0.3784  0.6490
  752TMC3    O211175   0.101   1.717  17.703  0.7726  0.2460  0.0815
  753TMC3    C111176   1.794   2.725  13.544  0.0468 -0.6420  0.0541
  753TMC3    C211177   1.924   2.765  13.574  0.0151  0.3559  0.1366
  753TMC3    C311178   1.989   2.684  13.657  0.8153  0.1232  0.0494
  753TMC3    C411179   1.750   2.596  13.557  0.6953  1.0670  0.1900
  753TMC3    C511180   1.830   2.508  13.624 -0.1867  0.2781 -0.1343
  753TMC3    C611181   1.949   2.552  13.677 -0.1428  0.9352 -0.0259
  753TMC3     C11182   1.695   2.830  13.547 -0.2742 -0.0682  0.1947
  753TMC3     O11183   1.713   2.935  13.480 -0.0967 -0.5196 -0.0336
  753TMC3     H11184   1.954   2.868  13.565 -0.0071  0.3194 -0.3414
  753TMC3    H111185   1.652   2.572  13.517  2.1821 -1.0288 -2.1981
  753TMC3    H211186   2.009   2.488  13.740 -0.5690  1.5122  0.9556
  753TMC3    C711187   1.759   2.414  13.700  0.3960 -0.3779 -0.5728
  753TMC3    C811188   2.069   2.763  13.758  0.7021 -0.6178  0.2104
  753TMC3    O111189   1.637   2.416  13.688 -0.3550  0.5933 -0.0000
  753TMC3    O211190   2.047   2.883  13.770  0.1648 -0.1230 -0.6497
  754MPD2     C11191   0.909   1.723  13.220  0.1352  0.4146 -0.5229
  754MPD2    C111192   0.980   1.655  13.313 -0.0185  0.2177 -0.1778
  754MPD2    C211193   0.910   1.557  13.385 -0.2821 -0.2212  0.7380
  754MPD2    C311194   0.768   1.543  13.370  0.0733  0.1275  0.9606
  754MPD2    C411195   0.709   1.608  13.264  0.0229 -0.0544  0.7000
  754MPD2    C511196   0.780   1.695  13.189  0.0764 -0.5629 -0.8037
  754MPD2     H11197   0.962   1.477  13.436  0.6047 -0.3032 -0.2834
  754MPD2    H111198   0.603   1.595  13.245 -0.2226  0.8483  1.4543
  754MPD2    H211199   0.944   1.803  13.155 -2.3667 -0.4877 -3.0078
  754MPD2    H311200   0.743   1.764  13.113 -1.3760  0.6052  0.9662
  754MPD2     N11201   0.686   1.456  13.440 -0.4148  0.0582  0.7351
  754MPD2    H511202   0.592   1.433  13.411 -0.1586  0.9594 -0.7713
  754MPD2    N111203   1.118   1.669  13.317  0.0500 -0.5804 -0.0543
  754MPD2    H711204   1.157   1.726  13.242  1.9658  1.6552  2.6390
  755MPD2     C11205   4.489   1.471  13.476  0.0496  0.2937 -0.5033
  755MPD2    C111206   4.565   1.503  13.591  0.4627 -0.0007 -0.2301
  755MPD2    C211207   4.697   1.463  13.602  1.1242 -0.0944  0.4292
  755MPD2    C311208   0.024   1.404  13.493  0.4325 -0.0999 -0.0191
  755MPD2    C411209   4.683   1.378  13.377 -0.0075 -1.1345  0.5210
  755MPD2    C511210   4.550   1.411  13.369 -0.5877 -0.2780  0.2603
  755MPD2     H11211   0.010   1.470  13.698 -0.0349 -1.4702  1.1157
  755MPD2    H111212   4.727   1.313  13.303 -1.9831  2.4124 -3.7182
  755MPD2    H211213   4.382   1.489  13.475  0.0391  0.3329  1.3484
  755MPD2    H311214   4.489   1.369  13.290 -1.2678 -0.7663  1.0378
  755MPD2     N11215   0.151   1.355  13.492 -0.5852  0.0241 -0.0337
  755MPD2    H511216   0.188   1.331  13.401 -0.0942  0.3495  0.0812
  755MPD2    N111217   4.500   1.566  13.695 -0.5475  0.3017 -0.5944
  755MPD2    H711218   4.540   1.574  13.788  0.2907 -0.5330 -0.8756
  756MPD2     C11219   1.041   2.099   9.587 -0.4944  0.3350  0.7405
  756MPD2    C111220   1.025   2.082   9.719  0.1517  0.3904  0.3923
  756MPD2    C211221   0.905   2.107   9.784 -0.1339  0.2979  0.1915
  756MPD2    C311222   0.797   2.167   9.716  0.2553  0.6966  0.2571
  756MPD2    C411223   0.811   2.192   9.577  0.5275  0.1333  0.3612
  756MPD2    C511224   0.930   2.149   9.525  0.3240 -0.2649 -0.2960
  756MPD2     H11225   0.911   2.099   9.892  1.0691  0.7715  0.1628
  756MPD2    H111226   0.732   2.246   9.527 -0.4013 -1.7377 -0.1867
  756MPD2    H211227   1.128   2.072   9.528 -0.8594  1.0807 -0.1396
  756MPD2    H311228   0.943   2.157   9.418  1.6531 -1.1910 -0.1985
  756MPD2     N11229   0.681   2.196   9.791  0.1598  0.0780  0.9047
  756MPD2    H511230   0.674   2.154   9.883  1.1568 -0.2717  0.8267
  756MPD2    N111231   1.130   2.037   9.805  0.5266 -1.0245  0.0904
  756MPD2    H711232   1.110   2.024   9.903 -3.2026 -0.3695 -0.5848
  757MPD2     C11233   0.356   1.621  10.300  0.4617 -0.3053  0.7203
  757MPD2    C111234   0.475   1.692  10.275  1.0617 -0.1158  0.1768
  757MPD2    C211235   0.468   1.806  10.196  0.4011 -0.5320 -0.3632
  757MPD2    C311236   0.351   1.855  10.145  0.1098 -0.7422 -0.4212
  757MPD2    C411237   0.237   1.785  10.181 -0.1777 -0.3623  0.3102
  757MPD2    C511238   0.236   1.672  10.250  0.1292  0.0572 -0.3479
  757MPD2     H11239   0.557   1.862  10.169 -1.0670  0.7438 -2.4344
  757MPD2    H111240   0.144   1.833  10.154  0.4585 -0.7807 -2.5735
  757MPD2    H211241   0.358   1.526  10.353  1.7667 -0.4028  0.5086
  757MPD2    H311242   0.150   1.609  10.270  1.4141 -2.1921 -1.9785
  757MPD2     N11243   0.349   1.988  10.089  0.0453  0.2300 -0.1693
  757MPD2    H511244   0.441   2.025  10.065  0.0489 -0.0821 -0.6179
  757MPD2    N111245   0.600   1.640  10.323 -0.2071 -0.2119  0.2444
  757MPD2    H711246   0.592   1.553  10.374 -0.5161 -1.5542 -2.0841
  758MPD2     C11247   0.950   1.427  15.740 -0.4790  0.0634 -0.3672
  758MPD2    C111248   0.958   1.319  15.823 -0.4236 -0.2720  0.4034
  758MPD2    C211249   0.927   1.335  15.953  0.1231  0.1952  0.1964
  758MPD2    C311250   0.891   1.459  16.000 -0.6129 -0.4216 -0.1907
  758MPD2    C411251   0.857   1.551  15.905  0.7765  0.1983  0.9081
  758MPD2    C511252   0.892   1.542  15.771 -0.2085 -0.5087  0.2189
  758MPD2     H11253   0.952   1.261  16.028  0.0834 -0.2214 -0.2017
  758MPD2    H111254   0.814   1.648  15.925 -1.7401 -0.6908 -0.2079
  758MPD2    H211255   0.975   1.412  15.636  0.0053  0.0634 -0.2495
  758MPD2    H311256   0.876   1.624  15.702 -0.4776 -0.4554  0.3429
  758MPD2     N11257   0.890   1.497  16.138 -0.1245  0.3880 -0.6357
  758MPD2    H511258   0.858   1.592  16.155  2.4613  0.7337  2.4454
  758MPD2    N111259   1.012   1.194  15.769  0.2838 -0.2123  0.6922
  758MPD2    H711260   1.042   1.201  15.672 -1.0658 -0.2704  0.2654
  759MPD2     C11261   1.030   3.720   9.424  0.9717  0.8514 -0.1318
  759MPD2    C111262   0.988   3.786   9.535  0.1211  0.1566  0.4717
  759MPD2    C211263   1.034   3.914   9.559  0.0792  0.0920  0.0603
  759MPD2    C311264   1.117   3.973   9.465 -0.1870 -0.7044 -0.3969
  759MPD2    C411265   1.145   3.912   9.342  0.1206 -0.1425 -0.7666
  759MPD2    C511266   1.097   3.784   9.323 -0.0265 -0.4416 -0.6960
  759MPD2     H11267   0.995   3.965   9.647  0.8355  2.9065 -1.2320
  759MPD2    H111268   1.188   3.960   9.255  2.5940 -1.5987 -0.3584
  759MPD2    H211269   0.998   3.617   9.417  1.2490  0.7114  0.6227
  759MPD2    H311270   1.120   3.730   9.232 -2.4261 -2.6614 -0.0037
  759MPD2     N11271   1.162   4.100   9.490  0.5675  0.0544  0.6078
  759MPD2    H511272   1.124   4.137   9.576  0.7335 -2.0220  1.5826
  759MPD2    N111273   0.912   3.716   9.630 -0.0921 -0.0311  0.3037
  759MPD2    H711274   0.924   3.750   9.725 -0.1314  2.5181 -0.6078
  760MPD2     C11275   4.108   1.180  11.517 -0.3974 -0.1599  0.7921
  760MPD2    C111276   4.166   1.196  11.648 -0.3981 -0.3940 -0.0303
  760MPD2    C211277   4.163   1.083  11.734 -0.8031 -0.9807 -0.2912
  760MPD2    C311278   4.105   0.957  11.697  0.5567  0.0527 -0.0943
  760MPD2    C411279   4.068   0.945  11.570  0.1472 -0.5499 -0.1955
  760MPD2    C511280   4.074   1.051  11.476 -0.0351  0.3883  0.3089
  760MPD2     H11281   4.207   1.093  11.832 -1.1714  1.2330 -0.3625
  760MPD2    H111282   4.021   0.852  11.541  0.1409 -0.8745  0.8823
  760MPD2    H211283   4.085   1.264  11.453 -0.0043 -0.8679 -0.2921
  760MPD2    H311284   4.009   1.046  11.389  0.7269  1.7670 -0.3343
  760MPD2     N11285   4.107   0.843  11.787  0.2196 -0.0307 -0.0346
  760MPD2    H511286   4.087   0.748  11.757  0.7724 -0.4997  1.0533
  760MPD2    N111287   4.225   1.323  11.686  0.2210  0.6139 -0.0920
  760MPD2    H711288   4.251   1.335  11.783  0.6595  1.2270 -0.2854
  761MPD2     C11289   0.822   0.108  11.259  0.2023  0.5920  0.4130
  761MPD2    C111290   0.891   0.164  11.155  0.0895  0.2389  0.4506
  761MPD2    C211291   0.969   0.274  11.181 -0.5337  0.2875 -0.0476
  761MPD2    C311292   0.992   0.327  11.308  0.1935  0.6495  0.4324
  761MPD2    C411293   0.908   0.282  11.410 -0.0254  0.4166 -0.3627
  761MPD2    C511294   0.831   0.167  11.386  0.4424  0.4837 -0.2915
  761MPD2     H11295   1.026   0.318  11.100 -2.4962 -0.0404 -1.6138
  761MPD2    H111296   0.909   0.323  11.510 -0.3862  0.5345 -0.4071
  761MPD2    H211297   0.775   0.011  11.251  1.5169 -0.0425  0.3937
  761MPD2    H311298   0.777   0.132  11.473  1.4770 -0.4861 -0.0591
  761MPD2     N11299   1.076   0.438  11.335  0.3010  0.1155 -0.4819
  761MPD2    H511300   1.075   0.474  11.430  0.8503 -0.2092 -0.3524
  761MPD2    N111301   0.909   0.112  11.029 -0.0626  0.0026  0.1090
  761MPD2    H711302   0.995   0.141  10.982 -0.3699  2.2587  0.9738
  762MPD2     C11303   1.408   0.305  10.806  0.4117  0.4464 -0.1088
  762MPD2    C111304   1.404   0.187  10.729  0.4012  0.3941 -0.1674
  762MPD2    C211305   1.498   0.167  10.629 -0.7342 -0.3722  0.4886
  762MPD2    C311306   1.598   0.266  10.609  0.3966  0.5534 -0.2953
  762MPD2    C411307   1.588   0.384  10.682 -0.5545  0.1443 -1.0485
  762MPD2    C511308   1.499   0.402  10.782 -0.0228  0.1482 -0.3536
  762MPD2     H11309   1.497   0.074  10.573 -0.1862  0.4749 -0.9220
  762MPD2    H111310   1.659   0.464  10.663 -0.6895  1.0544  2.3990
  762MPD2    H211311   1.340   0.319  10.889 -2.0092  1.3373 -2.2257
  762MPD2    H311312   1.498   0.496  10.836  1.2466  0.3575 -0.7071
  762MPD2     N11313   1.697   0.243  10.507 -0.2982  0.1427  0.2524
  762MPD2    H511314   1.688   0.158  10.452 -0.2479  0.0409  0.4018
  762MPD2    N111315   1.300   0.104  10.762 -0.1989 -0.0841  0.3206
  762MPD2    H711316   1.242   0.137  10.839 -1.5623 -0.3913 -0.5757
  763MPD2     C11317   3.147   1.442  16.134 -0.2687  0.0947  0.1218
  763MPD2    C111318   3.020   1.499  16.139 -0.1414 -0.9533  0.0500
  763MPD2    C211319   3.009   1.633  16.181 -0.2370 -0.0332  0.3488
  763MPD2    C311320   3.124   1.702  16.214 -0.7179  0.0045 -0.1364
  763MPD2    C411321   3.246   1.648  16.190  0.1072  0.0099 -0.3171
  763MPD2    C511322   3.257   1.517  16.151 -0.0509  0.4403  0.0415
  763MPD2     H11323   2.915   1.686  16.186 -0.4793 -0.4901  0.6492
  763MPD2    H111324   3.337   1.705  16.208  1.1250 -1.3003 -1.3551
  763MPD2    H211325   3.169   1.343  16.095 -0.9098  0.2158 -0.5304
  763MPD2    H311326   3.354   1.467  16.150  0.0790  0.6894  0.0891
  763MPD2     N11327   3.132   1.832  16.262 -0.4050 -0.7092  0.3258
  763MPD2    H511328   3.224   1.868  16.285 -0.5956 -1.3413  2.0515
  763MPD2    N111329   2.905   1.428  16.093  0.2075 -0.5511  0.0620
  763MPD2    H711330   2.815   1.475  16.099 -0.1822 -1.1294 -1.2233
  764MPD2     C11331   0.896   3.121  17.573 -0.3769 -0.1040  0.1369
  764MPD2    C111332   0.775   3.057  17.544 -0.3321  0.4350 -0.2661
  764MPD2    C211333   0.668   3.079  17.631 -0.1627 -0.6821  0.7753
  764MPD2    C311334   0.678   3.159  17.735 -0.4606 -0.1205  0.3534
  764MPD2    C411335   0.796   3.223   0.020  0.7900  0.0353 -0.1260
  764MPD2    C511336   0.904   3.206  17.684  0.2510  0.0188  0.0280
  764MPD2     H11337   0.567   3.044  17.609  0.0016 -1.3170  1.0412
  764MPD2    H111338   0.811   3.288   0.106 -3.7297  1.4990 -0.4716
  764MPD2    H211339   0.985   3.106  17.513 -0.2292 -2.0745  0.8324
  764MPD2    H311340   1.000   3.235  17.726 -0.2945  0.8344  0.7071
  764MPD2     N11341   0.565   3.164   0.080 -0.6157  0.0264 -0.5261
  764MPD2    H511342   0.487   3.108   0.048 -0.1084 -0.7400 -0.4318
  764MPD2    N111343   0.752   2.959  17.443  0.3035  0.0311  0.3169
  764MPD2    H711344   0.669   2.901  17.447  0.6222 -0.3957  0.7424
  765MPD2     C11345   0.596   0.612  15.521 -0.3178  0.0200 -0.2348
  765MPD2    C111346   0.680   0.697  15.587  0.3508 -0.0750  0.2487
  765MPD2    C211347   0.814   0.663  15.603  0.1715 -0.1800 -0.0289
  765MPD2    C311348   0.858   0.554  15.534 -0.1384 -0.5092  0.0705
  765MPD2    C411349   0.776   0.470  15.455 -0.0969 -0.5082  0.6008
  765MPD2    C511350   0.644   0.508  15.440  0.2750  0.6410  0.6112
  765MPD2     H11351   0.877   0.733  15.658  1.5789 -1.1468 -0.4128
  765MPD2    H111352   0.825   0.396  15.394 -0.1805  0.0001 -0.0822
  765MPD2    H211353   0.493   0.646  15.523 -0.6984 -1.1775  0.6997
  765MPD2    H311354   0.576   0.468  15.367 -1.4182  0.3241  2.3719
  765MPD2     N11355   0.992   0.510  15.532 -0.5385  0.3633 -0.2886
  765MPD2    H511356   1.000   0.426  15.476 -0.0326 -1.4497  2.4974
  765MPD2    N111357   0.624   0.808  15.663  0.4086 -0.2487  0.2520
  765MPD2    H711358   0.522   0.809  15.662  0.3962  0.6632  1.7715
  766MPD2     C11359   4.713   1.009  15.526 -0.2754  0.1324  0.3495
  766MPD2    C111360   0.103   0.958  15.537 -0.1922 -0.6530 -0.4197
  766MPD2    C211361   0.154   0.874  15.435  0.4146 -0.0634 -0.2831
  766MPD2    C311362   0.077   0.840  15.320  0.2441  1.2930 -0.1151
  766MPD2    C411363   4.677   0.876  15.324  0.0742 -0.1655 -0.2901
  766MPD2    C511364   4.629   0.961  15.423  0.5529 -0.5741 -0.3589
  766MPD2     H11365   0.260   0.851  15.431  1.0540  2.5468  1.8196
  766MPD2    H111366   4.609   0.848  15.245 -1.0195  1.1814  0.1629
  766MPD2    H211367   4.664   1.073  15.598  0.7627  1.5257 -0.1817
  766MPD2    H311368   4.523   0.983  15.422  0.7820  0.6099  0.6095
  766MPD2     N11369   0.130   0.782  15.199 -0.0419  0.0707  0.3410
  766MPD2    H511370   0.067   0.778  15.119  1.1479 -1.5733 -0.5004
  766MPD2    N111371   0.182   1.009  15.644  0.0264  0.6471  0.2752
  766MPD2    H711372   0.147   1.069  15.718 -1.5300 -2.4405  2.0106
  767MPD2     C11373   4.509   1.125  15.030  0.1832 -0.4801 -0.2279
  767MPD2    C111374   4.635   1.099  14.989 -0.3277  0.1352  0.2117
  767MPD2    C211375   4.652   1.031  14.873  0.1385 -0.3144 -0.0189
  767MPD2    C311376   4.547   0.993  14.789 -0.5970 -0.2101 -0.0472
  767MPD2    C411377   4.422   1.019  14.825  0.8158 -0.3336  0.4906
  767MPD2    C511378   4.405   1.069  14.959 -1.0025  1.3275  0.5898
  767MPD2     H11379   0.009   0.998  14.829  0.6610  2.3045 -0.8934
  767MPD2    H111380   4.332   1.007  14.766  1.2439  0.1764 -0.2622
  767MPD2    H211381   4.478   1.176  15.121  0.5861 -1.9905  0.7509
  767MPD2    H311382   4.303   1.085  14.992 -1.0387 -1.3135  1.7315
  767MPD2     N11383   4.579   0.932  14.667  0.3065 -0.0104 -0.1862
  767MPD2    H511384   4.676   0.905  14.658  0.0664 -0.9905  0.1408
  767MPD2    N111385   0.002   1.135  15.077  0.4115 -0.6946 -0.0958
  767MPD2    H711386   4.704   1.173  15.165 -0.7858  1.5290 -1.5318
  768MPD2     C11387   1.667   3.525  10.614 -0.4498  0.1706  0.3943
  768MPD2    C111388   1.592   3.493  10.725 -0.2554 -0.2108 -0.0470
  768MPD2    C211389   1.658   3.485  10.845  0.4401 -0.6533 -0.5775
  768MPD2    C311390   1.792   3.529  10.857 -0.1422  0.1490 -0.1477
  768MPD2    C411391   1.861   3.570  10.739 -0.2776 -0.2159 -0.2151
  768MPD2    C511392   1.793   3.574  10.621 -0.0531  0.4510 -0.4501
  768MPD2     H11393   1.603   3.472  10.938 -1.5952  2.9198 -1.2527
  768MPD2    H111394   1.958   3.615  10.757 -0.3908 -0.7142  1.6966
  768MPD2    H211395   1.620   3.522  10.517 -0.9020 -0.5961  0.6406
  768MPD2    H311396   1.835   3.610  10.528  0.9251  0.0384 -0.1595
  768MPD2     N11397   1.849   3.538  10.982  0.0988  0.0239  0.2462
  768MPD2    H511398   1.935   3.592  10.990  0.8044 -1.1950  0.8547
  768MPD2    N111399   1.450   3.473  10.721 -0.0291  0.0734  0.0363
  768MPD2    H711400   1.408   3.450  10.811  0.5881  0.4698  0.4313
  769MPD2     C11401   1.660   2.630  15.189  0.1413 -0.2810  0.6074
  769MPD2    C111402   1.703   2.509  15.241  0.0267 -0.0738  0.1513
  769MPD2    C211403   1.763   2.507  15.369 -0.0207 -0.2709 -1.2802
  769MPD2    C311404   1.795   2.624  15.434  0.1852  0.0055  0.5419
  769MPD2    C411405   1.775   2.743  15.368  0.3483  0.0194  1.1832
  769MPD2    C511406   1.707   2.745  15.247 -0.4892  0.2483  0.3315
  769MPD2     H11407   1.799   2.413  15.411  0.8809  1.1177  1.0580
  769MPD2    H111408   1.813   2.838  15.401  0.6887 -0.8665  3.2948
  769MPD2    H211409   1.589   2.634  15.108 -1.3211  1.4946  1.9925
  769MPD2    H311410   1.688   2.833  15.187  1.7330  0.3248 -0.2445
  769MPD2     N11411   1.870   2.624  15.553  0.1703 -0.5579 -0.1352
  769MPD2    H511412   1.879   2.540  15.609 -1.7749 -1.2968 -0.9453
  769MPD2    N111413   1.672   2.393  15.165  0.0157 -0.7081 -0.0020
  769MPD2    H711414   1.639   2.407  15.070  0.9156  1.1775 -0.0458
  770MPD2     C11415   1.693   1.300  15.115 -0.4856 -0.2114  0.5427
  770MPD2    C111416   1.599   1.334  15.017 -0.3268 -0.4308 -0.5136
  770MPD2    C211417   1.573   1.474  14.998  0.4547  0.1606 -0.3089
  770MPD2    C311418   1.644   1.571  15.063 -0.8298 -0.0974  0.5371
  770MPD2    C411419   1.738   1.534  15.152 -0.4417  0.0354  0.0519
  770MPD2    C511420   1.757   1.401  15.180 -0.3792 -0.3459  0.6697
  770MPD2     H11421   1.515   1.514  14.916  1.3593  0.9421 -0.5827
  770MPD2    H111422   1.804   1.599  15.208  0.2551  0.3822 -1.1705
  770MPD2    H211423   1.711   1.196  15.138  0.6598  0.0730  0.9616
  770MPD2    H311424   1.838   1.377  15.248 -0.5110 -0.3910  0.8107
  770MPD2     N11425   1.612   1.705  15.034 -0.0755  0.5011 -0.6875
  770MPD2    H511426   1.524   1.727  14.988 -0.7593 -1.9897 -0.5625
  770MPD2    N111427   1.533   1.233  14.950 -0.0776  0.0143 -0.5576
  770MPD2    H711428   1.558   1.135  14.950  2.4886  0.6765  0.2430
  771MPD2     C11429   2.685   0.135  13.478  0.4343 -0.3225 -0.3336
  771MPD2    C111430   2.606   0.226  13.403  0.6314 -0.0913  0.2570
  771MPD2    C211431   2.486   0.183  13.348  0.7062  0.6964  0.3277
  771MPD2    C311432   2.443   0.052  13.363  0.8066  0.2353  0.5715
  771MPD2    C411433   2.513   4.708  13.448  0.2426  0.0613 -1.0607
  771MPD2    C511434   2.633   0.008  13.497 -0.3517  1.1692  0.0857
  771MPD2     H11435   2.436   0.252  13.280  0.4155 -0.8982 -1.0833
  771MPD2    H111436   2.483   4.609  13.481 -0.5535  0.7249  0.2284
  771MPD2    H211437   2.777   0.154  13.533  1.2080  0.2829 -1.8203
  771MPD2    H311438   2.690   4.669  13.551 -0.5810  1.1283  0.2705
  771MPD2     N11439   2.326   0.013  13.296  0.4070 -0.0806  0.3534
  771MPD2    H511440   2.282   0.084  13.239  0.9088  1.4137  1.8447
  771MPD2    N111441   2.643   0.360  13.390 -0.1488  0.2668  0.7425
  771MPD2    H711442   2.565   0.420  13.367  0.2449  0.0008 -1.3174
  772MPD2     C11443   2.326   1.004  13.593 -0.2892 -0.0530  0.1777
  772MPD2    C111444   2.324   0.867  13.592 -0.5064 -0.5378 -0.8206
  772MPD2    C211445   2.208   0.809  13.625 -0.5335  0.1184 -0.3349
  772MPD2    C311446   2.098   0.877  13.690  0.6518  0.2125 -0.7607
  772MPD2    C411447   2.111   1.011  13.684 -0.2620  0.6675 -1.0719
  772MPD2    C511448   2.225   1.076  13.645 -0.3185 -0.0301  1.2425
  772MPD2     H11449   2.204   0.700  13.623 -0.7179  0.1001  1.0766
  772MPD2    H111450   2.040   1.071  13.741 -0.6492 -0.1259 -0.7059
  772MPD2    H211451   2.404   1.071  13.559 -0.5231  0.6358  1.0007
  772MPD2    H311452   2.230   1.184  13.657 -0.1587  0.3330 -2.2430
  772MPD2     N11453   1.980   0.813  13.736 -0.0466 -0.0691 -0.4301
  772MPD2    H511454   1.906   0.879  13.756 -0.5113 -0.7799  0.1695
  772MPD2    N111455   2.440   0.790  13.550  0.3441 -0.4771  0.2999
  772MPD2    H711456   2.425   0.692  13.528 -3.0426  0.6594 -2.3861
  773MPD2     C11457   1.620   1.718   0.317 -0.1464 -0.4732  0.0566
  773MPD2    C111458   1.719   1.701   0.217 -0.1161 -0.0490 -0.3501
  773MPD2    C211459   1.854   1.716   0.253  0.5299 -0.6068  0.5357
  773MPD2    C311460   1.885   1.719   0.391  0.2825 -0.2180  0.0974
  773MPD2    C411461   1.787   1.732   0.486  0.2852  0.1557 -0.1106
  773MPD2    C511462   1.658   1.741   0.445  0.5254 -0.1628 -0.0567
  773MPD2     H11463   1.928   1.714   0.174 -0.4441 -2.1761 -0.3461
  773MPD2    H111464   1.805   1.740   0.592  2.6787 -2.6235 -0.3124
  773MPD2    H211465   1.514   1.706   0.297 -0.4549  2.1261  0.0191
  773MPD2    H311466   1.583   1.765   0.520  0.7414 -0.5434  0.2765
  773MPD2     N11467   2.020   1.704   0.424  0.4208 -0.3954 -0.2836
  773MPD2    H511468   2.073   1.674   0.343  1.8714  1.1549  0.0846
  773MPD2    N111469   1.694   1.670   0.083  0.2299  0.1680  0.6731
  773MPD2    H711470   1.774   1.660   0.021  0.2897  2.4727  0.3685
  774MPD2     C11471   1.007   0.878  14.009  0.0572  0.3251 -0.9197
  774MPD2    C111472   0.914   0.912  13.912 -0.0686 -0.1470  0.3020
  774MPD2    C211473   0.927   1.028  13.839 -0.1809  0.3142 -0.5277
  774MPD2    C311474   1.039   1.103  13.859  0.3306 -0.8511  0.2232
  774MPD2    C411475   1.147   1.058  13.943  0.2230 -0.5005 -0.6964
  774MPD2    C511476   1.123   0.949  14.023  0.4078 -0.5840  0.3334
  774MPD2     H11477   0.864   1.062  13.758 -1.5162 -0.8894  0.0057
  774MPD2    H111478   1.234   1.118  13.970 -0.5646  1.7498 -3.1595
  774MPD2    H211479   0.989   0.783  14.058 -0.9796  0.2478 -1.4501
  774MPD2    H311480   1.202   0.925  14.093  0.7811  1.1122  0.5100
  774MPD2     N11481   1.049   1.229  13.789 -0.0002 -0.1917  0.2704
  774MPD2    H511482   0.963   1.261  13.746  0.1877 -1.1717 -0.8498
  774MPD2    N111483   0.818   0.814  13.885 -0.1085 -0.1698 -0.8059
  774MPD2    H711484   0.828   0.727  13.937 -0.5848 -1.0045 -2.1094
  775MPD2     C11485   2.219   2.411  15.729  0.1005 -0.0987  1.0056
  775MPD2    C111486   2.301   2.463  15.829 -0.1557 -0.4358  0.9645
  775MPD2    C211487   2.399   2.556  15.799 -0.1512 -0.0057  0.5389
  775MPD2    C311488   2.417   2.591  15.669  0.1138 -0.3225  0.2124
  775MPD2    C411489   2.333   2.541  15.574 -0.4928 -0.0677 -0.3779
  775MPD2    C511490   2.232   2.456  15.601  0.0010  0.1461 -0.6140
  775MPD2     H11491   2.469   2.589  15.875  1.1174  1.1370 -1.1575
  775MPD2    H111492   2.337   2.586  15.475  0.9666 -1.1862 -0.8187
  775MPD2    H211493   2.140   2.340  15.747 -1.1384  1.3713  1.4221
  775MPD2    H311494   2.168   2.415  15.523  1.2745 -1.1528 -0.9829
  775MPD2     N11495   2.523   2.669  15.620 -0.0970  0.1666 -0.1296
  775MPD2    H511496   2.531   2.682  15.520  0.2931 -0.8459 -0.2387
  775MPD2    N111497   2.266   2.430  15.963 -0.1194  0.1787  0.4811
  775MPD2    H711498   2.208   2.347  15.978 -0.5255  0.4123  0.1957
  776MPD2     C11499   0.455   1.945  11.605 -0.1186  0.4020 -0.2165
  776MPD2    C111500   0.579   1.887  11.604  0.3661 -0.4480  0.1227
  776MPD2    C211501   0.682   1.975  11.570  0.4435  0.1750  0.6753
  776MPD2    C311502   0.660   2.100  11.520  0.1629 -0.2498 -0.2919
  776MPD2    C411503   0.533   2.152  11.519  0.1866 -0.5690  0.3199
  776MPD2    C511504   0.430   2.072  11.560 -0.4021  0.2367 -0.2755
  776MPD2     H11505   0.785   1.941  11.577  0.7313  0.7261 -0.7728
  776MPD2    H111506   0.517   2.250  11.476 -0.9106 -1.0365 -0.3412
  776MPD2    H211507   0.367   1.899  11.649 -0.9424  0.3068 -1.9668
  776MPD2    H311508   0.326   2.101  11.562 -0.2651  0.6182  1.2580
  776MPD2     N11509   0.760   2.186  11.472  0.2098 -0.5013  0.0113
  776MPD2    H511510   0.733   2.278  11.437 -2.2279 -1.0682  0.4013
  776MPD2    N111511   0.596   1.758  11.653  0.2652 -0.1005 -0.3652
  776MPD2    H711512   0.508   1.718  11.683 -0.4694  0.3038 -2.0351
  777MPD2     C11513   1.325   0.139   0.400  0.9025  0.5687  0.5302
  777MPD2    C111514   1.263   0.046   0.477  0.3144  0.1591 -0.1517
  777MPD2    C211515   1.217   4.668   0.417 -0.3113 -0.4392 -0.1342
  777MPD2    C311516   1.231   4.647   0.282 -0.2886 -0.7510  0.7171
  777MPD2    C411517   1.295   0.009   0.204  0.0144  0.6468 -0.2719
  777MPD2    C511518   1.344   0.122   0.266 -1.5415  0.7164  0.1458
  777MPD2     H11519   1.158   4.596   0.474 -0.6782 -0.7895 -0.9674
  777MPD2    H111520   1.308   0.001   0.097 -0.0922 -2.4375 -0.0580
  777MPD2    H211521   1.348   0.240   0.434 -0.7563  0.8680  0.7899
  777MPD2    H311522   1.384   0.201   0.204  0.1318 -1.0358 -0.9926
  777MPD2     N11523   1.168   4.532   0.224 -0.3170  0.2262 -0.4753
  777MPD2    H511524   1.112   4.472   0.284  1.6220 -0.8591  0.2490
  777MPD2    N111525   1.232   0.085   0.606  0.3052 -0.3891 -0.3883
  777MPD2    H711526   1.266   0.170   0.649  0.3925 -0.9225  0.6001
  778MPD2     C11527   2.475   0.438  15.093  0.3679  0.5483  0.1019
  778MPD2    C111528   2.501   0.354  14.989  0.9616 -0.3456  0.7055
  778MPD2    C211529   2.557   0.402  14.878  0.2600  0.3030  0.2311
  778MPD2    C311530   2.593   0.534  14.865 -0.3328 -0.0697  0.7086
  778MPD2    C411531   2.569   0.625  14.966  0.2437  0.5962 -0.2256
  778MPD2    C511532   2.516   0.569  15.082 -0.3833 -0.2605 -0.2357
  778MPD2     H11533   2.584   0.341  14.792  0.1332  0.0841  0.3463
  778MPD2    H111534   2.582   0.733  14.967  2.1468  0.3857 -3.6230
  778MPD2    H211535   2.423   0.408  15.183 -2.5472  1.4636 -1.2808
  778MPD2    H311536   2.481   0.636  15.160 -0.1493 -0.3126 -0.0855
  778MPD2     N11537   2.670   0.561  14.750 -0.5038  0.6270 -0.0703
  778MPD2    H511538   2.686   0.482  14.689  0.5792  1.5800 -1.0248
  778MPD2    N111539   2.474   0.211  14.992  0.0784  0.0292 -0.1733
  778MPD2    H711540   2.497   0.153  14.912 -1.1437 -1.9149  0.8656
  779MPD2     C11541   2.137   3.891  14.111  0.0778 -0.7016  0.0283
  779MPD2    C111542   2.271   3.866  14.122 -1.0795  0.2605 -0.1700
  779MPD2    C211543   2.353   3.974  14.117  0.6558  0.6293 -0.1884
  779MPD2    C311544   2.306   4.102  14.115  0.3784  0.5461  0.2129
  779MPD2    C411545   2.171   4.123  14.096 -0.0461  0.4091 -0.0390
  779MPD2    C511546   2.086   4.018  14.095 -0.8473 -0.2685  0.6215
  779MPD2     H11547   2.461   3.959  14.113  0.5345 -0.7670  2.5143
  779MPD2    H111548   2.123   4.220  14.098  1.0453  0.9824 -1.7755
  779MPD2    H211549   2.068   3.807  14.115 -0.5483 -0.2019 -0.2153
  779MPD2    H311550   1.981   4.032  14.073 -0.6811 -2.0456 -1.2918
  779MPD2     N11551   2.397   4.214  14.107 -0.0760  0.1791  0.1817
  779MPD2    H511552   2.497   4.196  14.112 -0.2458 -0.4563  1.4417
  779MPD2    N111553   2.328   3.735  14.138  0.3535 -0.1004  1.1391
  779MPD2    H711554   2.429   3.727  14.147  0.5234 -0.0378 -0.6840
  780MPD2     C11555   1.938   3.890   0.883 -0.1384  0.4907 -0.3896
  780MPD2    C111556   1.841   3.835   0.803  0.3823  0.4438 -0.2540
  780MPD2    C211557   1.849   3.861   0.667  0.5171  0.3423 -0.4494
  780MPD2    C311558   1.947   3.942   0.609 -0.3628 -0.1905 -0.0741
  780MPD2    C411559   2.039   4.005   0.700 -0.5057  0.5589 -0.7341
  780MPD2    C511560   2.033   3.971   0.834 -0.3613  0.1073 -0.8780
  780MPD2     H11561   1.789   3.804   0.597  1.1704 -0.6844 -0.1746
  780MPD2    H111562   2.128   4.060   0.669 -0.3841 -0.5666 -2.3979
  780MPD2    H211563   1.938   3.859   0.987  0.9402 -2.4646 -1.2975
  780MPD2    H311564   2.111   4.007   0.900 -0.4981 -0.1814 -0.5540
  780MPD2     N11565   1.960   3.953   0.469 -0.6906 -0.3550 -0.2525
  780MPD2    H511566   1.898   3.887   0.422  0.6283 -2.5821  1.1593
  780MPD2    N111567   1.736   3.748   0.861 -0.3587 -0.0592 -0.3691
  780MPD2    H711568   1.737   3.729   0.961 -1.3305 -1.1506 -0.5779
  781MPD2     C11569   3.142   0.988  12.230  0.7273 -0.7049  0.0731
  781MPD2    C111570   3.262   0.954  12.282 -0.2515 -0.3581  0.4535
  781MPD2    C211571   3.371   1.019  12.229  0.0670  0.3870  0.0307
  781MPD2    C311572   3.364   1.119  12.142 -0.6461 -0.7128 -0.4014
  781MPD2    C411573   3.239   1.154  12.102 -1.0626  0.4872  0.0263
  781MPD2    C511574   3.132   1.088  12.141 -0.0026  0.3253  0.9420
  781MPD2     H11575   3.467   0.999  12.276 -0.3761 -0.1594  0.7236
  781MPD2    H111576   3.222   1.227  12.023  3.2620  0.9439 -0.5305
  781MPD2    H211577   3.050   0.945  12.268 -0.8462  1.6901 -1.0708
  781MPD2    H311578   3.030   1.114  12.114 -0.0425 -1.1106 -0.3424
  781MPD2     N11579   3.471   1.187  12.083  0.3431 -0.0135 -0.6667
  781MPD2    H511580   3.455   1.261  12.016 -0.7426  0.1492 -0.2303
  781MPD2    N111581   3.285   0.860  12.391 -0.2169  0.3415  0.4947
  781MPD2    H711582   3.375   0.873  12.436  1.6359 -0.9668 -2.7984
  782MPD2     C11583   1.693   1.220  10.405  0.2377  0.1200 -0.5905
  782MPD2    C111584   1.792   1.184  10.493 -0.5566  0.7996 -0.0703
  782MPD2    C211585   1.846   1.280  10.578  0.6969 -0.5310  0.4995
  782MPD2    C311586   1.801   1.408  10.573 -0.0090  0.7061 -0.4600
  782MPD2    C411587   1.697   1.440  10.489  0.5265  0.7075 -0.7317
  782MPD2    C511588   1.635   1.351  10.409 -0.1188 -0.3048  0.2588
  782MPD2     H11589   1.932   1.263  10.641  1.7656 -0.4672 -0.9376
  782MPD2    H111590   1.665   1.543  10.478  1.3131  1.0867  0.4631
  782MPD2    H211591   1.651   1.158  10.327  0.0823  1.4975 -1.6188
  782MPD2    H311592   1.562   1.387  10.338 -1.7211  0.2321  2.1649
  782MPD2     N11593   1.865   1.494  10.668 -0.1835 -0.1983  0.0456
  782MPD2    H511594   1.941   1.458  10.726  0.4721 -0.1210 -0.7666
  782MPD2    N111595   1.848   1.056  10.496 -0.2144 -0.6107  0.5567
  782MPD2    H711596   1.938   1.044  10.542 -0.4796  1.9498  1.7503
  783MPD2     C11597   1.791   0.383  11.122 -0.1787  0.1375 -0.1681
  783MPD2    C111598   1.749   0.518  11.110 -0.7138 -0.4397 -0.1011
  783MPD2    C211599   1.779   0.590  11.000 -0.4750  0.4408 -0.8262
  783MPD2    C311600   1.856   0.529  10.904 -0.0554 -0.4978  0.0676
  783MPD2    C411601   1.886   0.395  10.906 -0.2860 -0.3333  0.4852
  783MPD2    C511602   1.852   0.325  11.016 -0.6066  0.1105 -0.0889
  783MPD2     H11603   1.750   0.694  10.991  0.3707  0.7396 -0.0825
  783MPD2    H111604   1.934   0.343  10.824 -1.6146  0.2297 -0.6589
  783MPD2    H211605   1.760   0.322  11.205 -1.2443  2.0639  0.8335
  783MPD2    H311606   1.870   0.218  11.012  0.0201  0.2075  0.2001
  783MPD2     N11607   1.899   0.612  10.800 -0.0474  0.3020 -0.3614
  783MPD2    H511608   1.844   0.696  10.780  0.1537  1.0414  2.2647
  783MPD2    N111609   1.654   0.557  11.201 -0.4913  0.2460 -0.3482
  783MPD2    H711610   1.612   0.483  11.257  2.1646 -1.3055 -0.3942
  784MPD2     C11611   4.284   2.929   0.846 -0.6866  0.5232  0.0225
  784MPD2    C111612   4.243   2.947   0.714 -0.2886 -0.1308 -0.8322
  784MPD2    C211613   4.132   2.883   0.667  0.1421 -0.2115 -0.3483
  784MPD2    C311614   4.058   2.790   0.745  0.2438  0.4369 -0.0021
  784MPD2    C411615   4.115   2.760   0.869  0.0377  1.0500 -0.7605
  784MPD2    C511616   4.226   2.824   0.915 -0.3306  0.1520  0.4310
  784MPD2     H11617   4.096   2.909   0.568 -0.7827  2.5089  0.7144
  784MPD2    H111618   4.067   2.696   0.943 -1.4880  1.3451 -1.4920
  784MPD2    H211619   4.366   2.979   0.896 -0.2679 -0.8269  0.6894
  784MPD2    H311620   4.262   2.796   1.013  0.5011 -1.4737 -0.3493
  784MPD2     N11621   3.941   2.725   0.699 -0.6110 -0.0603  0.1129
  784MPD2    H511622   3.911   2.751   0.605 -1.6837 -3.5739 -0.5352
  784MPD2    N111623   4.298   3.040   0.630 -0.2771  0.0936 -0.0084
  784MPD2    H711624   4.271   3.033   0.532 -1.0153 -0.4590  0.2377
  785MPD2     C11625   4.028   0.057  10.345 -0.0258  0.5842 -0.5835
  785MPD2    C111626   4.030   0.079  10.479 -0.1368  1.0695 -0.2720
  785MPD2    C211627   3.952   0.181  10.528  0.3438 -0.5201  0.0196
  785MPD2    C311628   3.884   0.275  10.453 -0.2465 -0.6504 -0.4958
  785MPD2    C411629   3.895   0.256  10.313 -0.0712  0.3590  0.7368
  785MPD2    C511630   3.965   0.149  10.261 -0.2316  0.3150  0.4546
  785MPD2     H11631   3.968   0.204  10.633 -0.5567 -1.1767  0.3011
  785MPD2    H111632   3.857   0.330  10.243 -2.7754 -0.1646  1.6829
  785MPD2    H211633   4.073   4.706  10.298  2.4026  2.1413 -1.1583
  785MPD2    H311634   3.977   0.132  10.155  2.5903 -1.2378  1.0192
  785MPD2     N11635   3.826   0.385  10.521  0.0392 -0.1281 -0.3772
  785MPD2    H511636   3.826   0.383  10.623  1.1342  0.6195 -0.3686
  785MPD2    N111637   4.103   0.003  10.574  0.5606 -0.1723  0.4233
  785MPD2    H711638   4.068   0.011  10.669 -0.1137  2.4491 -0.0406
  786MPD2     C11639   2.897   3.175  14.881  0.3869  0.0529 -0.3282
  786MPD2    C111640   3.028   3.136  14.861  0.3700  0.1951 -0.1295
  786MPD2    C211641   3.128   3.180  14.942  0.5418 -0.2325  0.5475
  786MPD2    C311642   3.102   3.261  15.049  0.0638  0.7978 -0.8580
  786MPD2    C411643   2.970   3.297  15.073 -0.3663  0.1225  0.1067
  786MPD2    C511644   2.873   3.247  14.999  0.6251  0.6430 -0.3313
  786MPD2     H11645   3.230   3.157  14.915  0.0460 -0.4467 -1.1393
  786MPD2    H111646   2.944   3.359  15.158 -1.2248  0.2257 -0.2326
  786MPD2    H211647   2.818   3.132  14.822  0.6373 -0.9615  0.0753
  786MPD2    H311648   2.773   3.284  15.018  1.1295  2.5429 -1.4112
  786MPD2     N11649   3.199   3.305  15.143  0.1747  0.0258  0.1143
  786MPD2    H511650   3.170   3.372  15.213  0.8946 -0.7465  1.1549
  786MPD2    N111651   3.069   3.070  14.749  0.1809 -0.2344  0.4143
  786MPD2    H711652   3.168   3.050  14.746  0.2922  0.0130  2.6192
  787MPD2     C11653   3.427   2.530  14.730  0.1009 -0.1186  0.4034
  787MPD2    C111654   3.359   2.529  14.611 -0.1997 -0.4577 -0.7986
  787MPD2    C211655   3.399   2.433  14.517 -0.2189  0.1588 -0.4562
  787MPD2    C311656   3.483   2.333  14.551  0.1539  0.0426 -0.1809
  787MPD2    C411657   3.550   2.336  14.667 -0.7775  0.4351  0.0106
  787MPD2    C511658   3.526   2.438  14.753 -0.1354 -0.6575 -0.6154
  787MPD2     H11659   3.369   2.434  14.412 -0.6730 -0.8920 -0.3359
  787MPD2    H111660   3.616   2.254  14.692 -2.4003 -1.1723 -0.9863
  787MPD2    H211661   3.421   2.612  14.801  3.2984  1.1548 -0.8032
  787MPD2    H311662   3.587   2.443  14.842  1.2528 -1.1530 -1.5324
  787MPD2     N11663   3.503   2.241  14.440 -0.1809  0.0890  0.4074
  787MPD2    H511664   3.451   2.264  14.357 -0.1370  1.0331  0.6473
  787MPD2    N111665   3.273   2.631  14.584  0.2247 -0.2790  0.2877
  787MPD2    H711666   3.257   2.706  14.651  2.3638  0.7395 -0.3184
  788MPD2     C11667   0.285   1.929   1.355  0.3744  0.2577  0.7658
  788MPD2    C111668   0.276   1.824   1.262 -0.4736 -0.2945  0.3097
  788MPD2    C211669   0.231   1.859   1.135 -0.0701 -0.1937  0.2766
  788MPD2    C311670   0.187   1.987   1.104 -0.1484 -0.2528  0.2687
  788MPD2    C411671   0.182   2.083   1.207 -0.5834 -0.2554 -0.0817
  788MPD2    C511672   0.231   2.049   1.327  0.3739  0.0030 -0.0365
  788MPD2     H11673   0.230   1.776   1.066  1.1885 -0.8856  1.0719
  788MPD2    H111674   0.161   2.189   1.203 -0.4840 -0.1654  1.7040
  788MPD2    H211675   0.329   1.922   1.454 -0.2595 -1.2532  0.9460
  788MPD2    H311676   0.252   2.128   1.399  0.7489 -1.0365  0.9925
  788MPD2     N11677   0.137   2.026   0.978 -0.1083  0.4454  0.3950
  788MPD2    H511678   0.101   2.121   0.979  0.3269  0.5976  1.5015
  788MPD2    N111679   0.326   1.699   1.280  0.2385  0.0821  0.2134
  788MPD2    H711680   0.322   1.638   1.199  0.3561  0.2226  0.1012
  789MPD2     C11681   0.725   1.050  16.407  0.3539 -0.0626  0.3757
  789MPD2    C111682   0.650   0.945  16.465  0.3406  0.0036 -0.3667
  789MPD2    C211683   0.522   0.967  16.511  0.0156  0.5808  0.4910
  789MPD2    C311684   0.481   1.103  16.523  0.1332  0.1531  0.0065
  789MPD2    C411685   0.550   1.202  16.465 -0.6082  1.1218  0.6150
  789MPD2    C511686   0.677   1.179  16.416 -0.2098  0.0701  0.8097
  789MPD2     H11687   0.466   0.881  16.547  0.0187  0.3946  0.0444
  789MPD2    H111688   0.501   1.299  16.463 -0.5289  1.1401 -0.5378
  789MPD2    H211689   0.817   1.025  16.355  0.7855 -1.3803  1.7664
  789MPD2    H311690   0.739   1.254  16.368  1.5174 -1.8940 -0.0558
  789MPD2     N11691   0.363   1.138  16.594  0.2348 -0.2426 -0.0014
  789MPD2    H511692   0.327   1.232  16.586 -1.7234 -1.0877 -0.8609
  789MPD2    N111693   0.690   0.812  16.450  0.1569 -0.3399 -0.1014
  789MPD2    H711694   0.621   0.738  16.458 -0.8938  0.6428 -0.0312
  790MPD2     C11695   0.910   2.443  13.971  0.0611 -0.1782 -0.1878
  790MPD2    C111696   1.037   2.489  13.950 -0.2276 -0.1144 -0.2377
  790MPD2    C211697   1.097   2.442  13.832 -0.1884 -0.6049  0.7277
  790MPD2    C311698   1.038   2.339  13.761  0.1017  0.2288 -0.6516
  790MPD2    C411699   0.913   2.295  13.785  0.2076  0.0570 -0.0506
  790MPD2    C511700   0.849   2.349  13.891  0.3530  0.5945 -0.5166
  790MPD2     H11701   1.198   2.471  13.807 -1.7948  2.3477 -2.2789
  790MPD2    H111702   0.866   2.206  13.745  0.3429 -0.2406  0.4546
  790MPD2    H211703   0.862   2.494  14.055  0.4586  0.8923 -0.6094
  790MPD2    H311704   0.749   2.314  13.916  0.9143 -0.3584  0.4216
  790MPD2     N11705   1.128   2.286  13.662  0.1950 -0.0186  0.0002
  790MPD2    H511706   1.223   2.322  13.662  0.1306  0.1608  0.8118
  790MPD2    N111707   1.103   2.561  14.053 -0.2231 -0.4016  0.0042
  790MPD2    H711708   1.057   2.576  14.143  0.7812  3.0942 -0.0724
  791MPD2     C11709   1.059   2.192  12.862 -0.7841  0.3705 -0.3752
  791MPD2    C111710   1.015   2.142  12.977 -0.5866  0.3166 -0.4901
  791MPD2    C211711   0.899   2.065  12.974 -0.2398  0.4137  0.6687
  791MPD2    C311712   0.821   2.062  12.857 -0.7277 -0.7558 -0.3303
  791MPD2    C411713   0.871   2.111  12.739  0.2194 -0.7727  0.1389
  791MPD2    C511714   0.985   2.184  12.752 -0.0361 -0.2295 -0.3578
  791MPD2     H11715   0.874   2.023  13.071  1.4329  0.7484  1.2532
  791MPD2    H111716   0.823   2.106  12.642  0.0168 -0.4531  0.2219
  791MPD2    H211717   1.149   2.251  12.847 -1.2099  1.0829 -0.1260
  791MPD2    H311718   1.036   2.205  12.658  0.4053  0.6231  0.0775
  791MPD2     N11719   0.699   2.000  12.864  0.1280  0.6352 -0.1153
  791MPD2    H511720   0.665   1.975  12.956 -2.0382 -1.5150 -1.5202
  791MPD2    N111721   1.097   2.145  13.091 -0.4243  0.4503 -0.2397
  791MPD2    H711722   1.065   2.097  13.174 -0.2233  1.6176  0.5135
  792MPD2     C11723   1.896   2.284  11.405  0.2823 -0.2617  1.1355
  792MPD2    C111724   1.856   2.338  11.283 -0.1459  0.2869  0.0617
  792MPD2    C211725   1.739   2.290  11.230 -0.5544  0.0544 -0.3348
  792MPD2    C311726   1.662   2.197  11.299 -0.6905  0.0480  0.3584
  792MPD2    C411727   1.704   2.155  11.431 -0.0333  0.7838  0.6532
  792MPD2    C511728   1.820   2.207  11.481  0.7119  0.4509  0.0564
  792MPD2     H11729   1.700   2.343  11.143 -0.7344 -0.9458 -0.8653
  792MPD2    H111730   1.642   2.090  11.493  0.3497  0.4220  0.6520
  792MPD2    H211731   1.982   2.319  11.461  0.9259  0.2484 -0.1644
  792MPD2    H311732   1.853   2.175  11.579  1.9619  0.7903 -0.2454
  792MPD2     N11733   1.533   2.161  11.265 -0.0335  0.3928  0.2426
  792MPD2    H511734   1.485   2.084  11.310 -0.2394  0.4082  0.0473
  792MPD2    N111735   1.935   2.439  11.230 -0.2371 -0.1149  0.5255
  792MPD2    H711736   2.010   2.481  11.285  0.9582 -0.0135 -1.1732
  793MPD2     C11737   0.992   2.075  10.395 -0.3232  0.6653  0.5074
  793MPD2    C111738   1.124   2.070  10.425 -0.8413  0.5854 -0.2769
  793MPD2    C211739   1.169   2.090  10.553  0.2717 -0.0798 -0.3696
  793MPD2    C311740   1.080   2.126  10.657  0.4674 -0.1937 -0.0854
  793MPD2    C411741   0.944   2.137  10.625 -0.0496 -0.3391 -0.8673
  793MPD2    C511742   0.905   2.114  10.497  0.2956 -0.5065  0.5002
  793MPD2     H11743   1.268   2.057  10.581 -0.6032 -0.4925  2.2571
  793MPD2    H111744   0.867   2.181  10.687  1.9533  0.2690  1.1936
  793MPD2    H211745   0.950   2.044  10.300  1.9890  0.5074 -0.4480
  793MPD2    H311746   0.799   2.119  10.474  0.8026 -0.3061 -1.7481
  793MPD2     N11747   1.129   2.143  10.783  0.1714  0.7661 -0.0572
  793MPD2    H511748   1.230   2.148  10.790  0.2802 -0.0088 -1.0981
  793MPD2    N111749   1.225   2.042  10.322  0.5723  0.4648 -0.4644
  793MPD2    H711750   1.322   2.040  10.352  0.0845  0.3087  1.1246
  794MPD2     C11751   1.800   1.974  17.101 -0.0845  0.5314  0.6413
  794MPD2    C111752   1.662   1.974  17.119 -0.0730 -0.7759 -0.4193
  794MPD2    C211753   1.576   2.005  17.016  0.1250  0.6218  0.3174
  794MPD2    C311754   1.623   2.045  16.893 -0.3427 -0.2268 -0.0234
  794MPD2    C411755   1.759   2.038  16.873  0.6937  0.5022 -0.0400
  794MPD2    C511756   1.844   2.000  16.973  0.1509  0.3149 -0.6109
  794MPD2     H11757   1.471   1.980  17.022  0.2320 -0.5459 -2.7385
  794MPD2    H111758   1.800   2.070  16.778  0.3047 -0.7960 -0.6365
  794MPD2    H211759   1.876   1.955  17.176 -1.1442  1.3487  1.9443
  794MPD2    H311760   1.948   1.995  16.945  0.3851  1.6343  0.0632
  794MPD2     N11761   1.523   2.089  16.806 -0.1390  0.0224 -0.4541
  794MPD2    H511762   1.425   2.092  16.833 -0.3485  3.0041 -1.6373
  794MPD2    N111763   1.610   1.923  17.239  0.0851 -0.6460  0.0652
  794MPD2    H711764   1.508   1.929  17.245  0.2165  1.3893  0.4738
  795MPD2     C11765   3.933   3.918  12.766 -0.8506  0.1348  0.0059
  795MPD2    C111766   3.904   3.816  12.855  0.2539  0.1850  0.3411
  795MPD2    C211767   4.010   3.754  12.925  0.6291  0.3427 -0.6022
  795MPD2    C311768   4.142   3.790  12.905 -0.6821 -0.1469  0.1683
  795MPD2    C411769   4.164   3.897  12.816  0.3149  0.1829  0.3423
  795MPD2    C511770   4.062   3.966  12.757  0.2704  0.3931 -0.5180
  795MPD2     H11771   3.976   3.681  12.998  1.5808 -0.3056 -0.8075
  795MPD2    H111772   4.265   3.931  12.798 -0.2060  1.7917  0.4926
  795MPD2    H211773   3.851   3.955  12.706  0.3765  1.3327 -0.9237
  795MPD2    H311774   4.081   4.058  12.702 -0.1520  1.8822  1.8431
  795MPD2     N11775   4.244   3.706  12.955  0.2388 -0.1389  0.0612
  795MPD2    H511776   4.219   3.639  13.027 -1.8895 -1.0315 -1.5228
  795MPD2    N111777   3.770   3.775  12.885  0.4532  0.2185  0.0297
  795MPD2    H711778   3.753   3.709  12.960  2.2145  0.2790  0.4904
  796MPD2     C11779   3.110   0.774  15.770 -0.5804 -0.3311 -0.3403
  796MPD2    C111780   3.082   0.844  15.885 -0.5169  0.2154 -0.3483
  796MPD2    C211781   3.123   0.975  15.899 -0.2109 -0.0608 -0.6126
  796MPD2    C311782   3.187   1.039  15.793 -0.0280  0.2153 -0.4413
  796MPD2    C411783   3.212   0.967  15.677 -0.1653 -1.2377  0.4037
  796MPD2    C511784   3.172   0.839  15.671 -1.0000  0.8413  0.0970
  796MPD2     H11785   3.104   1.030  15.990 -2.5016  0.5392 -1.4670
  796MPD2    H111786   3.265   1.008  15.591  0.7651 -0.0149  1.5498
  796MPD2    H211787   3.079   0.672  15.748  2.6868 -1.5673  0.5996
  796MPD2    H311788   3.187   0.789  15.576  0.1671  0.5308  0.4429
  796MPD2     N11789   3.212   1.175  15.801  0.3427 -0.7739 -0.6332
  796MPD2    H511790   3.154   1.227  15.867 -2.0861 -1.6286 -2.0827
  796MPD2    N111791   3.020   0.772  15.988 -0.6551 -0.1017  0.5605
  796MPD2    H711792   2.996   0.675  15.971  0.7574 -0.3863  0.2242
  797MPD2     C11793   3.615   0.227  17.390 -0.3272 -0.0512 -0.0368
  797MPD2    C111794   3.633   0.325  17.477 -0.5254  0.0625  0.0575
  797MPD2    C211795   3.533   0.419  17.487  0.3534  0.2003  0.2875
  797MPD2    C311796   3.434   0.426  17.391  0.4117 -0.0985  0.6969
  797MPD2    C411797   3.410   0.314  17.311  0.2398 -0.5226 -0.1954
  797MPD2    C511798   3.503   0.221  17.311 -0.1140 -0.3698 -0.5094
  797MPD2     H11799   3.549   0.510  17.543  2.0158  0.1421 -0.1040
  797MPD2    H111800   3.329   0.306  17.239 -1.0657 -2.8367  1.5566
  797MPD2    H211801   3.692   0.151  17.380 -1.3792 -0.8535 -1.9162
  797MPD2    H311802   3.498   0.132  17.249 -0.5054 -0.2703 -0.6190
  797MPD2     N11803   3.372   0.556  17.385 -1.2194 -0.1782 -0.4081
  797MPD2    H511804   3.407   0.622  17.454 -0.8470  0.3226 -1.0753
  797MPD2    N111805   3.747   0.349  17.563  0.0869 -0.6615 -0.5567
  797MPD2    H711806   3.738   0.434  17.617 -0.4708 -2.1192  1.6872
  798MPD2     C11807   3.757   1.049  17.353  1.0962 -0.2765  0.1172
  798MPD2    C111808   3.679   0.975  17.436  0.1940  0.7942 -0.1214
  798MPD2    C211809   3.740   0.877  17.515 -0.2097  0.4575 -0.0389
  798MPD2    C311810   3.875   0.851  17.506  0.1797  1.0936  0.2380
  798MPD2    C411811   3.951   0.931  17.423 -0.4623  0.7116  0.3668
  798MPD2    C511812   3.893   1.030  17.350  0.2723 -0.0450 -0.2456
  798MPD2     H11813   3.675   0.807  17.567  1.2612 -0.0344  1.1304
  798MPD2    H111814   4.058   0.927  17.409 -0.5488 -0.2647 -0.0405
  798MPD2    H211815   3.715   1.131  17.297  0.9940  0.1768  0.8559
  798MPD2    H311816   3.955   1.087  17.281  0.6946  0.9632  0.9743
  798MPD2     N11817   3.929   0.741  17.574  0.0488  0.2568 -0.3698
  798MPD2    H511818   3.866   0.684  17.630  0.9051  0.2869  0.6422
  798MPD2    N111819   3.537   0.988  17.425 -0.3020  0.1541  0.0406
  798MPD2    H711820   3.504   1.051  17.353 -3.3076 -1.0017  0.4064
  799MPD2     C11821   3.096   2.148  14.792 -1.2797  0.2208  1.0290
  799MPD2    C111822   2.975   2.096  14.749 -0.3582 -0.1714  0.7670
  799MPD2    C211823   2.910   2.167  14.647 -0.5001  0.0003 -0.4091
  799MPD2    C311824   2.954   2.292  14.600 -1.0387  0.4185 -0.7072
  799MPD2    C411825   3.066   2.347  14.653 -0.3526 -0.1300  0.1194
  799MPD2    C511826   3.129   2.279  14.759  0.3881  0.3216  0.7287
  799MPD2     H11827   2.817   2.126  14.608 -0.8613  1.5588 -1.1907
  799MPD2    H111828   3.108   2.445  14.640  0.0902 -0.5402 -1.5945
  799MPD2    H211829   3.167   2.103  14.860  0.0011 -1.6344 -1.5732
  799MPD2    H311830   3.214   2.327  14.807  1.2055 -0.3042 -0.0970
  799MPD2     N11831   2.898   2.351  14.489 -0.3170  0.3683  0.1975
  799MPD2    H511832   2.953   2.426  14.448  3.2136 -2.6270 -0.5573
  799MPD2    N111833   2.929   1.963  14.792  0.0110  0.0557 -1.0007
  799MPD2    H711834   2.850   1.926  14.739  0.3102 -0.5671 -1.0128
  800MPD2     C11835   3.424   2.876  14.212  0.1184 -0.7057  0.3957
  800MPD2    C111836   3.558   2.902  14.214  0.1990  0.4442  0.1338
  800MPD2    C211837   3.628   2.900  14.094 -0.3432 -0.5976  0.4189
  800MPD2    C311838   3.565   2.878  13.972  0.6670  0.3321 -0.0300
  800MPD2    C411839   3.434   2.842  13.974 -0.4566 -0.1978 -0.1637
  800MPD2    C511840   3.371   2.830  14.096  0.0583 -0.3610 -0.6905
  800MPD2     H11841   3.727   2.943  14.096 -1.2293  1.5914 -2.2204
  800MPD2    H111842   3.377   2.833  13.882  0.2205 -3.2610 -0.3002
  800MPD2    H211843   3.363   2.889  14.301 -0.4998 -0.9398  0.0037
  800MPD2    H311844   3.264   2.816  14.099 -0.0390  0.7511  1.3921
  800MPD2     N11845   3.637   2.892  13.849  0.2979  0.5267 -0.2626
  800MPD2    H511846   3.735   2.905  13.869  0.8485 -0.4291 -2.3699
  800MPD2    N111847   3.619   2.922  14.338 -0.1404 -0.9405  0.6216
  800MPD2    H711848   3.557   2.932  14.418  1.2502 -3.5180  1.9991
  801MPD2     C11849   3.557   3.690  14.592 -0.4609  0.1332  0.4507
  801MPD2    C111850   3.529   3.569  14.533  0.5794  0.2176 -0.2462
  801MPD2    C211851   3.413   3.560  14.458  0.0832  0.1991  0.1783
  801MPD2    C311852   3.325   3.664  14.443 -0.8520 -1.2218  0.7097
  801MPD2    C411853   3.351   3.784  14.508  0.5189 -0.0354  0.1200
  801MPD2    C511854   3.476   3.797  14.571  0.0823 -0.3447  0.3024
  801MPD2     H11855   3.381   3.465  14.417  0.2957  0.2275 -0.0561
  801MPD2    H111856   3.284   3.868  14.495  1.8780  0.7483 -1.8488
  801MPD2    H211857   3.639   3.698  14.662 -0.2604 -2.9830  0.5837
  801MPD2    H311858   3.511   3.883  14.627 -1.7316  0.6216 -0.0629
  801MPD2     N11859   3.208   3.669  14.357  0.9470  0.0595 -0.0987
  801MPD2    H511860   3.152   3.753  14.367  2.0693  0.4297  3.1940
  801MPD2    N111861   3.616   3.457  14.553 -0.0341 -0.2713 -0.5008
  801MPD2    H711862   3.703   3.476  14.602 -0.2438 -0.6948  0.0296
  802MPD2     C11863   3.051   3.509  16.781 -0.2789  0.5165 -0.3557
  802MPD2    C111864   3.031   3.629  16.709  0.1307 -0.0366 -0.3694
  802MPD2    C211865   3.113   3.644  16.601  0.0321  0.6961  0.1098
  802MPD2    C311866   3.213   3.553  16.567  0.3057 -0.0830 -0.1201
  802MPD2    C411867   3.230   3.437  16.644 -0.3637 -0.0967 -0.8711
  802MPD2    C511868   3.146   3.420  16.743  0.2631  0.1016 -0.1581
  802MPD2     H11869   3.099   3.735  16.544 -1.8110 -0.1762 -0.8294
  802MPD2    H111870   3.307   3.366  16.617  0.4905 -0.2420  1.9970
  802MPD2    H211871   2.986   3.480  16.863  0.6529  3.0090  1.2595
  802MPD2    H311872   3.165   3.336  16.808 -2.3605 -0.1733  0.2143
  802MPD2     N11873   3.304   3.602  16.471  0.5895 -0.5211  0.4946
  802MPD2    H511874   3.284   3.698  16.443 -0.6313 -0.9581 -0.1552
  802MPD2    N111875   2.944   3.730  16.754  0.4035 -0.5959  0.4547
  802MPD2    H711876   2.935   3.815  16.699 -0.0146  0.4571  2.1243
  803MPD2     C11877   3.995   1.820  11.511  0.4163  0.8639 -0.0690
  803MPD2    C111878   4.038   1.931  11.583 -0.0734 -0.4306  0.1716
  803MPD2    C211879   4.076   1.909  11.717  0.0291  0.3586 -1.5999
  803MPD2    C311880   4.041   1.791  11.783  0.4713 -0.0417 -0.6007
  803MPD2    C411881   3.972   1.695  11.719 -0.0279 -0.0817 -0.9425
  803MPD2    C511882   3.950   1.705  11.580  0.2310 -0.6708 -0.1337
  803MPD2     H11883   4.131   1.990  11.763 -0.0823 -0.2192 -0.4614
  803MPD2    H111884   3.947   1.604  11.773  0.3531  2.2577  3.1617
  803MPD2    H211885   3.980   1.817  11.404  0.1432 -0.5311  0.0109
  803MPD2    H311886   3.912   1.623  11.522 -0.8199 -0.2027 -0.1117
  803MPD2     N11887   4.075   1.768  11.916 -0.4196  0.1155  0.2719
  803MPD2    H511888   4.060   1.676  11.956  0.0023 -0.0423  0.0587
  803MPD2    N111889   4.060   2.057  11.520  0.0472 -0.3721 -0.1255
  803MPD2    H711890   4.106   2.128  11.578  2.8253 -2.4042  0.1681
  804MPD2     C11891   3.930   3.978  16.504  0.4631  0.2031 -0.2760
  804MPD2    C111892   3.868   3.983  16.622 -0.1789 -0.4333  0.6397
  804MPD2    C211893   3.891   4.097  16.692 -0.1184 -0.0182 -0.6135
  804MPD2    C311894   3.976   4.202  16.644  0.8034  0.0273 -0.3405
  804MPD2    C411895   4.033   4.195  16.521  0.1871 -0.4278 -0.3889
  804MPD2    C511896   4.013   4.074  16.454 -0.4480 -0.5713  0.6272
  804MPD2     H11897   3.837   4.101  16.786  0.6195 -1.6909 -0.1250
  804MPD2    H111898   4.096   4.275  16.483 -0.3232 -0.0781 -0.4895
  804MPD2    H211899   3.919   3.890  16.443  1.2901 -0.0017 -0.1279
  804MPD2    H311900   4.066   4.045  16.364 -0.6775  1.8071 -0.2722
  804MPD2     N11901   3.992   4.314  16.725 -0.3558 -0.3480  0.2413
  804MPD2    H511902   3.945   4.327  16.815  0.8385 -1.3690  1.0156
  804MPD2    N111903   3.781   3.884  16.677 -0.1016 -0.4660 -0.2676
  804MPD2    H711904   3.730   3.899  16.764 -2.2803  2.5432 -2.0925
  805MPD2     C11905   2.998   2.159  15.705 -0.5120 -0.3494  0.3468
  805MPD2    C111906   3.079   2.225  15.615  0.1038  0.2310 -0.3663
  805MPD2    C211907   3.215   2.227  15.641  0.2949  0.5376  0.8291
  805MPD2    C311908   3.275   2.158  15.744  0.4489  0.2962 -0.0012
  805MPD2    C411909   3.195   2.081  15.829  0.9855  0.0908  0.2505
  805MPD2    C511910   3.060   2.090  15.807 -0.1585  0.1027 -0.1248
  805MPD2     H11911   3.276   2.262  15.559 -1.7786  0.1492 -0.8662
  805MPD2    H111912   3.244   2.021  15.905 -1.2143 -0.6821  1.0413
  805MPD2    H211913   2.890   2.153  15.700 -0.5294  1.1829 -1.2166
  805MPD2    H311914   2.989   2.035  15.868  0.8096 -0.8703  0.1313
  805MPD2     N11915   3.416   2.149  15.752 -0.5439 -0.3352  0.1120
  805MPD2    H511916   3.470   2.217  15.699 -1.7545  0.1429 -0.4892
  805MPD2    N111917   3.031   2.290  15.495  0.7605 -0.3339  0.4092
  805MPD2    H711918   3.104   2.322  15.431  0.8983 -1.6431 -0.0912
  806MPD2     C11919   3.103   1.275   0.403 -0.4711  0.2224 -0.4369
  806MPD2    C111920   3.230   1.227   0.433 -0.2718  0.8288  0.0758
  806MPD2    C211921   3.348   1.291   0.381 -0.5081  0.8688 -0.5367
  806MPD2    C311922   3.329   1.399   0.290  0.2876 -0.3106 -0.5577
  806MPD2    C411923   3.205   1.436   0.255  0.3890 -0.1653 -0.2573
  806MPD2    C511924   3.092   1.372   0.305  0.4230  0.1314 -0.8176
  806MPD2     H11925   3.442   1.250   0.415 -0.3281 -0.1685 -2.2945
  806MPD2    H111926   3.188   1.512   0.180  1.5829 -1.1165 -1.4788
  806MPD2    H211927   3.013   1.223   0.433 -0.4584  0.1070 -0.6006
  806MPD2    H311928   2.993   1.403   0.276 -0.6446 -2.0019  0.6168
  806MPD2     N11929   3.434   1.470   0.228 -0.0562  0.2636 -0.0817
  806MPD2    H511930   3.411   1.533   0.151  1.4218  1.2097  0.2507
  806MPD2    N111931   3.229   1.133   0.535  0.4474  0.1944 -0.3499
  806MPD2    H711932   3.143   1.106   0.581  0.8123  1.3006  1.0003
  807MPD2     C11933   2.767   0.761   0.986 -0.2989 -0.4665  0.0107
  807MPD2    C111934   2.876   0.814   1.056 -0.4285  0.3192 -0.1235
  807MPD2    C211935   2.849   0.859   1.185 -0.3774  1.0708 -0.0764
  807MPD2    C311936   2.722   0.847   1.243 -0.1771  0.2207 -0.3374
  807MPD2    C411937   2.617   0.796   1.166 -0.3515 -0.2519 -0.0157
  807MPD2    C511938   2.642   0.755   1.041  0.3052  0.1170 -0.0201
  807MPD2     H11939   2.928   0.910   1.237  0.4297  0.1746 -0.4283
  807MPD2    H111940   2.513   0.800   1.196  0.0421 -0.9673  1.4451
  807MPD2    H211941   2.776   0.718   0.887  2.5626 -0.8430  0.4231
  807MPD2    H311942   2.558   0.718   0.983 -1.4639  2.6511  0.9493
  807MPD2     N11943   2.708   0.878   1.377 -0.5744  0.2206 -0.1426
  807MPD2    H511944   2.795   0.898   1.425 -0.0644 -0.8264 -0.6452
  807MPD2    N111945   3.000   0.834   0.994 -0.3726 -0.0133  0.4145
  807MPD2    H711946   3.072   0.880   1.048 -0.3550  0.0795  0.3130
  808MPD2     C11947   4.482   3.224  10.540 -0.7450  1.2048  0.1904
  808MPD2    C111948   4.362   3.272  10.491  0.2921  0.0411  0.7228
  808MPD2    C211949   4.379   3.386  10.418 -0.1508  0.1061 -0.4774
  808MPD2    C311950   4.501   3.445  10.387  0.5160 -0.3702 -0.6763
  808MPD2    C411951   4.614   3.384  10.440 -0.1393  0.4568 -0.2533
  808MPD2    C511952   4.604   3.278  10.525  0.4218 -0.8300  0.1089
  808MPD2     H11953   4.283   3.420  10.380  0.1917  2.0007  0.3645
  808MPD2    H111954   4.712   3.429  10.428 -0.0243  0.4756  0.7033
  808MPD2    H211955   4.475   3.128  10.591  1.0844  0.8546 -0.1850
  808MPD2    H311956   4.694   3.240  10.572  1.3430  0.3570 -0.6899
  808MPD2     N11957   4.514   3.572  10.319 -0.9209  0.0185  0.5125
  808MPD2    H511958   4.601   3.624  10.324 -2.1762  2.0554  1.2877
  808MPD2    N111959   4.233   3.211  10.503  0.2622  0.0078 -0.2558
  808MPD2    H711960   4.152   3.264  10.471  0.8218  0.0186 -1.6746
  809MPD2     C11961   4.501   3.929   9.309  0.3971 -0.1180 -0.0132
  809MPD2    C111962   4.514   3.801   9.365 -0.2500 -0.5524 -0.1074
  809MPD2    C211963   4.499   3.792   9.503  0.7437  0.6650  0.5011
  809MPD2    C311964   4.497   3.904   9.587 -0.4686  1.1362 -0.0745
  809MPD2    C411965   4.486   4.027   9.527  0.0992  1.4802  0.0166
  809MPD2    C511966   4.490   4.036   9.391  0.1384  0.1716 -0.7026
  809MPD2     H11967   4.503   3.689   9.536 -1.8258 -0.3985 -2.5482
  809MPD2    H111968   4.490   4.112   9.595 -0.2768  0.3167  1.4882
  809MPD2    H211969   4.500   3.942   9.202  0.2468 -0.7878 -0.0963
  809MPD2    H311970   4.477   4.137   9.354  1.6442  1.2892  1.7652
  809MPD2     N11971   4.516   3.898   9.731  0.0056  0.1982 -0.5630
  809MPD2    H511972   4.528   3.986   9.781  0.7769  0.6666 -1.5711
  809MPD2    N111973   4.545   3.686   9.293 -0.9180 -0.1875  0.0675
  809MPD2    H711974   4.548   3.597   9.342  0.3282 -0.8316 -1.1937
  810MPD2     C11975   3.614   2.293  10.521 -0.2227  0.0526 -0.8862
  810MPD2    C111976   3.498   2.237  10.566 -0.2323 -0.1236 -0.0704
  810MPD2    C211977   3.455   2.233  10.697 -0.4893 -0.8669 -0.1558
  810MPD2    C311978   3.533   2.294  10.795 -0.3939 -0.0740 -0.0895
  810MPD2    C411979   3.647   2.356  10.744  0.6436  0.4970  0.3944
  810MPD2    C511980   3.687   2.354  10.616  0.2038 -0.4296 -0.6510
  810MPD2     H11981   3.360   2.186  10.718  0.1114 -1.1057  2.0081
  810MPD2    H111982   3.702   2.416  10.815 -3.3645  2.4934  1.7960
  810MPD2    H211983   3.639   2.303  10.416 -1.2349  0.2930 -1.1013
  810MPD2    H311984   3.782   2.402  10.593 -0.5004  1.8235  1.2198
  810MPD2     N11985   3.504   2.304  10.928 -0.1025 -0.1833  0.1325
  810MPD2    H511986   3.572   2.350  10.987  0.4964 -0.7601 -0.1080
  810MPD2    N111987   3.402   2.206  10.461  0.0211 -0.5616 -0.0093
  810MPD2    H711988   3.423   2.240  10.367 -1.5131  1.3480  0.3471
  811MPD2     C11989   2.890   2.409   9.831  1.3463  0.2732 -0.0768
  811MPD2    C111990   2.969   2.443   9.934 -0.4345  1.1180 -1.6765
  811MPD2    C211991   3.001   2.577   9.962  0.3172  0.0236  0.0356
  811MPD2    C311992   2.957   2.674   9.874  0.1184 -0.0403 -0.4581
  811MPD2    C411993   2.877   2.639   9.771  0.7795 -0.7623  0.1767
  811MPD2    C511994   2.843   2.507   9.744  0.4426  0.0426 -0.0562
  811MPD2     H11995   3.069   2.612  10.039 -0.0780 -0.8233  0.7620
  811MPD2    H111996   2.827   2.713   9.709 -2.0540 -0.1481  3.2114
  811MPD2    H211997   2.860   2.306   9.818 -2.7929  1.2941  1.4299
  811MPD2    H311998   2.783   2.480   9.658 -2.1678  2.2842  1.0373
  811MPD2     N11999   2.990   2.811   9.914 -0.1287  0.6675  0.0397
  811MPD2    H512000   3.036   2.821  10.004  3.2102 -0.7834 -1.5336
  811MPD2    N112001   3.007   2.335  10.025 -0.5320 -0.3921 -1.0844
  811MPD2    H712002   2.963   2.247  10.002 -1.9594  0.2857 -0.9619
  812MPD2     C12003   1.622   2.532  12.829  0.0461  0.4608  0.3000
  812MPD2    C112004   1.666   2.487  12.710 -0.1256 -0.4513  0.0136
  812MPD2    C212005   1.782   2.413  12.701 -0.0799 -0.3657  0.0287
  812MPD2    C312006   1.844   2.383  12.818  0.6819  0.2822  0.3005
  812MPD2    C412007   1.786   2.405  12.942 -0.4839 -0.1410 -0.7697
  812MPD2    C512008   1.678   2.493  12.946  0.3176 -0.5725 -0.0382
  812MPD2     H12009   1.833   2.395  12.608  2.2787 -2.0877  1.6630
  812MPD2    H112010   1.835   2.385  13.037  0.5510 -0.1495 -1.3010
  812MPD2    H212011   1.536   2.597  12.842 -0.5193 -0.4720  1.2669
  812MPD2    H312012   1.638   2.528  13.041 -0.9565 -0.1453 -0.7246
  812MPD2     N12013   1.964   2.308  12.803 -0.2737 -0.0590 -0.3211
  812MPD2    H512014   2.017   2.297  12.717  1.2800 -0.2094  0.6518
  812MPD2    N112015   1.609   2.541  12.595 -0.2360  0.1270  0.8385
  812MPD2    H712016   1.535   2.610  12.604  0.4784  0.9485  0.4131
  813MPD2     C12017   1.227   3.949  12.913  0.4001  0.2211  0.2028
  813MPD2    C112018   1.234   4.078  12.963 -0.0500 -0.2640  0.9921
  813MPD2    C212019   1.115   4.138  13.009 -0.9185  0.6680  0.0310
  813MPD2    C312020   0.999   4.061  13.012 -0.1096 -0.2677  0.4366
  813MPD2    C412021   0.990   3.943  12.945 -0.2068  0.5022 -0.0397
  813MPD2    C512022   1.103   3.893  12.897 -0.1625 -0.0336 -0.0306
  813MPD2     H12023   1.102   4.238  13.048 -0.2214  0.9042 -0.3301
  813MPD2    H112024   0.899   3.884  12.945  0.4915 -0.5707 -0.6664
  813MPD2    H212025   1.314   3.908  12.863 -1.3046 -0.0909 -2.5075
  813MPD2    H312026   1.087   3.797  12.848 -0.2031  0.0640 -0.2101
  813MPD2     N12027   0.884   4.129  13.067 -0.2589 -0.2235  0.3332
  813MPD2    H512028   0.895   4.222  13.105  1.6214 -0.0871 -0.5552
  813MPD2    N112029   1.362   4.141  12.957 -0.1652  0.2469 -0.0602
  813MPD2    H712030   1.439   4.084  12.924 -0.0485  1.6124 -2.1797
  814MPD2     C12031   1.550   1.068  12.450 -0.1545 -0.9541  0.2287
  814MPD2    C112032   1.616   1.101  12.331  0.0865  0.5262 -0.0291
  814MPD2    C212033   1.719   1.186  12.336 -0.1318  0.2505 -0.2382
  814MPD2    C312034   1.752   1.245  12.457 -0.4843  0.6518  0.1688
  814MPD2    C412035   1.686   1.217  12.572  0.1217 -0.1216  0.8284
  814MPD2    C512036   1.585   1.127  12.568  0.3215 -0.3103 -0.2310
  814MPD2     H12037   1.762   1.214  12.241  1.7830  0.8689  0.8096
  814MPD2    H112038   1.708   1.269  12.665  0.9179  1.8453 -0.4540
  814MPD2    H212039   1.468   1.000  12.469 -0.9535 -0.0049  0.1947
  814MPD2    H312040   1.536   1.107  12.662 -2.0407 -0.5527 -1.5359
  814MPD2     N12041   1.847   1.348  12.463  0.1872  0.1176  0.6125
  814MPD2    H512042   1.865   1.390  12.553 -1.7345 -1.0338  1.5221
  814MPD2    N112043   1.601   1.024  12.219 -0.1313 -0.0384  0.0169
  814MPD2    H712044   1.679   1.039  12.154  0.2983  0.5227  0.6605
  815MPD2     C12045   2.260   4.146  12.127 -0.1160  0.1676  0.5865
  815MPD2    C112046   2.265   4.015  12.076 -0.6562  0.2349 -0.4777
  815MPD2    C212047   2.155   3.935  12.082 -0.1171 -0.0055 -0.2149
  815MPD2    C312048   2.040   3.975  12.154 -0.2372 -0.1592 -0.5475
  815MPD2    C412049   2.037   4.107  12.191  0.0224  0.5387  0.7357
  815MPD2    C512050   2.145   4.192  12.175 -0.4940 -0.0120  0.7314
  815MPD2     H12051   2.159   3.835  12.041  2.1857  0.3308 -0.8556
  815MPD2    H112052   1.948   4.146  12.239  0.0610  0.0407  1.2102
  815MPD2    H212053   2.344   4.213  12.112  0.5801 -1.7361 -4.2137
  815MPD2    H312054   2.136   4.295  12.206  0.1481  0.2685 -0.0061
  815MPD2     N12055   1.931   3.890  12.151  0.3248 -0.3208  0.0595
  815MPD2    H512056   1.943   3.804  12.099 -0.2904 -0.7203  0.5769
  815MPD2    N112057   2.378   3.977  11.998  0.2917  0.4620  0.7557
  815MPD2    H712058   2.453   4.040  11.970  0.6075 -0.3541 -0.2155
  816MPD2     C12059   2.144   3.069  17.249 -0.1829  0.4685  0.4527
  816MPD2    C112060   2.199   3.173  17.176 -0.4463 -0.7190  0.0008
  816MPD2    C212061   2.309   3.146  17.100  0.0018  0.4957  0.1554
  816MPD2    C312062   2.370   3.022  17.096 -0.4049 -0.2143 -0.5217
  816MPD2    C412063   2.311   2.921  17.166 -0.0860  0.2845  0.1985
  816MPD2    C512064   2.196   2.937  17.243 -0.4574 -0.3820  0.1020
  816MPD2     H12065   2.341   3.233  17.043  2.7625  0.2584  1.3145
  816MPD2    H112066   2.353   2.821  17.172 -0.8997 -0.2063 -2.1757
  816MPD2    H212067   2.066   3.084  17.323 -0.9287 -1.5380  0.0727
  816MPD2    H312068   2.147   2.855  17.293  0.5750 -1.6352 -0.9308
  816MPD2     N12069   2.493   3.002  17.030 -0.3412  0.4156  0.1420
  816MPD2    H512070   2.526   3.076  16.968  1.8135 -0.3578  0.3594
  816MPD2    N112071   2.153   3.303  17.162 -0.1009  0.0934  0.2422
  816MPD2    H712072   2.209   3.365  17.104  1.2479 -0.1044  1.3285
  817MPD2     C12073   2.839   0.517  10.120 -0.2198 -0.6277  0.8278
  817MPD2    C112074   2.814   0.473   9.994  0.7513  0.0831  0.4448
  817MPD2    C212075   2.795   0.574   9.893 -0.5844  0.4079 -1.1203
  817MPD2    C312076   2.806   0.704   9.920 -0.0073 -0.2560 -0.1731
  817MPD2    C412077   2.845   0.736  10.049  0.4882  0.5157 -0.6204
  817MPD2    C512078   2.860   0.642  10.148  0.3659  0.1693  0.4394
  817MPD2     H12079   2.774   0.545   9.791  1.3598  0.0106 -1.4036
  817MPD2    H112080   2.864   0.841  10.071 -0.5621  0.6965 -0.5555
  817MPD2    H212081   2.849   0.449  10.205 -0.0719  0.2132  1.4796
  817MPD2    H312082   2.877   0.676  10.249 -1.3922  3.4702 -0.3829
  817MPD2     N12083   2.779   0.806   9.826  0.1209  0.4780 -0.2823
  817MPD2    H512084   2.735   0.772   9.741 -0.7373 -1.0782  0.7737
  817MPD2    N112085   2.808   0.341   9.959  0.0802  0.3184 -0.4237
  817MPD2    H712086   2.779   0.322   9.864  1.0487  1.1633 -0.8962
  818MPD2     C12087   1.601   4.463   9.821  0.2298 -0.3567  0.0088
  818MPD2    C112088   1.493   4.397   9.868 -0.3006  0.5215 -0.1545
  818MPD2    C212089   1.467   4.277   9.816 -0.1116 -0.6669 -0.0625
  818MPD2    C312090   1.553   4.227   9.719  0.6172 -0.3666 -1.1820
  818MPD2    C412091   1.642   4.306   9.660 -0.5683  0.2399  0.4020
  818MPD2    C512092   1.672   4.428   9.713 -0.2182  0.3378  0.6186
  818MPD2     H12093   1.383   4.223   9.858  0.3009 -1.0761  0.2374
  818MPD2    H112094   1.712   4.270   9.585 -0.8902  0.0775  0.1780
  818MPD2    H212095   1.624   4.564   9.851  0.3577 -0.5132  0.4303
  818MPD2    H312096   1.752   4.488   9.671 -1.2148  0.4034 -1.1719
  818MPD2     N12097   1.531   4.099   9.661 -0.4334  0.5410 -0.2145
  818MPD2    H512098   1.594   4.080   9.583  1.6125 -1.0794  1.8172
  818MPD2    N112099   1.406   4.442   9.974 -0.0350 -0.1476  0.2703
  818MPD2    H712100   1.321   4.388   9.990  2.1182 -3.4823  0.4376
  819MPD2     C12101   3.722   1.892  15.538 -1.0704 -0.7398 -0.8429
  819MPD2    C112102   3.716   1.747  15.543  0.1361 -0.2437 -0.1564
  819MPD2    C212103   3.820   1.676  15.607  0.0497  0.2139 -0.5359
  819MPD2    C312104   3.918   1.748  15.677  0.0382  0.0263 -0.4327
  819MPD2    C412105   3.908   1.891  15.684  0.3325 -0.6490  0.2019
  819MPD2    C512106   3.812   1.958  15.620  0.5767 -0.1912 -0.0389
  819MPD2     H12107   3.811   1.568  15.616 -0.4498  0.1469 -1.9139
  819MPD2    H112108   3.972   1.946  15.752  0.2808 -1.8771  1.2428
  819MPD2    H212109   3.659   1.952  15.473  1.5280 -0.5949 -3.2505
  819MPD2    H312110   3.796   2.065  15.633 -0.4164 -0.5828  1.9057
  819MPD2     N12111   4.017   1.680  15.749 -0.6196  0.4149 -0.2050
  819MPD2    H512112   4.001   1.580  15.757  1.8962  0.0549  0.3984
  819MPD2    N112113   3.610   1.685  15.475 -0.1901 -0.4160 -0.6651
  819MPD2    H712114   3.550   1.746  15.421 -0.9823 -2.6729 -2.3306
  820MPD2     C12115   2.691   1.831  15.130 -0.0702  0.2458 -1.0940
  820MPD2    C112116   2.819   1.886  15.129 -0.4054 -0.0071 -0.1909
  820MPD2    C212117   2.926   1.815  15.183 -0.6333  0.5803 -0.1144
  820MPD2    C312118   2.908   1.691  15.244  0.1951  0.7370  0.7001
  820MPD2    C412119   2.781   1.637  15.239 -0.2052 -0.2834  0.3089
  820MPD2    C512120   2.674   1.701  15.176 -1.1787  0.3510  0.4790
  820MPD2     H12121   3.027   1.838  15.154 -0.0058  0.6257  2.0931
  820MPD2    H112122   2.754   1.544  15.289 -0.4993  1.7812  4.0276
  820MPD2    H212123   2.601   1.881  15.097 -1.2923 -0.8202  0.6637
  820MPD2    H312124   2.575   1.658  15.168 -0.7258 -0.2509 -1.7182
  820MPD2     N12125   3.004   1.610  15.315 -0.0171 -0.5284  0.1655
  820MPD2    H512126   2.990   1.512  15.340 -2.1293 -0.2222  0.2110
  820MPD2    N112127   2.837   2.015  15.083 -0.1938 -0.3916 -0.6519
  820MPD2    H712128   2.753   2.062  15.052 -1.2327 -2.2577 -0.6308
  821MPD2     C12129   3.776   2.969  12.978 -0.2006  0.1826 -0.4798
  821MPD2    C112130   3.873   2.916  13.053 -0.0357  0.0145 -0.7784
  821MPD2    C212131   3.997   2.894  12.996  0.2225  0.2627 -0.1582
  821MPD2    C312132   4.022   2.928  12.866 -0.0564  0.0714  0.1294
  821MPD2    C412133   3.924   3.000  12.790 -0.3233 -0.1983 -0.7008
  821MPD2    C512134   3.799   3.012  12.849  0.8721  0.0138  0.5011
  821MPD2     H12135   4.071   2.842  13.055 -1.6643 -1.0211  1.0547
  821MPD2    H112136   3.945   3.046  12.695 -0.4622  1.6627  0.1728
  821MPD2    H212137   3.674   2.980  13.015  0.7833  0.9811  2.0036
  821MPD2    H312138   3.732   3.081  12.798 -0.5651 -2.0111 -0.3734
  821MPD2     N12139   4.140   2.900  12.799  0.1570 -0.0304  0.0993
  821MPD2    H512140   4.136   2.938  12.705 -0.8634  1.5393  0.7721
  821MPD2    N112141   3.859   2.879  13.187 -0.3793  0.2749  0.5133
  821MPD2    H712142   3.937   2.825  13.222 -0.2100  1.0933  1.3987
  822MPD2     C12143   4.667   3.134  15.689 -0.1903  0.1975 -0.3400
  822MPD2    C112144   4.642   3.110  15.821  0.2554  0.8504  0.2235
  822MPD2    C212145   4.542   3.191  15.878 -0.0570 -0.2966  0.1812
  822MPD2    C312146   4.489   3.302  15.822 -0.3579 -0.0931  0.6811
  822MPD2    C412147   4.504   3.322  15.685 -0.2596  0.8996  0.1545
  822MPD2    C512148   4.598   3.235  15.625 -0.3759 -0.0185 -0.2926
  822MPD2     H12149   4.515   3.179  15.983  1.2482  1.1410  0.6974
  822MPD2    H112150   4.444   3.396  15.634  0.1388 -0.0336 -1.6739
  822MPD2    H212151   4.734   3.072  15.629  1.6806  0.8774  1.0384
  822MPD2    H312152   4.604   3.252  15.518  2.3078  2.4037  0.2254
  822MPD2     N12153   4.406   3.384  15.903  0.4118 -0.3470 -0.2685
  822MPD2    H512154   4.380   3.351  15.995  2.3133 -1.4072 -0.1195
  822MPD2    N112155   4.718   3.015  15.890  0.3296  0.0387 -0.0741
  822MPD2    H712156   4.693   2.990  15.985 -2.1027  0.9658 -0.4613
  823MPD2     C12157   4.123   3.622  16.660 -0.1540  0.0194 -0.4746
  823MPD2    C112158   4.168   3.546  16.561  0.1729 -0.0945 -0.3377
  823MPD2    C212159   4.187   3.411  16.587 -0.0737  0.2854 -1.0940
  823MPD2    C312160   4.164   3.364  16.717 -0.3402  0.0903 -0.3890
  823MPD2    C412161   4.132   3.451  16.813  0.2378  0.2384 -0.9676
  823MPD2    C512162   4.103   3.575  16.786 -0.2119  0.5543 -0.7714
  823MPD2     H12163   4.234   3.357  16.505 -0.7507 -0.7048 -0.8225
  823MPD2    H112164   4.129   3.421  16.917 -1.0380  1.0291 -0.7776
  823MPD2    H212165   4.103   3.726  16.635 -0.9341  0.1980  0.8988
  823MPD2    H312166   4.080   3.635  16.873  1.5801  1.0055 -0.6008
  823MPD2     N12167   4.213   3.230  16.757  0.7742  0.4547 -0.6200
  823MPD2    H512168   4.201   3.204  16.854 -0.0518  2.9202 -0.0712
  823MPD2    N112169   4.181   3.609  16.440  0.5312  0.9313  0.3534
  823MPD2    H712170   4.198   3.709  16.440  1.2891  0.7886 -1.7372
  824MPD2     C12171   0.263   2.229  15.899 -0.0250 -0.2407  0.1774
  824MPD2    C112172   0.323   2.331  15.828  0.5596 -0.1169  0.5073
  824MPD2    C212173   0.385   2.297  15.709 -0.3030 -0.3321 -0.5224
  824MPD2    C312174   0.390   2.165  15.660  0.1899 -0.6288 -0.4032
  824MPD2    C412175   0.319   2.071  15.731 -0.2465 -0.0275  0.8064
  824MPD2    C512176   0.249   2.101  15.849 -0.6859  0.0210  0.4721
  824MPD2     H12177   0.433   2.377  15.654 -1.1456  1.2187  1.0361
  824MPD2    H112178   0.309   1.971  15.690 -1.1143  1.0878 -1.6682
  824MPD2    H212179   0.214   2.263  15.990 -1.4872  1.5379 -1.2780
  824MPD2    H312180   0.187   2.021  15.887 -0.6865  0.3375  1.1382
  824MPD2     N12181   0.469   2.137  15.543 -0.0116  0.4971 -0.7481
  824MPD2    H512182   0.531   2.212  15.514 -0.1628  0.2118 -1.8276
  824MPD2    N112183   0.301   2.465  15.868 -0.7483 -0.0638 -0.5584
  824MPD2    H712184   0.335   2.539  15.808 -1.1065 -0.5084 -1.3049
  825MPD2     C12185   1.098   2.308  14.996 -0.0327  0.1372  0.4353
  825MPD2    C112186   0.996   2.336  15.080 -0.0527  0.3997 -0.0904
  825MPD2    C212187   0.942   2.460  15.079  0.4072  0.1134  0.2331
  825MPD2    C312188   0.987   2.562  14.999  0.8178 -0.5204  0.0529
  825MPD2    C412189   1.097   2.535  14.923 -0.4985  0.8624  0.6467
  825MPD2    C512190   1.148   2.407  14.914 -0.1516  0.8698  0.2760
  825MPD2     H12191   0.879   2.479  15.165 -0.2260 -1.3639  0.0886
  825MPD2    H112192   1.143   2.606  14.855 -1.9616  0.6964 -0.5459
  825MPD2    H212193   1.121   2.204  14.975  0.4706  0.4311 -0.4520
  825MPD2    H312194   1.222   2.386  14.838  2.0218 -0.1561  2.6705
  825MPD2     N12195   0.934   2.691  14.994  0.0802 -0.0024 -0.0244
  825MPD2    H512196   0.979   2.763  14.939 -0.4279  0.9071  0.7447
  825MPD2    N112197   0.936   2.220  15.140 -0.2945 -0.2414 -0.6758
  825MPD2    H712198   1.002   2.143  15.147 -0.4235 -0.3032 -0.0983
  826MPD2     C12199   4.617   1.949  13.950  0.2798  0.4917  0.8658
  826MPD2    C112200   4.586   1.985  13.819 -0.6132  0.0871 -0.4078
  826MPD2    C212201   4.515   2.108  13.789 -0.2554 -0.1245 -0.2228
  826MPD2    C312202   4.502   2.195  13.892 -0.2974 -0.7985  0.4261
  826MPD2    C412203   4.552   2.172  14.017  0.1995 -0.0352 -0.0241
  826MPD2    C512204   4.610   2.048  14.045  0.1804  0.2089  0.4613
  826MPD2     H12205   4.493   2.132  13.686  0.0694 -1.3343 -0.5737
  826MPD2    H112206   4.534   2.250  14.089 -1.4934 -0.1826 -0.2842
  826MPD2    H212207   4.656   1.858  13.994  0.0706  0.7286  1.5462
  826MPD2    H312208   4.634   2.031  14.150 -0.3678 -0.0032  0.5527
  826MPD2     N12209   4.450   2.324  13.872 -0.1732  0.0587  0.0604
  826MPD2    H512210   4.472   2.394  13.942  1.1419  0.5763 -0.8770
  826MPD2    N112211   4.630   1.898  13.717  0.2099  0.2891  0.1841
  826MPD2    H712212   4.692   1.826  13.755 -0.7625 -0.5242  0.2366
  827MPD2     C12213   2.003   3.183  10.026  0.5329 -0.8571  0.6681
  827MPD2    C112214   1.910   3.180  10.131 -0.5269 -0.2530 -0.1613
  827MPD2    C212215   1.788   3.130  10.098  0.4115 -0.1406  0.2985
  827MPD2    C312216   1.754   3.093   9.968  0.2385  0.1110  0.0877
  827MPD2    C412217   1.850   3.105   9.863 -0.0790  0.6521 -0.1548
  827MPD2    C512218   1.981   3.136   9.899  1.0626 -0.0396  0.2911
  827MPD2     H12219   1.710   3.115  10.172 -0.5726  2.0202 -0.2957
  827MPD2    H112220   1.833   3.082   9.758  1.0453 -0.2660 -0.1453
  827MPD2    H212221   2.107   3.209  10.045  0.8355 -0.3717 -1.6871
  827MPD2    H312222   2.052   3.147   9.818  1.8969 -0.2302  1.0031
  827MPD2     N12223   1.625   3.046   9.940  0.5842  0.1883 -0.0146
  827MPD2    H512224   1.565   3.039  10.022  0.8368 -0.3449  0.1209
  827MPD2    N112225   1.954   3.231  10.257  0.2501 -0.4542 -0.3489
  827MPD2    H712226   2.051   3.259  10.270 -0.3028  1.2214  0.1435
  828MPD2     C12227   0.039   2.646  11.772 -0.0183  0.2075 -0.1422
  828MPD2    C112228   4.711   2.766  11.747 -0.1198  0.0264 -0.4353
  828MPD2    C212229   4.685   2.797  11.614  0.7082  0.4535 -0.6339
  828MPD2    C312230   4.723   2.713  11.506 -0.3327 -0.0236  0.9852
  828MPD2    C412231   0.048   2.588  11.538 -0.2748  0.3145  0.0527
  828MPD2    C512232   0.084   2.565  11.670  0.6603  0.7204 -0.3731
  828MPD2     H12233   4.638   2.893  11.594  0.9274  0.6488 -0.2101
  828MPD2    H112234   0.076   2.520  11.459 -2.4922 -0.3858 -0.1414
  828MPD2    H212235   0.070   2.618  11.871 -0.7822 -1.1955 -0.2954
  828MPD2    H312236   0.142   2.478  11.700  0.5196  0.0823 -1.9333
  828MPD2     N12237   4.685   2.729  11.373 -0.2627  0.2301 -0.1175
  828MPD2    H512238   4.725   2.665  11.305 -0.7473  1.1617 -1.2702
  828MPD2    N112239   4.686   2.860  11.846 -0.0797  0.4477  0.4256
  828MPD2    H712240   4.654   2.949  11.811 -0.1589 -0.4180 -1.7063
  829MPD2     C12241   4.330   3.501  11.566 -0.1010  0.0501 -0.7572
  829MPD2    C112242   4.274   3.448  11.677 -1.1382  0.1603  1.5643
  829MPD2    C212243   4.354   3.391  11.774 -0.7510  0.1457 -0.3396
  829MPD2    C312244   4.485   3.354  11.753  0.2251 -0.4216 -0.1573
  829MPD2    C412245   4.535   3.382  11.625  0.2863 -0.0049 -0.4165
  829MPD2    C512246   4.462   3.466  11.542 -0.3480  0.2108 -0.1138
  829MPD2     H12247   4.313   3.349  11.865 -1.3736  1.4774 -0.0112
  829MPD2    H112248   4.635   3.356  11.593  0.7714  0.2001  0.9677
  829MPD2    H212249   4.273   3.536  11.481  0.1942 -0.3345 -1.1149
  829MPD2    H312250   4.506   3.503  11.450 -4.4539  2.7705 -1.0374
  829MPD2     N12251   4.568   3.275  11.844  0.2227 -0.0293  0.0401
  829MPD2    H512252   4.655   3.242  11.805  0.0363 -1.3042  0.7310
  829MPD2    N112253   4.134   3.463  11.689  0.0695 -0.1909 -0.3080
  829MPD2    H712254   4.087   3.530  11.629  2.5294 -1.3901 -3.5397
  830MPD2     C12255   4.664   1.328  15.884  0.0520 -0.2475 -0.8874
  830MPD2    C112256   4.538   1.348  15.825 -0.2614  0.6973 -0.3262
  830MPD2    C212257   4.529   1.409  15.702 -0.2038 -1.0509  0.6131
  830MPD2    C312258   4.644   1.455  15.644 -0.6650  0.2266  0.6154
  830MPD2    C412259   0.037   1.431  15.693 -0.2205 -0.1486 -0.4361
  830MPD2    C512260   0.042   1.366  15.817  0.1051  0.2454 -0.4670
  830MPD2     H12261   4.432   1.433  15.660  0.8808 -0.9689 -1.8709
  830MPD2    H112262   0.130   1.473  15.656 -0.5900  1.5541  0.5396
  830MPD2    H212263   4.671   1.268  15.974 -0.4951  0.9895 -0.0277
  830MPD2    H312264   0.133   1.358  15.875  1.2374 -1.4850 -2.4853
  830MPD2     N12265   4.639   1.532  15.527 -0.0755  0.0721  0.2199
  830MPD2    H512266   4.734   1.542  15.491 -0.3340 -1.5000 -0.9050
  830MPD2    N112267   4.426   1.293  15.885  1.4287  0.1310  0.0796
  830MPD2    H712268   4.428   1.283  15.986 -1.8444  1.1097  0.2443
  831MPD2     C12269   4.651   3.533  16.216  0.1901 -0.0640  0.3127
  831MPD2    C112270   4.706   3.427  16.147 -0.0395 -0.3775  0.2765
  831MPD2    C212271   4.649   3.304  16.172  0.8272  0.5088  0.8251
  831MPD2    C312272   4.539   3.283  16.253 -0.3367 -0.4794 -0.3269
  831MPD2    C412273   4.490   3.394  16.325  0.2798 -0.4899  0.1887
  831MPD2    C512274   4.549   3.509  16.306 -0.2173 -0.5926 -0.3502
  831MPD2     H12275   4.688   3.218  16.119 -1.2428  1.7202 -2.6943
  831MPD2    H112276   4.418   3.377  16.404 -2.6736  0.1917 -2.4016
  831MPD2    H212277   4.672   3.637  16.194 -1.0967  0.4569  1.6106
  831MPD2    H312278   4.513   3.600  16.352 -0.6405 -0.6782 -0.5157
  831MPD2     N12279   4.478   3.157  16.271  0.5656  0.5435  0.1480
  831MPD2    H512280   4.390   3.158  16.321 -0.5420  0.7522 -1.7945
  831MPD2    N112281   0.077   3.430  16.059 -0.0774  0.0029  0.1302
  831MPD2    H712282   0.079   3.522  16.014 -0.1457  0.1075  0.3434
  832MPD2     C12283   2.605   0.109  16.908 -0.0873  0.3602 -0.3095
  832MPD2    C112284   2.485   0.150  16.967 -0.1010  0.5201  0.1377
  832MPD2    C212285   2.368   0.111  16.899 -0.4209 -0.5349  0.7053
  832MPD2    C312286   2.371   0.024  16.790 -0.1152  0.2561 -0.4213
  832MPD2    C412287   2.495   4.718  16.740  0.3451  0.4083 -0.0831
  832MPD2    C512288   2.612   0.027  16.802 -0.5062 -0.3621 -0.5796
  832MPD2     H12289   2.268   0.130  16.937 -0.0221  2.1623  0.4088
  832MPD2    H112290   2.498   4.646  16.659 -2.1150 -0.4368  0.5715
  832MPD2    H212291   2.702   0.141  16.945 -0.2066  1.7230 -1.1720
  832MPD2    H312292   2.708   4.732  16.763 -0.4944 -1.0318 -0.0258
  832MPD2     N12293   2.244   0.001  16.724 -0.2597  0.2663  0.1656
  832MPD2    H512294   2.156   0.021  16.771  0.5849  1.9389  1.0533
  832MPD2    N112295   2.496   0.233  17.081 -0.0058  0.9926 -0.1716
  832MPD2    H712296   2.587   0.275  17.097  0.6534 -0.5465  0.0968
  833MPD2     C12297   0.092   0.994  12.553  0.0021 -0.4728 -0.4577
  833MPD2    C112298   0.054   0.924  12.438  0.4559  0.0752  0.7517
  833MPD2    C212299   0.151   0.857  12.365  0.7338 -0.0040 -0.0174
  833MPD2    C312300   0.286   0.853  12.405 -0.5057  0.0396 -0.5058
  833MPD2    C412301   0.315   0.900  12.532  0.7951 -0.2824 -0.8022
  833MPD2    C512302   0.222   0.983  12.597  0.3960  0.0414  0.5885
  833MPD2     H12303   0.121   0.812  12.271  3.6339  0.3715 -1.1366
  833MPD2    H112304   0.413   0.894  12.577  0.5996  2.5956  0.0204
  833MPD2    H212305   0.032   1.067  12.606  0.6473 -0.3405  0.0813
  833MPD2    H312306   0.252   1.024  12.693 -1.6206  1.7464  0.4917
  833MPD2     N12307   0.390   0.796  12.329 -0.5442 -0.4688  0.2950
  833MPD2    H512308   0.480   0.807  12.376  0.4693 -2.9492 -1.0957
  833MPD2    N112309   4.654   0.929  12.399  0.1532  0.0525 -0.2615
  833MPD2    H712310   4.592   0.990  12.451 -1.0840 -1.5406  0.1350
  834MPD2     C12311   0.365   0.130  11.538  0.4482  0.0033 -0.0529
  834MPD2    C112312   0.443   0.222  11.471 -0.5204 -0.1928  1.0850
  834MPD2    C212313   0.494   0.332  11.535  0.7438 -0.3835  0.1709
  834MPD2    C312314   0.480   0.348  11.667  0.7431  0.1714 -1.1905
  834MPD2    C412315   0.400   0.253  11.737 -0.4705  0.4693 -0.2530
  834MPD2    C512316   0.344   0.149  11.672  0.1088 -1.1691 -0.2208
  834MPD2     H12317   0.550   0.409  11.483 -1.3775  1.7064  0.9442
  834MPD2    H112318   0.367   0.258  11.839 -2.4252 -2.3681 -0.7620
  834MPD2    H212319   0.322   0.045  11.485 -0.5077 -1.2606  2.7715
  834MPD2    H312320   0.269   0.085  11.716 -0.3647 -0.3540  0.1561
  834MPD2     N12321   0.518   0.472  11.733  0.2081 -0.2401  0.2887
  834MPD2    H512322   0.561   0.549  11.685  0.9140 -0.2166  0.9564
  834MPD2    N112323   0.462   0.188  11.339  0.1581 -0.3337  0.8829
  834MPD2    H712324   0.428   0.097  11.310 -2.5379  0.3805  1.7498
  835MPD2     C12325   0.810   3.458  10.632 -0.7159  0.2312 -0.3291
  835MPD2    C112326   0.681   3.481  10.688  0.1881  0.7500 -0.0971
  835MPD2    C212327   0.658   3.427  10.813  0.2384 -0.3217  0.3005
  835MPD2    C312328   0.753   3.359  10.888  0.2617 -0.1954 -0.3187
  835MPD2    C412329   0.870   3.332  10.828 -0.3929  0.3357  0.5445
  835MPD2    C512330   0.897   3.374  10.698  0.1735  0.9024 -0.0793
  835MPD2     H12331   0.567   3.454  10.865  0.2634 -3.3622  1.9363
  835MPD2    H112332   0.937   3.257  10.868  0.6939 -0.0152 -1.8943
  835MPD2    H212333   0.839   3.484  10.530 -0.7294  1.0799 -0.1203
  835MPD2    H312334   0.987   3.340  10.648 -1.4117 -2.2217 -0.8319
  835MPD2     N12335   0.732   3.320  11.025  0.6018  0.0027  0.0147
  835MPD2    H512336   0.816   3.327  11.082  0.1262  0.6639  0.6339
  835MPD2    N112337   0.580   3.546  10.621  0.4307 -0.5916  0.1210
  835MPD2    H712338   0.495   3.567  10.671 -0.4044 -1.9327 -0.7256
  836MPD2     C12339   0.146   3.617  11.319  0.1485 -0.1134 -0.0964
  836MPD2    C112340   0.175   3.536  11.426  0.7021 -0.0018 -0.4782
  836MPD2    C212341   0.124   3.548  11.557  0.4380  0.8623 -0.2751
  836MPD2    C312342   0.031   3.644  11.581  0.1729  0.1848 -0.6084
  836MPD2    C412343   4.727   3.722  11.470 -0.0031 -0.9162 -0.9525
  836MPD2    C512344   0.043   3.706  11.344  0.1976 -0.0811 -0.0317
  836MPD2     H12345   0.156   3.485  11.640 -1.3840  1.3809  0.8219
  836MPD2    H112346   4.651   3.799  11.476 -0.3913 -1.4176  0.6056
  836MPD2    H212347   0.187   3.596  11.221 -1.5110 -0.9702 -0.6003
  836MPD2    H312348   0.002   3.773  11.270 -2.1778  0.5887  1.8992
  836MPD2     N12349   4.694   3.659  11.707 -0.3299 -0.2171 -0.1115
  836MPD2    H512350   4.621   3.729  11.703 -0.5213 -0.4402 -0.6011
  836MPD2    N112351   0.273   3.434  11.392  0.2782  0.2295 -0.1769
  836MPD2    H712352   0.311   3.442  11.299  0.2440 -1.2765 -0.3256
  837MPD2     C12353   3.403   3.268  10.372  0.6743 -0.2806 -0.4505
  837MPD2    C112354   3.395   3.334  10.248 -0.2196  0.8887  0.1673
  837MPD2    C212355   3.435   3.464  10.232  0.0265 -1.1448  0.1711
  837MPD2    C312356   3.474   3.544  10.329  0.0146  0.1532  0.5603
  837MPD2    C412357   3.487   3.484  10.448 -0.5024 -0.1160 -0.0504
  837MPD2    C512358   3.447   3.351  10.467 -0.7360 -0.6297 -0.2240
  837MPD2     H12359   3.419   3.515  10.138  0.2415 -2.3857 -0.5370
  837MPD2    H112360   3.498   3.545  10.537 -1.7718 -0.1836  0.1540
  837MPD2    H212361   3.384   3.165  10.398  0.2898  0.1606  1.0158
  837MPD2    H312362   3.457   3.316  10.569  1.8437  1.6700  0.3032
  837MPD2     N12363   3.496   3.673  10.299  0.4224 -0.1401  0.5355
  837MPD2    H512364   3.473   3.703  10.205  0.4668 -0.0008  0.5679
  837MPD2    N112365   3.323   3.283  10.139  0.4905  0.1940 -0.0404
  837MPD2    H712366   3.311   3.331  10.051  0.7528 -0.5005 -0.4503
  838MPD2     C12367   1.622   1.621  12.319  0.5207 -0.3633  0.5368
  838MPD2    C112368   1.561   1.514  12.264 -0.3834 -0.6261  0.0176
  838MPD2    C212369   1.455   1.444  12.330  0.2934  0.6017  0.1856
  838MPD2    C312370   1.424   1.476  12.459  0.2585  0.2525  0.2000
  838MPD2    C412371   1.486   1.583  12.519 -0.0172 -0.3183  0.2337
  838MPD2    C512372   1.589   1.650  12.446  0.0930 -0.2094 -0.6436
  838MPD2     H12373   1.402   1.361  12.284  1.9453 -0.5642  0.4049
  838MPD2    H112374   1.457   1.623  12.616 -1.7489 -0.3647 -0.2578
  838MPD2    H212375   1.677   1.698  12.266  0.2133  0.4939  1.4489
  838MPD2    H312376   1.617   1.750  12.477 -1.6467 -0.0519  0.3812
  838MPD2     N12377   1.316   1.396  12.514  0.4304 -0.5667 -0.1189
  838MPD2    H512378   1.261   1.339  12.451 -1.2548  1.3651 -0.3828
  838MPD2    N112379   1.588   1.473  12.133  0.3473  0.2849 -0.2013
  838MPD2    H712380   1.519   1.410  12.093  1.8003 -0.7782 -1.0518
  839MPD2     C12381   1.253   0.751  11.898 -0.3735 -0.0154 -0.1668
  839MPD2    C112382   1.359   0.731  11.821  0.0312 -0.4052  0.0041
  839MPD2    C212383   1.451   0.838  11.804  0.9278 -0.2297  0.1033
  839MPD2    C312384   1.435   0.959  11.883 -0.1164 -0.5893 -1.3035
  839MPD2    C412385   1.322   0.970  11.959 -0.8535  0.3540 -0.6012
  839MPD2    C512386   1.230   0.870  11.963 -0.2069  0.0678  0.4967
  839MPD2     H12387   1.540   0.817  11.747 -1.3984 -0.4902 -3.4195
  839MPD2    H112388   1.298   1.060  12.016 -4.1371 -0.8477 -0.0621
  839MPD2    H212389   1.168   0.685  11.914 -0.2880 -0.1174 -0.1292
  839MPD2    H312390   1.140   0.878  12.023 -0.6016  0.5796 -0.1581
  839MPD2     N12391   1.520   1.069  11.880 -0.3662  0.1613  0.2146
  839MPD2    H512392   1.484   1.147  11.935 -1.2064 -0.6887  0.8862
  839MPD2    N112393   1.381   0.610  11.755 -0.0544  0.4019 -0.5871
  839MPD2    H712394   1.463   0.608  11.694  0.5226 -0.5522  0.2301
  840MPD2     C12395   2.247   3.740  10.424 -0.1840 -0.1744  0.9900
  840MPD2    C112396   2.247   3.678  10.544 -0.1321  0.5681  0.6744
  840MPD2    C212397   2.294   3.747  10.649 -0.0333  0.3282 -0.2959
  840MPD2    C312398   2.330   3.880  10.633 -0.1118 -0.2207 -0.7896
  840MPD2    C412399   2.318   3.948  10.510  1.2843  0.2525  0.1764
  840MPD2    C512400   2.278   3.874  10.407  0.0618 -0.6094 -0.4385
  840MPD2     H12401   2.307   3.706  10.749  0.0198  0.2474 -0.3362
  840MPD2    H112402   2.345   4.053  10.500 -0.9791  1.1112  3.0298
  840MPD2    H212403   2.205   3.693  10.336 -0.7081  1.8497  0.1632
  840MPD2    H312404   2.268   3.924  10.311  0.3168 -1.8454 -1.1180
  840MPD2     N12405   2.366   3.965  10.740  0.2538  0.5978 -0.1866
  840MPD2    H512406   2.371   4.062  10.711 -0.4233  0.3631 -1.0649
  840MPD2    N112407   2.196   3.550  10.541 -0.4333 -0.2066  0.2511
  840MPD2    H712408   2.169   3.523  10.447 -0.1497  0.3635  0.0097
  841MPD2     C12409   1.094   3.704  14.935 -0.3773 -0.1701  0.3413
  841MPD2    C112410   1.153   3.659  14.820  0.1709  0.1211 -0.1986
  841MPD2    C212411   1.228   3.750  14.746  0.6715  0.3245  0.1296
  841MPD2    C312412   1.233   3.885  14.776  0.1371 -0.0250 -0.3009
  841MPD2    C412413   1.167   3.928  14.888  0.2495 -0.1506  0.4734
  841MPD2    C512414   1.099   3.840  14.971 -0.4627  0.1204 -0.3672
  841MPD2     H12415   1.277   3.712  14.657 -0.4196 -1.4627  0.2866
  841MPD2    H112416   1.185   4.027  14.930  4.0177 -1.0087  0.8734
  841MPD2    H212417   1.033   3.634  14.992  2.1012 -3.2926 -0.8089
  841MPD2    H312418   1.055   3.868  15.066  1.6408 -0.6332  0.8147
  841MPD2     N12419   1.303   3.969  14.690  0.2582  0.1800 -0.2261
  841MPD2    H512420   1.333   3.924  14.605 -0.0987  0.7622 -0.6606
  841MPD2    N112421   1.149   3.526  14.773  0.4457  0.0037  0.1977
  841MPD2    H712422   1.196   3.509  14.685 -1.3376 -1.1675 -0.5193
  842MPD2     C12423   1.659   0.327  16.504  0.1415 -0.6677 -0.1103
  842MPD2    C112424   1.693   0.217  16.422 -1.0318  0.4738  0.7267
  842MPD2    C212425   1.726   0.094  16.478  0.2431  0.2763  0.2872
  842MPD2    C312426   1.734   0.090  16.616 -0.0713 -0.3479  0.3095
  842MPD2    C412427   1.702   0.199  16.692  0.7749 -0.6695 -0.2008
  842MPD2    C512428   1.658   0.314  16.637  0.0577  0.1402  0.3813
  842MPD2     H12429   1.739   0.005  16.417  1.1213 -0.2627  1.2811
  842MPD2    H112430   1.688   0.186  16.799  0.3837  0.5631 -0.1062
  842MPD2    H212431   1.636   0.425  16.464  0.0167 -0.0408  1.5121
  842MPD2    H312432   1.632   0.396  16.704 -0.4900 -0.0103  0.3471
  842MPD2     N12433   1.753   4.704  16.689  0.4734 -0.2612  0.1540
  842MPD2    H512434   1.766   4.718  16.789 -0.0526  0.7101  0.0937
  842MPD2    N112435   1.681   0.254  16.284 -0.2188 -0.4875  0.2657
  842MPD2    H712436   1.632   0.340  16.261  1.1342 -0.3162 -1.9620
  843MPD2     C12437   3.973   0.645   0.216 -0.2066 -0.0750 -0.0332
  843MPD2    C112438   4.095   0.584   0.244 -0.1561 -0.6287 -0.2834
  843MPD2    C212439   4.209   0.660   0.235 -0.2436  0.1980 -0.1803
  843MPD2    C312440   4.205   0.799   0.194  0.6650  0.2351  0.6568
  843MPD2    C412441   4.082   0.856   0.163 -0.1430 -0.0095  0.0964
  843MPD2    C512442   3.969   0.780   0.182 -0.2559 -0.1697 -0.6478
  843MPD2     H12443   4.303   0.607   0.245 -0.4086  0.2780  1.7574
  843MPD2    H112444   4.080   0.959   0.130  0.4305  1.3250  4.2783
  843MPD2    H212445   3.881   0.588   0.226 -0.0161 -0.9705 -3.1417
  843MPD2    H312446   3.882   0.826   0.135 -0.4866  0.2944  0.2421
  843MPD2     N12447   4.320   0.885   0.190 -0.4171 -0.4610 -0.2090
  843MPD2    H512448   4.319   0.962   0.123  0.8749 -0.3228 -0.0816
  843MPD2    N112449   4.090   0.455   0.301 -0.3359 -0.2491 -0.0412
  843MPD2    H712450   4.001   0.405   0.309 -0.5128  0.2830  1.2176
  844MPD2     C12451   2.445   3.942  16.660 -0.0748 -0.2023 -0.2917
  844MPD2    C112452   2.530   3.928  16.550  0.5279  0.0755 -0.1842
  844MPD2    C212453   2.622   4.026  16.521  0.0681  0.6250  0.6781
  844MPD2    C312454   2.623   4.143  16.593  0.2573  0.4662 -0.1231
  844MPD2    C412455   2.537   4.153  16.704 -0.1699  0.4668 -0.0318
  844MPD2    C512456   2.448   4.054  16.734  0.6135  0.0505 -0.0337
  844MPD2     H12457   2.681   4.024  16.430 -1.4371 -0.6618 -0.2686
  844MPD2    H112458   2.536   4.237  16.772 -1.1400  1.5694 -1.4404
  844MPD2    H212459   2.378   3.861  16.687  1.5574 -0.7520  2.1267
  844MPD2    H312460   2.389   4.066  16.825  0.9489 -1.6222  0.4044
  844MPD2     N12461   2.710   4.244  16.553  0.7212  0.0052  0.4475
  844MPD2    H512462   2.783   4.213  16.489  0.9826 -2.1614  1.8140
  844MPD2    N112463   2.533   3.813  16.474 -0.2414  0.3853 -0.3450
  844MPD2    H712464   2.608   3.802  16.408  0.9443 -0.9342  1.2201
  845MPD2     C12465   2.689   0.445  16.797  0.2450 -0.5321 -0.2327
  845MPD2    C112466   2.606   0.388  16.706 -0.2838  0.4167 -0.6300
  845MPD2    C212467   2.647   0.287  16.620 -0.7306 -0.3139  0.4499
  845MPD2    C312468   2.782   0.242  16.622  0.3585 -0.3844  0.0534
  845MPD2    C412469   2.868   0.307  16.706  0.0982  0.8812 -0.0649
  845MPD2    C512470   2.821   0.414  16.786  0.2014 -0.0781  0.0831
  845MPD2     H12471   2.576   0.242  16.551 -0.2785 -0.3317 -0.0092
  845MPD2    H112472   2.974   0.283  16.715 -0.0093  0.0598 -1.0005
  845MPD2    H212473   2.666   0.530  16.860 -0.1375  0.7885 -2.1636
  845MPD2    H312474   2.892   0.469  16.846 -1.8627  0.5392  1.9422
  845MPD2     N12475   2.812   0.121  16.561  0.3143  0.5728 -0.2111
  845MPD2    H512476   2.740   0.065  16.514  0.5731  0.5754 -0.6089
  845MPD2    N112477   2.468   0.417  16.708 -0.6517  1.1239 -0.4527
  845MPD2    H712478   2.412   0.381  16.631  0.0282 -1.2288  0.1763
  846MPD2     C12479   4.243   0.886  13.771 -0.1490 -0.3219 -0.3036
  846MPD2    C112480   4.112   0.895  13.733  0.0869 -0.1076 -0.4352
  846MPD2    C212481   4.004   0.842  13.808 -0.2477  0.0743  0.4366
  846MPD2    C312482   4.028   0.801  13.938  0.5013  0.1861  0.4203
  846MPD2    C412483   4.161   0.795  13.973  0.0069 -0.0755 -0.4089
  846MPD2    C512484   4.261   0.854  13.898  0.5312  0.0293 -0.1709
  846MPD2     H12485   3.905   0.857  13.766 -0.6639 -2.7718  0.4551
  846MPD2    H112486   4.200   0.746  14.061  2.4410  1.9147 -0.3969
  846MPD2    H212487   4.325   0.920  13.708 -0.9617  2.3305  0.0801
  846MPD2    H312488   4.361   0.856  13.941  0.2628  0.5342  0.4399
  846MPD2     N12489   3.928   0.753  14.023 -0.8341 -0.7163  0.2068
  846MPD2    H512490   3.833   0.763  13.987 -0.4602  0.2161 -0.5117
  846MPD2    N112491   4.103   0.956  13.603 -0.2201  0.0004 -0.0987
  846MPD2    H712492   4.188   0.988  13.557  0.4415 -0.6826  0.6422
  847MPD2     C12493   4.237   1.598  14.478  0.3979 -0.2588  0.4955
  847MPD2    C112494   4.309   1.709  14.516 -0.1977 -0.3469 -0.0357
  847MPD2    C212495   4.441   1.684  14.546 -0.3630  0.1024  0.2932
  847MPD2    C312496   4.496   1.555  14.536  0.1906 -0.7038 -0.4499
  847MPD2    C412497   4.423   1.448  14.495 -0.2547  1.1212 -0.6590
  847MPD2    C512498   4.294   1.473  14.463  0.3311  0.2118  0.9071
  847MPD2     H12499   4.504   1.770  14.567  0.2667 -0.4017  0.4514
  847MPD2    H112500   4.455   1.347  14.472  0.1380  0.7545  1.4572
  847MPD2    H212501   4.134   1.611  14.446  0.0310 -1.4930  1.1578
  847MPD2    H312502   4.236   1.393  14.419  4.6215 -1.2797 -2.1014
  847MPD2     N12503   4.630   1.549  14.580 -0.1179  0.3714 -0.6749
  847MPD2    H512504   4.676   1.634  14.609  0.4485  0.0881 -0.7483
  847MPD2    N112505   4.269   1.843  14.537  0.4719 -0.1421 -0.0472
  847MPD2    H712506   4.341   1.907  14.569  1.1851 -0.3368 -1.2878
  848MPD2     C12507   2.006   4.690  15.942 -0.2404  0.3085  0.5578
  848MPD2    C112508   2.096   4.735  16.040 -0.8912 -0.4515 -0.5191
  848MPD2    C212509   2.193   0.092  16.012 -0.2279 -0.4010  0.2690
  848MPD2    C312510   2.215   0.133  15.876  0.2630 -0.0206 -0.8461
  848MPD2    C412511   2.133   0.076  15.782  0.6428 -0.4313 -0.1898
  848MPD2    C512512   2.023   4.734  15.816 -0.3282  1.2218 -0.7208
  848MPD2     H12513   2.253   0.147  16.084  1.4927 -2.2951  0.2778
  848MPD2    H112514   2.132   0.109  15.678 -2.5775 -1.6991 -0.5514
  848MPD2    H212515   1.922   4.629  15.974  0.3149  0.2409  1.9244
  848MPD2    H312516   1.948   4.700  15.746 -0.7232 -3.7201  2.0953
  848MPD2     N12517   2.317   0.225  15.829  0.7330 -0.0807 -0.6836
  848MPD2    H512518   2.318   0.245  15.729  1.1296  2.5220 -0.1563
  848MPD2    N112519   2.084   4.695  16.176  0.6091  0.3414 -0.0453
  848MPD2    H712520   2.134   0.012  16.247  0.5120  0.7065 -0.2452
  849MPD2     C12521   2.440   3.894  13.784 -0.7590 -0.1002 -0.2018
  849MPD2    C112522   2.300   3.900  13.780  0.8540 -0.7310  0.5392
  849MPD2    C212523   2.238   4.021  13.763 -0.5092 -0.7608  0.1946
  849MPD2    C312524   2.313   4.136  13.764  0.4205 -0.4686 -0.3240
  849MPD2    C412525   2.451   4.136  13.774 -0.2052 -0.2974  0.1743
  849MPD2    C512526   2.519   4.014  13.773  0.0500  0.1876 -0.0740
  849MPD2     H12527   2.130   4.022  13.757 -0.4604 -2.6612 -1.0577
  849MPD2    H112528   2.507   4.227  13.792  0.7457 -0.3359 -2.5720
  849MPD2    H212529   2.490   3.798  13.788  2.0673  1.3324 -1.8014
  849MPD2    H312530   2.626   3.999  13.776 -0.2467 -2.0678 -0.3785
  849MPD2     N12531   2.239   4.260  13.753 -0.1256  0.1249  0.3583
  849MPD2    H512532   2.140   4.249  13.737  0.6462 -2.6585 -2.4519
  849MPD2    N112533   2.220   3.790  13.767 -0.2867  0.1582 -0.0734
  849MPD2    H712534   2.120   3.801  13.773  0.1870  2.4672  3.6081
  850MPD2     C12535   4.354   2.527  14.627  0.2788  0.1908 -0.0212
  850MPD2    C112536   4.352   2.581  14.749  0.2519 -1.4330 -0.3536
  850MPD2    C212537   4.478   2.582  14.815 -0.6339  0.8231  0.2745
  850MPD2    C312538   4.594   2.523  14.752  0.1229  0.2748  0.1778
  850MPD2    C412539   4.584   2.478  14.628 -1.3871 -0.0121 -1.6582
  850MPD2    C512540   4.463   2.487  14.564  0.1890 -0.1191  0.3431
  850MPD2     H12541   4.485   2.638  14.907  1.6286  0.6485  0.2208
  850MPD2    H112542   4.660   2.417  14.580 -0.4921 -0.7775  0.7421
  850MPD2    H212543   4.262   2.516  14.570 -0.1727  0.9440  0.5514
  850MPD2    H312544   4.450   2.463  14.459  1.7146  0.1761  0.0767
  850MPD2     N12545   4.716   2.511  14.816  0.0186  0.3686 -0.3912
  850MPD2    H512546   0.053   2.450  14.781  0.5357  1.2931 -0.8902
  850MPD2    N112547   4.221   2.632  14.788  0.1409 -0.0121  0.7027
  850MPD2    H712548   4.150   2.633  14.715  1.2669  0.4709 -0.3799
  851MPD2     C12549   0.008   2.484  15.472  0.2367  0.4185  0.1664
  851MPD2    C112550   4.642   2.449  15.391 -0.2221 -0.3673 -0.5525
  851MPD2    C212551   4.614   2.318  15.366 -0.5406  0.6883  0.3285
  851MPD2    C312552   4.704   2.223  15.411 -0.3688 -0.5352 -0.0627
  851MPD2    C412553   0.079   2.259  15.473 -0.3434 -0.1872  0.5910
  851MPD2    C512554   0.099   2.391  15.511 -0.2033 -0.0762  0.4059
  851MPD2     H12555   4.539   2.274  15.301 -1.0402  2.5547 -0.3724
  851MPD2    H112556   0.158   2.193  15.505 -0.4459 -0.0481  1.1281
  851MPD2    H212557   0.023   2.590  15.484  1.0578  0.2403  0.7023
  851MPD2    H312558   0.179   2.430  15.573 -0.2727 -1.9240  1.6722
  851MPD2     N12559   4.674   2.094  15.366  0.3867  0.5998  0.3354
  851MPD2    H512560   4.591   2.081  15.310 -0.2679 -0.0921  1.4750
  851MPD2    N112561   4.577   2.549  15.317 -0.2064  0.1688 -0.2027
  851MPD2    H712562   4.599   2.647  15.332 -0.5372  0.2704 -0.3917
  852MPD2     C12563   4.266   1.028  10.552 -0.0395  0.6608 -0.3762
  852MPD2    C112564   4.262   0.916  10.630 -0.8998 -0.1245 -0.0240
  852MPD2    C212565   4.380   0.869  10.684  0.1597  0.5519 -0.5682
  852MPD2    C312566   4.500   0.933  10.659  0.7155 -0.4333  0.1743
  852MPD2    C412567   4.506   1.033  10.563 -0.2168 -0.5356  0.0591
  852MPD2    C512568   4.383   1.084  10.522  0.1743 -0.4050  0.4548
  852MPD2     H12569   4.377   0.785  10.752 -0.0574  1.2315  0.2555
  852MPD2    H112570   4.597   1.085  10.539 -0.5769 -0.1461 -0.4543
  852MPD2    H212571   4.184   1.080  10.504  0.4498  1.9792  0.2209
  852MPD2    H312572   4.378   1.177  10.467 -0.0636 -0.7573 -0.1204
  852MPD2     N12573   4.619   0.873  10.710 -0.7736  0.6652 -0.2112
  852MPD2    H512574   4.605   0.794  10.773  0.1914  0.9374  0.3489
  852MPD2    N112575   4.145   0.841  10.670  0.0993  0.1959  0.3858
  852MPD2    H712576   4.155   0.747  10.705 -0.9666 -0.5276 -1.2206
  853MPD2     C12577   1.497   4.639  12.378 -0.1905  0.3977  0.3380
  853MPD2    C112578   1.366   4.637  12.344  0.1881  0.8499  0.4875
  853MPD2    C212579   1.322   4.588  12.223 -0.1471 -0.0239  0.0452
  853MPD2    C312580   1.418   4.520  12.149 -0.4692  0.1426  0.4634
  853MPD2    C412581   1.549   4.516  12.190 -0.1570 -0.6217 -0.0143
  853MPD2    C512582   1.589   4.585  12.300 -0.1192  0.5536  0.4641
  853MPD2     H12583   1.217   4.594  12.197 -0.9958 -1.0217  3.2155
  853MPD2    H112584   1.631   4.465  12.141 -0.1566 -0.7083  0.0761
  853MPD2    H212585   1.522   4.672  12.478 -1.2557 -2.2429  1.4755
  853MPD2    H312586   1.690   4.563  12.335 -0.7293 -2.1898  0.4659
  853MPD2     N12587   1.400   4.456  12.023  0.5408 -0.4104  0.5069
  853MPD2    H512588   1.482   4.406  11.989 -0.0688 -0.0768 -1.4464
  853MPD2    N112589   1.288   4.699  12.441 -0.1575 -0.5990  0.2597
  853MPD2    H712590   1.339   4.735  12.522  1.1931  1.6503 -1.5908
  854MPD2     C12591   2.745   0.170  13.019  0.5022  0.0718 -0.2316
  854MPD2    C112592   2.619   0.126  12.994 -0.3729  0.1659 -0.8716
  854MPD2    C212593   2.588   4.733  13.020 -0.2587 -0.5880 -0.0305
  854MPD2    C312594   2.671   4.649  13.089 -0.4041 -0.5429  0.8892
  854MPD2    C412595   2.789   4.701  13.141 -0.0712 -0.3383  0.7022
  854MPD2    C512596   2.820   0.097  13.110  0.1761  0.1159 -0.2183
  854MPD2     H12597   2.494   4.688  12.991 -1.7888  2.9018 -0.4768
  854MPD2    H112598   2.859   4.646  13.203  2.9363  2.6716 -0.0125
  854MPD2    H212599   2.779   0.269  12.994 -0.0459  0.6302  1.2750
  854MPD2    H312600   2.906   0.154  13.144 -0.5412 -0.0438  1.7966
  854MPD2     N12601   2.641   4.510  13.118 -0.0794 -0.5025 -0.3471
  854MPD2    H512602   2.701   4.459  13.183  0.7551 -1.6659 -2.0523
  854MPD2    N112603   2.536   0.222  12.941 -0.3495 -0.4535 -0.3367
  854MPD2    H712604   2.583   0.305  12.908 -2.4112  0.8142 -0.0904
  855MPD2     C12605   2.885   4.424  13.846  0.2431  0.1983 -0.2309
  855MPD2    C112606   2.954   4.323  13.781  0.2291  0.1489 -0.1736
  855MPD2    C212607   2.896   4.272  13.668  0.3021 -0.0783 -0.4181
  855MPD2    C312608   2.765   4.322  13.630 -0.6541 -0.0228 -0.8630
  855MPD2    C412609   2.701   4.420  13.696 -0.2097 -0.0220  0.2862
  855MPD2    C512610   2.762   4.467  13.805  0.6829  0.2675  0.5426
  855MPD2     H12611   2.940   4.198  13.602  0.2546 -1.1578  0.7611
  855MPD2    H112612   2.607   4.457  13.657  0.6889  0.7790 -1.1022
  855MPD2    H212613   2.922   4.474  13.935  1.7560  1.7295 -1.7204
  855MPD2    H312614   2.715   4.540  13.869  0.5396  0.6829 -0.0415
  855MPD2     N12615   2.702   4.288  13.507  0.5381 -0.1772 -0.1028
  855MPD2    H512616   2.611   4.329  13.486  1.5923  1.7515 -0.8162
  855MPD2    N112617   3.086   4.293  13.819  0.2414  0.0783 -0.9110
  855MPD2    H712618   3.136   4.352  13.885 -0.0535 -0.9614  0.2461
  856MPD2     C12619   0.827   0.557  14.202 -0.6629  0.0777  0.3610
  856MPD2    C112620   0.798   0.669  14.266  0.1610 -0.4660  0.4340
  856MPD2    C212621   0.681   0.737  14.237 -0.4194  0.8751 -0.3028
  856MPD2    C312622   0.592   0.700  14.136  0.8045  0.5836  0.5779
  856MPD2    C412623   0.617   0.578  14.081 -0.2813  0.1181 -0.5357
  856MPD2    C512624   0.737   0.507  14.114 -0.6326  0.3711 -0.2456
  856MPD2     H12625   0.651   0.816  14.306  0.6999 -0.0947  1.2896
  856MPD2    H112626   0.548   0.540  14.006 -0.3627  0.6215 -0.7180
  856MPD2    H212627   0.918   0.505  14.230 -0.7873 -1.2981 -1.7760
  856MPD2    H312628   0.760   0.410  14.073 -0.3232  0.8510 -1.1808
  856MPD2     N12629   0.501   0.781  14.073 -0.1668 -0.1051 -0.0753
  856MPD2    H512630   0.444   0.747  13.996 -0.3812  1.1811 -0.4744
  856MPD2    N112631   0.876   0.725  14.366 -0.0256 -0.1527  0.0593
  856MPD2    H712632   0.844   0.812  14.408  2.0663  0.1175  1.1144
  857MPD2     C12633   2.659   2.854  13.438 -0.3451  0.8913  0.1107
  857MPD2    C112634   2.591   2.905  13.321 -0.1868  0.4207 -0.5748
  857MPD2    C212635   2.558   3.042  13.320 -0.1786 -0.2554 -0.4077
  857MPD2    C312636   2.616   3.128  13.413 -0.9555 -0.7820  0.2905
  857MPD2    C412637   2.689   3.076  13.514 -0.1495 -0.1692  0.0686
  857MPD2    C512638   2.719   2.943  13.521  0.1821 -0.4901 -0.0589
  857MPD2     H12639   2.493   3.080  13.242  1.9212  2.2437 -0.9046
  857MPD2    H112640   2.726   3.140  13.593 -0.4086  2.7316 -2.1737
  857MPD2    H212641   2.651   2.747  13.455 -0.1194  1.3204  2.9035
  857MPD2    H312642   2.768   2.909  13.611 -0.3276 -1.2349 -0.0637
  857MPD2     N12643   2.577   3.272  13.412 -0.6043  0.3203  0.1029
  857MPD2    H512644   2.550   3.311  13.322  1.0859 -0.7800 -0.8653
  857MPD2    N112645   2.539   2.808  13.235 -0.1710 -0.0699  0.0876
  857MPD2    H712646   2.559   2.713  13.265  0.7712  0.1939  0.2886
  858MPD2     C12647   2.808   2.395  16.733  0.5079 -0.2030  0.1740
  858MPD2    C112648   2.943   2.365  16.751  0.3595  0.3126  0.2331
  858MPD2    C212649   3.018   2.398  16.862 -0.1089  0.0890  0.3641
  858MPD2    C312650   2.955   2.462  16.969 -0.2118 -0.1936  0.3371
  858MPD2    C412651   2.817   2.493  16.955 -0.3353 -0.1140 -0.8480
  858MPD2    C512652   2.749   2.458  16.838  0.2322  0.0692 -0.0305
  858MPD2     H12653   3.124   2.379  16.865 -0.4807 -1.7463  1.7229
  858MPD2    H112654   2.770   2.553  17.032 -2.6307 -0.8205 -1.7067
  858MPD2    H212655   2.762   2.385  16.636  1.1312  0.5405 -0.2009
  858MPD2    H312656   2.644   2.477  16.819  0.6074  1.7436 -0.4829
  858MPD2     N12657   3.025   2.495  17.093 -0.2471  0.8415 -0.8965
  858MPD2    H512658   2.977   2.549  17.164 -0.5814  0.1639 -0.6067
  858MPD2    N112659   3.003   2.289  16.640 -0.2582 -0.1536 -0.1795
  858MPD2    H712660   2.935   2.273  16.567 -1.3905  1.8105  0.4326
  859MPD2     C12661   1.186   4.153  15.270 -0.0807 -0.4136 -0.2723
  859MPD2    C112662   1.298   4.129  15.200 -0.2272 -0.7870 -0.1677
  859MPD2    C212663   1.341   4.003  15.175  0.0664 -0.5858  0.3564
  859MPD2    C312664   1.268   3.897  15.220  0.5623 -0.7365 -0.4704
  859MPD2    C412665   1.158   3.921  15.298  0.1332  0.1198  0.3394
  859MPD2    C512666   1.115   4.050  15.323 -0.8487 -0.2886 -0.5959
  859MPD2     H12667   1.434   3.985  15.123 -0.0677  2.3525 -0.9298
  859MPD2    H112668   1.086   3.846  15.326 -0.1687  0.7785  1.3141
  859MPD2    H212669   1.157   4.254  15.298 -0.4600 -0.1503 -1.6374
  859MPD2    H312670   1.015   4.064  15.363 -0.5162  0.6078 -0.0685
  859MPD2     N12671   1.297   3.758  15.193 -0.9596  0.1141  0.0211
  859MPD2    H512672   1.226   3.693  15.225 -1.4090  0.3152 -0.5554
  859MPD2    N112673   1.356   4.246  15.139 -0.2747  0.0885  0.6953
  859MPD2    H712674   1.301   4.331  15.151 -1.3478  0.0379 -3.9999
  860MPD2     C12675   3.709   4.227  11.843  0.1817  0.3360 -0.3744
  860MPD2    C112676   3.707   4.223  11.986  0.6615 -0.7393 -0.4700
  860MPD2    C212677   3.590   4.250  12.053  0.2986  0.6099 -0.9395
  860MPD2    C312678   3.478   4.273  11.980 -0.6043  0.1141 -0.4871
  860MPD2    C412679   3.480   4.288  11.845  0.1323  1.0844 -0.5326
  860MPD2    C512680   3.596   4.265  11.780  0.3705  0.4269 -0.4586
  860MPD2     H12681   3.591   4.250  12.161  2.8853 -2.6683 -0.9526
  860MPD2    H112682   3.394   4.316  11.785  1.6256  0.5739 -2.9088
  860MPD2    H212683   3.799   4.198  11.789  0.4878 -0.3114  0.4810
  860MPD2    H312684   3.581   4.265  11.673 -1.4799  1.9848 -0.1889
  860MPD2     N12685   3.354   4.287  12.054  0.2945  0.4064  0.7883
  860MPD2    H512686   3.351   4.240  12.144  0.6972 -1.7187 -0.3044
  860MPD2    N112687   3.830   4.202  12.064 -0.1795  0.2111  0.2963
  860MPD2    H712688   3.816   4.188  12.163  1.0476 -0.0378  0.4335
  861MPD2     C12689   2.568   2.643  11.099  1.2325  0.2541  0.5066
  861MPD2    C112690   2.644   2.748  11.133 -0.1684  0.0680 -0.2470
  861MPD2    C212691   2.655   2.867  11.063  0.2871 -0.1360 -0.2873
  861MPD2    C312692   2.576   2.884  10.950  0.0432 -0.5480  0.4845
  861MPD2    C412693   2.510   2.775  10.908  0.3206 -1.4256 -1.1856
  861MPD2    C512694   2.493   2.659  10.980 -0.2287  1.1490 -0.6763
  861MPD2     H12695   2.718   2.947  11.099  1.0831 -0.4731 -0.9329
  861MPD2    H112696   2.439   2.783  10.827 -1.5834 -0.5642  0.5726
  861MPD2    H212697   2.554   2.557  11.163 -2.0991 -1.0051 -1.9211
  861MPD2    H312698   2.426   2.579  10.950  0.6767  1.5106 -3.6943
  861MPD2     N12699   2.564   3.009  10.881 -0.1057 -0.1293 -0.7920
  861MPD2    H512700   2.509   3.009  10.796  0.4020 -0.1267 -1.1151
  861MPD2    N112701   2.722   2.744  11.252  0.3733  0.7634  0.5390
  861MPD2    H712702   2.761   2.833  11.281 -2.4652  1.9359  0.8289
  862MPD2     C12703   2.419   3.455  10.294  0.5423 -0.2804 -0.0242
  862MPD2    C112704   2.433   3.350  10.378  0.1235 -0.1572  0.7120
  862MPD2    C212705   2.386   3.229  10.338  0.3634 -0.2487 -0.0370
  862MPD2    C312706   2.345   3.207  10.209 -0.1502  0.0645  0.1985
  862MPD2    C412707   2.336   3.309  10.125  0.0964 -0.3651 -0.3185
  862MPD2    C512708   2.366   3.436  10.173  0.4541  0.2667 -0.9539
  862MPD2     H12709   2.396   3.147  10.408  0.4188 -0.1613  0.0579
  862MPD2    H112710   2.292   3.291  10.027  1.0049  1.9646 -1.1396
  862MPD2    H212711   2.439   3.558  10.324 -3.6887  0.7489 -0.8008
  862MPD2    H312712   2.344   3.519  10.107 -3.0095 -0.0804 -0.2204
  862MPD2     N12713   2.318   3.078  10.159  0.0398 -0.3427  0.2142
  862MPD2    H512714   2.302   3.075  10.058 -2.3667 -0.7909  0.6031
  862MPD2    N112715   2.494   3.356  10.507  0.2685  0.6373  0.3333
  862MPD2    H712716   2.501   3.271  10.563 -1.6950 -1.8571 -3.1537
  863MPD2     C12717   1.484   1.744  16.652  0.3204 -0.0648  0.2238
  863MPD2    C112718   1.419   1.624  16.665 -0.6166  0.8214 -0.2253
  863MPD2    C212719   1.491   1.511  16.701 -0.0901  0.2809 -0.0406
  863MPD2    C312720   1.625   1.519  16.738  0.0461  0.7122  0.1467
  863MPD2    C412721   1.695   1.644  16.735 -0.1836 -0.2923 -0.1779
  863MPD2    C512722   1.621   1.756  16.682 -0.7823  0.3463  0.5225
  863MPD2     H12723   1.436   1.417  16.698 -1.0541  0.7913  1.8104
  863MPD2    H112724   1.795   1.651  16.777 -0.9186  2.6085  1.0623
  863MPD2    H212725   1.421   1.828  16.625 -0.6706 -0.7601  0.3496
  863MPD2    H312726   1.670   1.852  16.685 -0.6243  0.2682  0.4338
  863MPD2     N12727   1.698   1.399  16.784 -0.4462  0.0849 -0.2874
  863MPD2    H512728   1.793   1.413  16.818 -0.4797 -0.2585 -0.0506
  863MPD2    N112729   1.280   1.626  16.625  0.0478 -0.1517  1.0734
  863MPD2    H712730   1.239   1.715  16.599  0.7726 -0.2683 -0.4669
  864MPD2     C12731   1.978   2.112  17.507  0.1290  0.5938  0.2349
  864MPD2    C112732   2.063   2.083  17.401  0.0783 -0.4292  0.8030
  864MPD2    C212733   2.102   2.183  17.319  0.3591  0.4187  0.4293
  864MPD2    C312734   2.080   2.315  17.353  0.3318  0.7934 -0.1191
  864MPD2    C412735   2.003   2.345  17.469  0.0120 -0.5517  0.2328
  864MPD2    C512736   1.956   2.239  17.548 -0.2085 -0.1076  0.7383
  864MPD2     H12737   2.127   2.162  17.215 -0.5444 -1.1701  0.5261
  864MPD2    H112738   2.006   2.447  17.505  2.8573 -0.6700  0.2856
  864MPD2    H212739   1.925   2.029  17.554  0.0000 -0.5465 -1.9309
  864MPD2    H312740   1.901   2.269  17.637  2.1017  0.8600  1.8412
  864MPD2     N12741   2.114   2.425  17.268 -0.2338  0.0303 -0.3137
  864MPD2    H512742   2.075   2.516  17.292 -2.2522 -1.6851  3.0392
  864MPD2    N112743   2.073   1.944  17.376  0.6954 -1.1432 -0.3291
  864MPD2    H712744   2.018   1.884  17.437 -0.9776  1.4833  0.7351
  865MPD2     C12745   1.953   2.862  16.465 -0.2024  0.1050 -0.4019
  865MPD2    C112746   2.004   2.751  16.535 -0.3142  0.2944  0.2399
  865MPD2    C212747   1.997   2.746  16.674 -0.4666  0.6356 -0.0440
  865MPD2    C312748   1.945   2.855  16.736  0.6939  0.2780 -0.4759
  865MPD2    C412749   1.895   2.967  16.670 -0.6054  0.2123  0.6210
  865MPD2    C512750   1.889   2.960  16.533 -0.6270 -0.1641  0.5320
  865MPD2     H12751   2.033   2.659  16.728  0.3454  0.4473 -0.8919
  865MPD2    H112752   1.853   3.054  16.719 -1.0619 -0.1434  0.8671
  865MPD2    H212753   1.948   2.867  16.357 -0.9879 -0.8188 -0.4090
  865MPD2    H312754   1.852   3.047  16.481 -2.1671 -1.4736 -0.5612
  865MPD2     N12755   1.932   2.872  16.878 -0.0385  0.0288  0.0499
  865MPD2    H512756   1.884   2.958  16.901  2.2067  0.5099  2.9186
  865MPD2    N112757   2.053   2.644  16.456  0.3986 -0.0661  0.4128
  865MPD2    H712758   2.053   2.666  16.357  2.4721 -1.9738 -0.0047
  866MPD2     C12759   3.707   2.918  11.331  0.2530 -0.0932  0.7211
  866MPD2    C112760   3.680   2.954  11.202 -0.0360  0.3582 -0.0248
  866MPD2    C212761   3.555   3.002  11.168  0.1662  0.0379  0.3773
  866MPD2    C312762   3.457   3.025  11.266  0.0636 -0.4528  0.3874
  866MPD2    C412763   3.486   2.983  11.400  0.2524 -0.2110 -0.6814
  866MPD2    C512764   3.607   2.922  11.424 -0.6970 -0.1646 -0.1035
  866MPD2     H12765   3.537   3.046  11.071  3.7600  0.4554 -0.0688
  866MPD2    H112766   3.416   2.990  11.483  1.4221  1.4264  0.1631
  866MPD2    H212767   3.802   2.880  11.366 -0.0776 -1.6632 -0.0484
  866MPD2    H312768   3.637   2.914  11.528 -0.6760 -2.5043 -0.2921
  866MPD2     N12769   3.332   3.084  11.247  0.2935  0.9448 -0.1030
  866MPD2    H512770   3.269   3.088  11.327 -2.1691  3.0883 -2.1940
  866MPD2    N112771   3.776   2.925  11.107  0.4654 -0.5127 -0.9556
  866MPD2    H712772   3.861   2.879  11.136 -0.1772 -1.4379 -0.5280
  867MPD2     C12773   0.815   2.425  16.469 -0.1076  0.4362  0.1389
  867MPD2    C112774   0.918   2.452  16.560 -0.7411 -0.3379  0.4707
  867MPD2    C212775   0.893   2.527  16.673  0.6646 -0.1093  0.0178
  867MPD2    C312776   0.772   2.586  16.702 -0.0203  0.2264  0.7027
  867MPD2    C412777   0.675   2.549  16.621  0.4749  1.0616 -0.7731
  867MPD2    C512778   0.690   2.474  16.506 -0.2360 -0.0674  0.4882
  867MPD2     H12779   0.970   2.532  16.749  2.1240  1.2978 -1.5532
  867MPD2    H112780   0.571   2.571  16.642  0.2725 -0.2856 -0.4156
  867MPD2    H212781   0.834   2.350  16.394  2.4810  2.7149 -1.4622
  867MPD2    H312782   0.596   2.454  16.456  0.7255  1.5274 -1.9471
  867MPD2     N12783   0.751   2.643  16.828  0.4526  0.5456 -0.0885
  867MPD2    H512784   0.653   2.654  16.851  0.2941  1.0911 -1.0163
  867MPD2    N112785   1.038   2.377  16.538 -1.1708 -0.2178 -0.0769
  867MPD2    H712786   1.038   2.313  16.460 -0.7322  1.4165 -1.4276
  868MPD2     C12787   2.092   1.809  12.915 -0.0317  0.0745  0.4405
  868MPD2    C112788   2.170   1.762  13.013  0.0584 -0.1287 -0.0635
  868MPD2    C212789   2.133   1.771  13.146 -0.0319  0.3384 -0.3616
  868MPD2    C312790   2.010   1.809  13.182 -0.5541  0.9384 -0.1625
  868MPD2    C412791   1.917   1.840  13.077 -0.2166 -0.1354 -0.3370
  868MPD2    C512792   1.968   1.857  12.948  0.1173  0.0062  0.2852
  868MPD2     H12793   2.191   1.715  13.218 -0.4758 -0.8961 -0.9578
  868MPD2    H112794   1.814   1.869  13.098  0.0991 -0.1557  1.2550
  868MPD2    H212795   2.113   1.815  12.809 -0.4205 -2.0608  0.2521
  868MPD2    H312796   1.901   1.894  12.872  1.3773  0.2194 -0.7256
  868MPD2     N12797   1.966   1.794  13.311  0.0933 -0.2465 -0.0062
  868MPD2    H512798   2.030   1.752  13.378  0.2033  1.5089  0.9834
  868MPD2    N112799   2.297   1.716  12.972  0.2876  0.0932 -0.1590
  868MPD2    H712800   2.321   1.730  12.874 -1.3189 -0.0730 -0.5714
  869MPD2     C12801   2.699   4.596   1.170 -0.5060 -0.3176 -0.3978
  869MPD2    C112802   2.740   4.707   1.243  0.3032 -0.4797 -0.5767
  869MPD2    C212803   2.870   0.015   1.228  0.4095 -0.5322  0.2421
  869MPD2    C312804   2.951   4.702   1.128  0.0579  0.0260 -0.1002
  869MPD2    C412805   2.910   4.590   1.066 -0.3834  0.3610 -0.0340
  869MPD2    C512806   2.782   4.543   1.077  0.1801  0.0012  0.0278
  869MPD2     H12807   2.892   0.112   1.271  0.1433 -0.6831  0.7211
  869MPD2    H112808   2.980   4.525   1.014 -3.0189 -2.6033  0.1638
  869MPD2    H212809   2.596   4.563   1.176 -0.6520  0.3793  0.9071
  869MPD2    H312810   2.762   4.455   1.017 -0.5031  0.6074 -0.6277
  869MPD2     N12811   3.074   0.022   1.091  0.2398 -0.5384 -0.1123
  869MPD2    H512812   3.120   4.724   1.007  0.5863  2.1417 -0.9894
  869MPD2    N112813   2.651   0.029   1.334 -0.3230  0.0033  0.1506
  869MPD2    H712814   2.554   0.001   1.330  0.0117 -1.3260  1.0641
  870MPD2     C12815   1.806   3.344   1.033 -0.1449 -0.3200  1.1644
  870MPD2    C112816   1.916   3.420   1.068 -0.2595 -0.6364  0.0637
  870MPD2    C212817   1.970   3.492   0.960 -0.6510  0.4052  0.4339
  870MPD2    C312818   1.937   3.461   0.831  0.5679 -0.0697 -0.0069
  870MPD2    C412819   1.825   3.381   0.811 -0.5196 -0.2235  0.2058
  870MPD2    C512820   1.752   3.326   0.912 -0.0691  0.3405  0.0759
  870MPD2     H12821   2.060   3.550   0.972  0.2792 -0.9346  0.0391
  870MPD2    H112822   1.784   3.371   0.711 -0.6163 -1.3119  0.3568
  870MPD2    H212823   1.761   3.288   1.115  2.4688 -1.5110  1.8065
  870MPD2    H312824   1.665   3.266   0.887  0.8474 -1.1656  0.5344
  870MPD2     N12825   2.010   3.517   0.727 -0.3897  0.0423  0.4656
  870MPD2    H512826   2.073   3.593   0.749 -0.2401  0.5071 -1.5549
  870MPD2    N112827   1.958   3.418   1.200  0.2569 -0.2574 -0.5667
  870MPD2    H712828   1.945   3.328   1.245 -1.1672  0.0421 -0.3898
  871MPD2     C12829   4.627   2.630  16.353  0.0325  0.3462  0.1638
  871MPD2    C112830   4.541   2.607  16.458  0.4524  0.1523  0.6539
  871MPD2    C212831   4.505   2.470  16.476  0.4103 -0.0001 -0.1699
  871MPD2    C312832   4.570   2.372  16.407 -0.0340  0.6303  0.0684
  871MPD2    C412833   4.657   2.399  16.308 -0.4041  0.3189 -0.0703
  871MPD2    C512834   4.683   2.531  16.275 -0.2456 -0.8032 -0.1099
  871MPD2     H12835   4.440   2.437  16.557  1.7427  4.3846  2.6772
  871MPD2    H112836   4.700   2.320  16.247 -2.4426 -0.2748 -0.7207
  871MPD2    H212837   4.665   2.731  16.338  0.8945  0.4720  3.1405
  871MPD2    H312838   0.009   2.551  16.189 -1.6880 -1.7842 -1.3946
  871MPD2     N12839   4.544   2.243  16.438 -0.6661 -0.4692 -0.1114
  871MPD2    H512840   4.460   2.223  16.490 -2.3441 -1.0947 -3.0980
  871MPD2    N112841   4.512   2.718  16.540 -0.0707 -0.0263 -0.5838
  871MPD2    H712842   4.547   2.811  16.520  1.9003 -1.1763 -2.3762
  872MPD2     C12843   0.142   0.499  13.455 -0.5797 -0.2096  0.1999
  872MPD2    C112844   0.187   0.554  13.567 -0.0310 -0.4782 -0.9700
  872MPD2    C212845   0.091   0.581  13.664 -0.5652 -0.3240  0.0368
  872MPD2    C312846   4.689   0.546  13.655 -0.8866 -0.1760 -0.1265
  872MPD2    C412847   4.649   0.482  13.541 -0.2841 -0.2059 -0.2764
  872MPD2    C512848   0.011   0.462  13.448  0.3907  0.3980 -0.4505
  872MPD2     H12849   0.129   0.629  13.754 -0.6541 -0.4492  0.1399
  872MPD2    H112850   4.546   0.467  13.511 -0.5024 -0.3908  0.5744
  872MPD2    H212851   0.198   0.477  13.364 -0.1918  0.5075  0.2703
  872MPD2    H312852   4.713   0.436  13.349 -1.1670 -1.1354  0.4687
  872MPD2     N12853   4.587   0.567  13.749 -0.1263 -0.3833 -0.3541
  872MPD2    H512854   4.499   0.519  13.733 -0.5511  0.6721 -1.1839
  872MPD2    N112855   0.319   0.586  13.592 -0.3957  0.1890  0.2281
  872MPD2    H712856   0.326   0.645  13.674  2.2709 -1.3867  1.1434
  873MPD2     C12857   1.931   0.225   0.785 -0.4807 -0.3747 -0.2694
  873MPD2    C112858   1.797   0.206   0.814  0.0158 -0.3324  0.0487
  873MPD2    C212859   1.721   0.119   0.733  0.1613 -0.2270  0.0202
  873MPD2    C312860   1.778   0.056   0.627  0.0777 -0.2978  0.3892
  873MPD2    C412861   1.909   0.090   0.599 -0.4388  0.4635 -0.5221
  873MPD2    C512862   1.981   0.170   0.670 -0.0707  0.4583 -0.4764
  873MPD2     H12863   1.617   0.106   0.759  0.0927  1.8634  0.7933
  873MPD2    H112864   1.955   0.060   0.505 -0.1700 -2.6230  0.5995
  873MPD2    H212865   1.988   0.282   0.857 -0.0491 -0.0516 -0.8762
  873MPD2    H312866   2.081   0.191   0.635  0.7841  0.2233  1.8063
  873MPD2     N12867   1.710   4.693   0.553 -0.3524  0.6722 -0.0451
  873MPD2    H512868   1.753   4.652   0.471 -2.9403  0.3646 -1.2316
  873MPD2    N112869   1.754   0.265   0.935 -0.1900  0.7381  0.1887
  873MPD2    H712870   1.824   0.315   0.989  1.3988 -2.3267  0.9548
  874MPD2     C12871   1.882   0.397  15.418  0.5179 -0.0436 -0.5093
  874MPD2    C112872   1.900   0.372  15.551 -0.0430  0.7314  0.2095
  874MPD2    C212873   2.027   0.391  15.602  0.1010  0.0129  0.3790
  874MPD2    C312874   2.130   0.430  15.525  0.1222  0.2932  1.0468
  874MPD2    C412875   2.107   0.450  15.386  0.7844  0.2259 -0.5518
  874MPD2    C512876   1.986   0.415  15.330 -0.2778 -0.0703  0.6023
  874MPD2     H12877   2.033   0.385  15.710  1.4622 -1.6445  0.2155
  874MPD2    H112878   2.193   0.471  15.324  0.9419 -0.0849 -0.4414
  874MPD2    H212879   1.788   0.382  15.367 -1.0851  0.3817  2.3624
  874MPD2    H312880   1.961   0.432  15.226 -0.3578 -3.2526  0.0930
  874MPD2     N12881   2.240   0.475  15.589 -0.3296 -0.2710 -0.3353
  874MPD2    H512882   2.225   0.496  15.687 -1.7809  1.6737 -0.9835
  874MPD2    N112883   1.794   0.321  15.626  0.3114 -0.0536  0.2749
  874MPD2    H712884   1.710   0.285  15.582 -1.1820  2.0929  1.3594
  875MPD2     C12885   2.895   3.379  14.451 -0.2997  0.1381  0.6259
  875MPD2    C112886   2.775   3.450  14.477  0.2408 -0.3288 -1.0652
  875MPD2    C212887   2.755   3.529  14.590 -0.0062  0.0189 -0.4346
  875MPD2    C312888   2.844   3.531  14.691  0.2309  0.4470 -0.2911
  875MPD2    C412889   2.952   3.451  14.666  0.2469 -0.0959  0.3402
  875MPD2    C512890   2.984   3.387  14.546 -0.3378  0.7718  0.6944
  875MPD2     H12891   2.664   3.583  14.609  0.2379 -0.5506  2.3582
  875MPD2    H112892   3.033   3.454  14.738 -1.3124 -0.8336  2.1376
  875MPD2    H212893   2.918   3.319  14.363  0.1678  0.8291  0.2716
  875MPD2    H312894   3.070   3.321  14.543 -0.2204  0.9645 -0.3008
  875MPD2     N12895   2.839   3.615  14.804 -0.1937  0.0125 -0.6203
  875MPD2    H512896   2.897   3.605  14.887 -0.5262  0.6942 -0.3016
  875MPD2    N112897   2.669   3.455  14.380 -0.3611  0.4036 -0.2853
  875MPD2    H712898   2.580   3.500  14.400  0.0342  1.2060 -0.3351
  876MPD2     C12899   1.452   4.260  15.451  0.2146 -0.4664 -0.4681
  876MPD2    C112900   1.594   4.276  15.482  0.0577  0.3704 -0.5414
  876MPD2    C212901   1.662   4.196  15.563  0.1176  0.1386  1.1981
  876MPD2    C312902   1.592   4.098  15.630  0.5348  0.1292  0.8943
  876MPD2    C412903   1.454   4.088  15.612 -0.5278  0.5778  0.7875
  876MPD2    C512904   1.390   4.164  15.523  0.6632  0.8406  0.2239
  876MPD2     H12905   1.769   4.208  15.573  0.4737  0.7328 -3.1910
  876MPD2    H112906   1.389   4.015  15.657 -1.2431  0.5359 -0.3211
  876MPD2    H212907   1.401   4.337  15.394  0.0456  1.2700  2.0271
  876MPD2    H312908   1.287   4.143  15.497 -0.2287  4.0277  1.1827
  876MPD2     N12909   1.665   4.015  15.719  0.6328 -0.5152 -0.6633
  876MPD2    H512910   1.763   4.033  15.738  0.0573 -0.4715  2.3388
  876MPD2    N112911   1.654   4.385  15.413 -0.6483  0.6342 -0.3109
  876MPD2    H712912   1.597   4.441  15.351 -1.1671 -0.8093 -1.1344
  877MPD2     C12913   1.464   0.224  14.951  0.4451  0.2505 -0.2156
  877MPD2    C112914   1.598   0.235  14.974 -0.4359 -0.0481  0.3278
  877MPD2    C212915   1.674   0.324  14.897 -0.4011  0.2074 -0.5869
  877MPD2    C312916   1.606   0.407  14.807  0.2723  0.5083 -0.2285
  877MPD2    C412917   1.470   0.391  14.786  0.2317  0.6249  0.3614
  877MPD2    C512918   1.402   0.296  14.860  0.0450  0.1707  0.1940
  877MPD2     H12919   1.781   0.316  14.910 -0.7661  1.5226  3.1888
  877MPD2    H112920   1.423   0.449  14.707 -3.3058  0.1770  2.1123
  877MPD2    H212921   1.405   0.150  15.004  2.2035  0.0033  1.4017
  877MPD2    H312922   1.302   0.272  14.824  1.1051 -1.4808 -1.6937
  877MPD2     N12923   1.672   0.481  14.707  0.4361  0.2840 -0.1426
  877MPD2    H512924   1.613   0.510  14.629 -0.5851  3.8872  1.9745
  877MPD2    N112925   1.667   0.153  15.072  0.9137  0.5323 -0.7847
  877MPD2    H712926   1.768   0.162  15.081  0.8438 -0.0629  0.5722
  878MPD2     C12927   1.906   3.839  12.929  0.1203  0.5470 -0.5234
  878MPD2    C112928   1.889   3.929  13.026  0.3719  0.1701  0.0578
  878MPD2    C212929   1.916   3.901  13.161  0.2863  0.4008 -0.5633
  878MPD2    C312930   1.956   3.771  13.190  0.4342  0.9277 -0.5508
  878MPD2    C412931   1.962   3.677  13.088  0.0819 -0.1947 -0.1451
  878MPD2    C512932   1.938   3.712  12.957 -0.1296 -0.2012  0.5278
  878MPD2     H12933   1.916   3.967  13.247  0.2141 -1.7299  1.0802
  878MPD2    H112934   1.980   3.576  13.122  0.3149  0.5395  1.9201
  878MPD2    H212935   1.893   3.860  12.823  0.0812 -0.6194 -0.7573
  878MPD2    H312936   1.959   3.646  12.873  0.0443 -0.4892  0.7938
  878MPD2     N12937   1.982   3.739  13.331 -0.2104 -0.3857 -0.1775
  878MPD2    H512938   1.964   3.812  13.400 -1.0281  1.1713 -2.0402
  878MPD2    N112939   1.834   4.054  12.984 -0.3400 -0.3546 -0.2430
  878MPD2    H712940   1.790   4.057  12.893 -0.1472  2.5877 -0.2551
  879MPD2     C12941   2.348   0.931  16.837  0.4068  0.0523  0.2430
  879MPD2    C112942   2.272   0.921  16.953 -0.1478 -0.5890 -0.5137
  879MPD2    C212943   2.144   0.867  16.943 -0.1013 -0.1904  0.3289
  879MPD2    C312944   2.097   0.833  16.816  1.1186 -0.3733 -0.6098
  879MPD2    C412945   2.181   0.842  16.704  0.6807 -0.3361 -0.1208
  879MPD2    C512946   2.309   0.884  16.720 -0.5238  0.3912 -0.3001
  879MPD2     H12947   2.082   0.854  17.031  0.5124  2.0317  1.0763
  879MPD2    H112948   2.160   0.825  16.599  0.2536  1.0491 -0.2508
  879MPD2    H212949   2.446   0.977  16.833 -0.3477  1.7019  0.6239
  879MPD2    H312950   2.369   0.895  16.630  2.4067 -2.0464  1.3665
  879MPD2     N12951   1.963   0.800  16.792 -0.2889 -0.5862 -0.6387
  879MPD2    H512952   1.938   0.817  16.696  2.0409  1.1373 -0.9453
  879MPD2    N112953   2.333   0.964  17.067 -0.0969 -0.6901 -0.0957
  879MPD2    H712954   2.423   1.011  17.061  0.2642 -1.3217  0.2468
  880MPD2     C12955   3.437   2.779  17.625 -0.1182 -0.1835  0.0247
  880MPD2    C112956   3.370   2.856  17.712 -0.3301  0.0334  0.0477
  880MPD2    C212957   3.397   2.839   0.099  0.3469  0.0802  0.0213
  880MPD2    C312958   3.491   2.747   0.144 -0.2281  0.5193  0.1379
  880MPD2    C412959   3.564   2.666   0.055 -0.9148 -0.1801  0.2424
  880MPD2    C512960   3.537   2.691  17.665  0.3646  0.1717  0.5133
  880MPD2     H12961   3.349   2.897   0.177  2.2053  0.9510  0.5226
  880MPD2    H112962   3.648   2.604   0.080  0.5188  1.6447 -0.0527
  880MPD2    H212963   3.427   2.788  17.518  1.0688  2.8123  0.1555
  880MPD2    H312964   3.575   2.619  17.593 -3.6321  1.3610 -2.7674
  880MPD2     N12965   3.517   2.737   0.282 -0.5071 -0.5716  0.0094
  880MPD2    H512966   3.456   2.789   0.343 -0.4817  0.6396 -0.9779
  880MPD2    N112967   3.281   2.957  17.661  0.4592 -0.0785 -0.4285
  880MPD2    H712968   3.276   2.989  17.565  1.5842 -0.2617 -0.5446
  881MPD2     C12969   3.145   3.728  17.056  0.0680 -0.5023  0.3529
  881MPD2    C112970   3.202   3.603  17.057 -0.7770 -0.3572  0.1264
  881MPD2    C212971   3.177   3.518  17.158  0.3100  0.3427 -0.2416
  881MPD2    C312972   3.088   3.553  17.260 -0.5971 -0.0030 -0.1152
  881MPD2    C412973   3.018   3.674  17.243  1.1587  0.4336 -0.1964
  881MPD2    C512974   3.036   3.749  17.137  0.4876  0.3352 -0.2445
  881MPD2     H12975   3.232   3.425  17.163  0.0489  0.2515  0.9210
  881MPD2    H112976   2.944   3.719  17.308  2.4695  0.8899  0.9730
  881MPD2    H212977   3.155   3.787  16.966 -1.2952  0.2689  0.7101
  881MPD2    H312978   2.970   3.834  17.120  0.1264  0.2732  0.8163
  881MPD2     N12979   3.063   3.470  17.369  0.6966 -0.5099 -0.3951
  881MPD2    H512980   2.989   3.499  17.432 -0.0434 -2.2525 -0.4491
  881MPD2    N112981   3.319   3.577  16.982 -0.2670  0.1525 -0.2117
  881MPD2    H712982   3.348   3.480  16.993 -1.9056 -0.1452  1.4857
  882MPD2     C12983   1.695   0.228  14.026  0.5758  0.0672  0.2917
  882MPD2    C112984   1.632   0.330  14.089  0.3291  0.0289 -0.4743
  882MPD2    C212985   1.492   0.332  14.095 -0.9605  0.5824 -0.9827
  882MPD2    C312986   1.412   0.227  14.044 -0.0452 -0.1613  0.8682
  882MPD2    C412987   1.480   0.123  13.992  0.4047 -1.2284  0.1320
  882MPD2    C512988   1.615   0.128  13.976 -0.2097  0.4008 -0.7587
  882MPD2     H12989   1.441   0.405  14.156 -0.0754  0.8919 -0.6137
  882MPD2    H112990   1.436   0.030  13.959  0.5601 -0.3970 -2.4490
  882MPD2    H212991   1.803   0.225  14.018  0.4017 -0.8461 -1.6496
  882MPD2    H312992   1.665   0.041  13.934  0.9642  1.7824 -2.2192
  882MPD2     N12993   1.281   0.201  14.071 -0.0959  0.1263 -0.0206
  882MPD2    H512994   1.249   0.104  14.068  0.5568 -0.1392  1.6713
  882MPD2    N112995   1.708   0.421  14.159  0.1076 -0.4495 -0.2659
  882MPD2    H712996   1.807   0.400  14.155  0.0758 -0.3944 -1.1979
  883MPD2     C12997   3.759   0.754  16.412 -0.2602  0.3238 -0.3583
  883MPD2    C112998   3.816   0.694  16.301 -0.0188 -0.1993  0.6409
  883MPD2    C212999   3.954   0.686  16.291 -0.1225  0.0915 -0.4175
  883MPD2    C313000   4.037   0.736  16.392  0.4305  0.3698  0.7945
  883MPD2    C413001   3.981   0.797  16.501  0.5988  0.3871  0.1565
  883MPD2    C513002   3.843   0.802  16.515  0.9885 -0.4344 -0.4684
  883MPD2     H13003   4.001   0.638  16.206 -0.6499  1.7231 -1.6381
  883MPD2    H113004   4.036   0.836  16.586  1.7915 -0.9469 -0.0149
  883MPD2    H213005   3.651   0.760  16.419 -0.2098  0.7756  0.0157
  883MPD2    H313006   3.810   0.868  16.594  1.6963 -1.4779  0.7101
  883MPD2     N13007   4.177   0.739  16.369  0.3497 -0.4059 -0.1862
  883MPD2    H513008   4.213   0.677  16.298  1.1563 -0.2656  0.1034
  883MPD2    N113009   3.737   0.655  16.189  1.2413  0.3657  0.9035
  883MPD2    H713010   3.787   0.617  16.110  2.0964  0.9802  1.1469
  884MPD2     C13011   1.014   0.925  15.266 -0.4914  0.1105 -0.1427
  884MPD2    C113012   0.962   0.963  15.147  0.0261  0.1277  0.5685
  884MPD2    C213013   0.826   0.988  15.133  0.1384  0.3320  0.2167
  884MPD2    C313014   0.754   0.990  15.248 -0.6139 -0.5020 -0.1720
  884MPD2    C413015   0.805   0.938  15.364 -0.4736  0.7129  0.0721
  884MPD2    C513016   0.936   0.910  15.377 -0.0302 -0.4443  0.6535
  884MPD2     H13017   0.786   1.032  15.043  0.8490  1.1660  0.3034
  884MPD2    H113018   0.751   0.927  15.458  1.7966  1.5917  1.4899
  884MPD2    H213019   1.120   0.912  15.284 -0.2625  1.9795 -0.2063
  884MPD2    H313020   0.986   0.893  15.471 -0.4615 -0.6476  0.8442
  884MPD2     N13021   0.624   1.051  15.247  0.2079 -0.3957 -0.1379
  884MPD2    H513022   0.592   1.087  15.157 -0.4224 -0.8588 -0.1004
  884MPD2    N113023   1.039   0.987  15.032 -0.0636 -0.3348 -0.3071
  884MPD2    H713024   0.984   1.010  14.950 -0.8577 -2.8630 -0.4919
  885MPD2     C13025   3.844   1.122   0.335 -0.0009  0.2971 -0.8090
  885MPD2    C113026   3.979   1.156   0.304 -0.3116  1.0261  0.0529
  885MPD2    C213027   4.007   1.215   0.185 -0.2599 -1.0437  0.3113
  885MPD2    C313028   3.901   1.254   0.102  0.0277 -0.0354 -0.0146
  885MPD2    C413029   3.769   1.224   0.132  0.9200  0.4001  0.3499
  885MPD2    C513030   3.748   1.157   0.244 -0.3081 -0.5833 -0.7351
  885MPD2     H13031   4.110   1.244   0.169 -0.3410 -1.6321 -1.2405
  885MPD2    H113032   3.685   1.250   0.069 -0.6919 -2.3799  1.3546
  885MPD2    H213033   3.812   1.083   0.431  1.9351  2.8439  0.8779
  885MPD2    H313034   3.643   1.141   0.264  0.3926 -2.7537  1.3006
  885MPD2     N13035   3.933   1.319  17.723  0.1494 -0.0746 -0.1574
  885MPD2    H513036   4.032   1.333  17.710 -0.0798 -0.1925 -2.0604
  885MPD2    N113037   4.074   1.111   0.398  0.5553 -0.0654  0.3258
  885MPD2    H713038   4.028   1.058   0.471 -1.7561  0.9234 -0.4181
  886MPD2     C13039   0.535   4.390  15.179  0.3589  1.2298  0.5556
  886MPD2    C113040   0.594   4.464  15.277 -0.5712  0.1084  0.0202
  886MPD2    C213041   0.580   4.603  15.277 -0.1533  0.5860 -0.1062
  886MPD2    C313042   0.516   4.668  15.165 -0.6887  0.3055  0.1090
  886MPD2    C413043   0.471   4.589  15.060 -0.3188 -0.6353 -0.5442
  886MPD2    C513044   0.474   4.450  15.067 -0.7252 -1.3272 -0.2933
  886MPD2     H13045   0.624   4.657  15.360 -0.1771  1.9578 -0.9849
  886MPD2    H113046   0.422   4.630  14.972 -0.4791  2.3703  0.9654
  886MPD2    H213047   0.537   4.282  15.169  1.3104  1.3241 -0.2832
  886MPD2    H313048   0.429   4.405  14.979 -1.7625 -0.7773 -0.0454
  886MPD2     N13049   0.509   0.075  15.143  0.3906  0.6406  0.3416
  886MPD2    H513050   0.468   0.100  15.053 -0.5243 -1.1856  0.2355
  886MPD2    N113051   0.661   4.400  15.386  0.6812  0.5698  0.4123
  886MPD2    H713052   0.701   4.459  15.458  1.6051  0.8458 -0.3248
  887MPD2     C13053   1.344   4.501  15.647 -0.0252  0.0785 -0.1280
  887MPD2    C113054   1.224   4.542  15.593 -0.0499 -0.2517 -0.1448
  887MPD2    C213055   1.219   4.668  15.525 -0.0006 -0.4633  0.4882
  887MPD2    C313056   1.333   0.017  15.529  0.3849 -0.2578 -0.4058
  887MPD2    C413057   1.448   4.711  15.596  0.7310 -0.4733  0.0750
  887MPD2    C513058   1.451   4.589  15.655 -0.0578 -0.5554 -0.4621
  887MPD2     H13059   1.128   4.702  15.476  0.2253 -0.2505  0.2134
  887MPD2    H113060   1.539   0.035  15.599  1.5588 -1.7032 -0.5744
  887MPD2    H213061   1.353   4.404  15.695  1.1201 -0.5144 -1.5156
  887MPD2    H313062   1.534   4.545  15.709  0.4177  0.6764 -0.1913
  887MPD2     N13063   1.324   0.140  15.459 -0.2237  0.6082  0.6780
  887MPD2    H513064   1.234   0.167  15.419 -0.2798 -2.4860 -1.2682
  887MPD2    N113065   1.112   4.464  15.582 -0.2628 -1.0659 -0.0221
  887MPD2    H713066   1.034   4.511  15.538 -0.2631  0.6026  1.7567
  888MPD2     C13067   2.683   4.606  15.041  0.8609 -0.1875  0.0887
  888MPD2    C113068   2.710   4.674  15.153  0.5714  0.2228  0.7439
  888MPD2    C213069   2.767   0.066  15.152  0.9628  0.5635  0.4191
  888MPD2    C313070   2.795   0.131  15.034  0.2889 -0.1324 -0.8529
  888MPD2    C413071   2.766   0.067  14.915  0.3360  0.6733 -0.7736
  888MPD2    C513072   2.715   4.669  14.923 -0.0603  0.5863  0.1136
  888MPD2     H13073   2.770   0.130  15.240  2.1513 -1.0693  1.5491
  888MPD2    H113074   2.780   0.116  14.819  0.6358  0.6341 -0.7492
  888MPD2    H213075   2.612   4.523  15.034 -1.3239  1.5428  1.7222
  888MPD2    H313076   2.695   4.614  14.831  1.7566 -0.6968  0.4869
  888MPD2     N13077   2.838   0.262  15.047 -0.1818  0.5921 -0.7847
  888MPD2    H513078   2.862   0.300  15.138 -2.3610 -1.0205  0.4796
  888MPD2    N113079   2.668   4.609  15.271 -0.1180  0.2091 -0.4458
  888MPD2    H713080   2.624   4.519  15.259 -0.2210  0.2816 -0.6210
  889MPD2     C13081   2.314   3.846  12.993  0.7565 -0.0037  0.3367
  889MPD2    C113082   2.312   3.899  13.115 -0.3049  0.0107  0.5077
  889MPD2    C213083   2.282   4.038  13.115 -0.2921  0.9257 -0.0835
  889MPD2    C313084   2.227   4.105  13.010  0.1139  0.4604 -1.2125
  889MPD2    C413085   2.212   4.035  12.892 -0.1929 -1.1915 -0.0909
  889MPD2    C513086   2.257   3.905  12.885  0.4357  0.0763 -0.5075
  889MPD2     H13087   2.287   4.098  13.206 -0.2465 -1.9622  1.8227
  889MPD2    H113088   2.168   4.091  12.809  0.6419 -2.7291 -1.5719
  889MPD2    H213089   2.330   3.739  12.981  1.9509  0.2779 -0.6648
  889MPD2    H313090   2.250   3.852  12.791 -0.0094  0.0129 -0.4365
  889MPD2     N13091   2.186   4.240  13.026 -0.1326 -0.0823  1.2280
  889MPD2    H513092   2.215   4.291  13.109  0.0143  0.9480  0.5312
  889MPD2    N113093   2.380   3.841  13.226 -0.1128 -0.2433  0.3347
  889MPD2    H713094   2.404   3.905  13.300  3.6346  0.7134 -1.7291
  890MPD2     C13095   1.793   1.397  14.721  0.1176 -0.2573 -0.2125
  890MPD2    C113096   1.885   1.478  14.790  0.0951  0.0126  0.0041
  890MPD2    C213097   1.988   1.417  14.872  0.3095  0.3126 -0.0659
  890MPD2    C313098   1.980   1.282  14.889 -0.3537  0.8616  0.1384
  890MPD2    C413099   1.900   1.202  14.809 -0.0280 -0.3172  0.2369
  890MPD2    C513100   1.810   1.257  14.727 -0.1026  0.0968 -0.1132
  890MPD2     H13101   2.061   1.476  14.927  0.4062  1.6765 -1.6777
  890MPD2    H113102   1.879   1.097  14.828  0.2863 -0.1396  1.5776
  890MPD2    H213103   1.712   1.444  14.666  1.7989  0.9695 -1.6293
  890MPD2    H313104   1.733   1.197  14.679 -0.2294  1.0309 -1.0919
  890MPD2     N13105   2.064   1.239  14.995  0.4038 -0.5890 -1.1465
  890MPD2    H513106   2.124   1.302  15.047  0.1004 -1.8667  0.7644
  890MPD2    N113107   1.871   1.619  14.759 -0.2343 -0.7809 -0.3919
  890MPD2    H713108   1.791   1.640  14.700 -0.5594 -1.0228 -0.0375
  891MPD2     C13109   0.007   4.251  16.435  0.5029 -0.2742  0.1194
  891MPD2    C113110   4.696   4.366  16.486  0.2152  0.3268 -0.7709
  891MPD2    C213111   0.033   4.437  16.577 -0.1231  0.4025  0.5069
  891MPD2    C313112   0.165   4.409  16.596  0.1603  0.5500  0.2211
  891MPD2    C413113   0.217   4.298  16.538  0.3910  0.1129 -0.8935
  891MPD2    C513114   0.136   4.214  16.466  0.2990 -0.0551  0.5947
  891MPD2     H13115   4.731   4.517  16.640 -2.8633 -1.0669  0.7075
  891MPD2    H113116   0.320   4.271  16.557  0.3299  0.1477 -0.5148
  891MPD2    H213117   4.691   4.189  16.363  1.3421 -1.0723  0.2022
  891MPD2    H313118   0.179   4.123  16.427  2.0717  1.3746 -0.7612
  891MPD2     N13119   0.238   4.494  16.677 -0.6508  0.5668 -1.0264
  891MPD2    H513120   0.187   4.558  16.738  0.1578  1.3562 -1.1794
  891MPD2    N113121   4.559   4.410  16.462 -0.0921  0.2505  0.1715
  891MPD2    H713122   4.501   4.354  16.400  0.6193  0.4438 -0.6546
  892MPD2     C13123   0.936   0.627  14.880 -0.3129 -0.2146  0.5252
  892MPD2    C113124   0.827   0.608  14.795 -0.6287 -0.8020  0.4456
  892MPD2    C213125   0.845   0.532  14.681  0.2563  0.4620  0.1863
  892MPD2    C313126   0.969   0.464  14.662 -0.1958 -0.4517  0.7088
  892MPD2    C413127   1.074   0.492  14.744 -0.1695  0.2357 -0.5873
  892MPD2    C513128   1.058   0.578  14.854  0.2120 -0.2489  0.0949
  892MPD2     H13129   0.767   0.542  14.607  0.9749 -1.4873 -0.8248
  892MPD2    H113130   1.170   0.442  14.733  0.1048  0.8471 -0.9337
  892MPD2    H213131   0.932   0.699  14.961 -3.8055  0.6820 -0.4217
  892MPD2    H313132   1.132   0.586  14.932  0.7733 -0.8268 -0.3775
  892MPD2     N13133   0.987   0.372  14.562  0.3255 -0.4597  0.5370
  892MPD2    H513134   1.074   0.320  14.550  1.4991  1.4882  0.6010
  892MPD2    N113135   0.701   0.660  14.817  0.0922  0.3855 -0.0507
  892MPD2    H713136   0.636   0.659  14.738  0.9964  0.5583 -0.7924
  893MPD2     C13137   1.725   4.145   0.389 -0.1772  0.2688 -0.3006
  893MPD2    C113138   1.717   4.192   0.521  0.4306  0.1197 -0.2413
  893MPD2    C213139   1.613   4.153   0.606 -0.0025 -0.5067  0.0322
  893MPD2    C313140   1.518   4.059   0.565 -0.1120 -0.0800  0.3827
  893MPD2    C413141   1.523   4.021   0.434  0.7042  0.4031  0.6913
  893MPD2    C513142   1.626   4.056   0.352 -0.7674  0.2054 -0.3368
  893MPD2     H13143   1.603   4.192   0.706 -3.3199 -0.3245 -0.3701
  893MPD2    H113144   1.445   3.955   0.397  1.0293  0.4311 -0.0399
  893MPD2    H213145   1.799   4.181   0.318  0.4875 -0.9559 -0.2364
  893MPD2    H313146   1.619   4.015   0.252 -3.7159  0.3219 -0.1969
  893MPD2     N13147   1.416   4.015   0.644 -0.1110  0.7173 -0.0417
  893MPD2    H513148   1.347   3.952   0.603  0.3836  0.8484 -1.0764
  893MPD2    N113149   1.827   4.280   0.563 -0.2545  0.1338  0.1614
  893MPD2    H713150   1.885   4.316   0.487 -1.0934 -0.3916 -0.7165
  894MPD2     C13151   1.146   3.114   1.121  0.0600  0.2979  0.0685
  894MPD2    C113152   1.054   3.086   1.023 -0.6664  0.0731 -0.6170
  894MPD2    C213153   1.043   2.952   0.977 -0.6947 -0.7196  0.5406
  894MPD2    C313154   1.097   2.848   1.055  0.1992 -0.5049  0.0301
  894MPD2    C413155   1.189   2.888   1.150 -0.2077  0.3971  0.4300
  894MPD2    C513156   1.222   3.016   1.183  0.2007  0.4340  0.6030
  894MPD2     H13157   0.977   2.933   0.893  0.9708 -2.5725 -0.3469
  894MPD2    H113158   1.233   2.806   1.205 -0.0248  0.9098  1.0486
  894MPD2    H213159   1.179   3.214   1.148 -0.7761  0.6615 -0.2622
  894MPD2    H313160   1.297   3.038   1.257  0.7463 -2.7253  0.9486
  894MPD2     N13161   1.052   2.711   1.027 -0.0148 -0.8519 -0.5532
  894MPD2    H513162   0.988   2.709   0.948 -0.4204  1.2152 -0.2819
  894MPD2    N113163   0.974   3.182   0.964  0.0664  0.6742 -0.1077
  894MPD2    H713164   0.917   3.153   0.885 -0.8374 -0.5183  0.9728
  895MPD2     C13165   4.175   4.561  13.789  0.3568 -0.3535  0.8609
  895MPD2    C113166   4.246   4.648  13.707  0.3765 -0.5894  1.2825
  895MPD2    C213167   4.351   4.595  13.633 -0.3595  0.3713 -0.3261
  895MPD2    C313168   4.378   4.456  13.630  0.5313  0.2292 -0.5921
  895MPD2    C413169   4.312   4.385  13.728 -0.4908 -0.1701  0.2296
  895MPD2    C513170   4.224   4.438  13.812 -0.2795 -0.1088  0.8438
  895MPD2     H13171   4.395   4.664  13.561  1.5303 -1.6093 -1.0504
  895MPD2    H113172   4.344   4.282  13.739 -2.7688 -1.0552 -1.4050
  895MPD2    H213173   4.088   4.588  13.847  0.0134 -0.3291  0.3332
  895MPD2    H313174   4.170   4.382  13.888 -0.2296 -2.0747 -0.5837
  895MPD2     N13175   4.471   4.388  13.542 -0.1194 -0.1696 -0.5326
  895MPD2    H513176   4.475   4.287  13.551  3.7838 -0.0826 -1.3358
  895MPD2    N113177   4.204   0.041  13.680 -0.0894 -0.5709  0.2807
  895MPD2    H713178   4.262   0.096  13.618  0.8729 -0.2466  1.4579
  896MPD2     C13179   2.636   1.704   1.149 -0.2060  0.5999  0.7198
  896MPD2    C113180   2.537   1.794   1.166  0.0162 -0.5357  0.0949
  896MPD2    C213181   2.401   1.784   1.119  0.4837  0.1488 -0.1008
  896MPD2    C313182   2.381   1.658   1.053  0.4879 -1.0111  0.5170
  896MPD2    C413183   2.480   1.571   1.031  0.2155  0.0606  0.2281
  896MPD2    C513184   2.611   1.588   1.076 -0.3971  0.4982 -0.2423
  896MPD2     H13185   2.321   1.854   1.140 -0.4734 -0.4469 -1.8118
  896MPD2    H113186   2.465   1.475   0.983  1.2740 -0.6901  1.3944
  896MPD2    H213187   2.738   1.721   1.182  0.0988  2.7678 -1.4037
  896MPD2    H313188   2.693   1.521   1.051 -1.0842  0.2840 -1.9131
  896MPD2     N13189   2.258   1.631   1.006  0.1380 -0.7370  0.8278
  896MPD2    H513190   2.191   1.707   1.012 -1.0277 -1.7253  0.2222
  896MPD2    N113191   2.585   1.908   1.241 -0.6866  0.6086  0.4773
  896MPD2    H713192   2.685   1.916   1.257 -0.4635 -1.0463 -0.1038
  897MPD2     C13193   3.773   4.036  10.792 -0.2910  0.0409 -0.9029
  897MPD2    C113194   3.734   4.167  10.819 -0.4007 -0.0685  0.7208
  897MPD2    C213195   3.645   4.198  10.924  0.0505  0.2042  0.4991
  897MPD2    C313196   3.586   4.091  10.995  0.2688  0.6648 -0.4186
  897MPD2    C413197   3.623   3.961  10.965 -0.3470  0.1284 -0.6739
  897MPD2    C513198   3.717   3.933  10.869  0.3123 -0.6163 -0.3199
  897MPD2     H13199   3.622   4.302  10.945  1.6548  0.9129 -1.2099
  897MPD2    H113200   3.579   3.878  11.019  0.8526 -1.2300 -1.8189
  897MPD2    H213201   3.842   4.012  10.713 -0.7436  0.5351 -1.4518
  897MPD2    H313202   3.729   3.829  10.841  0.4772 -0.6710 -0.0413
  897MPD2     N13203   3.489   4.109  11.100  0.6005  0.4721 -0.1994
  897MPD2    H513204   3.462   4.027  11.153  0.0422  1.6378  1.3279
  897MPD2    N113205   3.790   4.271  10.733  0.2394 -0.4092  0.2163
  897MPD2    H713206   3.849   4.237  10.657  1.1776  0.6397  0.4696
  898MPD2     C13207   0.222   4.675  17.298 -0.9936 -0.4229  0.7674
  898MPD2    C113208   0.310   4.667  17.406  0.3899  0.3019 -0.2225
  898MPD2    C213209   0.352   0.042  17.472 -0.1453  0.6421 -0.9497
  898MPD2    C313210   0.321   0.165  17.420  0.2901 -0.5314  0.3564
  898MPD2    C413211   0.243   0.172  17.304 -0.0744  0.1511 -0.5438
  898MPD2    C513212   0.192   0.061  17.246 -0.7754  0.0982  0.0707
  898MPD2     H13213   0.418   0.040  17.558  0.8890  0.6013 -1.7471
  898MPD2    H113214   0.201   0.266  17.269  0.1812 -0.4067 -2.3444
  898MPD2    H213215   0.180   4.587  17.252 -1.1763  0.8959 -1.5662
  898MPD2    H313216   0.134   0.063  17.154  0.8830 -0.4618 -0.9920
  898MPD2     N13217   0.383   0.274  17.486 -0.4205  0.1312  0.4548
  898MPD2    H513218   0.456   0.247  17.551 -1.0166 -2.5200  0.0471
  898MPD2    N113219   0.343   4.545  17.474 -0.4228  0.3035 -0.0690
  898MPD2    H713220   0.402   4.546  17.557 -0.8560 -5.4118  0.3489
  899MPD2     C13221   1.608   0.672  17.315 -0.3006 -0.3212  0.2222
  899MPD2    C113222   1.535   0.752  17.236 -0.1644  0.4814  0.1561
  899MPD2    C213223   1.397   0.763  17.249  0.8374  1.0656  0.7195
  899MPD2    C313224   1.331   0.671  17.330  0.2891  0.5957  0.0453
  899MPD2    C413225   1.405   0.583  17.402  0.0903 -0.1125  0.1132
  899MPD2    C513226   1.546   0.584  17.398 -0.1946 -0.4578 -0.6155
  899MPD2     H13227   1.345   0.832  17.183  0.0456 -5.0660 -5.0251
  899MPD2    H113228   1.369   0.511  17.474 -1.8613 -0.0862 -0.8331
  899MPD2    H213229   1.714   0.677  17.295 -0.8115  2.3171 -1.9041
  899MPD2    H313230   1.604   0.516  17.460  0.2634 -0.6945 -1.3066
  899MPD2     N13231   1.190   0.692  17.342 -0.1262 -0.4883 -0.6221
  899MPD2    H513232   1.167   0.777  17.291  2.9271  0.6884 -0.0432
  899MPD2    N113233   1.617   0.841  17.166  0.0618  0.3561 -0.4511
  899MPD2    H713234   1.717   0.838  17.181  0.0410 -0.1811 -0.4281
  900MPD2     C13235   1.188   1.838  12.482 -0.3571 -0.5838  0.8889
  900MPD2    C113236   1.085   1.801  12.566  0.8851  0.0510 -0.0593
  900MPD2    C213237   0.960   1.808  12.521 -0.1737 -0.2005 -0.2110
  900MPD2    C313238   0.933   1.882  12.405  0.5848 -1.0493 -0.7748
  900MPD2    C413239   1.031   1.927  12.325 -0.0849  0.6385  0.3166
  900MPD2    C513240   1.162   1.902  12.366  0.1887  0.6465  0.4673
  900MPD2     H13241   0.877   1.777  12.584  0.7226  2.3320  2.1954
  900MPD2    H113242   1.020   1.977  12.230  1.4854 -0.8451 -0.6338
  900MPD2    H213243   1.292   1.816  12.506 -0.4211 -0.7831  0.9835
  900MPD2    H313244   1.239   1.940  12.299 -0.9086  1.9012 -0.0892
  900MPD2     N13245   0.796   1.903  12.383 -0.5400 -0.2098  0.4287
  900MPD2    H513246   0.734   1.860  12.451  0.1992  0.7754  1.7385
  900MPD2    N113247   1.125   1.743  12.682 -0.3085 -0.2915  0.2283
  900MPD2    H713248   1.224   1.737  12.703 -0.3851  0.3421  0.7595
  901MPD2     C13249   1.101   1.021  13.480 -0.9021 -0.0781  0.5635
  901MPD2    C113250   1.230   1.028  13.436 -0.3346 -0.4903 -0.5208
  901MPD2    C213251   1.274   1.120  13.340 -0.6628 -0.6864 -0.6167
  901MPD2    C313252   1.180   1.202  13.279  0.2526 -0.5954  0.3464
  901MPD2    C413253   1.046   1.193  13.328  0.0373  0.6576  0.0856
  901MPD2    C513254   1.014   1.112  13.432 -0.0347 -0.1494  0.1033
  901MPD2     H13255   1.375   1.128  13.303 -0.2930  0.2494  0.5931
  901MPD2    H113256   0.966   1.256  13.290  0.4979  2.1467  1.5662
  901MPD2    H213257   1.076   0.938  13.545 -1.1377 -1.5865 -1.4919
  901MPD2    H313258   0.911   1.105  13.467  0.5271 -0.5216  1.7115
  901MPD2     N13259   1.213   1.273  13.168 -0.9121 -0.1533 -0.2383
  901MPD2    H513260   1.309   1.273  13.135 -1.7320 -0.1011 -2.6206
  901MPD2    N113261   1.312   0.928  13.491  0.0608  0.4509 -0.4053
  901MPD2    H713262   1.276   0.875  13.570  3.3834 -0.3727  0.5392
  902MPD2     C13263   0.765   0.396  12.546 -0.5742  0.1015  0.4411
  902MPD2    C113264   0.632   0.372  12.547 -0.3880  0.5959  0.0487
  902MPD2    C213265   0.580   0.258  12.491  0.3461 -0.5860  0.0549
  902MPD2    C313266   0.676   0.170  12.436  0.2042 -0.3377  0.0291
  902MPD2    C413267   0.813   0.198  12.431  0.3267 -1.0570 -0.8222
  902MPD2    C513268   0.857   0.316  12.480 -0.1622  0.8280  0.2645
  902MPD2     H13269   0.473   0.243  12.499 -0.0539  1.9825 -0.4927
  902MPD2    H113270   0.881   0.127  12.386 -0.6729 -1.6774 -1.3650
  902MPD2    H213271   0.791   0.492  12.589  0.2896  0.8297 -1.7070
  902MPD2    H313272   0.961   0.336  12.461  0.0451 -0.2276  0.2962
  902MPD2     N13273   0.638   0.037  12.395  0.1881  0.0595 -0.5388
  902MPD2    H513274   0.711   4.706  12.373 -0.6826 -1.0815  0.1100
  902MPD2    N113275   0.561   0.466  12.630 -1.1417  0.0777 -0.1107
  902MPD2    H713276   0.612   0.539  12.678  0.8511 -0.8543 -0.8203
  903MPD2     C13277   0.181   4.081  12.038  0.1834  0.2015 -0.0238
  903MPD2    C113278   0.149   4.181  12.121 -0.0104 -0.2941  0.0024
  903MPD2    C213279   0.017   4.188  12.156  0.0657 -0.1466 -0.3107
  903MPD2    C313280   4.654   4.107  12.101  0.2631 -0.1816  0.3567
  903MPD2    C413281   4.687   4.019  12.004  0.2224 -0.2679 -0.1986
  903MPD2    C513282   0.086   4.007  11.974  0.1227  0.1054 -0.0051
  903MPD2     H13283   4.725   4.268  12.224 -0.4690 -2.6533  2.4155
  903MPD2    H113284   4.610   3.965  11.949  1.2931 -0.3094 -1.6568
  903MPD2    H213285   0.283   4.080  12.001  0.0481 -2.2207 -0.3087
  903MPD2    H313286   0.102   3.944  11.887 -0.8541  0.6779 -0.5932
  903MPD2     N13287   4.518   4.129  12.152 -0.0113  0.2045  0.4365
  903MPD2    H513288   4.502   4.191  12.231 -1.1225 -1.0826  1.2100
  903MPD2    N113289   0.250   4.269  12.164 -0.2605  0.1061 -0.4322
  903MPD2    H713290   0.333   4.270  12.106  2.1061  0.3204  2.9950
  904MPD2     C13291   0.355   3.331  13.771  0.5220 -0.2097  0.4756
  904MPD2    C113292   0.294   3.436  13.841  0.0522 -0.6374  0.8626
  904MPD2    C213293   0.361   3.496  13.938 -0.6133 -0.3951  0.7636
  904MPD2    C313294   0.494   3.464  13.963 -0.1139 -0.1512 -0.4601
  904MPD2    C413295   0.550   3.356  13.897  0.4429 -0.1763  0.3079
  904MPD2    C513296   0.486   3.291  13.804 -0.1522  0.5072 -0.1131
  904MPD2     H13297   0.305   3.571  13.993  0.2432  0.7385  0.1135
  904MPD2    H113298   0.652   3.331  13.924  1.3124  4.6024  1.3789
  904MPD2    H213299   0.313   3.287  13.682 -0.2644 -1.6233  1.5431
  904MPD2    H313300   0.514   3.200  13.753 -2.1023 -0.5318  0.6691
  904MPD2     N13301   0.573   3.538  14.050 -0.3591  0.3347 -0.0659
  904MPD2    H513302   0.532   3.622  14.089 -0.9129  1.2488 -2.5946
  904MPD2    N113303   0.164   3.480  13.820 -0.2005 -0.2554 -1.0297
  904MPD2    H713304   0.134   3.555  13.881 -0.3596 -2.7948  2.0035
  905MPD2     C13305   4.175   3.830  13.323  0.1291 -1.0660  0.2612
  905MPD2    C113306   4.311   3.817  13.339  0.2475 -1.2426  0.1124
  905MPD2    C213307   4.388   3.917  13.281  0.2179 -0.0724 -0.0517
  905MPD2    C313308   4.333   4.016  13.203  0.4169 -0.0188 -0.4492
  905MPD2    C413309   4.196   4.023  13.187 -0.4735 -0.8637 -0.2138
  905MPD2    C513310   4.117   3.925  13.246  0.4300  0.7739  0.1424
  905MPD2     H13311   4.495   3.926  13.297  0.0902  2.3815 -0.6423
  905MPD2    H113312   4.148   4.097  13.124  0.1537 -0.2633  0.0182
  905MPD2    H213313   4.111   3.759  13.373 -0.8599  0.4934  1.2120
  905MPD2    H313314   4.010   3.913  13.233  0.4232 -0.1452  1.1187
  905MPD2     N13315   4.414   4.121  13.149 -0.0456 -0.5477 -0.0724
  905MPD2    H513316   4.360   4.201  13.117  4.2570  1.4943 -2.2607
  905MPD2    N113317   4.361   3.722  13.438  0.5837  0.3209  0.2518
  905MPD2    H713318   4.301   3.661  13.491 -1.3603  0.0274 -2.3295
  906MPD2     C13319   2.249   4.081  11.563  0.1934 -0.4067 -0.3114
  906MPD2    C113320   2.298   3.992  11.466  0.6516  0.2701 -0.3771
  906MPD2    C213321   2.317   3.855  11.496 -0.5996 -0.1640 -0.3507
  906MPD2    C313322   2.274   3.809  11.619  0.5685 -0.6593  0.3312
  906MPD2    C413323   2.214   3.888  11.710 -0.6612 -0.1662  0.2770
  906MPD2    C513324   2.205   4.024  11.680 -1.2982 -0.1364 -0.3465
  906MPD2     H13325   2.348   3.783  11.421  3.2514  0.4094  0.7155
  906MPD2    H113326   2.159   3.862  11.799 -1.0877 -3.0952 -0.8435
  906MPD2    H213327   2.220   4.185  11.555  1.9779  0.2102  1.3252
  906MPD2    H313328   2.155   4.089  11.751  1.8117  1.8524  0.0730
  906MPD2     N13329   2.290   3.676  11.655  0.4660  0.1339 -0.0302
  906MPD2    H513330   2.233   3.641  11.731  1.4913  0.0880  0.7247
  906MPD2    N113331   2.329   4.035  11.336 -0.1280  0.5829  0.0854
  906MPD2    H713332   2.371   3.968  11.273 -1.8437  0.4231 -0.8859
  907MPD2     C13333   0.707   3.355  15.370  0.4855 -0.3418 -0.3438
  907MPD2    C113334   0.805   3.260  15.337  0.1818 -0.9279  0.3572
  907MPD2    C213335   0.933   3.251  15.406 -0.8923 -0.3434  0.0253
  907MPD2    C313336   0.954   3.343  15.510  0.4172  0.2592  0.3989
  907MPD2    C413337   0.852   3.430  15.551  0.4279  0.3352  0.5377
  907MPD2    C513338   0.733   3.421  15.485 -0.3121  0.3614  0.3669
  907MPD2     H13339   1.011   3.179  15.381  1.1150  1.5292  0.8813
  907MPD2    H113340   0.855   3.489  15.642 -3.0893  1.4477 -0.0553
  907MPD2    H213341   0.610   3.375  15.324  1.0717 -0.1128 -1.4678
  907MPD2    H313342   0.658   3.483  15.535 -0.2819  1.4424 -0.9316
  907MPD2     N13343   1.073   3.330  15.584  0.0264  0.0891 -0.0352
  907MPD2    H513344   1.132   3.252  15.559 -1.0342 -0.6537 -0.2047
  907MPD2    N113345   0.773   3.164  15.236 -0.4067 -0.1215 -0.0805
  907MPD2    H713346   0.845   3.093  15.226 -0.7102 -0.5381  0.6639
  908MPD2     C13347   3.664   3.996   9.945  0.2172 -0.4950 -0.3178
  908MPD2    C113348   3.740   3.954  10.053  0.0298 -0.0443  0.5714
  908MPD2    C213349   3.773   4.046  10.153 -0.2648 -0.4488 -0.3725
  908MPD2    C313350   3.710   4.171  10.162  0.1361 -0.4559 -0.3133
  908MPD2    C413351   3.633   4.203  10.053  0.5076  0.4979  0.2977
  908MPD2    C513352   3.616   4.124   9.949 -0.2207  0.4519 -0.3489
  908MPD2     H13353   3.844   4.017  10.229 -0.9956  0.7815  0.7724
  908MPD2    H113354   3.592   4.303  10.047 -1.4050 -0.2066  1.8157
  908MPD2    H213355   3.629   3.933   9.864 -3.6874  2.1306 -0.6595
  908MPD2    H313356   3.561   4.162   9.863 -0.6091  1.7836  0.4880
  908MPD2     N13357   3.746   4.265  10.267  0.4486  0.5014  0.0007
  908MPD2    H513358   3.831   4.246  10.320 -0.9291  0.1233  2.0750
  908MPD2    N113359   3.780   3.817  10.050 -0.2750  0.3322  0.0610
  908MPD2    H713360   3.749   3.766   9.967  1.4698  1.9934 -1.6298
  909MPD2     C13361   3.536   1.891  10.997  0.6474  0.5479 -0.3242
  909MPD2    C113362   3.648   1.962  11.025 -0.8779 -0.1989  0.1636
  909MPD2    C213363   3.694   1.961  11.155  0.1398 -0.8032  0.2127
  909MPD2    C313364   3.621   1.911  11.264 -0.4352  0.4933 -0.3864
  909MPD2    C413365   3.497   1.868  11.232  0.0538 -0.0030  0.0359
  909MPD2    C513366   3.453   1.853  11.098  0.0528 -0.0545 -0.5745
  909MPD2     H13367   3.783   2.022  11.166  0.7196 -2.1962  3.2014
  909MPD2    H113368   3.427   1.831  11.307  0.4486 -0.4091  0.2047
  909MPD2    H213369   3.506   1.876  10.894  1.1716  3.4731 -0.8975
  909MPD2    H313370   3.353   1.817  11.078  0.7480 -1.8935 -0.8159
  909MPD2     N13371   3.670   1.944  11.392  0.5408  0.0753 -0.7423
  909MPD2    H513372   3.760   1.991  11.391 -0.3002  1.6153 -3.3297
  909MPD2    N113373   3.743   2.016  10.935  0.1755  0.1404 -1.3878
  909MPD2    H713374   3.828   2.051  10.977  0.0885 -1.6890  0.3128
  910MPD2     C13375   0.607   4.171  15.970 -0.1360  0.3224  0.6658
  910MPD2    C113376   0.520   4.070  15.999 -0.5648 -0.6118  0.7328
  910MPD2    C213377   0.426   4.024  15.910  0.6589 -0.2629  0.0713
  910MPD2    C313378   0.416   4.085  15.793  0.0626  0.4933  0.3515
  910MPD2    C413379   0.501   4.189  15.766 -0.0292  0.3198 -0.1947
  910MPD2    C513380   0.592   4.243  15.857  0.2716  0.1513 -0.7869
  910MPD2     H13381   0.358   3.947  15.945 -0.0034  0.3582  0.1747
  910MPD2    H113382   0.491   4.238  15.670  0.1519 -0.3431 -0.5577
  910MPD2    H213383   0.689   4.193  16.037  2.7102 -1.7171 -2.1642
  910MPD2    H313384   0.654   4.325  15.823 -0.1254  0.4109 -0.8912
  910MPD2     N13385   0.315   4.053  15.696 -0.1288 -0.4816  0.6295
  910MPD2    H513386   0.326   4.086  15.600 -1.4675  0.8197  0.9219
  910MPD2    N113387   0.529   3.995  16.121  0.0759 -0.3229  0.4965
  910MPD2    H713388   0.468   3.914  16.131 -0.4777  0.0871  0.4342
  911MPD2     C13389   2.833   4.150  16.147 -0.0081  0.2742  0.2160
  911MPD2    C113390   2.882   4.273  16.164 -0.0307 -0.3033 -0.0111
  911MPD2    C213391   2.797   4.376  16.205 -0.4469 -0.1118  0.0217
  911MPD2    C313392   2.665   4.349  16.231 -0.5744  0.2311  0.6871
  911MPD2    C413393   2.619   4.224  16.207 -0.1908 -0.2519 -1.0649
  911MPD2    C513394   2.699   4.116  16.161  0.0984  1.2708  0.9574
  911MPD2     H13395   2.832   4.478  16.213 -1.2241  0.0923  0.8544
  911MPD2    H113396   2.513   4.211  16.226 -0.4345  2.0302 -0.9052
  911MPD2    H213397   2.898   4.070  16.114  0.8584  0.8909  0.4422
  911MPD2    H313398   2.653   4.018  16.153 -0.7412  1.6223  1.5261
  911MPD2     N13399   2.560   4.448  16.257  0.4165  0.0369  0.3205
  911MPD2    H513400   2.465   4.425  16.231  0.7057 -0.4689 -0.3047
  911MPD2    N113401   3.024   4.294  16.149  0.7234 -0.5006  0.0279
  911MPD2    H713402   3.079   4.209  16.142 -1.1021 -1.6870  0.0700
  912MPD2     C13403   2.313   4.199  15.745 -0.3367 -0.4759 -0.2506
  912MPD2    C113404   2.335   4.214  15.876  0.0317 -0.5201 -0.2829
  912MPD2    C213405   2.366   4.112  15.964 -0.4343  0.5257  0.0976
  912MPD2    C313406   2.391   3.979  15.916  0.1020 -0.1857  0.2595
  912MPD2    C413407   2.372   3.964  15.778  0.2976 -0.4456 -0.3855
  912MPD2    C513408   2.331   4.070  15.703  0.0415  0.3667  0.1139
  912MPD2     H13409   2.372   4.137  16.069  0.5923 -0.7452  0.3440
  912MPD2    H113410   2.394   3.871  15.726 -1.4828 -0.7010 -0.6832
  912MPD2    H213411   2.284   4.284  15.684  2.0630 -0.9917 -2.0807
  912MPD2    H313412   2.337   4.057  15.596 -1.1125  0.1942  0.0719
  912MPD2     N13413   2.427   3.877  16.009  0.2519 -0.4494 -0.4349
  912MPD2    H513414   2.418   3.898  16.108 -3.8212  3.0121 -1.5255
  912MPD2    N113415   2.325   4.349  15.915  0.3518 -0.4809 -0.1636
  912MPD2    H713416   2.303   4.423  15.848 -0.7917 -1.0562 -0.4296
  913MPD2     C13417   2.978   0.282  10.719 -0.2020 -0.4453 -0.0283
  913MPD2    C113418   3.002   0.420  10.713  0.2485  0.2041 -1.0179
  913MPD2    C213419   3.035   0.483  10.590  0.0639  0.3901 -0.2916
  913MPD2    C313420   3.049   0.402  10.476 -0.4899 -0.6156  0.6033
  913MPD2    C413421   3.013   0.269  10.484 -0.5515 -0.7937  0.3608
  913MPD2    C513422   2.985   0.209  10.604 -0.1410  0.0374  0.3576
  913MPD2     H13423   3.024   0.589  10.574 -3.5437  0.0794  0.1279
  913MPD2    H113424   3.014   0.209  10.394  0.6772 -0.5199  0.1944
  913MPD2    H213425   2.952   0.232  10.812  1.7360 -2.4682 -0.5905
  913MPD2    H313426   2.959   0.104  10.598 -1.0011  0.2292  0.7988
  913MPD2     N13427   3.095   0.436  10.346  0.5707 -0.5254 -0.2710
  913MPD2    H513428   3.106   0.368  10.272 -1.0598 -1.5370  0.4265
  913MPD2    N113429   3.001   0.483  10.838 -0.6042  0.2553 -0.0280
  913MPD2    H713430   3.011   0.417  10.915 -0.1039  0.9522  0.4959
  914MPD2     C13431   0.926   0.681  12.854 -0.4138 -0.0348  0.3814
  914MPD2    C113432   0.998   0.787  12.903  0.3186  0.8113 -0.8435
  914MPD2    C213433   1.078   0.763  13.016 -1.1664 -0.3726  0.6117
  914MPD2    C313434   1.084   0.642  13.085  0.3611  0.0592 -0.2782
  914MPD2    C413435   1.008   0.539  13.036  0.5343  0.0939 -0.9056
  914MPD2    C513436   0.926   0.562  12.926  0.4797  0.0297 -0.3068
  914MPD2     H13437   1.152   0.838  13.040  1.2995 -1.3272 -3.8866
  914MPD2    H113438   1.008   0.444  13.089  0.2616  0.5504 -0.0923
  914MPD2    H213439   0.872   0.694  12.762  0.2990  0.5570  0.0489
  914MPD2    H313440   0.874   0.478  12.882  0.8072 -0.3162 -0.0360
  914MPD2     N13441   1.178   0.639  13.194 -0.5414 -0.1118  0.7016
  914MPD2    H513442   1.202   0.734  13.223 -0.7061  0.3391 -0.6455
  914MPD2    N113443   0.996   0.910  12.826  0.5539  0.5989  0.2351
  914MPD2    H713444   0.956   0.899  12.733  1.6025  0.3813 -0.1963
  915MPD2     C13445   4.160   0.843  15.159 -0.4102 -0.6559 -0.2188
  915MPD2    C113446   4.084   0.957  15.152 -0.3819 -0.3143 -0.5158
  915MPD2    C213447   4.057   1.015  15.279 -0.3780 -0.3161  0.0348
  915MPD2    C313448   4.089   0.968  15.404 -0.6106  0.1285 -0.3216
  915MPD2    C413449   4.171   0.859  15.399 -0.2610  0.2942  0.1062
  915MPD2    C513450   4.205   0.802  15.278  0.3169  0.8503  0.3431
  915MPD2     H13451   3.993   1.102  15.280 -1.3731 -1.0620  1.8264
  915MPD2    H113452   4.212   0.814  15.489 -2.5578 -1.1296  0.4475
  915MPD2    H213453   4.189   0.789  15.070  1.3879  3.0911 -1.8616
  915MPD2    H313454   4.264   0.711  15.283  1.9627  1.9032  0.3868
  915MPD2     N13455   4.031   1.018  15.523  0.2449  0.3105 -0.0577
  915MPD2    H513456   3.964   1.093  15.508  0.6470  1.2282  2.6991
  915MPD2    N113457   4.039   0.997  15.023 -0.0443  0.0192  0.1354
  915MPD2    H713458   4.064   0.936  14.946 -0.9520  0.1733 -0.2805
  916MPD2     C13459   2.129   3.664  15.434 -0.1276  0.1893  0.8355
  916MPD2    C113460   2.132   3.646  15.574 -0.1115  0.6414  0.4744
  916MPD2    C213461   2.260   3.632  15.632  0.2952 -0.1456  0.8893
  916MPD2    C313462   2.374   3.633  15.554  0.1095  0.6688  0.3089
  916MPD2    C413463   2.366   3.649  15.421  0.3054 -0.2308  0.3763
  916MPD2    C513464   2.245   3.659  15.359  0.6276 -0.5705 -0.4411
  916MPD2     H13465   2.272   3.613  15.738  2.6620 -4.0831 -0.0903
  916MPD2    H113466   2.454   3.640  15.358  0.1137 -1.1385  0.2260
  916MPD2    H213467   2.032   3.673  15.387  1.1314  0.3793 -1.6979
  916MPD2    H313468   2.228   3.660  15.252  1.3801 -2.0213 -0.5619
  916MPD2     N13469   2.502   3.606  15.614 -0.5734 -0.7372  0.4913
  916MPD2    H513470   2.489   3.584  15.712 -2.7131 -0.4879  0.2603
  916MPD2    N113471   2.007   3.648  15.639 -0.0929  0.0376  0.2390
  916MPD2    H713472   1.924   3.674  15.586  0.4785 -1.2460 -1.3036
  917MPD2     C13473   2.323   1.574  11.163 -0.6305 -0.1529  0.5900
  917MPD2    C113474   2.344   1.659  11.272 -0.3631  0.0295 -0.8049
  917MPD2    C213475   2.377   1.788  11.247 -0.0604  0.1275  0.5308
  917MPD2    C313476   2.408   1.823  11.115  0.1928 -0.0877 -0.0963
  917MPD2    C413477   2.385   1.737  11.011  0.2606  1.1364 -0.1038
  917MPD2    C513478   2.340   1.609  11.036  0.4325 -0.5002  0.3741
  917MPD2     H13479   2.397   1.858  11.327 -0.7231 -0.2234  1.0034
  917MPD2    H113480   2.400   1.768  10.908 -0.7932 -0.3066 -0.6880
  917MPD2    H213481   2.300   1.470  11.183  0.0969 -0.5936 -0.8228
  917MPD2    H313482   2.341   1.532  10.960  0.1906 -0.3137  0.1816
  917MPD2     N13483   2.459   1.952  11.081  0.2610  0.0326 -0.4715
  917MPD2    H513484   2.474   1.978  10.984  0.2686  1.3504 -0.1241
  917MPD2    N113485   2.333   1.599  11.401  0.8172  0.5999 -0.3203
  917MPD2    H713486   2.295   1.506  11.415  0.6662  0.1132 -4.0297
  918MPD2     C13487   2.424   2.183  12.170 -0.0539  0.2698 -0.3942
  918MPD2    C113488   2.525   2.114  12.110  0.1530  0.3561  0.0343
  918MPD2    C213489   2.485   1.993  12.048 -0.2898  0.5182 -0.1438
  918MPD2    C313490   2.358   1.949  12.050  0.2474 -0.0524 -0.4517
  918MPD2    C413491   2.261   2.012  12.128 -0.0944  0.1127 -0.2118
  918MPD2    C513492   2.295   2.128  12.186  0.5487  0.2673 -0.2531
  918MPD2     H13493   2.558   1.947  11.982  0.9988  1.7740  0.4058
  918MPD2    H113494   2.161   1.971  12.130  0.1436 -0.4383  0.6295
  918MPD2    H213495   2.440   2.285  12.203  0.4491 -0.8935  2.8671
  918MPD2    H313496   2.224   2.178  12.251  1.1251 -0.6169  1.0711
  918MPD2     N13497   2.338   1.842  11.964  0.8200  0.5629 -0.0141
  918MPD2    H513498   2.419   1.814  11.910  0.9843  1.8170 -0.4053
  918MPD2    N113499   2.655   2.164  12.088 -0.3899 -0.1548 -0.2920
  918MPD2    H713500   2.719   2.107  12.033  1.3598 -0.1740  1.7458
  919MPD2     C13501   2.780   0.862  12.071 -0.0856 -0.2038 -0.0102
  919MPD2    C113502   2.726   0.743  12.018  0.9976 -0.2810  0.0350
  919MPD2    C213503   2.705   0.729  11.886 -0.1486  0.3719  0.0048
  919MPD2    C313504   2.732   0.834  11.809  0.1694 -0.1952 -0.5553
  919MPD2    C413505   2.780   0.952  11.863  0.3086  0.3033  0.8326
  919MPD2    C513506   2.796   0.969  11.997  0.0941 -0.1915  0.4764
  919MPD2     H13507   2.690   0.629  11.847 -1.1035  0.5140  0.0287
  919MPD2    H113508   2.811   1.036  11.802 -0.7537 -0.4508 -0.7394
  919MPD2    H213509   2.791   0.873  12.178 -0.6885 -2.2212  0.2539
  919MPD2    H313510   2.843   1.059  12.037 -0.0008 -0.0948  0.3716
  919MPD2     N13511   2.731   0.825  11.666  0.3525  0.0571  0.0345
  919MPD2    H513512   2.760   0.907  11.613  1.2449  1.3288  2.5074
  919MPD2    N113513   2.733   0.628  12.091  0.6217 -0.5681 -0.3251
  919MPD2    H713514   2.700   0.543  12.047 -0.7549  1.4706 -3.2740
  920MPD2     C13515   2.939   1.207  10.781  0.2636 -0.2921 -0.7095
  920MPD2    C113516   2.855   1.098  10.748  0.2323  0.2918 -0.0862
  920MPD2    C213517   2.798   1.025  10.846 -0.2747  0.5507 -0.0215
  920MPD2    C313518   2.834   1.046  10.978 -0.0167  0.0202 -0.3318
  920MPD2    C413519   2.925   1.150  11.012  0.7046  1.1049  0.3970
  920MPD2    C513520   2.974   1.228  10.916 -0.1372 -0.0468 -0.7123
  920MPD2     H13521   2.735   0.941  10.822  1.6253 -0.2086 -2.3535
  920MPD2    H113522   2.964   1.163  11.112  0.9685  2.7466  0.0704
  920MPD2    H213523   2.986   1.273  10.710  1.6941 -0.3282  0.2029
  920MPD2    H313524   3.044   1.308  10.937  0.2974 -1.3712  2.7837
  920MPD2     N13525   2.779   0.969  11.078  0.4077  0.1858 -0.1381
  920MPD2    H513526   2.705   0.910  11.043 -0.2245  0.1396  1.2760
  920MPD2    N113527   2.808   1.073  10.621 -1.0802 -0.0274 -0.2307
  920MPD2    H713528   2.750   0.989  10.617  0.7377 -1.2551 -0.5233
  921MPD2     C13529   3.791   0.116  16.566 -0.0988 -0.1169 -0.3866
  921MPD2    C113530   3.820   0.012  16.485 -0.4863  0.3643 -0.4246
  921MPD2    C213531   3.721   4.691  16.412 -0.2573  0.0312  0.2589
  921MPD2    C313532   3.593   0.000  16.411 -0.1279  0.0936 -0.5493
  921MPD2    C413533   3.560   0.094  16.508 -0.2866  0.8206 -1.0125
  921MPD2    C513534   3.653   0.153  16.582  0.6658 -0.5466  0.0972
  921MPD2     H13535   3.752   4.606  16.352 -0.8709 -0.5487  0.7665
  921MPD2    H113536   3.457   0.123  16.528 -0.0556  1.0157 -0.0552
  921MPD2    H213537   3.871   0.168  16.618 -0.6718 -0.0423  0.4333
  921MPD2    H313538   3.620   0.226  16.655 -0.4808 -0.6918 -0.2709
  921MPD2     N13539   3.490   4.681  16.328  0.3008 -0.3176  0.8337
  921MPD2    H513540   3.394   4.709  16.344  1.0157  2.1061  0.9743
  921MPD2    N113541   3.951   4.707  16.458  0.2434 -0.8208  0.2122
  921MPD2    H713542   3.956   4.630  16.391 -0.6750  1.0764 -2.0652
  922MPD2     C13543   0.031   2.002  17.058  0.0634  0.0602 -1.0333
  922MPD2    C113544   4.705   2.120  17.120 -0.7193 -0.3656  0.6495
  922MPD2    C213545   4.580   2.101  17.177  0.8728  0.5743 -0.4173
  922MPD2    C313546   4.510   1.978  17.158  0.0843  0.0555  0.0783
  922MPD2    C413547   4.576   1.865  17.112 -0.1883 -0.1873 -0.8459
  922MPD2    C513548   4.701   1.880  17.055  0.0256  0.1130  0.3566
  922MPD2     H13549   4.529   2.188  17.216  0.1500 -0.2464  0.4717
  922MPD2    H113550   4.526   1.770  17.098  1.9321 -0.9647 -3.1514
  922MPD2    H213551   0.135   2.012  17.032  0.3656 -0.4189 -0.0488
  922MPD2    H313552   0.009   1.791  17.011 -2.0571  0.0475 -1.5664
  922MPD2     N13553   4.373   1.983  17.200  0.3928  0.2212  0.0341
  922MPD2    H513554   4.343   2.071  17.240 -0.4534 -0.2390  0.4103
  922MPD2    N113555   0.029   2.242  17.130 -0.6268 -0.2977  0.2713
  922MPD2    H713556   4.710   2.306  17.187 -0.3648  0.3478 -0.2148
  923MPD2     C13557   2.768   4.098   9.468  0.5823  0.6144  0.1626
  923MPD2    C113558   2.654   4.176   9.471 -0.5401  0.4935  0.1918
  923MPD2    C213559   2.602   4.225   9.590  0.1494  0.0677 -0.6350
  923MPD2    C313560   2.662   4.190   9.704  0.0819 -0.9026  0.4777
  923MPD2    C413561   2.780   4.110   9.704  0.3829 -0.2025 -0.8504
  923MPD2    C513562   2.834   4.067   9.589 -0.2616  0.6359  0.4490
  923MPD2     H13563   2.521   4.298   9.587  0.5280  0.5260  0.5910
  923MPD2    H113564   2.835   4.097   9.796 -1.5989  0.8541  0.4957
  923MPD2    H213565   2.817   4.066   9.377  1.2982  2.5324 -0.1249
  923MPD2    H313566   2.925   4.011   9.572 -0.8531 -0.3571  0.4989
  923MPD2     N13567   2.630   4.248   9.829  0.1001 -0.4413  0.4935
  923MPD2    H513568   2.693   4.228   9.907  0.3088 -0.6747  0.2656
  923MPD2    N113569   2.586   4.202   9.347 -0.0284 -0.1165  0.4148
  923MPD2    H713570   2.633   4.165   9.265 -1.3725 -0.5421 -0.1497
  924MPD2     C13571   1.201   2.657  15.919  0.6099  0.2963 -0.4646
  924MPD2    C113572   1.230   2.746  16.019  0.2909 -0.4931 -0.7915
  924MPD2    C213573   1.292   2.864  15.979 -0.3544  0.0857  0.3915
  924MPD2    C313574   1.307   2.895  15.847  0.1201 -0.4553  0.5660
  924MPD2    C413575   1.278   2.801  15.749  0.1153  0.2608 -0.6107
  924MPD2    C513576   1.230   2.681  15.787  0.5482 -0.0415 -0.6383
  924MPD2     H13577   1.304   2.944  16.051  3.0114  0.3227 -0.4331
  924MPD2    H113578   1.293   2.831  15.646  1.6690  2.7267  0.3421
  924MPD2    H213579   1.149   2.565  15.944 -2.9377  2.4518 -0.0585
  924MPD2    H313580   1.201   2.612  15.709  1.1156  0.6150 -1.4254
  924MPD2     N13581   1.359   3.018  15.800 -0.2680  0.0121  0.7861
  924MPD2    H513582   1.368   3.028  15.699 -0.5682 -1.6067  0.5928
  924MPD2    N113583   1.190   2.719  16.152 -0.2120 -0.0957 -0.4110
  924MPD2    H713584   1.120   2.646  16.158  0.4073 -0.7044 -0.5669
  925MPD2     C13585   4.669   0.526  14.604 -0.1463 -0.5140 -0.1450
  925MPD2    C113586   4.533   0.544  14.580  0.6648  0.7680  1.2887
  925MPD2    C213587   4.437   0.543  14.680  0.0827 -0.5901 -0.0745
  925MPD2    C313588   4.476   0.519  14.807  0.3169  0.3570  0.4828
  925MPD2    C413589   4.611   0.506  14.834 -0.7025 -0.8726 -0.4567
  925MPD2    C513590   4.708   0.512  14.734 -0.2677  0.4807  0.1206
  925MPD2     H13591   4.331   0.549  14.657 -0.2003  0.9561  1.6518
  925MPD2    H113592   4.641   0.469  14.931  1.4247  1.3247 -0.2803
  925MPD2    H213593   0.014   0.508  14.535 -0.6935 -1.0812 -0.6442
  925MPD2    H313594   0.075   0.479  14.744  0.0574  1.2770 -0.6490
  925MPD2     N13595   4.390   0.472  14.907  0.1662  0.5568 -0.1527
  925MPD2    H513596   4.439   0.429  14.985  0.6857 -1.3282 -1.5190
  925MPD2    N113597   4.491   0.568  14.447 -0.9028  0.4670 -0.3621
  925MPD2    H713598   4.395   0.598  14.430 -0.6955  1.2431 -0.1995
  926MPD2     C13599   4.160   3.200  13.038  0.0688  0.1935  0.2331
  926MPD2    C113600   4.041   3.271  13.023 -0.0840  0.8194  0.2858
  926MPD2    C213601   4.028   3.357  12.920 -0.7359  0.1657  0.1654
  926MPD2    C313602   4.123   3.379  12.828  0.4589  0.1813 -0.6611
  926MPD2    C413603   4.243   3.315  12.849 -0.7006 -0.5737 -0.1381
  926MPD2    C513604   4.261   3.224  12.945  0.3347 -0.6072 -0.2670
  926MPD2     H13605   3.941   3.422  12.914 -0.5445  0.3719 -0.3138
  926MPD2    H113606   4.329   3.341  12.788 -0.6712  3.0385  1.4295
  926MPD2    H213607   4.184   3.129  13.117 -1.1423  0.4706  0.8428
  926MPD2    H313608   4.353   3.169  12.960  0.4029  0.2337  2.4382
  926MPD2     N13609   4.131   3.471  12.724  0.0881  0.8788 -0.1100
  926MPD2    H513610   4.223   3.483  12.683  1.9195 -1.0211  3.3872
  926MPD2    N113611   3.938   3.261  13.118 -0.2017  0.2048  0.0490
  926MPD2    H713612   3.854   3.316  13.100 -0.6012 -0.1594  0.7783
  927MPD2     C13613   2.915   1.380   0.001 -0.5107 -0.6350  0.2417
  927MPD2    C113614   2.886   1.254  17.698 -0.1849 -0.0364  0.8260
  927MPD2    C213615   2.929   1.213  17.571 -0.0507 -0.9264  0.1710
  927MPD2    C313616   3.006   1.296  17.493  0.7107 -0.4523 -0.0292
  927MPD2    C413617   3.031   1.423  17.539 -0.2172  0.0487  0.1483
  927MPD2    C513618   3.009   1.451  17.675  0.6774 -0.4776 -0.2062
  927MPD2     H13619   2.902   1.114  17.537 -2.1487 -0.6495  1.0366
  927MPD2    H113620   3.094   1.502  17.500 -0.1197 -0.7086 -1.1907
  927MPD2    H213621   2.876   1.419   0.094 -1.1889 -1.4360  0.2879
  927MPD2    H313622   3.044   1.548  17.707  0.7788 -1.2123  1.8808
  927MPD2     N13623   3.046   1.260  17.364 -0.3133  0.3515 -0.3576
  927MPD2    H513624   3.001   1.179  17.322  1.4429 -1.2418  0.8521
  927MPD2    N113625   2.808   1.172   0.041  0.2786  0.3222  0.2510
  927MPD2    H713626   2.772   1.207   0.129  0.2280 -3.5024  1.7692
  928MPD2     C13627   0.653   3.749   0.485 -0.6302  0.5004 -0.0765
  928MPD2    C113628   0.603   3.851   0.413 -0.0300 -0.1140 -0.2219
  928MPD2    C213629   0.688   3.927   0.334  0.5112  0.7141  0.2015
  928MPD2    C313630   0.826   3.904   0.335  0.3667  0.2140 -0.0282
  928MPD2    C413631   0.869   3.798   0.410  1.1989  0.5069  0.3645
  928MPD2    C513632   0.788   3.729   0.491  0.2324  0.3158 -0.4801
  928MPD2     H13633   0.649   4.012   0.278  0.2474 -0.2510 -1.0834
  928MPD2    H113634   0.972   3.765   0.402  0.7625 -1.0044  0.9776
  928MPD2    H213635   0.589   3.694   0.554  0.9716  0.6829  1.5716
  928MPD2    H313636   0.824   3.657   0.563 -1.3434 -0.9928 -1.0249
  928MPD2     N13637   0.924   3.983   0.269 -0.0734  0.8996 -0.0957
  928MPD2    H513638   1.019   3.957   0.291 -0.0999 -1.7341 -3.0657
  928MPD2    N113639   0.459   3.886   0.424  0.0006  0.1113 -0.5880
  928MPD2    H713640   0.412   3.841   0.503  0.6187  0.6187  0.0668
  929MPD2     C13641   1.827   3.468   9.780  0.4152 -0.6771 -0.1169
  929MPD2    C113642   1.776   3.597   9.764  0.3355  0.5650 -0.2561
  929MPD2    C213643   1.746   3.647   9.639  0.1505  0.0616  0.4714
  929MPD2    C313644   1.745   3.562   9.525  0.8453  0.4109  0.3345
  929MPD2    C413645   1.804   3.439   9.541 -1.0520  0.4400  0.1797
  929MPD2    C513646   1.842   3.397   9.662 -0.1430  0.1941 -0.1582
  929MPD2     H13647   1.697   3.744   9.643 -2.2996 -1.1704 -0.1761
  929MPD2    H113648   1.815   3.372   9.457 -0.5203  0.5897  0.1296
  929MPD2    H213649   1.860   3.422   9.872  0.6803  1.1596  0.7228
  929MPD2    H313650   1.891   3.300   9.671 -0.6021 -0.0885 -0.7836
  929MPD2     N13651   1.701   3.611   9.396 -0.9732 -0.0047  0.1841
  929MPD2    H513652   1.723   3.562   9.310  0.2677  0.2698  0.3350
  929MPD2    N113653   1.739   3.674   9.882  0.4315 -0.1795 -0.7525
  929MPD2    H713654   1.736   3.625   9.971  1.2639  0.5370 -0.3274
  930MPD2     C13655   2.545   1.701  14.443 -0.0549 -0.0869 -0.7992
  930MPD2    C113656   2.673   1.691  14.397 -0.0297  0.0065  0.4215
  930MPD2    C213657   2.699   1.640  14.271 -0.3191  0.2626 -0.0355
  930MPD2    C313658   2.592   1.592  14.193 -0.0204  0.2692 -0.3589
  930MPD2    C413659   2.467   1.583  14.254  0.6981 -0.1582  0.1228
  930MPD2    C513660   2.447   1.638  14.371 -0.8633 -0.3195 -0.3420
  930MPD2     H13661   2.794   1.649  14.220  0.7287  0.7015  1.9852
  930MPD2    H113662   2.382   1.550  14.196  0.2990 -1.3657  1.4121
  930MPD2    H213663   2.514   1.738  14.540 -0.3716  1.1630 -1.3804
  930MPD2    H313664   2.353   1.621  14.423 -0.3579  1.8252  1.3010
  930MPD2     N13665   2.601   1.561  14.053  0.2448 -0.2931 -0.5841
  930MPD2    H513666   2.512   1.546  14.007  0.6535  3.6718 -2.6368
  930MPD2    N113667   2.777   1.767  14.459  0.2257 -0.0559  0.4519
  930MPD2    H713668   2.750   1.845  14.518 -0.6174  2.4487 -3.2191
  931MPD2     C13669   2.771   0.373   0.393  0.1943  0.5320  0.6290
  931MPD2    C113670   2.721   0.477   0.479  0.0482  0.1453 -0.0206
  931MPD2    C213671   2.689   0.455   0.608  0.2366 -0.1605 -0.8034
  931MPD2    C313672   2.708   0.328   0.662  0.5778 -0.1638  0.7488
  931MPD2    C413673   2.753   0.231   0.579 -0.3846 -0.4616 -0.3190
  931MPD2    C513674   2.781   0.247   0.443  0.2108  0.3193  0.0037
  931MPD2     H13675   2.669   0.541   0.671  0.1866  0.2457 -1.3719
  931MPD2    H113676   2.765   0.127   0.608 -1.8673 -0.7305 -0.6507
  931MPD2    H213677   2.779   0.377   0.285 -0.2375  2.5865  0.6702
  931MPD2    H313678   2.816   0.158   0.392 -0.8622  0.8755 -1.6788
  931MPD2     N13679   2.696   0.301   0.799  0.0507  0.1683  0.1760
  931MPD2    H513680   2.730   0.211   0.830  0.5751 -0.2232 -1.5407
  931MPD2    N113681   2.705   0.611   0.441 -0.2511  0.3949 -0.3924
  931MPD2    H713682   2.666   0.669   0.514  0.6232 -1.8342  1.8385
  932MPD2     C13683   0.428   4.329  10.885  0.2772 -0.0630  0.0463
  932MPD2    C113684   0.483   4.395  10.995 -0.4216 -0.6162  0.2145
  932MPD2    C213685   0.547   4.316  11.090  0.3843 -0.1929 -0.3877
  932MPD2    C313686   0.566   4.183  11.073  0.2728 -0.3045 -1.0585
  932MPD2    C413687   0.534   4.129  10.959  0.9618 -0.1577 -1.0272
  932MPD2    C513688   0.461   4.197  10.871 -0.0196 -0.3466 -0.6571
  932MPD2     H13689   0.593   4.365  11.175 -1.0443  1.5251 -0.6049
  932MPD2    H113690   0.557   4.026  10.936  0.3784 -0.8205  1.3633
  932MPD2    H213691   0.374   4.376  10.804  2.0738  2.8927  0.5749
  932MPD2    H313692   0.421   4.146  10.784  0.2274 -1.9607  0.1785
  932MPD2     N13693   0.635   4.101  11.165  0.3222  0.1497  0.4070
  932MPD2    H513694   0.637   4.000  11.150  0.3100  0.2922 -0.5325
  932MPD2    N113695   0.471   4.537  11.014 -0.1617  0.8591  0.2356
  932MPD2    H713696   0.539   4.578  11.077  0.1572  0.0143  0.4398
  933MPD2     C13697   4.705   4.180  17.595 -0.3536  0.1363  0.0844
  933MPD2    C113698   0.003   4.259  17.707  0.0796 -0.1295 -0.0886
  933MPD2    C213699   0.007   4.388  17.690  0.5235  0.4666  0.0403
  933MPD2    C313700   4.707   4.454  17.574 -0.2360 -0.0060  0.4574
  933MPD2    C413701   4.672   4.376  17.466 -0.0083 -0.3596  0.3065
  933MPD2    C513702   4.667   4.240  17.476  0.1939  0.3438  0.4125
  933MPD2     H13703   0.032   4.455   0.029  0.4874  1.6534 -0.9177
  933MPD2    H113704   4.642   4.412  17.368 -0.8962  1.5423  1.2665
  933MPD2    H213705   4.706   4.072  17.597 -3.0098  0.1002 -0.8242
  933MPD2    H313706   4.635   4.188  17.387  2.6737 -2.4335  1.1460
  933MPD2     N13707   4.701   4.596  17.569 -0.1676 -0.1546  0.3691
  933MPD2    H513708   4.716   4.644  17.657 -1.2432 -0.2229  0.5978
  933MPD2    N113709   0.044   4.194   0.088  0.2048  0.1366 -0.0880
  933MPD2    H713710   0.066   4.095   0.092 -1.7737 -0.2854  0.0781
  934MPD2     C13711   1.075   1.259   1.787  0.2269  0.8757  0.0268
  934MPD2    C113712   1.204   1.220   1.760  0.6649  0.1316  0.0280
  934MPD2    C213713   1.252   1.224   1.630 -0.4205  0.9182  0.0662
  934MPD2    C313714   1.180   1.302   1.539 -0.8009  0.1672 -0.5953
  934MPD2    C413715   1.054   1.344   1.569 -0.2731 -0.2516 -0.2087
  934MPD2    C513716   1.000   1.324   1.697 -0.4067  0.4257 -0.1625
  934MPD2     H13717   1.353   1.188   1.614 -0.2213  0.6539  1.9111
  934MPD2    H113718   0.995   1.398   1.496 -1.0352  0.7958  1.1929
  934MPD2    H213719   1.032   1.253   1.886  0.8589  0.5442  0.2825
  934MPD2    H313720   0.900   1.356   1.722 -0.8615  0.0783 -1.5384
  934MPD2     N13721   1.237   1.338   1.413 -0.5380  0.9883  0.3601
  934MPD2    H513722   1.181   1.410   1.370 -0.0058  0.8920 -0.4917
  934MPD2    N113723   1.295   1.175   1.859  0.4191 -0.4931  0.0507
  934MPD2    H713724   1.382   1.142   1.820 -0.7790 -0.5399 -2.6341
  935MPD2     C13725   2.018   1.055   0.820 -0.4318  0.7578  0.2251
  935MPD2    C113726   1.894   1.024   0.772 -0.8161 -0.6884 -0.1739
  935MPD2    C213727   1.785   1.092   0.835  0.1476  0.1062  0.0022
  935MPD2    C313728   1.792   1.172   0.948 -0.0493 -0.5419 -0.2681
  935MPD2    C413729   1.908   1.180   1.008  1.3130  0.0238  0.5472
  935MPD2    C513730   2.023   1.131   0.939  0.4062  0.3630  0.7120
  935MPD2     H13731   1.688   1.074   0.791  1.4628 -0.1598 -2.8394
  935MPD2    H113732   1.918   1.242   1.097  1.3391  0.4799  0.2232
  935MPD2    H213733   2.114   1.021   0.781 -0.2401  1.6706 -0.0990
  935MPD2    H313734   2.122   1.154   0.978  0.1944  1.6623  0.5074
  935MPD2     N13735   1.674   1.219   1.012  0.2350  0.2422  0.3597
  935MPD2    H513736   1.682   1.267   1.101  0.9212 -1.8519  1.4381
  935MPD2    N113737   1.862   0.932   0.667 -0.2081 -0.5532 -0.1898
  935MPD2    H713738   1.764   0.909   0.654 -0.4116 -1.6167  3.1414
  936MPD2     C13739   0.610   2.660  12.261 -0.5310 -0.2407  0.1924
  936MPD2    C113740   0.604   2.688  12.394  0.5926 -0.8660 -0.5947
  936MPD2    C213741   0.598   2.819  12.437  0.4241  0.2371  0.5900
  936MPD2    C313742   0.591   2.923  12.344 -0.3922 -0.3367  0.6169
  936MPD2    C413743   0.598   2.896  12.214 -0.1024  0.3309 -0.8646
  936MPD2    C513744   0.604   2.766  12.174  0.3114  0.4383  0.2099
  936MPD2     H13745   0.599   2.838  12.543  0.1902 -0.8233  0.7836
  936MPD2    H113746   0.605   2.976  12.141 -2.4120 -1.2071 -2.7575
  936MPD2    H213747   0.612   2.559  12.223 -1.2673 -0.6066  1.1279
  936MPD2    H313748   0.608   2.749  12.067 -1.0610 -0.6171  0.3234
  936MPD2     N13749   0.590   3.054  12.391  0.2519  0.1414 -0.4407
  936MPD2    H513750   0.613   3.131  12.330  1.1056 -1.2078 -1.8383
  936MPD2    N113751   0.611   2.588  12.494 -0.2076 -0.0625 -0.8255
  936MPD2    H713752   0.623   2.615  12.591 -1.6525 -0.9876 -0.3833
  937MPD2     C13753   3.034   0.027  11.886  0.0165 -0.4870 -1.1018
  937MPD2    C113754   3.067   0.159  11.921 -0.3680  0.0335 -0.0922
  937MPD2    C213755   3.137   0.233  11.828  0.3063 -0.9218 -0.0889
  937MPD2    C313756   3.183   0.179  11.709 -0.0834 -0.1417 -0.2703
  937MPD2    C413757   3.160   0.045  11.679 -0.4085 -0.5859  0.6087
  937MPD2    C513758   3.084   4.707  11.772  0.5368 -0.0101 -0.0994
  937MPD2     H13759   3.147   0.336  11.859  2.3309 -0.9832 -0.5743
  937MPD2    H113760   3.197   0.007  11.584 -1.8665 -0.5494  0.0296
  937MPD2    H213761   2.973   4.695  11.945 -1.9575 -1.0100 -3.7457
  937MPD2    H313762   3.072   4.600  11.759 -0.1971  0.2018 -1.1439
  937MPD2     N13763   3.233   0.277  11.615  0.0410  0.1689  0.2794
  937MPD2    H513764   3.220   0.375  11.639  1.5710  0.7942 -1.4392
  937MPD2    N113765   3.004   0.225  12.025  1.0467 -0.0741 -0.1168
  937MPD2    H713766   3.041   0.316  12.050  0.6796 -0.1345  0.6533
  938MPD2     C13767   0.692   1.533   0.698  0.3220  0.0712 -0.2624
  938MPD2    C113768   0.763   1.420   0.670  0.1678 -0.4587  0.1226
  938MPD2    C213769   0.767   1.309   0.747 -0.3334 -0.0885  0.3165
  938MPD2    C313770   0.686   1.302   0.861  0.0746  0.0098 -0.2413
  938MPD2    C413771   0.619   1.415   0.901  0.3939  0.7009 -0.7314
  938MPD2    C513772   0.631   1.529   0.821 -0.2988 -0.2203 -0.8632
  938MPD2     H13773   0.828   1.225   0.717 -1.4118 -0.9525  0.5544
  938MPD2    H113774   0.562   1.415   0.993  0.8199  0.6851 -0.4717
  938MPD2    H213775   0.692   1.627   0.643  1.3973 -0.6481 -1.4609
  938MPD2    H313776   0.580   1.619   0.853  1.9644  0.7892 -0.0912
  938MPD2     N13777   0.667   1.184   0.945  0.0117 -0.2998  0.4297
  938MPD2    H513778   0.612   1.193   1.030  2.3617 -0.3142  1.9435
  938MPD2    N113779   0.842   1.413   0.547  0.0146  0.5373 -0.0799
  938MPD2    H713780   0.879   1.324   0.516 -0.7160  0.3520 -0.4234
  939MPD2     C13781   2.178   2.370   1.212  0.4176  0.2588  0.2522
  939MPD2    C113782   2.193   2.505   1.187 -0.5025  0.3797 -0.6379
  939MPD2    C213783   2.281   2.549   1.083 -0.3034  0.0227 -0.3208
  939MPD2    C313784   2.357   2.457   1.009  0.1001  0.8128 -0.3282
  939MPD2    C413785   2.342   2.323   1.044 -0.0111 -0.2704 -0.6323
  939MPD2    C513786   2.257   2.278   1.147  0.0339 -0.5230 -0.1206
  939MPD2     H13787   2.306   2.654   1.076  0.0132  0.1032  2.2588
  939MPD2    H113788   2.402   2.245   0.998  1.7568  1.2387 -0.8854
  939MPD2    H213789   2.112   2.335   1.292 -1.8052  0.0411 -1.6696
  939MPD2    H313790   2.237   2.172   1.160  0.8511 -0.6418  0.1849
  939MPD2     N13791   2.436   2.498   0.901 -0.5772  0.0086 -0.7306
  939MPD2    H513792   2.446   2.598   0.887  0.1739  0.2144  1.3259
  939MPD2    N113793   2.119   2.594   1.276  0.0873 -0.0825  0.0977
  939MPD2    H713794   2.051   2.560   1.343  2.5126 -0.6411  2.2869
  940MPD2     C13795   0.952   3.412  13.122  0.3733  1.4828 -0.2571
  940MPD2    C113796   0.969   3.330  13.228 -0.2022 -0.8638  0.0145
  940MPD2    C213797   1.020   3.202  13.220 -0.1445 -0.0794 -0.1897
  940MPD2    C313798   1.063   3.156  13.100  0.9397  0.6662 -0.5922
  940MPD2    C413799   1.055   3.243  12.994 -0.6963  0.7829 -0.0263
  940MPD2    C513800   0.995   3.362  13.000 -0.1275 -0.4907  0.5348
  940MPD2     H13801   1.029   3.147  13.313 -1.8259  0.2077  0.1370
  940MPD2    H113802   1.095   3.203  12.902 -2.6526 -0.6068 -0.2590
  940MPD2    H213803   0.898   3.506  13.127  1.2536  2.0184 -0.8194
  940MPD2    H313804   0.983   3.431  12.918  0.1445 -2.7261 -1.4099
  940MPD2     N13805   1.126   3.029  13.079  0.4074 -0.0328  0.7785
  940MPD2    H513806   1.153   3.006  12.984  1.4889  0.8123  0.8754
  940MPD2    N113807   0.931   3.373  13.361  0.6745 -0.0189  0.1780
  940MPD2    H713808   0.936   3.311  13.441  0.0034  1.9147  1.7282
  941MPD2     C13809   0.515   2.557  10.159 -1.1130  0.5813  0.0197
  941MPD2    C113810   0.612   2.459  10.151 -0.4067 -0.1164  0.3188
  941MPD2    C213811   0.593   2.345  10.223  0.6317  0.8505  0.6569
  941MPD2    C313812   0.476   2.309  10.280 -0.7508 -0.6848  0.0665
  941MPD2    C413813   0.377   2.402  10.270 -0.4712  0.3365 -0.0462
  941MPD2    C513814   0.390   2.523  10.207  0.4119  0.7593 -0.5801
  941MPD2     H13815   0.669   2.268  10.224  0.3715  0.5865  0.2291
  941MPD2    H113816   0.283   2.380  10.319  0.2417  1.2439  1.7211
  941MPD2    H213817   0.518   2.660  10.124 -1.4388 -0.1126 -2.1060
  941MPD2    H313818   0.311   2.595  10.195 -1.3097 -0.4976  3.1403
  941MPD2     N13819   0.453   2.201  10.363 -0.2981  0.2392  0.0887
  941MPD2    H513820   0.366   2.197  10.416 -0.1697 -0.6660  0.2164
  941MPD2    N113821   0.721   2.468  10.065  0.2491  0.3668  0.1476
  941MPD2    H713822   0.787   2.390  10.064  3.4016  3.0744 -0.9803
  942MPD2     C13823   0.557   4.189   9.790  0.3889  0.2112 -1.0496
  942MPD2    C113824   0.450   4.110   9.810 -0.3070  0.2689 -0.0518
  942MPD2    C213825   0.449   3.987   9.753  0.4994  0.2923 -0.3504
  942MPD2    C313826   0.558   3.932   9.689 -0.8364 -0.7375 -0.2655
  942MPD2    C413827   0.668   4.010   9.664 -0.2352  0.3060 -0.4862
  942MPD2    C513828   0.664   4.138   9.721  0.2954  0.5595  0.3358
  942MPD2     H13829   0.361   3.924   9.765  1.2355 -1.3738 -3.5957
  942MPD2    H113830   0.752   3.968   9.611 -0.9663  0.1854 -1.5390
  942MPD2    H213831   0.564   4.287   9.834 -0.4091  0.4368 -1.4361
  942MPD2    H313832   0.749   4.203   9.706 -0.3735  1.6181  1.1396
  942MPD2     N13833   0.557   3.800   9.634  0.7521 -0.4907 -0.3533
  942MPD2    H513834   0.625   3.778   9.562  0.0514 -0.9012 -0.8897
  942MPD2    N113835   0.338   4.155   9.887  0.6790 -0.7619 -0.1114
  942MPD2    H713836   0.263   4.087   9.887  0.1704 -0.1956 -0.7646
  943MPD2     C13837   4.228   1.292   9.667  0.2475  0.0695  0.3435
  943MPD2    C113838   4.172   1.417   9.688 -0.8109 -0.1799  0.0082
  943MPD2    C213839   4.257   1.527   9.711  0.0310  0.3139  0.4196
  943MPD2    C313840   4.391   1.509   9.705 -0.2398 -0.4260 -0.6703
  943MPD2    C413841   4.450   1.388   9.678 -0.2368  0.1076 -0.9444
  943MPD2    C513842   4.367   1.280   9.668  0.9202  0.1895 -0.3304
  943MPD2     H13843   4.210   1.624   9.720 -0.2613  0.4071 -1.9917
  943MPD2    H113844   4.557   1.371   9.687 -0.7665 -2.0751  1.2993
  943MPD2    H213845   4.168   1.204   9.649  0.5723  0.5509 -3.1064
  943MPD2    H313846   4.424   1.193   9.639  1.9323  0.4943  0.7492
  943MPD2     N13847   4.481   1.616   9.737 -0.0178  0.1384 -0.1808
  943MPD2    H513848   4.581   1.599   9.729  0.0137  0.5393 -0.6532
  943MPD2    N113849   4.033   1.430   9.657  0.1906  0.0100 -0.2906
  943MPD2    H713850   3.985   1.347   9.624 -0.4933  0.0399  0.6001
  944MPD2     C13851   3.232   1.634  10.754  0.1108 -1.2072 -0.1465
  944MPD2    C113852   3.339   1.611  10.836 -0.1458 -0.2570 -1.0053
  944MPD2    C213853   3.323   1.565  10.969 -0.2000  0.5381  0.1917
  944MPD2    C313854   3.196   1.531  11.009  0.5197  0.0222  0.0438
  944MPD2    C413855   3.086   1.561  10.929  0.0762  0.4036  0.0569
  944MPD2    C513856   3.109   1.618  10.808 -0.1106  0.1976  0.0448
  944MPD2     H13857   3.410   1.552  11.032 -0.1901 -1.2191 -0.1845
  944MPD2    H113858   2.984   1.533  10.953  0.4508  0.4376  1.7141
  944MPD2    H213859   3.231   1.655  10.647  1.0985  1.0167  0.2763
  944MPD2    H313860   3.022   1.625  10.743  1.7100  0.1295 -2.3707
  944MPD2     N13861   3.181   1.480  11.140 -0.4239  0.0796  0.6477
  944MPD2    H513862   3.256   1.468  11.208 -0.2982 -0.3001  0.4416
  944MPD2    N113863   3.461   1.628  10.771  0.1489 -0.0061 -0.5274
  944MPD2    H713864   3.455   1.685  10.687 -1.1436  1.3739  0.4988
    1TMC1    C113865   2.445   2.315  14.711 -0.3104  0.1951  0.3603
    1TMC1    C213866   2.537   2.221  14.744  0.8384  0.5829  0.8705
    1TMC1    C313867   2.537   2.107  14.664 -0.0284  0.3282 -0.2302
    1TMC1    C413868   2.344   2.299  14.614  0.5003 -0.2147  0.5739
    1TMC1    C513869   2.347   2.180  14.547  0.1352  0.8309  0.2011
    1TMC1    C613870   2.447   2.090  14.562  0.1960  0.3692 -0.0926
    1TMC1     C13871   2.454   2.431  14.792  0.3970  0.2696 -0.4803
    1TMC1     O13872   2.556   2.451  14.856 -0.9538  0.1569  0.2801
    1TMC1     H13873   2.614   2.238  14.819  1.6482  0.9607 -0.0566
    1TMC1    H113874   2.288   2.385  14.580 -0.0884 -1.6907 -2.1605
    1TMC1    H213875   2.446   2.003  14.497 -2.6578  1.2285 -1.1946
    1TMC1    C713876   2.239   2.154  14.447 -0.3994 -0.0536 -0.6837
    1TMC1    C813877   2.596   1.985  14.722 -0.4855  0.5717  0.4498
    1TMC1    O113878   2.204   2.043  14.422  0.1422 -0.4898  0.1248
    1TMC1    O213879   2.685   1.946  14.649  0.7280 -0.7032 -0.7474
    1TMC1    O313880   2.252   2.248  14.351  0.0251  0.6267  0.1310
    1TMC1    H313881   2.292   2.333  14.376  2.7254  0.0585 -2.3046
    1TMC1    O513882   2.606   2.006  14.851  0.2878  0.2432  0.6288
    1TMC1    H513883   2.513   2.014  14.883  0.8127  1.8336  1.7619
    2MPD2     C13884   2.281   2.908  14.899  0.0683 -0.5240 -0.3286
    2MPD2    C113885   2.187   2.838  14.821  0.1424  0.1947  0.4788
    2MPD2    C213886   2.207   2.704  14.791 -0.1480  0.2364  0.0571
    2MPD2    C313887   2.331   2.646  14.823 -0.0482  0.3129  0.4074
    2MPD2    C413888   2.423   2.713  14.897 -0.6332  0.0131 -0.2229
    2MPD2    C513889   2.398   2.842  14.930  0.1784 -0.1172 -0.4634
    2MPD2     H13890   2.134   2.652  14.730 -1.0291  0.2125  1.1134
    2MPD2    H113891   2.517   2.666  14.923 -0.5722 -0.1058 -0.6502
    2MPD2    H213892   2.259   3.005  14.943  0.2773  0.6537 -2.8338
    2MPD2    H313893   2.470   2.884  14.999  0.6592 -0.0143 -1.0264
    2MPD2     N13894   2.341   2.510  14.778 -0.0253  0.4481  0.5299
    2MPD2    H513895   2.262   2.464  14.734  0.2453 -1.1476  1.6978
    2MPD2    N113896   2.071   2.902  14.784  0.1472  0.0879 -0.6478
    2MPD2    H713897   2.047   2.988  14.831 -1.8435 -0.8500  0.0428
    3TMC2    C113898   1.857   2.934  14.703  0.0724  0.4065  0.0839
    3TMC2    C213899   1.818   2.955  14.835 -0.1485 -0.0716  0.3971
    3TMC2    C313900   1.688   2.983  14.859  0.1061  0.8590  0.4460
    3TMC2    C413901   1.763   2.945  14.604 -0.1869  0.0581 -0.5576
    3TMC2    C513902   1.633   2.977  14.636  0.1125  0.4083  0.2960
    3TMC2    C613903   1.592   2.998  14.762 -0.4942 -0.6243  0.4745
    3TMC2     C13904   1.977   2.867  14.681 -0.4376  0.0238  0.0018
    3TMC2     O13905   1.996   2.788  14.591 -0.0311 -0.4523 -0.2122
    3TMC2     H13906   1.886   2.933  14.917  0.9068  0.3313 -0.3708
    3TMC2    H113907   1.783   2.905  14.506  0.0281 -2.9289  0.6987
    3TMC2    H213908   1.490   3.027  14.782  0.2368  2.2949 -0.0217
    3TMC2    C713909   1.531   2.993  14.530  0.4037  0.4721 -0.1432
    3TMC2    C813910   1.658   3.030  14.992  0.7355  0.5615  0.3544
    3TMC2    O113911   1.416   3.006  14.573  1.1498 -0.0238 -0.0253
    3TMC2    O213912   1.542   3.025  15.022  0.0685  0.3243  0.4462
    3TMC2    O513913   1.756   3.085  15.066  0.5629  0.2976 -0.5441
    3TMC2    H513914   1.845   3.093  15.026  0.0983  1.5687 -1.3086
    4TMC2    C113915   1.683   3.364  13.586 -0.2579 -0.0308 -0.1066
    4TMC2    C213916   1.773   3.301  13.501  0.3248 -0.1455 -0.2417
    4TMC2    C313917   1.854   3.204  13.559  0.2966 -0.6571 -1.1910
    4TMC2    C413918   1.656   3.314  13.712 -0.0075  0.9999  0.3031
    4TMC2    C513919   1.741   3.219  13.761  0.5209  0.6184  0.4669
    4TMC2    C613920   1.841   3.154  13.686  0.3139  0.3246  0.0731
    4TMC2     C13921   1.627   3.490  13.560 -0.1804  0.1700 -0.2102
    4TMC2     O13922   1.636   3.570  13.649  0.5934 -0.7384 -0.3163
    4TMC2     H13923   1.812   3.340  13.408  0.4831  0.1422 -0.0558
    4TMC2    H113924   1.587   3.369  13.775 -3.0370 -1.7929 -0.5531
    4TMC2    H213925   1.899   3.073  13.729 -1.8783 -0.5984  1.2441
    4TMC2    C713926   1.711   3.162  13.896  0.0087  0.5271  0.4597
    4TMC2    C813927   1.957   3.151  13.481  0.7696  0.2388  0.1738
    4TMC2    O113928   1.793   3.093  13.958 -0.4221 -0.3141 -0.4042
    4TMC2    O213929   1.933   3.126  13.364  0.6442  0.5013 -0.4277
    4TMC2    O513930   2.051   3.239  13.512  0.0638  0.5642 -0.2784
    4TMC2    H513931   2.034   3.262  13.606  1.4157 -1.4962  0.4775
    5MPD2     C13932   1.572   3.860  13.197 -0.1377 -0.0652 -0.7568
    5MPD2    C113933   1.599   3.741  13.135 -0.8371 -0.6042 -0.4472
    5MPD2    C213934   1.617   3.629  13.217 -0.3258  0.2821 -0.7685
    5MPD2    C313935   1.602   3.631  13.354  0.3145  0.4409 -0.4597
    5MPD2    C413936   1.585   3.758  13.417  0.2751 -0.0557  0.9582
    5MPD2    C513937   1.575   3.867  13.335 -0.0326 -0.0345 -0.0274
    5MPD2     H13938   1.631   3.531  13.171 -2.9710  0.3794 -1.7563
    5MPD2    H113939   1.596   3.761  13.525  0.0719  0.8810  0.9518
    5MPD2    H213940   1.555   3.955  13.147  0.3969  0.1784 -0.4707
    5MPD2    H313941   1.583   3.967  13.376  0.5509  0.1302 -0.5460
    5MPD2     N13942   1.624   3.508  13.424  0.3268 -0.5596  0.5897
    5MPD2    H513943   1.637   3.427  13.363 -1.7423 -0.3436 -0.1387
    5MPD2    N113944   1.589   3.714  13.003  0.0205  0.2985  0.2771
    5MPD2    H713945   1.599   3.617  12.976 -1.7756 -0.1283  1.1144
    6MPD1     C13946   0.259   0.185  12.813 -0.1537 -0.1849  0.2182
    6MPD1    C113947   0.229   0.074  12.734 -0.1565 -0.3711 -0.3742
    6MPD1    C213948   0.324   4.710  12.710  0.1157  0.1463  0.4301
    6MPD1    C313949   0.455   4.720  12.761 -0.3876 -0.4013  0.4230
    6MPD1    C413950   0.484   0.098  12.838 -0.4727 -0.8230 -0.5275
    6MPD1    C513951   0.388   0.199  12.859 -0.3902 -0.4529  0.8333
    6MPD1     H13952   0.287   4.625  12.655 -0.2196 -0.6000  1.7946
    6MPD1    H113953   0.581   0.113  12.884 -1.3578 -0.2806  1.1284
    6MPD1    H213954   0.191   0.264  12.844 -1.5572 -2.3214  2.5717
    6MPD1    H313955   0.421   0.290  12.908 -0.0251 -0.4842  0.6459
    6MPD1     N13956   0.553   4.615  12.756  0.1641 -0.6690  0.5277
    6MPD1    H513957   0.647   4.642  12.783  0.2499  0.2811 -0.6777
    6MPD1    N113958   0.098   0.047  12.692 -0.2704 -0.4330  0.1659
    6MPD1    H613959   0.100   4.701  12.632  0.0643 -0.0895 -0.2907
    6MPD1    H713960   0.034   0.123  12.669 -0.3753 -0.2726  0.9925
    7MPD2     C13961   0.772   3.740  12.720 -0.3291 -0.3308 -0.0291
    7MPD2    C113962   0.849   3.838  12.655  0.1227  0.4494  0.0877
    7MPD2    C213963   0.973   3.809  12.609  0.2800 -0.4379 -0.4158
    7MPD2    C313964   1.030   3.684  12.640  0.9029  0.1508  0.1964
    7MPD2    C413965   0.958   3.588  12.708  0.0010  0.3570  0.7150
    7MPD2    C513966   0.828   3.619  12.747  0.1700 -0.4210 -0.3465
    7MPD2     H13967   1.034   3.885  12.562  1.5749 -1.4066 -0.3034
    7MPD2    H113968   1.008   3.495  12.734  1.3968  1.3458  1.5737
    7MPD2    H213969   0.678   3.755  12.771 -1.2409 -0.4987 -1.6540
    7MPD2    H313970   0.773   3.546  12.806 -2.0409  0.9784 -0.6807
    7MPD2     N13971   1.171   3.672  12.613 -0.1386 -0.2313  0.2439
    7MPD2    H513972   1.220   3.751  12.573  0.7636 -0.1621  1.4792
    7MPD2    N113973   0.803   3.966  12.644 -0.8076  0.1610 -0.1175
    7MPD2    H713974   0.861   4.024  12.585 -1.2691  0.0447 -0.6908
    8TMC3    C113975   1.397   3.623  12.651 -0.0077  0.4385 -0.2558
    8TMC3    C213976   1.457   3.634  12.774 -0.1025 -0.0730  0.0473
    8TMC3    C313977   1.542   3.738  12.777  1.0341  0.4467  0.2626
    8TMC3    C413978   1.427   3.707  12.546  0.3178 -0.2515  0.0059
    8TMC3    C513979   1.505   3.818  12.558 -0.3732 -0.0234 -1.0186
    8TMC3    C613980   1.580   3.823  12.676 -0.2483  0.0326  0.1939
    8TMC3     C13981   1.260   3.574  12.651 -0.0893  0.0002  0.1943
    8TMC3     O13982   1.241   3.474  12.714 -0.6753 -0.1370  0.3006
    8TMC3     H13983   1.429   3.572  12.858 -1.9680 -0.8279 -1.1124
    8TMC3    H113984   1.372   3.688  12.455  1.7982  1.6632 -1.2948
    8TMC3    H213985   1.653   3.903  12.689 -2.3162  1.9278  0.0719
    8TMC3    C713986   1.429   3.938  12.530  0.1802 -0.5856  0.2167
    8TMC3    C813987   1.568   3.800  12.905 -0.0023  0.5700  0.3188
    8TMC3    O113988   1.308   3.921  12.501  0.0697 -0.2346 -0.0083
    8TMC3    O213989   1.573   3.925  12.905 -0.3704 -0.0952 -0.2472
    9TMC3    C113990   0.640   4.385  12.740 -0.1774  0.2580 -0.4367
    9TMC3    C213991   0.768   4.444  12.746 -0.4702 -0.0314  0.3203
    9TMC3    C313992   0.872   4.355  12.745  0.1633 -0.2655  0.7165
    9TMC3    C413993   0.615   4.246  12.735 -0.2072  0.6468  0.9333
    9TMC3    C513994   0.726   4.168  12.732  0.3281  0.4008 -0.0348
    9TMC3    C613995   0.854   4.219  12.726  0.3646  0.0939 -0.2302
    9TMC3     C13996   0.527   4.483  12.719 -0.5007 -0.0661  0.9003
    9TMC3     O13997   0.417   4.433  12.679  0.0808 -0.6044 -0.1940
    9TMC3     H13998   0.794   4.548  12.731  2.7378 -0.7619  0.7433
    9TMC3    H113999   0.512   4.217  12.719  0.4353 -1.3009  0.1891
    9TMC3    H214000   0.934   4.147  12.733 -2.0514 -2.5670  0.2039
    9TMC3    C714001   0.708   4.024  12.722 -0.1300 -0.5402 -0.9213
    9TMC3    C814002   1.012   4.400  12.734  0.1433 -0.3529  0.0835
    9TMC3    O114003   0.609   3.977  12.781 -0.4371 -0.6315 -0.1250
    9TMC3    O214004   1.047   4.505  12.790 -0.0569 -0.0934  0.0800
   10MPD2     C14005   1.504   4.295  12.611  0.4468 -0.3270 -0.1625
   10MPD2    C114006   1.430   4.179  12.591  1.0815 -0.5867  0.5957
   10MPD2    C214007   1.290   4.195  12.606  0.5562  0.2854 -0.0037
   10MPD2    C314008   1.230   4.315  12.647  0.2174 -0.1770  0.3097
   10MPD2    C414009   1.307   4.428  12.668  0.8179  0.0633  0.5702
   10MPD2    C514010   1.442   4.417  12.644  0.2959 -0.3707  0.4464
   10MPD2     H14011   1.221   4.111  12.602  1.0327 -0.1009 -0.1193
   10MPD2    H114012   1.264   4.517  12.712 -1.7090 -2.0783  2.4167
   10MPD2    H214013   1.611   4.292  12.592  0.5115  1.4730 -0.1433
   10MPD2    H314014   1.503   4.504  12.668 -0.2252  0.3274 -0.7952
   10MPD2     N14015   1.091   4.308  12.676 -0.1846  0.5140 -0.1849
   10MPD2    H514016   1.051   4.218  12.655  2.9502 -0.9319 -0.0587
   10MPD2    N114017   1.495   4.057  12.562 -0.2384  0.0186  0.0577
   10MPD2    H714018   1.596   4.064  12.570 -0.2262 -0.2669  0.1583
   11MPD2     C14019   1.376   3.099  14.286 -0.6042 -0.6256  0.0827
   11MPD2    C114020   1.513   3.067  14.286  0.5742 -0.1983  0.0748
   11MPD2    C214021   1.587   3.100  14.171  0.4049 -0.1043 -0.1108
   11MPD2    C314022   1.526   3.158  14.062  0.6609 -0.2410  0.0856
   11MPD2    C414023   1.392   3.189  14.067 -0.2104 -0.0772 -0.0055
   11MPD2    C514024   1.319   3.161  14.181 -0.0954 -0.5018 -0.3446
   11MPD2     H14025   1.692   3.075  14.170  0.1445 -1.2328  0.7080
   11MPD2    H114026   1.346   3.237  13.982  2.1193  1.1151 -0.5895
   11MPD2    H214027   1.323   3.101  14.381  0.9382  1.7708  0.8848
   11MPD2    H314028   1.214   3.183  14.194  0.1777  0.8746 -0.4402
   11MPD2     N14029   1.591   3.201  13.942 -0.4263 -0.1493  0.3090
   11MPD2    H514030   1.534   3.255  13.878 -1.8455  0.5586  2.1603
   11MPD2    N114031   1.584   3.018  14.403  0.5042 -0.5933 -0.3610
   11MPD2    H714032   1.683   3.006  14.387  0.9187  2.0852  0.2105
    1MPD1     C14033   0.166   4.400  15.860 -0.1325  0.2363 -0.0040
    1MPD1    C114034   0.104   4.523  15.860  0.8099 -0.0219 -0.1576
    1MPD1    C214035   0.073   4.584  15.983  0.0834  0.3909 -0.3657
    1MPD1    C314036   0.137   4.541  16.094 -0.2946 -0.6388  0.4932
    1MPD1    C414037   0.206   4.424  16.087  0.5115 -0.2527 -1.0711
    1MPD1    C514038   0.218   4.348  15.970 -0.1984  0.2487  0.2376
    1MPD1     H14039   0.006   4.669  15.984  0.8712  1.0212 -0.9814
    1MPD1    H114040   0.253   4.374  16.172 -2.1188 -2.7836 -1.1319
    1MPD1    H214041   0.180   4.345  15.768  2.3336  2.8343 -1.1701
    1MPD1    H314042   0.271   4.254  15.973  0.7769  0.7121 -2.4166
    1MPD1     N14043   0.135   4.609  16.218  0.6203  0.6650  0.1790
    1MPD1    H514044   0.209   4.598  16.287  2.2382  1.4508 -1.4264
    1MPD1    N114045   0.030   4.554  15.747 -0.1253 -0.3340 -0.1940
    1MPD1    H614046   4.724   4.647  15.740  0.5330 -0.1508 -1.5392
    1MPD1    H714047   0.074   4.538  15.657 -1.0454 -2.2365 -0.2843
    2MPD1     C14048   4.225   0.538  16.609  0.1018  0.3190 -0.3785
    2MPD1    C114049   4.207   0.408  16.566  0.7043 -0.2828  0.3863
    2MPD1    C214050   4.326   0.342  16.537 -0.2575  0.0639 -0.1117
    2MPD1    C314051   4.454   0.394  16.568  0.6606  0.1573  0.3171
    2MPD1    C414052   4.463   0.517  16.633 -0.3926 -0.1448  0.0713
    2MPD1    C514053   4.346   0.587  16.648 -0.5047  0.3491  0.7103
    2MPD1     H14054   4.326   0.245  16.489  1.0427  1.3452 -2.7008
    2MPD1    H114055   4.550   0.572  16.668 -0.1132 -0.1279 -0.6551
    2MPD1    H214056   4.138   0.602  16.621 -1.1115 -1.1865 -1.1150
    2MPD1    H314057   4.342   0.686  16.693 -0.2933  0.0016  1.5051
    2MPD1     N14058   4.560   0.304  16.547 -0.0881  0.2638  0.1191
    2MPD1    H514059   4.530   0.211  16.522 -0.0744  0.1653  0.4692
    2MPD1    N114060   4.091   0.359  16.508 -0.3067 -0.6849 -0.1290
    2MPD1    H614061   4.006   0.409  16.534 -0.2927 -0.1719 -1.0636
    2MPD1    H714062   4.084   0.258  16.509 -0.1393 -0.7337 -3.0366
    3TMC3    C114063   0.043   0.217  16.521 -0.4210 -0.5943  0.6718
    3TMC3    C214064   0.173   0.213  16.569 -0.2479  0.2643 -0.8289
    3TMC3    C314065   0.265   0.144  16.497 -0.6740 -0.7272 -0.4558
    3TMC3    C414066   0.000   0.138  16.414  0.1448 -0.1383  1.4193
    3TMC3    C514067   0.091   0.063  16.359 -0.1209  0.4428  0.4421
    3TMC3    C614068   0.222   0.061  16.393  0.0232 -0.4201 -0.3849
    3TMC3     C14069   4.696   0.327  16.559  0.5348 -0.4299  0.1397
    3TMC3     O14070   0.020   0.433  16.577  0.3513 -0.1891  0.7009
    3TMC3     H14071   0.195   0.279  16.651  0.8029 -0.7352 -0.3034
    3TMC3    H114072   4.634   0.140  16.377  0.5390  0.7830  0.3971
    3TMC3    H214073   0.295   0.000  16.342 -0.6579 -0.5744 -1.1773
    3TMC3    C714074   0.038   4.712  16.249  0.4536  0.7623  0.5430
    3TMC3    C814075   0.403   0.167  16.532 -0.2197  0.0155 -0.6697
    3TMC3    O114076   4.666   4.732  16.206 -0.0053  0.0745 -0.5838
    3TMC3    O214077   0.418   0.261  16.611 -0.0348 -0.0376  0.1338
    4MPD1     C14078   0.903   0.054  16.515 -0.0122 -0.8516 -0.4187
    4MPD1    C114079   0.836   4.691  16.442  0.3918  0.8145  0.2905
    4MPD1    C214080   0.701   4.709  16.434 -0.1664  0.2591  0.8066
    4MPD1    C314081   0.626   0.069  16.497 -0.5386 -0.4613  0.6923
    4MPD1    C414082   0.696   0.154  16.573  0.9273  0.2373 -0.2017
    4MPD1    C514083   0.830   0.147  16.587 -0.6452  0.0620  0.1644
    4MPD1     H14084   0.643   4.650  16.364 -0.8544 -0.2372  1.7855
    4MPD1    H114085   0.651   0.244  16.614  2.1779  0.7551  0.0155
    4MPD1    H214086   1.009   0.053  16.537 -0.3876 -1.0756  1.3475
    4MPD1    H314087   0.875   0.223  16.650  0.6733  0.2924 -1.0570
    4MPD1     N14088   0.488   0.074  16.478 -0.0786  0.2198 -0.2241
    4MPD1    H514089   0.456   4.729  16.425 -0.9968  0.8103 -0.5631
    4MPD1    N114090   0.916   4.606  16.362 -0.0726  0.1100 -0.1657
    4MPD1    H614091   1.000   4.583  16.415  0.4363 -0.4725 -1.2217
    4MPD1    H714092   0.886   4.515  16.329 -0.5866 -0.2665  1.3510
    1TCq1    O114093   4.394   0.998   9.340 -0.4726 -0.0654  0.4462
    1TCq1    C114094   4.286   1.049   9.400  0.8975 -0.5218 -0.2087
    1TCq1    O214095   4.199   0.999   9.473  0.6664 -0.5606  0.1584
    1TCq1    C214096   4.270   1.187   9.353  0.2508  0.2354 -0.2154
    1TCq1    C314097   4.143   1.236   9.361  0.7988 -0.6812 -0.0190
    1TCq1    C414098   4.126   1.365   9.335  0.2848  0.7059  0.0123
    1TCq1    C514099   4.230   1.453   9.311  0.1232 -0.0299  0.1940
    1TCq1    C614100   4.359   1.399   9.315 -0.1299 -0.3282 -0.3583
    1TCq1    C714101   4.381   1.266   9.338  0.2566 -0.0019  0.5787
    1TCq1    C814102   4.471   1.488   9.321 -0.9659 -0.8615  0.3963
    1TCq1    O414103   4.573   1.441   9.275 -0.0798  0.4081 -0.2276
    1TCq1    C914104   3.989   1.412   9.306 -0.6125  0.1491 -0.0875
    1TCq1    O514105   3.967   1.541   9.296 -0.2440  0.1938  0.4798
    1TCq1    O614106   3.900   1.327   9.284 -0.3345  0.0708  0.6106
    1TCq1    H114107   4.421   1.059   9.267  0.9773 -2.0227 -0.6441
    1TCq1    H214108   4.070   1.156   9.360  0.5842 -0.4920  1.0415
    1TCq1    H314109   4.217   1.549   9.264 -1.6661 -0.8778 -1.0126
    1TCq1    H414110   4.484   1.237   9.360  1.7156  3.2904 -1.9047
    2MPD1     C14111   4.670   1.944   9.453 -0.0808  0.1572  0.0024
    2MPD1    C114112   4.533   1.959   9.458  1.0910 -0.1125 -0.4132
    2MPD1    C214113   4.458   1.847   9.427 -0.3008 -0.7473 -0.8075
    2MPD1    C314114   4.515   1.727   9.395 -0.4167  0.6994 -0.1189
    2MPD1    C414115   4.651   1.709   9.396  0.0617 -0.6095  0.3664
    2MPD1    C514116   4.725   1.819   9.427 -0.0942 -0.0869 -0.8523
    2MPD1     H14117   4.349   1.849   9.421 -0.3447 -1.4598 -0.1334
    2MPD1    H114118   4.701   1.617   9.370  0.0215 -0.8959  1.3042
    2MPD1    H214119   4.734   2.029   9.470 -0.5743  0.7412 -1.0558
    2MPD1    H314120   0.096   1.816   9.412 -0.0658 -1.0470 -0.4482
    2MPD1     N14121   4.429   1.614   9.365  0.0101 -0.0493 -0.0731
    2MPD1    H514122   4.329   1.626   9.378 -0.0807 -1.3538  0.4373
    2MPD1    N114123   4.475   2.076   9.514  0.1429 -0.5674 -0.3894
    2MPD1    H614124   4.383   2.087   9.471 -0.5841  2.6642  2.0025
    2MPD1    H714125   4.528   2.157   9.485 -0.8478 -0.1347 -0.9985
    1TMC1    C114126   1.695   1.960  15.499 -0.0120 -0.2225  0.2781
    1TMC1    C214127   1.685   2.058  15.586 -0.2379  0.3310  0.6313
    1TMC1    C314128   1.803   2.124  15.621  0.5689 -0.2312  0.3010
    1TMC1    C414129   1.812   1.916  15.452  0.5939  0.2314  0.5131
    1TMC1    C514130   1.927   1.988  15.479  0.6546 -0.3032 -0.3335
    1TMC1    C614131   1.920   2.099  15.560 -1.0025 -0.1420  0.0371
    1TMC1     C14132   1.564   1.900  15.451 -0.3967 -0.6265  0.8540
    1TMC1     O14133   1.467   1.978  15.445 -0.1598  0.3128  0.2429
    1TMC1     H14134   1.588   2.098  15.613 -1.7803 -1.0530 -2.8276
    1TMC1    H114135   1.815   1.821  15.398 -0.6962  0.0001  0.8531
    1TMC1    H214136   2.004   2.156  15.597 -0.8160 -0.5413  0.2271
    1TMC1    C714137   2.044   1.908  15.479 -0.1555  0.8540 -0.2632
    1TMC1    C814138   1.803   2.246  15.698 -0.5197 -0.1120 -0.0647
    1TMC1    O114139   2.045   1.805  15.537 -0.0995  0.4337 -0.2080
    1TMC1    O214140   1.868   2.344  15.682 -0.4271  0.4887 -0.0328
    1TMC1    O314141   2.143   1.975  15.410  0.3803  0.3371  0.4979
    1TMC1    H314142   2.106   2.063  15.389  0.6726 -0.0510 -1.6687
    1TMC1    O514143   1.748   2.214  15.811  0.5330  0.6476 -0.0452
    1TMC1    H514144   1.724   2.119  15.814 -1.8687  1.2546 -0.2006
    2MPD1     C14145   1.314   1.486  15.262  0.3998  0.0456  0.2766
    2MPD1    C114146   1.264   1.620  15.279 -0.2284 -0.1384  0.2029
    2MPD1    C214147   1.352   1.718  15.330 -0.4196  0.3641  0.4917
    2MPD1    C314148   1.478   1.673  15.372 -0.0750 -0.0442  0.2662
    2MPD1    C414149   1.512   1.536  15.368  0.0580 -0.4540  0.4310
    2MPD1    C514150   1.430   1.444  15.313  0.1551  0.1316  0.3074
    2MPD1     H14151   1.316   1.819  15.343  0.5629  0.7179  0.4692
    2MPD1    H114152   1.605   1.507  15.416 -0.4696  0.6992  2.1448
    2MPD1    H214153   1.260   1.411  15.207 -0.2507  0.4946  0.2988
    2MPD1    H314154   1.464   1.341  15.318  1.5159  0.3881 -3.8369
    2MPD1     N14155   1.573   1.760  15.422 -0.3068  0.0174 -0.0029
    2MPD1    H514156   1.659   1.712  15.446 -0.2409 -0.2957 -0.8712
    2MPD1    N114157   1.148   1.652  15.208  0.3477 -0.3945  0.3963
    2MPD1    H614158   1.082   1.574  15.199 -0.2993  0.1781  0.1892
    2MPD1    H714159   1.099   1.732  15.246  0.9222  0.7747 -1.3257
    1MPD1     C14160   1.948   3.421  12.608  0.2106  0.5939 -0.7202
    1MPD1    C114161   2.066   3.440  12.533  0.6758 -0.1511  0.0097
    1MPD1    C214162   2.106   3.561  12.493  1.0032 -0.4315 -0.3138
    1MPD1    C314163   2.028   3.674  12.514 -0.4915 -0.1015 -0.7169
    1MPD1    C414164   1.912   3.661  12.588  0.1334  0.2808  0.3452
    1MPD1    C514165   1.882   3.537  12.638 -0.7763  0.5574  0.7912
    1MPD1     H14166   2.196   3.571  12.433  1.2670  1.5054  0.4035
    1MPD1    H114167   1.867   3.753  12.622  2.1088  0.7267  1.7697
    1MPD1    H214168   1.924   3.336  12.671 -0.6907  1.0314 -0.4630
    1MPD1    H314169   1.800   3.532  12.709 -0.0675 -0.3811  1.5592
    1MPD1     N14170   2.085   3.800  12.475 -0.3197 -0.8889 -0.8526
    1MPD1    H514171   2.172   3.806  12.424 -0.0169 -1.2113 -0.3675
    1MPD1    N114172   2.155   3.337  12.515 -0.2456  0.2000 -0.4347
    1MPD1    H614173   2.110   3.246  12.519 -1.5006  0.7311 -2.5152
    1MPD1    H714174   2.217   3.345  12.434  1.2233  0.0464  0.6778
    2MPD1     C14175   2.298   0.948  11.048  0.1310 -0.5375  0.0030
    2MPD1    C114176   2.292   0.908  11.176 -0.0005  0.4544 -0.1773
    2MPD1    C214177   2.257   0.777  11.216  0.1582  0.0143 -0.4888
    2MPD1    C314178   2.254   0.680  11.114 -0.6682  0.0311  0.2852
    2MPD1    C414179   2.272   0.719  10.987  0.4902  0.4873 -0.0759
    2MPD1    C514180   2.300   0.855  10.955  0.8789 -0.2959 -0.1948
    2MPD1     H14181   2.236   0.764  11.322  2.4472  2.7556  0.3046
    2MPD1    H114182   2.272   0.650  10.903  0.3023  0.8028 -0.3365
    2MPD1    H214183   2.311   1.052  11.019 -1.4484 -1.1339 -2.8018
    2MPD1    H314184   2.317   0.885  10.853 -0.3408  0.7815 -0.0818
    2MPD1     N14185   2.222   0.545  11.140 -0.0774  0.2461 -0.0938
    2MPD1    H514186   2.228   0.475  11.067  0.7561 -0.4997  0.6728
    2MPD1    N114187   2.305   1.010  11.279  0.1764 -0.2197  0.1353
    2MPD1    H614188   2.342   0.981  11.369  1.9659 -0.1351 -0.5737
    2MPD1    H714189   2.372   1.080  11.250  0.6741 -0.6667  0.2096
    3MPD1     C14190   2.504   4.681  10.611 -0.4535  0.5120  0.1752
    3MPD1    C114191   2.410   4.604  10.681  0.4700 -0.5314  0.2393
    3MPD1    C214192   2.351   4.654  10.795  0.0334 -0.5960  0.3007
    3MPD1    C314193   2.369   0.051  10.832  0.5147  0.1866 -0.1153
    3MPD1    C414194   2.458   0.122  10.760  0.0095  0.1609 -0.0291
    3MPD1    C514195   2.527   0.063  10.663  0.5075  0.0519 -0.2079
    3MPD1     H14196   2.290   4.593  10.860 -0.8184 -0.0133  0.0494
    3MPD1    H114197   2.467   0.228  10.778 -3.2731  0.1716  1.4780
    3MPD1    H214198   2.546   4.657  10.515 -0.8086 -0.3765  0.2337
    3MPD1    H314199   2.587   0.138  10.613 -0.6517  0.4878 -0.9388
    3MPD1     N14200   2.305   0.120  10.943 -0.8137 -0.1704  0.2432
    3MPD1    H514201   2.310   0.221  10.947 -0.6311 -0.1343 -0.9895
    3MPD1    N114202   2.385   4.473  10.647 -0.1215 -0.0097  0.3604
    3MPD1    H614203   2.292   4.435  10.660 -0.4768  0.8833  0.4231
    3MPD1    H714204   2.415   4.458  10.551  1.3215  2.8458  0.3628
    4MPD2     C14205   2.225   4.600  12.283  0.0272  0.9019 -0.2593
    4MPD2    C114206   2.316   4.511  12.317 -0.1599 -0.6453 -0.1553
    4MPD2    C214207   2.441   4.516  12.264  0.0463  0.1411 -0.7765
    4MPD2    C314208   2.472   4.615  12.169  0.2224 -0.1544  0.7112
    4MPD2    C414209   2.372   4.708  12.145  0.8067 -0.9529  0.5125
    4MPD2    C514210   2.252   4.701  12.202  0.5314 -0.4966  0.2897
    4MPD2     H14211   2.518   4.441  12.283  0.8850  0.5289 -2.5951
    4MPD2    H114212   2.397   0.070  12.105  0.2662 -0.6536  0.9160
    4MPD2    H214213   2.128   4.604  12.331 -0.0912  1.6492 -0.5536
    4MPD2    H314214   2.182   0.045  12.180  1.6606  0.0632 -1.2459
    4MPD2     N14215   2.588   4.617  12.096  0.5747  0.5532  0.0492
    4MPD2    H514216   2.593   4.670  12.010  2.3621  2.2602  1.2017
    4MPD2    N114217   2.290   4.408  12.412  0.7765 -0.1808 -0.4184
    4MPD2    H714218   2.370   4.347  12.426  1.2490  0.6154  0.3564
    5TMC3    C114219   2.187   4.252  12.539 -0.1992 -0.6883 -0.6255
    5TMC3    C214220   2.094   4.157  12.512 -0.2707 -0.1681 -0.4968
    5TMC3    C314221   2.139   4.027  12.504  0.0116 -0.4607  0.2596
    5TMC3    C414222   2.322   4.217  12.558  1.1569  0.3267 -0.0816
    5TMC3    C514223   2.362   4.083  12.540  0.6390 -0.3246  0.4740
    5TMC3    C614224   2.267   3.984  12.520 -0.8293 -0.2825 -0.3755
    5TMC3     C14225   2.169   4.373  12.467  0.3082 -0.0957 -0.5322
    5TMC3     O14226   2.058   4.416  12.441 -0.1997 -0.3350 -0.1723
    5TMC3     H14227   1.989   4.184  12.504 -0.1303  0.9133  1.2854
    5TMC3    H114228   2.396   4.291  12.585  0.8505  0.8871 -0.7833
    5TMC3    H214229   2.307   3.883  12.512  0.9092  0.4116 -0.5793
    5TMC3    C714230   2.474   4.087  12.434 -1.0503 -0.1167 -0.5919
    5TMC3    C814231   2.034   3.927  12.496 -0.2209  0.2650 -0.1551
    5TMC3    O114232   2.504   4.201  12.403 -0.8569  0.0678  0.5316
    5TMC3    O214233   1.930   3.962  12.548 -0.1642 -0.0369 -0.1535
    6TMC3    C114234   2.151   0.361  11.264  0.2932 -0.4047 -0.2698
    6TMC3    C214235   2.223   0.285  11.174 -0.3654 -0.0508  0.1666
    6TMC3    C314236   2.193   0.150  11.156  0.1303  0.0120 -0.1987
    6TMC3    C414237   2.062   0.304  11.346  0.2781 -0.0858  0.1737
    6TMC3    C514238   2.048   0.166  11.341  0.4132  0.1468 -0.3059
    6TMC3    C614239   2.108   0.094  11.246 -0.5764  0.2490 -0.0005
    6TMC3     C14240   2.162   0.501  11.259 -0.0816  0.0200 -0.0040
    6TMC3     O14241   2.097   0.564  11.344 -0.3746 -0.5082 -0.0281
    6TMC3     H14242   2.312   0.325  11.127  0.5521 -0.1342  1.8290
    6TMC3    H114243   2.016   0.359  11.427 -0.2850  0.4872 -0.5352
    6TMC3    H214244   2.088   4.723  11.241  0.6348 -0.0042  0.7417
    6TMC3    C714245   2.031   0.089  11.463  0.1894 -1.0768  0.2845
    6TMC3    C814246   2.250   0.058  11.058 -0.2429  0.3399  0.0559
    6TMC3    O114247   1.919   0.094  11.512  0.2617 -0.0949 -0.8709
    6TMC3    O214248   2.237   4.674  11.079 -0.1535 -0.7479  0.0477
    7MPD2     C14249   2.847   3.907  12.124  0.2625  0.8095 -0.1053
    7MPD2    C114250   2.754   4.011  12.114  0.3540 -0.6368 -0.2435
    7MPD2    C214251   2.653   4.033  12.201  0.5669 -0.0983 -1.2958
    7MPD2    C314252   2.636   3.944  12.311 -0.0714 -0.5536 -0.8590
    7MPD2    C414253   2.710   3.824  12.305 -0.3569 -0.2981  0.0070
    7MPD2    C514254   2.823   3.817  12.228  0.4367  0.2970  0.7370
    7MPD2     H14255   2.590   4.118  12.178 -0.6546 -0.3817  0.9903
    7MPD2    H114256   2.698   3.755  12.388  1.4751  0.1197  0.6012
    7MPD2    H214257   2.927   3.890  12.054  0.8740  1.0155  0.5331
    7MPD2    H314258   2.897   3.739  12.243  1.8488  1.2801 -1.0716
    7MPD2     N14259   2.531   3.966  12.409 -0.0954 -0.1254 -0.4101
    7MPD2    H514260   2.517   3.890  12.475 -2.0458  0.9525  0.4101
    7MPD2    N114261   2.773   4.099  12.004  0.6212 -0.3631  0.5067
    7MPD2    H714262   2.869   4.102  11.970  0.3275 -3.5904 -0.5691
    8TMC3    C114263   2.740   4.294  11.895 -0.3158 -0.2947  0.4003
    8TMC3    C214264   2.681   4.348  11.784 -0.0976  0.4834  0.1779
    8TMC3    C314265   2.671   4.482  11.778 -0.2567  0.0469 -0.9632
    8TMC3    C414266   2.790   4.372  11.993 -0.5077  0.4357 -0.3187
    8TMC3    C514267   2.767   4.512  11.987 -0.0637  0.5674  0.1158
    8TMC3    C614268   2.713   4.565  11.875  0.1204  0.2688  0.6350
    8TMC3     C14269   2.682   4.180  11.948  0.2136 -0.0914 -0.3517
    8TMC3     O14270   2.558   4.171  11.944  0.6260  0.2990  0.1335
    8TMC3     H14271   2.642   4.280  11.710  0.3774  0.4289 -0.0259
    8TMC3    H114272   2.840   4.341  12.084  1.7802  1.4740 -1.2148
    8TMC3    H214273   2.682   4.668  11.863  2.7195  0.9649 -0.2276
    8TMC3    C714274   2.701   4.539  12.115 -0.2595 -0.2469 -0.3269
    8TMC3    C814275   2.552   4.534  11.716  0.0586 -0.4700 -0.4364
    8TMC3    O114276   2.725   4.464  12.207  0.4669  0.4530 -0.0516
    8TMC3    O214277   2.546   4.650  11.686 -0.4712  0.1922 -0.5633
    9MPD2     C14278   2.194   4.424  11.764  0.5488  0.1607  0.3894
    9MPD2    C114279   2.305   4.488  11.709  0.1031 -0.1775  0.5649
    9MPD2    C214280   2.283   4.584  11.614  0.5776  0.4807  0.4875
    9MPD2    C314281   2.157   4.630  11.583 -0.2974  0.1707  0.0143
    9MPD2    C414282   2.047   4.581  11.655 -0.3893 -0.3572  0.7594
    9MPD2    C514283   2.066   4.465  11.733  0.0891  0.3682 -0.0708
    9MPD2     H14284   2.361   4.638  11.563  0.6262  0.7143  0.8090
    9MPD2    H114285   1.945   4.607  11.632 -1.6691 -2.4217  4.0726
    9MPD2    H214286   2.212   4.342  11.832 -0.2759  1.1518  1.7965
    9MPD2    H314287   1.980   4.418  11.779 -0.7901  1.4165 -0.6441
    9MPD2     N14288   2.143   0.005  11.488 -0.4045  0.0843 -0.1389
    9MPD2    H514289   2.226   0.029  11.434 -0.8525 -1.2053 -1.3909
    9MPD2    N114290   2.438   4.454  11.743  0.6975  0.2576  0.1327
    9MPD2    H714291   2.454   4.373  11.803  0.7251  0.6240  0.6230
    1MPD1     C14292   1.842   3.204  16.208  0.6623 -0.2018  0.6931
    1MPD1    C114293   1.896   3.122  16.111 -0.1570 -0.0183 -0.5664
    1MPD1    C214294   1.825   3.015  16.064  0.1804 -0.7268  0.9042
    1MPD1    C314295   1.708   2.977  16.118 -0.5421  0.1871  0.5297
    1MPD1    C414296   1.661   3.051  16.226  0.6734  0.3565  0.7173
    1MPD1    C514297   1.722   3.167  16.258 -0.0078  0.5075 -0.2146
    1MPD1     H14298   1.864   2.958  15.981  3.2367  1.6135  0.7240
    1MPD1    H114299   1.567   3.021  16.271  1.4305 -2.5331  0.3849
    1MPD1    H214300   1.890   3.294  16.244  2.1613 -0.9766  0.6637
    1MPD1    H314301   1.677   3.228  16.336  2.3306  1.3624  0.4822
    1MPD1     N14302   1.634   2.867  16.067  0.2038 -0.3632 -0.6692
    1MPD1    H514303   1.560   2.835  16.128 -0.6528  1.6193 -0.6719
    1MPD1    N114304   2.013   3.155  16.046 -0.9883 -0.4202  0.2428
    1MPD1    H614305   2.074   3.218  16.097 -1.9201 -0.7202  1.7379
    1MPD1    H714306   2.062   3.075  16.007 -0.8100 -0.4357  0.5021
    2TMC2    C114307   1.517   2.459  15.867 -0.6899  0.3442 -0.9695
    2TMC2    C214308   1.443   2.423  15.979 -0.1115  0.0664  0.1449
    2TMC2    C314309   1.473   2.492  16.094 -0.3273  0.5065 -0.5476
    2TMC2    C414310   1.591   2.578  15.859 -0.5585 -0.0429 -0.1674
    2TMC2    C514311   1.598   2.651  15.975 -0.3770  0.0957 -0.2771
    2TMC2    C614312   1.537   2.612  16.093  0.9765 -0.1876  0.1272
    2TMC2     C14313   1.486   2.395  15.736 -0.4375 -0.7990 -0.0880
    2TMC2     O14314   1.438   2.279  15.746  0.8197 -0.0599  0.9803
    2TMC2     H14315   1.395   2.326  15.983  1.2147 -0.6070 -0.1777
    2TMC2    H114316   1.651   2.613  15.775 -1.2621 -3.4791 -2.1275
    2TMC2    H214317   1.538   2.672  16.183  1.6556 -0.0813  0.0429
    2TMC2    C714318   1.666   2.777  15.961  0.3196  0.1011 -0.6465
    2TMC2    C814319   1.377   2.465  16.208 -0.3164 -0.3514  0.2313
    2TMC2    O114320   1.738   2.800  15.862  0.1256  0.8692 -0.8233
    2TMC2    O214321   1.267   2.406  16.206  0.7981 -0.1330 -0.7864
    2TMC2    O514322   1.437   2.499  16.325 -0.3371  0.4625 -0.5979
    2TMC2    H514323   1.535   2.504  16.324 -0.5533  4.2348 -1.7687
    3MPD1     C14324   1.333   2.367  15.245  0.4879  0.0734  0.2165
    3MPD1    C114325   1.337   2.500  15.286  0.6867 -0.8191  0.6507
    3MPD1    C214326   1.382   2.528  15.413  0.8737 -0.3360  0.4593
    3MPD1    C314327   1.432   2.429  15.503 -0.0479 -0.3266  0.3438
    3MPD1    C414328   1.421   2.300  15.448  0.3833  0.3081 -0.7138
    3MPD1    C514329   1.385   2.265  15.318  0.3002  0.2052  0.4984
    3MPD1     H14330   1.383   2.631  15.446 -1.3681 -0.4706  0.9675
    3MPD1    H114331   1.453   2.216  15.508 -2.7806  0.1607  0.7588
    3MPD1    H214332   1.287   2.339  15.151  0.2938  3.3329 -0.6929
    3MPD1    H314333   1.395   2.163  15.283 -1.9063  0.2435 -0.2269
    3MPD1     N14334   1.473   2.473  15.626 -0.9334  0.1116 -0.2902
    3MPD1    H514335   1.486   2.574  15.625 -2.2519  0.2939  1.0557
    3MPD1    N114336   1.267   2.596  15.210 -0.4064 -0.4160 -0.4433
    3MPD1    H614337   1.293   2.691  15.234  2.0215 -1.4617  1.1008
    3MPD1    H714338   1.272   2.570  15.111 -0.3921  2.4432 -1.1985
    1TMC1    C114339   4.656   2.085  12.764 -0.5076 -0.4946  0.0612
    1TMC1    C214340   4.613   2.212  12.795 -0.6242 -0.5119 -0.3296
    1TMC1    C314341   4.529   2.269  12.703 -0.4637 -0.7925  0.3127
    1TMC1    C414342   4.618   2.023  12.652  0.0820 -0.4136 -0.1833
    1TMC1    C514343   4.530   2.085  12.564 -0.0802 -0.3488  0.2202
    1TMC1    C614344   4.496   2.212  12.581 -0.1753  0.1137  0.8235
    1TMC1     C14345   4.729   2.015  12.862  0.4370  0.3221  0.5059
    1TMC1     O14346   0.080   1.940  12.825 -0.2457  0.5999  0.1542
    1TMC1     H14347   4.658   2.266  12.877 -0.1171  0.9391 -1.5700
    1TMC1    H114348   4.632   1.916  12.647 -0.0585 -0.6102  3.4420
    1TMC1    H214349   4.435   2.272  12.515  1.3371 -0.6217 -1.2336
    1TMC1    C714350   4.559   2.030  12.435 -0.2999  0.9261 -0.3263
    1TMC1    C814351   4.440   2.374  12.737 -0.0379  0.7063  0.3307
    1TMC1    O114352   4.573   1.912  12.411 -0.6785 -0.0881 -0.4499
    1TMC1    O214353   4.409   2.457  12.653 -0.2730  0.2399  0.3222
    1TMC1    O314354   4.536   2.126  12.343 -0.6165  0.0524  0.5631
    1TMC1    H314355   4.544   2.215  12.382  0.4022  0.7089 -1.1345
    1TMC1    O514356   4.447   2.384  12.873 -0.6221  0.2096  0.5225
    1TMC1    H514357   4.437   2.297  12.917  2.3058 -1.4084 -2.1063
    2MPD2     C14358   0.183   1.978  13.099  0.4028  0.3102 -0.6923
    2MPD2    C114359   0.060   2.044  13.102 -0.1329  0.6065 -0.6608
    2MPD2    C214360   0.026   2.094  13.226  0.2257 -0.4826 -0.2623
    2MPD2    C314361   0.114   2.098  13.334 -0.2857  0.4412 -0.3655
    2MPD2    C414362   0.237   2.034  13.320  0.2068 -0.7729 -0.0913
    2MPD2    C514363   0.266   1.973  13.202  0.0635  0.4015  0.2175
    2MPD2     H14364   4.662   2.135  13.233  0.7585  0.4534  1.9455
    2MPD2    H114365   0.313   2.036  13.397 -0.2647  0.2192  0.3488
    2MPD2    H214366   0.221   1.931  13.009 -0.8496 -1.8336 -0.1004
    2MPD2    H314367   0.360   1.921  13.188  0.5693  2.3178 -3.4441
    2MPD2     N14368   0.072   2.170  13.451 -0.3383 -0.1295 -0.0696
    2MPD2    H514369   4.724   2.228  13.449 -0.1409  0.1402 -0.5480
    2MPD2    N114370   4.700   2.051  12.993  0.3021 -0.4121 -0.2234
    2MPD2    H714371   4.617   2.103  13.019  0.7830  1.0383 -1.5991
    3TCq1    O114372   0.080   2.671  13.755  0.0040 -0.3484 -0.0060
    3TCq1    C114373   4.713   2.596  13.704 -0.5788  0.1583 -0.0815
    3TCq1    O214374   4.650   2.625  13.600 -0.3883  0.9369 -0.5293
    3TCq1    C214375   0.007   2.459  13.742 -0.2477 -0.2210 -0.0994
    3TCq1    C314376   0.049   2.443  13.869 -0.3301 -0.7998  0.1227
    3TCq1    C414377   0.104   2.324  13.894  0.6487  0.7327  0.0623
    3TCq1    C514378   0.137   2.228  13.799  0.4510  0.9311  0.1329
    3TCq1    C614379   0.085   2.245  13.674  0.9213  0.0088  0.8307
    3TCq1    C714380   0.021   2.360  13.642  0.0315 -0.1122  0.4537
    3TCq1    C814381   0.138   2.159  13.571  0.3029  1.3363  0.0501
    3TCq1    O414382   0.214   2.068  13.600 -0.0379  0.5540 -0.1246
    3TCq1    C914383   0.138   2.290  14.031  0.7045  0.0501 -0.9084
    3TCq1    O514384   0.096   2.379  14.117  0.2433 -0.1899  0.2075
    3TCq1    O614385   0.220   2.201  14.060 -0.1638  0.0899 -0.1302
    3TCq1    H114386   0.140   2.617  13.811 -0.6931 -1.1215 -0.0125
    3TCq1    H214387   0.031   2.521  13.942  2.3119  0.8499 -1.0020
    3TCq1    H314388   0.179   2.134  13.831  0.5487  1.4036  1.3980
    3TCq1    H414389   4.728   2.389  13.542  2.2102 -0.0857 -0.1534
    1MPD2     C14390   4.693   3.774  14.924  0.5801  0.3771 -0.8402
    1MPD2    C114391   4.590   3.685  14.910  0.5647 -0.2247 -0.1573
    1MPD2    C214392   4.607   3.566  14.838 -0.2798  1.0103  0.1659
    1MPD2    C314393   4.734   3.533  14.782  0.1166  0.0964 -0.0946
    1MPD2    C414394   0.106   3.608  14.822 -0.4000  0.2871  0.0856
    1MPD2    C514395   0.082   3.733  14.884 -0.4360  0.1412  0.2297
    1MPD2     H14396   4.516   3.512  14.815 -0.0700  0.1871  1.3035
    1MPD2    H114397   0.208   3.586  14.793 -0.7979  2.0638 -2.6230
    1MPD2    H214398   4.685   3.870  14.974  2.5170  0.4617 -0.6880
    1MPD2    H314399   0.171   3.786  14.916  0.1455  0.3251 -1.6864
    1MPD2     N14400   0.026   3.421  14.706  0.1931  0.5979  0.0093
    1MPD2    H514401   0.122   3.413  14.675  0.1458 -2.0182  0.5320
    1MPD2    N114402   4.464   3.713  14.966  0.0445  0.1149 -0.0905
    1MPD2    H714403   4.448   3.802  15.011 -2.9648 -0.1591 -0.6479
    2TMC3    C114404   4.230   3.657  15.018  0.2165  0.0454 -0.3087
    2TMC3    C214405   4.153   3.559  15.067  0.0226 -0.5268  0.2860
    2TMC3    C314406   4.021   3.568  15.051  0.3346 -0.1695 -0.2185
    2TMC3    C414407   4.175   3.758  14.942  0.3603  0.9994  0.1362
    2TMC3    C514408   4.045   3.764  14.925 -0.0956 -0.6095 -0.5276
    2TMC3    C614409   3.967   3.670  14.989 -0.3383  0.3543 -1.0807
    2TMC3     C14410   4.365   3.619  14.982  0.0391 -0.2481  0.0371
    2TMC3     O14411   4.371   3.496  14.979  0.0126  0.1448 -0.4016
    2TMC3     H14412   4.199   3.484  15.130  2.2456  0.4916 -0.1496
    2TMC3    H114413   4.239   3.826  14.886  1.1852 -0.1868 -0.3555
    2TMC3    H214414   3.863   3.668  14.962 -0.0618  1.0257 -2.2228
    2TMC3    C714415   3.980   3.814  14.801  0.1330 -0.1899 -1.3918
    2TMC3    C814416   3.973   3.438  14.999 -0.2178 -0.4192 -0.1805
    2TMC3    O114417   3.866   3.787  14.777 -0.0405 -0.0089 -0.6103
    2TMC3    O214418   3.854   3.413  14.997 -0.6172  0.8003 -0.4326
    3TCq1    O114419   4.612   4.281  13.795  0.3049 -0.8599 -0.0327
    3TCq1    C114420   4.589   4.177  13.879 -0.7927 -0.1067  0.1596
    3TCq1    O214421   4.557   4.064  13.838 -0.1167  0.2451  0.5782
    3TCq1    C214422   4.518   4.235  13.994 -0.0414 -0.3937 -0.1671
    3TCq1    C314423   4.577   4.330  14.069  0.4354  0.0921  0.1905
    3TCq1    C414424   4.522   4.374  14.185 -0.0926 -0.5292 -0.5725
    3TCq1    C514425   4.402   4.321  14.227  0.8793  0.3206  0.0998
    3TCq1    C614426   4.347   4.223  14.148  0.2084  0.0802  0.6583
    3TCq1    C714427   4.404   4.171  14.032  0.2942  0.1095  0.1790
    3TCq1    C814428   4.218   4.155  14.185  0.4020 -0.6774 -0.8847
    3TCq1    O414429   4.157   4.088  14.098 -0.5251  0.1662 -0.1425
    3TCq1    C914430   4.587   4.481  14.260 -0.9176  0.1027 -0.3607
    3TCq1    O514431   4.696   4.525  14.214  0.0991 -0.1897  0.3323
    3TCq1    O614432   4.526   4.533  14.356 -0.2299 -0.1220 -0.8799
    3TCq1    H114433   4.585   4.369  13.831  2.7732  0.3295 -1.1307
    3TCq1    H214434   4.670   4.376  14.037 -0.2274  1.4575  0.2212
    3TCq1    H314435   4.350   4.362  14.313  0.2695  0.0550 -0.1466
    3TCq1    H414436   4.350   4.110  13.960  0.5265  0.0434  0.0588
    4MPD2     C14437   3.994   4.021  14.330  0.2366  0.2401 -0.3577
    4MPD2    C114438   4.108   4.071  14.391 -0.0488  0.3290 -0.4024
    4MPD2    C214439   4.123   4.033  14.526 -0.3202 -0.3192 -0.3057
    4MPD2    C314440   4.033   3.943  14.591 -0.5735 -0.8515  0.0666
    4MPD2    C414441   3.927   3.887  14.522 -0.5006  0.1568 -0.0414
    4MPD2    C514442   3.910   3.930  14.390 -0.9372 -0.3339  0.5872
    4MPD2     H14443   4.213   4.067  14.575 -0.5195  0.4504 -0.4741
    4MPD2    H114444   3.845   3.828  14.560 -1.5516  2.1772  0.8225
    4MPD2    H214445   3.967   4.042  14.227 -0.0272 -0.8079 -0.5007
    4MPD2    H314446   3.829   3.879  14.340  1.2492 -1.2411 -2.0309
    4MPD2     N14447   4.061   3.898  14.722 -0.0228 -0.2133 -0.0864
    4MPD2    H514448   4.150   3.921  14.765 -0.5562 -3.5501  2.8825
    4MPD2    N114449   4.215   4.136  14.323  0.4196  0.7139 -0.2285
    4MPD2    H714450   4.295   4.164  14.379 -0.2547  2.2322 -0.0143
    5TMC2    C114451   4.558   3.030  14.624 -0.0712 -0.5223  0.0830
    5TMC2    C214452   4.663   2.958  14.672 -0.2696 -0.0724 -0.1555
    5TMC2    C314453   0.044   3.029  14.686  0.0295 -0.0623 -0.2182
    5TMC2    C414454   4.580   3.155  14.571 -0.0341  0.1374  0.6620
    5TMC2    C514455   4.695   3.226  14.583 -0.1358  0.0693  0.6192
    5TMC2    C614456   0.066   3.155  14.639  0.5757  0.8000 -0.1459
    5TMC2     C14457   4.423   2.994  14.656 -0.2677 -0.0882 -0.3745
    5TMC2     O14458   4.397   2.876  14.659 -0.3166  0.5627  1.0323
    5TMC2     H14459   4.640   2.861  14.716 -2.9432  1.0944  1.0373
    5TMC2    H114460   4.497   3.193  14.511  0.6467  1.0397  0.2788
    5TMC2    H214461   0.161   3.207  14.649  1.4037 -0.9659  1.1973
    5TMC2    C714462   4.660   3.341  14.659 -0.6846 -0.5806  0.7109
    5TMC2    C814463   0.153   2.955  14.747  0.1537  0.6333 -0.3825
    5TMC2    O114464   4.539   3.341  14.675  0.3075 -0.1093  0.4888
    5TMC2    O214465   0.268   2.994  14.730  0.0242 -0.3025  0.6880
    5TMC2    O514466   0.107   2.898  14.856  0.1553 -0.2420  0.3683
    5TMC2    H514467   0.013   2.918  14.876 -0.4180 -1.0612 -1.5512
    6MPD2     C14468   3.992   3.146  14.890  0.2524  0.4981 -0.4961
    6MPD2    C114469   4.085   3.247  14.885 -0.4709 -0.0432  0.4366
    6MPD2    C214470   4.202   3.223  14.817  0.4978 -0.2587 -0.6266
    6MPD2    C314471   4.231   3.110  14.755  0.1234 -0.1191  0.1088
    6MPD2    C414472   4.137   3.006  14.769 -0.6513 -0.3865  0.2106
    6MPD2    C514473   4.018   3.022  14.831  1.1392  0.6890 -0.3671
    6MPD2     H14474   4.275   3.303  14.828  0.6704 -0.5631  0.4903
    6MPD2    H114475   4.168   2.906  14.740 -0.8280  0.3786 -2.6788
    6MPD2    H214476   3.893   3.154  14.935  0.7052 -0.0012  0.5921
    6MPD2    H314477   3.955   2.934  14.838 -0.9652  2.1156 -1.2676
    6MPD2     N14478   4.355   3.105  14.697 -0.1627  0.1443 -0.4686
    6MPD2    H514479   4.401   3.195  14.690  0.9774 -0.2488  1.9315
    6MPD2    N114480   4.077   3.374  14.941 -0.2755  0.4613  0.6363
    6MPD2    H714481   4.159   3.432  14.929  0.2934 -0.1701  1.4748
  945NH3     N114482   3.717   4.310  12.945 -0.2617 -0.2246 -0.0467
  945NH3     H214483   3.759   4.381  12.887 -0.4563  0.1820  0.3093
  945NH3     H314484   3.765   4.320  13.034 -0.3618 -1.1488  0.1113
  945NH3     H414485   3.622   4.333  12.970  0.1941  2.6156 -0.9447
  946SOD     NA14486   0.048   2.929  13.823  0.1059  0.1901 -0.5298
  947SOD     NA14487   3.843   1.286   9.067 -0.2039  0.7617 -0.6225
  948SOD     NA14488   2.197   1.656   4.819 -0.2435  0.8446  0.2545
  949SOD     NA14489   3.851   1.750   3.870  0.3747  0.2236  0.4365
  950SOD     NA14490   3.878   3.027   9.073 -0.3212  0.0510  0.2378
  951SOD     NA14491   3.896   2.878   8.449 -0.1437 -0.2807  0.2056
  952SOD     NA14492   1.514   4.113  16.045 -0.3283 -0.1530  0.2320
  953SOD     NA14493   1.099   0.974  16.454  0.0782  0.2047 -0.1407
  954SOL     OW14494   1.375   2.183   8.525  1.0462  0.3001 -0.1390
  954SOL    HW114495   1.429   2.150   8.596  0.6924 -2.7368 -1.2971
  954SOL    HW214496   1.309   2.226   8.579  0.7660 -1.5864  1.0323
  955SOL     OW14497   1.672   1.158   8.739  0.5974 -0.1703  0.1206
  955SOL    HW114498   1.646   1.066   8.742  0.3265 -0.0897  0.2120
  955SOL    HW214499   1.765   1.150   8.758  0.5523  4.2386  2.1055
  956SOL     OW14500   2.125   1.448  15.212 -0.0793  0.4210 -0.3380
  956SOL    HW114501   2.109   1.540  15.191 -0.7974  0.4094  0.1799
  956SOL    HW214502   2.087   1.437  15.299  1.7092  0.8668  0.5066
  957SOL     OW14503   1.178   2.055  11.695  0.1962 -0.0619  0.2344
  957SOL    HW114504   1.123   2.028  11.622  0.9152 -1.1499  0.0942
  957SOL    HW214505   1.103   2.087  11.746  0.3609  0.1509  0.3451
  958SOL     OW14506   3.402   1.501   1.705 -0.1595  0.3782 -0.2357
  958SOL    HW114507   3.401   1.522   1.612  0.9482 -0.0071 -0.3331
  958SOL    HW214508   3.321   1.451   1.695 -0.2058  0.4512 -0.2279
  959SOL     OW14509   1.297   1.312   3.554  0.5184  0.3427 -0.0196
  959SOL    HW114510   1.329   1.247   3.616  2.4148  0.8928 -0.4098
  959SOL    HW214511   1.381   1.339   3.518  1.8969 -2.6535  0.9355
  960SOL     OW14512   3.670   3.096  15.709  0.4467 -0.4090 -0.2614
  960SOL    HW114513   3.631   3.071  15.792  0.8513 -0.2647 -0.0272
  960SOL    HW214514   3.732   3.023  15.701  0.0925 -0.7700  0.3061
  961SOL     OW14515   3.134   3.905   4.844  0.5358 -0.1695  0.0439
  961SOL    HW114516   3.224   3.935   4.853 -0.4689  2.8177  0.2430
  961SOL    HW214517   3.082   3.977   4.880  1.3923  0.5929 -0.2597
  962SOL     OW14518   0.557   2.515  14.003 -0.0319  0.0435  0.0294
  962SOL    HW114519   0.485   2.469  14.045 -0.0376  0.9997  1.0801
  962SOL    HW214520   0.621   2.490  14.070  0.8693  0.2673 -0.7492
  963SOL     OW14521   0.517   3.294  10.282  0.3936 -0.5334  0.4541
  963SOL    HW114522   0.592   3.237  10.266  1.5114  1.0867  0.0240
  963SOL    HW214523   0.562   3.368  10.322  0.2182 -1.9572  3.2902
  964SOL     OW14524   3.075   4.229   4.207  0.1148 -0.4547 -0.2422
  964SOL    HW114525   3.104   4.320   4.215  0.5098 -0.4602 -1.5488
  964SOL    HW214526   3.048   4.203   4.295 -0.5004  2.3412  0.3942
  965SOL     OW14527   3.208   1.168   7.951  0.1363  0.6540  0.1639
  965SOL    HW114528   3.271   1.238   7.972  1.4879 -0.2515 -0.9001
  965SOL    HW214529   3.132   1.213   7.987  0.3182  1.2977 -0.2544
  966SOL     OW14530   4.456   0.755  11.360 -0.1452  0.0309  0.0417
  966SOL    HW114531   4.534   0.771  11.413 -0.3459  0.3726  0.2314
  966SOL    HW214532   4.436   0.846  11.341  0.6562  0.4590  1.2608
  967SOL     OW14533   4.013   3.066  17.195  0.1721 -0.5451 -0.1358
  967SOL    HW114534   3.968   2.984  17.178 -1.0204  0.3602 -1.3075
  967SOL    HW214535   4.100   3.031  17.216 -1.7490 -3.3203  3.1284
  968SOL     OW14536   3.820   3.540  14.727 -0.1819  0.3271  0.5019
  968SOL    HW114537   3.825   3.634  14.747 -0.1916 -0.0275  2.2175
  968SOL    HW214538   3.791   3.510  14.813 -1.4622 -0.3919 -0.1837
  969SOL     OW14539   3.261   0.331   3.898 -0.2999 -0.9921 -1.2089
  969SOL    HW114540   3.320   0.362   3.829  1.9420 -1.1212  0.6078
  969SOL    HW214541   3.180   0.324   3.848 -0.1829  0.7185 -1.6311
  970SOL     OW14542   3.207   0.092   9.196  0.4331  0.5986 -0.3137
  970SOL    HW114543   3.159   0.083   9.277 -0.2946  0.4525 -0.7639
  970SOL    HW214544   3.160   0.041   9.131  0.4941  1.1739 -0.8146
  971SOL     OW14545   1.899   0.184   3.506 -0.1940  0.6241  0.4626
  971SOL    HW114546   1.917   0.132   3.428  0.4329  0.5268  0.6757
  971SOL    HW214547   1.857   0.266   3.479 -1.2041 -0.2980 -0.7747
  972SOL     OW14548   4.260   3.565   6.940  0.8121  0.1917  0.4949
  972SOL    HW114549   4.224   3.600   6.858 -0.1059 -0.9990  0.3963
  972SOL    HW214550   4.275   3.647   6.989 -0.4948  1.8822 -1.9410
  973SOL     OW14551   3.326   4.161  14.499  0.0697  0.8634 -0.5841
  973SOL    HW114552   3.401   4.218  14.514 -0.9438  2.6339 -2.3101
  973SOL    HW214553   3.283   4.197  14.422  0.1379  3.3039  0.5022
  974SOL     OW14554   1.393   3.453   7.094  0.1565 -0.3432 -0.2702
  974SOL    HW114555   1.299   3.440   7.086 -0.0090 -0.8950  2.5377
  974SOL    HW214556   1.428   3.380   7.044 -2.2906 -0.8282 -1.2561
  975SOL     OW14557   1.493   3.320   0.544 -0.4947 -0.0659  0.4490
  975SOL    HW114558   1.420   3.344   0.601 -0.5451 -2.6905  1.4989
  975SOL    HW214559   1.532   3.239   0.579  2.2635  1.3000  0.5426
  976SOL     OW14560   3.885   2.773   5.879  0.3575  0.2166  1.2164
  976SOL    HW114561   3.980   2.773   5.868  0.2158 -1.9257 -0.0295
  976SOL    HW214562   3.872   2.678   5.880  2.3743 -0.0530  0.6572
  977SOL     OW14563   0.211   1.838   9.164  0.2874  0.4379  0.3662
  977SOL    HW114564   0.205   1.902   9.234 -0.8374  0.2037  0.4875
  977SOL    HW214565   0.293   1.791   9.179  0.5412  0.8004  0.1101
  978SOL     OW14566   1.181   3.960   2.807 -0.4973 -0.0419  0.0397
  978SOL    HW114567   1.134   3.927   2.731 -1.3839  2.3181 -0.4503
  978SOL    HW214568   1.256   3.901   2.801 -0.7498 -0.6710  2.8990
  979SOL     OW14569   2.866   4.478   2.724 -0.0461  0.0622 -0.3559
  979SOL    HW114570   2.817   4.505   2.646 -1.6525 -0.5611  0.4273
  979SOL    HW214571   2.814   4.520   2.793  0.2790  0.0027 -0.0764
  980SOL     OW14572   4.288   1.924   3.884 -0.0413  0.0418  0.0560
  980SOL    HW114573   4.305   1.999   3.941 -1.6553 -0.0104  0.6322
  980SOL    HW214574   4.356   1.918   3.817  1.4186 -0.5736  1.5812
  981SOL     OW14575   0.616   2.841  10.305  0.5215 -0.2741  0.1669
  981SOL    HW114576   0.625   2.857  10.399  0.4932  1.2690 -0.0876
  981SOL    HW214577   0.655   2.917  10.262  0.3530  0.0880  0.6450
  982SOL     OW14578   1.342   4.198   5.027  0.0966 -0.2905 -0.1436
  982SOL    HW114579   1.317   4.172   5.115  0.3585 -1.5191 -0.4361
  982SOL    HW214580   1.321   4.291   5.034 -2.5790 -1.0240  1.4565
  983SOL     OW14581   1.711   0.627   6.544  0.3327  0.2235 -0.2510
  983SOL    HW114582   1.750   0.672   6.470 -1.5578 -1.1415 -2.0937
  983SOL    HW214583   1.725   0.695   6.610 -1.6948 -1.0340  1.4877
  984SOL     OW14584   0.255   4.001   5.815 -0.0871  0.4431 -0.7162
  984SOL    HW114585   0.167   4.036   5.828  0.4307  2.2541 -1.9277
  984SOL    HW214586   0.316   4.074   5.826 -0.4145  0.3550  1.7121
  985SOL     OW14587   1.793   2.972   3.059  0.0542 -0.6247  0.2191
  985SOL    HW114588   1.860   3.010   3.116 -0.6129 -0.9471  1.2158
  985SOL    HW214589   1.733   2.934   3.123 -1.0277 -0.9871 -1.0065
  986SOL     OW14590   2.705   2.438   2.506 -0.3813 -0.3601 -0.1712
  986SOL    HW114591   2.696   2.404   2.595  0.8978 -2.1174 -0.7215
  986SOL    HW214592   2.619   2.470   2.478 -0.1685  1.5794  1.3921
  987SOL     OW14593   0.506   0.387   3.855 -0.0274 -0.3451 -0.0865
  987SOL    HW114594   0.433   0.370   3.916 -0.8072  2.6119 -0.2084
  987SOL    HW214595   0.505   0.482   3.847  2.1283 -0.2037  1.3872
  988SOL     OW14596   4.314   4.681   6.403 -0.2704  0.0610  0.0174
  988SOL    HW114597   4.226   4.696   6.369 -0.0449 -1.8019 -1.4054
  988SOL    HW214598   4.315   0.004   6.478 -1.6114  0.1409 -0.0393
  989SOL     OW14599   2.965   2.531  12.532  0.1612 -0.0120 -0.0951
  989SOL    HW114600   2.875   2.507  12.509  0.3086 -0.3312 -0.3315
  989SOL    HW214601   2.957   2.590  12.607  1.0664 -0.7891  0.6080
  990SOL     OW14602   2.783   1.342   2.166 -0.0891  0.1008 -0.3291
  990SOL    HW114603   2.793   1.433   2.137 -1.5363  0.9092  1.6949
  990SOL    HW214604   2.753   1.308   2.081  0.2379 -0.3569 -0.2608
  991SOL     OW14605   3.467   0.198   2.490 -0.3139  0.4568 -0.4000
  991SOL    HW114606   3.473   0.130   2.423 -0.8352 -0.0353  0.0451
  991SOL    HW214607   3.525   0.163   2.557 -0.4077  1.2086  0.0752
  992SOL     OW14608   0.027   4.722  14.052 -0.0562  0.4495 -0.3155
  992SOL    HW114609   4.697   0.053  14.070  0.7817  1.8224 -2.4073
  992SOL    HW214610   4.726   4.654  14.109 -2.0586  0.7988 -1.2043
  993SOL     OW14611   4.441   3.863  11.677  0.6125  0.2749 -0.2268
  993SOL    HW114612   4.420   3.952  11.705 -1.7014 -0.4887  0.5241
  993SOL    HW214613   4.437   3.859  11.581  1.5571  0.1643 -0.2563
  994SOL     OW14614   1.401   3.242  10.907 -0.6855  0.3021  0.3126
  994SOL    HW114615   1.387   3.210  10.818 -1.8786 -0.3118  0.7149
  994SOL    HW214616   1.469   3.183  10.938  0.3753  0.7607 -1.1661
  995SOL     OW14617   2.927   2.536  15.700  0.2720 -0.0637 -0.3457
  995SOL    HW114618   2.895   2.464  15.646 -0.5559  0.2946 -0.3179
  995SOL    HW214619   2.915   2.492  15.784 -1.5608 -2.0812 -1.6523
  996SOL     OW14620   1.787   4.731   5.973 -0.0929 -0.2865  0.0511
  996SOL    HW114621   1.789   4.643   6.011  1.9665 -0.3063 -0.0979
  996SOL    HW214622   1.694   0.018   5.974  0.0861  0.4226  0.6740
  997SOL     OW14623   2.502   2.964   4.385 -0.2209  0.0278  0.5449
  997SOL    HW114624   2.467   2.903   4.449  0.4181 -0.5952  0.2946
  997SOL    HW214625   2.506   3.035   4.449  0.0426  0.9490 -0.5010
  998SOL     OW14626   4.077   4.328  15.193  0.0087  0.1588 -0.9530
  998SOL    HW114627   4.099   4.260  15.129 -1.8037  0.5241 -1.9703
  998SOL    HW214628   4.080   4.287  15.279  1.7205 -1.1503 -1.6316
  999SOL     OW14629   0.816   4.325   4.016  0.1426  0.0453 -0.2517
  999SOL    HW114630   0.864   4.248   4.045 -0.4017 -0.1491  0.1501
  999SOL    HW214631   0.810   4.366   4.103 -1.7627 -1.8060  0.5006
 1000SOL     OW14632   3.594   0.275   1.818  0.8526 -0.0198  0.0179
 1000SOL    HW114633   3.579   0.210   1.886  0.9161  1.5482  1.5328
 1000SOL    HW214634   3.614   0.219   1.743 -1.9581 -1.4264  0.3345
 1001SOL     OW14635   3.246   1.065   6.031 -0.0570  0.9977  0.2309
 1001SOL    HW114636   3.217   1.148   6.068  3.7025  2.2568  0.3871
 1001SOL    HW214637   3.188   1.057   5.955  1.5490 -2.5628 -0.6126
 1002SOL     OW14638   2.551   1.299  16.876  0.6089  0.2598 -1.1165
 1002SOL    HW114639   2.596   1.269  16.955  1.9161  1.6135 -1.3486
 1002SOL    HW214640   2.476   1.353  16.902 -0.7475 -1.9129 -0.4639
 1003SOL     OW14641   3.681   4.670   3.457  0.0169  0.5665 -0.7976
 1003SOL    HW114642   3.771   4.696   3.474 -0.4016  1.5928 -0.0908
 1003SOL    HW214643   3.685   4.575   3.470  1.3370  0.8736  0.9935
 1004SOL     OW14644   2.348   1.804  15.801  0.5495  0.2654  0.0733
 1004SOL    HW114645   2.292   1.735  15.766  0.0215  0.0877  1.2538
 1004SOL    HW214646   2.433   1.764  15.782 -1.0122 -3.0674  0.1123
 1005SOL     OW14647   3.391   3.342   4.113 -0.9598 -0.0641 -0.4083
 1005SOL    HW114648   3.349   3.267   4.154  1.7914  0.0690  2.7204
 1005SOL    HW214649   3.321   3.362   4.051  0.3072 -0.5067 -1.9894
 1006SOL     OW14650   0.254   4.675   9.976  0.2505 -0.7937  0.2340
 1006SOL    HW114651   0.225   4.731  10.048 -1.1434 -0.5454 -0.5307
 1006SOL    HW214652   0.350   4.672   9.984  0.2688 -0.1046  0.3065
 1007SOL     OW14653   1.066   2.602   3.028  0.4069  0.0532  0.3509
 1007SOL    HW114654   1.132   2.670   3.038  1.6035 -0.9846 -0.4600
 1007SOL    HW214655   1.118   2.533   2.986 -0.3553  0.3267 -1.0583
 1008SOL     OW14656   0.203   1.691   1.637 -0.0289  0.6385 -0.2297
 1008SOL    HW114657   0.283   1.658   1.594 -1.9518 -1.8336 -1.8800
 1008SOL    HW214658   0.128   1.662   1.586  0.3767 -1.1275  0.1837
 1009SOL     OW14659   0.296   3.109  12.797 -0.1957 -0.0589  0.3048
 1009SOL    HW114660   0.341   3.064  12.726  2.0218  0.6456  1.2351
 1009SOL    HW214661   0.251   3.184  12.757  1.7435  0.2733 -1.2804
 1010SOL     OW14662   0.774   0.776   5.781 -0.4269 -0.7237 -0.4783
 1010SOL    HW114663   0.792   0.690   5.818 -1.7001 -0.8810 -0.2458
 1010SOL    HW214664   0.777   0.762   5.686  0.2986  1.1893 -0.7540
 1011SOL     OW14665   0.829   4.233  17.231  0.0966 -0.2658 -0.2821
 1011SOL    HW114666   0.922   4.245  17.212  0.6966 -1.4491  1.8838
 1011SOL    HW214667   0.811   4.327  17.232  1.0755 -0.0783  0.2389
 1012SOL     OW14668   4.180   3.084   6.630 -0.4786  0.3253  0.3858
 1012SOL    HW114669   4.217   2.996   6.627 -0.3893  0.4577 -2.7924
 1012SOL    HW214670   4.089   3.059   6.616 -0.3134  0.4190 -0.8494
 1013SOL     OW14671   4.587   0.005   3.576 -0.7455 -0.1955  0.4202
 1013SOL    HW114672   4.552   4.652   3.576 -1.7345  0.1745 -1.0727
 1013SOL    HW214673   4.518   0.048   3.627  0.6294  2.4822  0.0116
 1014SOL     OW14674   3.493   1.415   5.637  0.3062 -0.3801 -0.3139
 1014SOL    HW114675   3.539   1.367   5.705 -1.7922 -1.0295  0.6581
 1014SOL    HW214676   3.401   1.390   5.650  0.6816 -2.0394 -0.7286
 1015SOL     OW14677   1.727   1.896   7.576  0.3205 -0.2551  0.0485
 1015SOL    HW114678   1.668   1.824   7.552  0.4300 -0.3121 -0.0490
 1015SOL    HW214679   1.779   1.847   7.640  0.1316  0.6058  0.8539
 1016SOL     OW14680   1.515   4.207   6.283 -0.1343  0.4007 -0.4625
 1016SOL    HW114681   1.443   4.270   6.273  0.4521  0.9615 -1.1170
 1016SOL    HW214682   1.502   4.183   6.375  0.5071 -1.2796 -0.8033
 1017SOL     OW14683   2.650   1.546   6.355 -0.0467 -0.1460 -0.4777
 1017SOL    HW114684   2.648   1.457   6.389  3.2947 -0.6757 -1.7046
 1017SOL    HW214685   2.745   1.550   6.356 -0.0468 -0.6216  0.5592
 1018SOL     OW14686   2.855   0.832   3.585 -0.1484  0.5909 -0.1630
 1018SOL    HW114687   2.760   0.842   3.589 -0.4989 -3.2940  0.8141
 1018SOL    HW214688   2.881   0.917   3.549 -0.9496  0.6176 -0.6841
 1019SOL     OW14689   1.308   2.553   0.499  0.8075  0.3070 -0.0476
 1019SOL    HW114690   1.288   2.635   0.453  1.6794  1.5866  1.8517
 1019SOL    HW214691   1.400   2.544   0.475  0.8579 -0.8188  0.5611
 1020SOL     OW14692   1.948   3.233  14.132 -0.5210 -0.0353 -0.2533
 1020SOL    HW114693   2.009   3.164  14.157 -2.8067 -1.8599  0.3068
 1020SOL    HW214694   1.901   3.196  14.057  0.6471  0.8889 -1.4539
 1021SOL     OW14695   2.282   2.487   5.810  0.1051 -0.3474  0.3143
 1021SOL    HW114696   2.368   2.446   5.801 -1.9861 -4.8250  0.7285
 1021SOL    HW214697   2.243   2.491   5.723  0.2219  0.8651  0.3244
 1022SOL     OW14698   0.212   3.716   0.099 -0.1368 -0.0570 -0.2340
 1022SOL    HW114699   0.122   3.742   0.080  0.2632  1.6244  0.1653
 1022SOL    HW214700   0.217   3.620   0.094  0.5774 -0.0207 -0.1746
 1023SOL     OW14701   3.895   3.822   9.626  0.5594 -0.2766 -0.4735
 1023SOL    HW114702   3.945   3.790   9.700  0.4038 -1.4813 -0.8928
 1023SOL    HW214703   3.925   3.913   9.619 -1.9466  0.7211  1.4048
 1024SOL     OW14704   2.879   2.043   2.497  0.1506 -0.1623 -0.1797
 1024SOL    HW114705   2.946   2.018   2.561 -0.8187 -1.4782  0.3182
 1024SOL    HW214706   2.837   2.118   2.539  2.8128  1.1120  0.1963
 1025SOL     OW14707   4.677   2.878   2.854  0.0147 -0.2110  0.3313
 1025SOL    HW114708   4.634   2.933   2.789  0.8041 -1.2080 -1.0141
 1025SOL    HW214709   0.013   2.937   2.874  0.4082 -0.4399 -0.4165
 1026SOL     OW14710   1.334   2.842  11.918  0.2963  0.8556 -0.4505
 1026SOL    HW114711   1.300   2.913  11.864  2.4880  0.3260 -2.5151
 1026SOL    HW214712   1.352   2.888  12.001 -0.7120  0.8574 -0.2331
 1027SOL     OW14713   4.591   3.186   1.294  0.0577 -0.3396 -0.1583
 1027SOL    HW114714   4.660   3.198   1.360  0.8953 -2.6086 -0.6045
 1027SOL    HW214715   4.635   3.215   1.213 -0.1317 -2.9191 -1.1867
 1028SOL     OW14716   0.765   0.266   4.736 -0.0706 -0.3803  0.4933
 1028SOL    HW114717   0.719   0.195   4.691  1.5111 -0.2769 -1.2630
 1028SOL    HW214718   0.834   0.288   4.673  1.5313 -1.1911  1.9422
 1029SOL     OW14719   3.520   2.670   1.770  0.1753 -0.2461  0.1976
 1029SOL    HW114720   3.564   2.672   1.685  0.7227  0.0555  0.4822
 1029SOL    HW214721   3.581   2.714   1.829 -1.0846 -1.4877  2.4020
 1030SOL     OW14722   3.875   3.421  14.197  0.2223  0.0202  0.6262
 1030SOL    HW114723   3.875   3.334  14.158 -3.3584  0.7622 -1.0175
 1030SOL    HW214724   3.962   3.457  14.179 -0.7803  1.1608 -1.8642
 1031SOL     OW14725   1.875   1.705   4.417 -0.6461 -0.4575 -0.4845
 1031SOL    HW114726   1.953   1.652   4.432 -0.5862 -0.5558 -1.1580
 1031SOL    HW214727   1.923   1.788   4.411 -0.6957 -0.5318 -1.8326
 1032SOL     OW14728   2.445   3.896   6.892  0.0609  0.3504  0.3359
 1032SOL    HW114729   2.403   3.903   6.978 -0.2980  0.8392  0.1185
 1032SOL    HW214730   2.479   3.984   6.876  1.2537  0.0663  1.3404
 1033SOL     OW14731   0.362   2.523   2.857 -0.4768  0.0617  0.6361
 1033SOL    HW114732   0.281   2.569   2.881 -1.7195 -0.9306 -1.5917
 1033SOL    HW214733   0.398   2.579   2.788 -2.3012  1.8654  1.1385
 1034SOL     OW14734   1.920   3.503   2.024  0.8071 -0.6138 -0.2209
 1034SOL    HW114735   1.923   3.450   2.104  0.6782 -0.6527 -0.2418
 1034SOL    HW214736   1.855   3.565   2.056  2.3538  0.5938  0.6167
 1035SOL     OW14737   0.590   3.780  13.697  0.6990  0.1829 -0.3452
 1035SOL    HW114738   0.646   3.854  13.674 -1.2486  2.0335  0.8237
 1035SOL    HW214739   0.522   3.836  13.735 -1.1963 -1.8072 -0.8034
 1036SOL     OW14740   2.287   4.059   8.575  0.7737  0.0238  0.1300
 1036SOL    HW114741   2.359   4.085   8.517 -0.4973 -0.1965 -1.5296
 1036SOL    HW214742   2.335   4.008   8.641  2.9059  1.4239 -0.3305
 1037SOL     OW14743   1.365   1.436   7.380 -0.4834 -0.5795  0.3793
 1037SOL    HW114744   1.329   1.525   7.377 -0.2682 -0.5228 -0.5107
 1037SOL    HW214745   1.426   1.439   7.454  0.6049 -0.6612 -0.5131
 1038SOL     OW14746   3.588   3.398   9.452  0.3542  0.0035 -0.0565
 1038SOL    HW114747   3.507   3.448   9.465 -0.2632 -0.8891 -0.4395
 1038SOL    HW214748   3.611   3.376   9.542 -1.4289 -0.1996  0.3425
 1039SOL     OW14749   1.689   0.354   5.786  0.0581  0.4535 -0.0108
 1039SOL    HW114750   1.765   0.296   5.787 -0.0319  0.3349 -0.1209
 1039SOL    HW214751   1.625   0.309   5.731  0.9730  1.1799 -1.6833
 1040SOL     OW14752   0.251   1.411   8.913  0.1186  0.5054 -0.0668
 1040SOL    HW114753   0.160   1.417   8.943 -0.6492 -0.5367 -2.1953
 1040SOL    HW214754   0.306   1.397   8.990  0.7008 -1.7580 -0.9043
 1041SOL     OW14755   3.998   3.108   9.251  0.5763  0.1062  0.3872
 1041SOL    HW114756   4.091   3.125   9.266  0.3452 -0.5593  2.5896
 1041SOL    HW214757   3.961   3.146   9.331 -0.6012 -1.2944  0.4894
 1042SOL     OW14758   2.077   3.247  16.767 -0.1552  0.1426  0.2925
 1042SOL    HW114759   2.142   3.177  16.774 -2.1753 -1.7852 -0.4396
 1042SOL    HW214760   2.132   3.321  16.742  0.9559 -0.5013  0.8500
 1043SOL     OW14761   2.081   2.455  14.631  0.3698 -0.3435  0.0927
 1043SOL    HW114762   2.043   2.538  14.603 -0.3281 -0.3738  0.9189
 1043SOL    HW214763   2.011   2.409  14.678 -0.2771 -0.2950 -0.8151
 1044SOL     OW14764   1.394   3.979   5.684  0.0360 -0.3145 -0.2150
 1044SOL    HW114765   1.320   4.037   5.700 -0.2134  0.1370 -2.8668
 1044SOL    HW214766   1.464   4.018   5.736  0.5636 -1.1310 -0.3074
 1045SOL     OW14767   1.133   0.336   4.119  0.5638 -0.4254 -0.0091
 1045SOL    HW114768   1.228   0.345   4.113  0.7552 -0.7494  2.6432
 1045SOL    HW214769   1.101   0.373   4.036  2.5153 -0.6789 -0.8723
 1046SOL     OW14770   0.611   2.919   4.547 -0.1966  0.2643 -0.0867
 1046SOL    HW114771   0.538   2.943   4.491 -0.0492  0.2624 -0.2773
 1046SOL    HW214772   0.680   2.966   4.501  0.1082 -1.8573 -1.7718
 1047SOL     OW14773   2.246   4.481   5.131 -0.4139 -0.0742 -0.2904
 1047SOL    HW114774   2.190   4.480   5.053 -0.2073  1.2672 -0.4483
 1047SOL    HW214775   2.207   4.543   5.193 -0.8559 -1.6008  0.9549
 1048SOL     OW14776   3.645   1.892   0.396 -0.1903 -0.1412  0.0732
 1048SOL    HW114777   3.702   1.967   0.381  0.8081 -1.2152 -1.4734
 1048SOL    HW214778   3.559   1.929   0.374  0.1918  0.2014 -0.8460
 1049SOL     OW14779   2.439   3.604  14.476  0.1181 -0.2318  0.4750
 1049SOL    HW114780   2.357   3.583  14.521  0.5348 -1.4771  0.6599
 1049SOL    HW214781   2.463   3.679  14.531 -0.4082 -0.6664  1.3127
 1050SOL     OW14782   0.460   1.234   4.294 -0.3511 -0.0666 -0.2585
 1050SOL    HW114783   0.553   1.213   4.293 -0.0810  1.0580  1.3409
 1050SOL    HW214784   0.458   1.329   4.291  0.0536 -0.0711 -0.5329
 1051SOL     OW14785   0.946   2.147   7.221 -0.1733 -0.4258 -0.5645
 1051SOL    HW114786   0.923   2.094   7.297 -2.3280 -1.0189 -1.6088
 1051SOL    HW214787   0.961   2.221   7.279  1.9108 -0.3820 -1.1765
 1052SOL     OW14788   0.741   1.408   5.464 -0.1476 -0.2926 -0.0535
 1052SOL    HW114789   0.830   1.420   5.496 -1.0543  0.1319  2.3146
 1052SOL    HW214790   0.708   1.353   5.534 -2.1274  1.8751  0.7151
 1053SOL     OW14791   3.973   2.900  15.092 -0.6564 -0.4673 -0.3859
 1053SOL    HW114792   3.880   2.881  15.080 -0.6690  0.3935 -1.6822
 1053SOL    HW214793   4.018   2.843  15.031 -0.6915  0.3908 -1.2218
 1054SOL     OW14794   0.999   3.329   4.884  0.0328 -0.3059 -0.0412
 1054SOL    HW114795   1.054   3.262   4.843  0.8301 -0.9680  2.0723
 1054SOL    HW214796   1.051   3.345   4.963  0.3824  0.2511 -0.3865
 1055SOL     OW14797   4.325   3.315   7.667 -0.1622 -0.3220  0.2740
 1055SOL    HW114798   4.245   3.362   7.644  0.4425  0.4563 -0.2336
 1055SOL    HW214799   4.375   3.384   7.712  1.6148 -0.2169 -1.8868
 1056SOL     OW14800   0.498   1.393  10.538 -0.2214 -0.4084 -0.1629
 1056SOL    HW114801   0.404   1.377  10.537 -0.4840  1.1771 -1.1707
 1056SOL    HW214802   0.505   1.473  10.590 -0.7182  1.3628 -2.8127
 1057SOL     OW14803   1.535   3.871   3.442 -0.9399  0.7397 -0.4319
 1057SOL    HW114804   1.562   3.941   3.501  0.4044  0.0822 -0.2802
 1057SOL    HW214805   1.602   3.812   3.476 -0.7825  0.3292 -1.4539
 1058SOL     OW14806   3.900   0.893  12.324  0.6239 -0.1115 -0.1172
 1058SOL    HW114807   3.883   0.976  12.370  0.6106 -0.3825  0.3687
 1058SOL    HW214808   3.994   0.884  12.341  0.4043 -0.7276  0.7533
 1059SOL     OW14809   3.028   0.819   2.935 -0.0926 -0.0118  0.2430
 1059SOL    HW114810   3.019   0.887   3.002  1.0750  0.3563  0.0226
 1059SOL    HW214811   2.959   0.844   2.874 -0.7334 -0.5615  0.7358
 1060SOL     OW14812   3.449   0.002   7.659 -0.0078 -1.1817  0.9372
 1060SOL    HW114813   3.425   4.696   7.577 -3.0118 -1.4783  1.9825
 1060SOL    HW214814   3.539   0.034   7.650 -0.2027 -0.6241  0.9754
 1061SOL     OW14815   1.542   4.310  16.156  0.0409  0.0664  0.1463
 1061SOL    HW114816   1.541   4.332  16.249 -0.0672 -0.1336  0.1938
 1061SOL    HW214817   1.565   4.394  16.117 -1.2976  0.4507  0.1967
 1062SOL     OW14818   4.645   0.087  14.784  0.3553  0.6290 -0.0752
 1062SOL    HW114819   4.633   0.136  14.703  2.6434  0.2288 -0.6525
 1062SOL    HW214820   4.670   0.000  14.752 -0.8632 -0.1734  1.1327
 1063SOL     OW14821   0.773   2.425   5.320 -0.4356  0.1168 -0.0705
 1063SOL    HW114822   0.829   2.426   5.243 -2.2935  2.0530 -1.4034
 1063SOL    HW214823   0.720   2.347   5.304 -1.1734  0.9966 -2.0047
 1064SOL     OW14824   2.321   1.723   7.415  0.5298 -0.0660  0.0770
 1064SOL    HW114825   2.231   1.694   7.434 -0.3544  1.6385 -1.5091
 1064SOL    HW214826   2.309   1.801   7.360 -0.5038  0.2284  0.7149
 1065SOL     OW14827   4.505   0.134   1.932  0.3259 -0.4834  0.5334
 1065SOL    HW114828   4.521   0.040   1.930  1.0430 -0.3161 -1.2606
 1065SOL    HW214829   4.566   0.161   2.001 -1.0653  0.6338  1.3283
 1066SOL     OW14830   3.294   3.363  15.858 -0.3518  0.2694 -0.0752
 1066SOL    HW114831   3.257   3.284  15.820  2.5533 -0.7345 -0.7752
 1066SOL    HW214832   3.374   3.387  15.812  0.6385  0.7451  1.8735
 1067SOL     OW14833   3.951   2.476  17.726 -0.7429 -0.1085  0.0544
 1067SOL    HW114834   3.978   2.527   0.060  1.2660 -2.1005  0.6699
 1067SOL    HW214835   3.916   2.541  17.666  2.2792  1.7883  0.3123
 1068SOL     OW14836   1.849   1.694   2.890 -0.4043 -0.2385  0.0271
 1068SOL    HW114837   1.901   1.772   2.871  0.4030 -0.9242 -0.5628
 1068SOL    HW214838   1.824   1.671   2.800  3.6940 -0.1186 -1.1410
 1069SOL     OW14839   0.461   3.630  17.277  0.1966 -0.4566 -0.6516
 1069SOL    HW114840   0.449   3.717  17.315  0.8130 -0.6461 -0.0259
 1069SOL    HW214841   0.478   3.650  17.185 -1.4413 -1.6634 -1.2145
 1070SOL     OW14842   4.577   3.915   5.026 -0.4542 -0.1877  0.1660
 1070SOL    HW114843   4.635   3.856   5.073 -0.7295  0.8935  1.8888
 1070SOL    HW214844   4.533   3.852   4.970  0.5863  0.2784 -1.1990
 1071SOL     OW14845   4.072   4.470   8.751  0.0459  0.3733  0.1814
 1071SOL    HW114846   4.034   4.551   8.717 -1.0707  0.2443  1.1314
 1071SOL    HW214847   4.000   4.411   8.771  0.8859 -1.2697 -1.6613
 1072SOL     OW14848   3.286   0.356  14.799 -1.1338 -0.0416  0.4970
 1072SOL    HW114849   3.328   0.320  14.721  1.1895 -0.9246  2.1678
 1072SOL    HW214850   3.247   0.437  14.763  1.3690  0.4037 -1.1970
 1073SOL     OW14851   0.914   0.757   4.475 -0.2844  0.5683  0.2812
 1073SOL    HW114852   0.966   0.708   4.540  1.7427  2.2066 -0.1282
 1073SOL    HW214853   0.826   0.723   4.491 -0.4439  0.8783  0.0625
 1074SOL     OW14854   1.718   1.283   1.558 -0.2171 -0.0305 -0.4998
 1074SOL    HW114855   1.668   1.356   1.519 -0.2388 -1.2209 -2.6801
 1074SOL    HW214856   1.758   1.331   1.631 -3.4257  2.1184 -0.1171
 1075SOL     OW14857   4.214   3.882   3.456  0.1063  0.2907 -0.0962
 1075SOL    HW114858   4.219   3.964   3.505  0.6376 -0.6048  1.3570
 1075SOL    HW214859   4.307   3.863   3.442  0.1937  0.4775  0.2366
 1076SOL     OW14860   3.804   1.574   2.322 -0.8761 -0.4243  0.1912
 1076SOL    HW114861   3.746   1.628   2.376 -2.3363  1.1414 -2.9405
 1076SOL    HW214862   3.889   1.618   2.320  0.2363 -2.5176  0.9225
 1077SOL     OW14863   3.651   4.238   2.881 -0.6591  0.4025 -0.2269
 1077SOL    HW114864   3.676   4.330   2.883  0.8665 -0.0201 -0.7004
 1077SOL    HW214865   3.555   4.245   2.883 -0.6779  0.4036 -1.1040
 1078SOL     OW14866   2.752   3.443   0.283  0.4885 -0.2646 -0.7276
 1078SOL    HW114867   2.665   3.481   0.274 -0.1263 -1.7749 -1.1526
 1078SOL    HW214868   2.803   3.488   0.216  0.0966  0.7039 -0.3749
 1079SOL     OW14869   0.743   1.286   3.981  0.7595  0.0025  0.1130
 1079SOL    HW114870   0.809   1.324   3.923 -0.6727 -0.8532 -2.0727
 1079SOL    HW214871   0.788   1.315   4.060 -0.5435 -0.6807  1.1224
 1080SOL     OW14872   4.590   1.837   4.828 -0.2057 -0.8588  0.1682
 1080SOL    HW114873   4.552   1.907   4.775  1.8649  0.6088  0.5777
 1080SOL    HW214874   4.583   1.872   4.916 -0.1648 -0.4669  0.0188
 1081SOL     OW14875   4.591   3.009   4.359 -0.7185  0.5109 -0.3245
 1081SOL    HW114876   4.668   2.988   4.307 -1.0615  0.6046 -0.8698
 1081SOL    HW214877   4.601   3.101   4.383 -1.3236  0.0186  1.8116
 1082SOL     OW14878   0.744   3.429  14.487  0.6506  0.2480 -0.1391
 1082SOL    HW114879   0.671   3.468  14.535  0.5601  0.4398 -0.4319
 1082SOL    HW214880   0.720   3.337  14.503  0.0721  0.4050 -0.1044
 1083SOL     OW14881   0.921   0.045  16.128  0.4862 -0.6209 -0.4881
 1083SOL    HW114882   0.937   4.718  16.198  0.8926  1.1280  0.9931
 1083SOL    HW214883   0.825   0.044  16.124  0.3808 -1.0501  1.7762
 1084SOL     OW14884   3.257   0.171   7.088 -0.1763 -0.6830 -0.0743
 1084SOL    HW114885   3.337   0.163   7.036  0.9213 -1.1634  1.6697
 1084SOL    HW214886   3.202   0.191   7.013  0.4108  1.0094 -0.0517
 1085SOL     OW14887   2.352   4.314   3.740  0.4008 -0.3107  0.1432
 1085SOL    HW114888   2.263   4.340   3.716  0.4075  0.5662  1.0929
 1085SOL    HW214889   2.355   4.223   3.710 -0.9697 -0.6078  0.9539
 1086SOL     OW14890   1.136   1.850  11.891 -0.0067 -0.1780  0.0406
 1086SOL    HW114891   1.147   1.890  11.805  0.9280 -0.0776  0.2103
 1086SOL    HW214892   1.180   1.911  11.950 -0.2512  0.6589 -0.6328
 1087SOL     OW14893   0.215   0.574  15.533  0.2253  0.4009  0.1350
 1087SOL    HW114894   0.217   0.588  15.628 -0.7307  0.3913  0.1623
 1087SOL    HW214895   0.224   0.661  15.495  2.3115 -0.1466 -0.6019
 1088SOL     OW14896   0.773   4.164   4.368  0.2735 -0.2706 -0.7275
 1088SOL    HW114897   0.750   4.257   4.358  3.5507  0.6940  0.7523
 1088SOL    HW214898   0.751   4.152   4.460  2.2976  0.1311 -0.1980
 1089SOL     OW14899   2.579   1.271   6.422 -0.5273  0.1234  0.2012
 1089SOL    HW114900   2.591   1.217   6.344 -2.2047 -1.3557  0.9632
 1089SOL    HW214901   2.648   1.240   6.481 -0.3411 -2.3397 -1.3186
 1090SOL     OW14902   2.568   0.227   8.263  0.1748 -0.2396 -0.0465
 1090SOL    HW114903   2.522   0.200   8.342 -0.5282 -0.5313 -0.5497
 1090SOL    HW214904   2.633   0.158   8.250  1.3284  0.5700  1.4580
 1091SOL     OW14905   0.715   1.788  12.010 -0.1078 -0.0450 -0.2049
 1091SOL    HW114906   0.692   1.708  12.057  1.7339  0.5944  1.7524
 1091SOL    HW214907   0.811   1.782  12.008  0.1407  3.5745 -0.1711
 1092SOL     OW14908   0.048   3.939   5.314  1.0421 -0.6114  0.3144
 1092SOL    HW114909   0.137   3.919   5.285  0.9818  1.3615 -1.2312
 1092SOL    HW214910   0.012   3.850   5.309  1.4334 -0.8689  2.0026
 1093SOL     OW14911   4.024   2.537  16.627 -0.4616 -0.0209 -0.1020
 1093SOL    HW114912   4.067   2.601  16.571  0.4726  0.1507  0.8116
 1093SOL    HW214913   4.040   2.455  16.581  0.1166  0.3565 -0.5682
 1094SOL     OW14914   4.644   1.342   7.838  0.0486 -0.0867 -0.3498
 1094SOL    HW114915   4.587   1.303   7.772 -0.3752  0.5586 -0.3633
 1094SOL    HW214916   4.623   1.280   7.909  1.5645 -0.4571 -0.2166
 1095SOL     OW14917   3.469   0.188   5.253 -0.0088  0.2152 -0.0373
 1095SOL    HW114918   3.493   0.220   5.340  1.1768 -0.1638 -0.2227
 1095SOL    HW214919   3.443   0.101   5.283 -2.6001  1.5993  1.6477
 1096SOL     OW14920   2.446   0.192   8.500  0.5377  0.0347  0.0916
 1096SOL    HW114921   2.451   0.097   8.498 -0.8094  0.0017 -2.2866
 1096SOL    HW214922   2.381   0.203   8.569  2.1670 -0.8295  1.7422
 1097SOL     OW14923   2.552   3.337   8.583 -0.2745  0.1122  0.3669
 1097SOL    HW114924   2.569   3.390   8.660 -2.3128 -1.0780  1.6200
 1097SOL    HW214925   2.588   3.250   8.602  0.5346  0.5689  0.8886
 1098SOL     OW14926   0.680   3.562   8.007  0.3204 -0.7356 -0.2011
 1098SOL    HW114927   0.585   3.564   7.991  0.3015  1.6864  0.2161
 1098SOL    HW214928   0.693   3.579   8.100 -2.4636 -0.6144  0.1752
 1099SOL     OW14929   2.945   4.581   8.025  0.6754  0.1880 -0.0815
 1099SOL    HW114930   3.022   4.527   8.006 -0.7305 -1.4801 -1.0010
 1099SOL    HW214931   2.911   4.531   8.099  1.9204  0.0600  0.3983
 1100SOL     OW14932   2.085   2.018   7.032 -0.0695 -0.2920  0.0663
 1100SOL    HW114933   2.019   2.047   7.095 -0.2654 -0.7993  0.0984
 1100SOL    HW214934   2.114   2.104   7.002  0.2938 -0.1179  0.8994
 1101SOL     OW14935   4.078   3.138  16.265 -0.2839 -0.5424 -0.0076
 1101SOL    HW114936   4.124   3.145  16.182  0.6272  0.0118  0.5455
 1101SOL    HW214937   4.049   3.229  16.269  3.1059  0.5332 -0.6796
 1102SOL     OW14938   3.259   4.471   8.223 -0.1329 -0.1601  0.3438
 1102SOL    HW114939   3.238   4.453   8.131 -0.9906 -1.7214  0.8562
 1102SOL    HW214940   3.234   4.393   8.272 -2.1295 -1.1574 -2.2363
 1103SOL     OW14941   2.892   2.084   9.941  0.4768  0.1342  0.3707
 1103SOL    HW114942   2.905   1.991   9.960 -0.7287 -0.1029  0.0719
 1103SOL    HW214943   2.802   2.098   9.972 -0.3879 -0.5164 -1.8874
 1104SOL     OW14944   0.377   3.198   7.926  0.0514 -0.9394  0.0900
 1104SOL    HW114945   0.411   3.111   7.947  0.0525 -1.8492 -3.6953
 1104SOL    HW214946   0.352   3.194   7.834 -1.1691  1.5016  0.3112
 1105SOL     OW14947   4.277   3.316   3.547  0.2858 -0.5119 -0.5714
 1105SOL    HW114948   4.183   3.315   3.565  0.8927 -1.0920  2.5888
 1105SOL    HW214949   4.294   3.407   3.523  0.6373 -0.6272 -0.7602
 1106SOL     OW14950   2.156   2.381   9.201 -0.1299  0.3978  0.5602
 1106SOL    HW114951   2.220   2.342   9.260 -0.7161 -2.1333 -0.4720
 1106SOL    HW214952   2.086   2.394   9.264 -0.7278  2.3971 -0.5325
 1107SOL     OW14953   0.716   2.442  15.568  0.8058  0.0359 -0.3506
 1107SOL    HW114954   0.810   2.435  15.582  0.6956  0.5925  0.6695
 1107SOL    HW214955   0.701   2.486  15.651 -1.5933  0.5589 -1.0579
 1108SOL     OW14956   2.868   4.733   1.750 -0.4100  0.2512  0.0586
 1108SOL    HW114957   2.846   0.043   1.831 -0.3637 -0.1504  0.2976
 1108SOL    HW214958   2.851   4.640   1.761  1.4142  0.0189  0.8427
 1109SOL     OW14959   4.504   2.261  13.444  0.0179 -0.1864  0.1015
 1109SOL    HW114960   4.435   2.276  13.509  0.5140 -0.8562  0.7752
 1109SOL    HW214961   4.481   2.320  13.372 -1.6323 -1.2407 -0.2265
 1110SOL     OW14962   4.167   2.044   8.544  0.0911  0.1720  0.2033
 1110SOL    HW114963   4.259   2.069   8.544 -0.1716  1.1471  0.0033
 1110SOL    HW214964   4.173   1.949   8.552  1.8656  0.3761  1.4727
 1111SOL     OW14965   4.051   3.535  13.324  0.1023 -0.5090  0.2466
 1111SOL    HW114966   4.076   3.537  13.417 -3.2015  1.6392  1.0968
 1111SOL    HW214967   4.125   3.499  13.276 -0.4570 -0.2225 -0.8136
 1112SOL     OW14968   2.639   2.056   9.471 -0.2276  0.1707  0.2535
 1112SOL    HW114969   2.639   1.962   9.452  1.2501 -0.2040  2.1411
 1112SOL    HW214970   2.606   2.044   9.560 -0.1504  0.8258  0.3684
 1113SOL     OW14971   2.958   4.062   8.309  0.6700  0.0710  0.4391
 1113SOL    HW114972   2.934   4.003   8.237  0.0902 -0.5309  1.1289
 1113SOL    HW214973   2.986   3.996   8.372  0.3642  1.3878  1.9786
 1114SOL     OW14974   0.890   2.699  15.973  0.2217  0.0117  0.4777
 1114SOL    HW114975   0.863   2.776  16.022 -2.2334 -0.5319 -0.0315
 1114SOL    HW214976   0.954   2.736  15.912 -1.0881  0.5420 -0.5763
 1115SOL     OW14977   4.482   0.513  15.895  0.0886  0.0855 -0.0995
 1115SOL    HW114978   4.488   0.503  15.990 -2.5067 -1.9602 -0.1436
 1115SOL    HW214979   4.493   0.608  15.891  0.6383 -0.0174 -1.0766
 1116SOL     OW14980   2.768   0.760   7.106  0.3258  0.5667 -0.6129
 1116SOL    HW114981   2.826   0.791   7.176 -0.8761  1.4406  0.0224
 1116SOL    HW214982   2.842   0.728   7.055  2.3967  0.4571  2.4665
 1117SOL     OW14983   2.590   2.116   4.413 -0.3611  0.3912  0.1425
 1117SOL    HW114984   2.661   2.154   4.464 -2.7275  1.8195  2.3849
 1117SOL    HW214985   2.575   2.038   4.467  0.4395  0.0641 -0.1040
 1118SOL     OW14986   1.714   4.488   3.359 -0.0892 -0.3540 -0.7658
 1118SOL    HW114987   1.633   4.540   3.361 -0.1043 -0.2592 -3.2500
 1118SOL    HW214988   1.703   4.449   3.272  0.5222  1.8027 -1.8275
 1119SOL     OW14989   2.243   3.986   6.117 -0.0947  0.0453  0.5342
 1119SOL    HW114990   2.219   4.078   6.123  2.2398  0.6458  0.6447
 1119SOL    HW214991   2.190   3.945   6.185  0.0372 -0.9579  0.0439
 1120SOL     OW14992   1.840   2.290   4.650  0.6401  0.2472 -0.1757
 1120SOL    HW114993   1.793   2.371   4.634  0.7809  0.3406 -0.1228
 1120SOL    HW214994   1.919   2.321   4.695  0.5665  0.1019  0.0535
 1121SOL     OW14995   3.646   0.579   0.299  0.3855  0.1044  0.0411
 1121SOL    HW114996   3.605   0.655   0.339 -0.1593 -0.1960  0.0508
 1121SOL    HW214997   3.666   0.528   0.378 -0.3664 -1.1953 -0.5997
 1122SOL     OW14998   4.693   3.961   3.113 -0.0494 -0.5525 -0.1148
 1122SOL    HW114999   4.720   3.889   3.055  1.5405 -1.1968  1.4355
 1122SOL    HW215000   4.604   3.975   3.082  0.2412 -0.5591 -0.9634
 1123SOL     OW15001   4.159   0.349   2.469  0.1474 -0.7103  0.2741
 1123SOL    HW115002   4.193   0.418   2.526 -0.4616  1.4199 -1.9559
 1123SOL    HW215003   4.085   0.392   2.426  1.2688  0.5328 -0.4063
 1124SOL     OW15004   0.064   1.951   7.016  0.3302  0.3674 -0.1128
 1124SOL    HW115005   0.023   2.031   6.983 -0.9466 -0.0060  0.5842
 1124SOL    HW215006   0.156   1.973   7.003  1.3177 -3.9905 -0.4657
 1125SOL     OW15007   2.043   1.031   3.157 -0.4411 -0.0744  0.1908
 1125SOL    HW115008   1.966   1.082   3.130  0.6213  1.0489 -0.7009
 1125SOL    HW215009   2.039   0.956   3.097 -1.6333  0.0031  0.1672
 1126SOL     OW15010   3.780   2.276   4.628 -0.3104  0.2578  0.0107
 1126SOL    HW115011   3.865   2.298   4.589 -1.6966  0.1849 -3.1309
 1126SOL    HW215012   3.725   2.305   4.555 -0.3679  0.0943 -0.0113
 1127SOL     OW15013   0.160   2.684   7.732 -0.3220  0.4890 -0.1093
 1127SOL    HW115014   0.146   2.590   7.720 -1.0535  0.2878  2.4421
 1127SOL    HW215015   0.235   2.688   7.672  0.9086  1.7362  1.5110
 1128SOL     OW15016   0.328   1.540  15.877 -0.2170 -0.4072  0.3351
 1128SOL    HW115017   0.268   1.577  15.812  1.0445  0.8044 -0.1435
 1128SOL    HW215018   0.397   1.496  15.827 -1.2937 -0.9708 -0.6357
 1129SOL     OW15019   0.258   4.253   6.242 -0.0776 -0.4502 -0.1554
 1129SOL    HW115020   0.266   4.281   6.333 -2.3310  2.5221 -0.8826
 1129SOL    HW215021   0.174   4.292   6.219  0.0185  0.1890  0.5919
 1130SOL     OW15022   3.365   1.566   7.025 -0.1387 -0.7507 -0.2466
 1130SOL    HW115023   3.375   1.477   7.058 -0.3821 -0.7387 -0.1444
 1130SOL    HW215024   3.290   1.597   7.076  0.8614  0.9566  0.1891
 1131SOL     OW15025   3.213   2.610   2.674  0.4003 -0.2280 -0.0479
 1131SOL    HW115026   3.239   2.702   2.678  3.6859 -1.1931  0.5068
 1131SOL    HW215027   3.227   2.588   2.766  0.3555  1.1293  0.2869
 1132SOL     OW15028   1.502   4.604   8.356 -0.1295 -0.1430  0.1280
 1132SOL    HW115029   1.524   4.552   8.433  0.5173  0.4249  0.3299
 1132SOL    HW215030   1.434   4.665   8.385  0.4822  0.6430 -0.0804
 1133SOL     OW15031   3.372   0.821   6.724  0.0702 -0.1148 -0.2048
 1133SOL    HW115032   3.458   0.858   6.705  0.2630 -0.3319  0.2480
 1133SOL    HW215033   3.398   0.750   6.783  0.4444  1.1365  1.1501
 1134SOL     OW15034   1.242   4.727   5.361  0.6249  0.1773 -0.0206
 1134SOL    HW115035   1.292   0.062   5.319  1.0218  0.6309  1.2190
 1134SOL    HW215036   1.200   4.698   5.280 -1.7134 -1.1891  1.6852
 1135SOL     OW15037   0.511   1.085   8.865 -0.6038  0.7828  0.2418
 1135SOL    HW115038   0.555   1.155   8.914  0.9255  0.5517 -0.8111
 1135SOL    HW215039   0.571   1.059   8.796  1.6248 -0.2025  2.5432
 1136SOL     OW15040   0.113   0.192   1.786  0.5909  0.0246 -0.0214
 1136SOL    HW115041   0.056   0.117   1.770 -1.1447  2.1083 -3.7318
 1136SOL    HW215042   0.056   0.260   1.750 -0.7708 -1.3695 -0.5069
 1137SOL     OW15043   3.804   1.640   1.011 -0.3408  0.0901 -0.3734
 1137SOL    HW115044   3.878   1.638   0.950  1.5344  3.3925  1.8105
 1137SOL    HW215045   3.727   1.640   0.955 -1.7336 -0.6903  1.5184
 1138SOL     OW15046   2.696   2.017   3.301 -0.0525  0.2725 -0.2892
 1138SOL    HW115047   2.635   2.080   3.263 -0.4880 -0.7887 -1.3256
 1138SOL    HW215048   2.685   2.052   3.390 -0.7322  2.1734 -1.1192
 1139SOL     OW15049   4.016   4.535   5.239 -0.3494 -0.4297 -0.2389
 1139SOL    HW115050   4.012   4.630   5.249 -0.3227 -0.2767 -1.6699
 1139SOL    HW215051   4.105   4.522   5.272 -0.5090  3.6773  1.7811
 1140SOL     OW15052   4.115   1.445   7.912 -0.5093 -0.5225 -0.1596
 1140SOL    HW115053   4.189   1.506   7.908  0.5309 -1.7926 -0.5255
 1140SOL    HW215054   4.164   1.364   7.898  0.9797  0.2877  0.2924
 1141SOL     OW15055   4.285   3.350   4.020 -0.1280  0.3597 -0.2307
 1141SOL    HW115056   4.207   3.312   4.060 -0.5702  1.8621  0.3437
 1141SOL    HW215057   4.339   3.356   4.100  3.1477 -0.9148 -2.3490
 1142SOL     OW15058   2.266   3.166   2.764  0.3559 -0.1712  0.3912
 1142SOL    HW115059   2.233   3.188   2.851  1.5949 -1.1702  1.1115
 1142SOL    HW215060   2.210   3.092   2.741 -1.8057  1.8424 -0.8247
 1143SOL     OW15061   3.495   4.147   2.295  0.2689  0.4208 -0.7045
 1143SOL    HW115062   3.450   4.093   2.229 -0.7946 -1.1130  1.2890
 1143SOL    HW215063   3.474   4.238   2.272 -1.0908  0.2257 -0.2353
 1144SOL     OW15064   2.235   3.327  14.822  0.4248  0.6277 -0.0221
 1144SOL    HW115065   2.326   3.304  14.843 -0.2059  0.7513  2.9395
 1144SOL    HW215066   2.235   3.333  14.727 -1.3889  0.3104 -0.0399
 1145SOL     OW15067   4.093   2.789   8.357  0.1216 -0.2653 -0.1247
 1145SOL    HW115068   4.103   2.757   8.268 -0.7870 -2.6337  0.5986
 1145SOL    HW215069   4.185   2.802   8.380 -0.1320  1.7868 -0.3250
 1146SOL     OW15070   3.573   3.645   1.250 -0.3383 -0.1309 -0.0549
 1146SOL    HW115071   3.541   3.734   1.266  1.2152  0.2852  0.7092
 1146SOL    HW215072   3.662   3.651   1.284 -0.3104  0.2831 -0.2057
 1147SOL     OW15073   4.141   4.132   0.245  0.7132  0.0613 -0.0444
 1147SOL    HW115074   4.051   4.145   0.275  0.2636 -2.0468 -0.4694
 1147SOL    HW215075   4.176   4.193   0.310  0.1741  1.0090 -0.6350
 1148SOL     OW15076   2.697   3.499   7.630  0.3318  0.4213 -0.2232
 1148SOL    HW115077   2.687   3.466   7.719 -1.9551  1.2539 -0.1661
 1148SOL    HW215078   2.737   3.421   7.592  3.0809  1.1366  1.2006
 1149SOL     OW15079   1.425   3.560   6.300 -0.5686  0.0568  0.2964
 1149SOL    HW115080   1.487   3.500   6.258 -0.0121  1.2826 -0.6634
 1149SOL    HW215081   1.345   3.509   6.304 -0.9956  0.7305  0.3420
 1150SOL     OW15082   0.368   1.944  16.065  0.1225 -0.0334 -0.9271
 1150SOL    HW115083   0.384   2.039  16.063 -1.2291  0.2307  1.5123
 1150SOL    HW215084   0.275   1.946  16.088  0.2235  2.5982 -0.6814
 1151SOL     OW15085   3.450   2.548   9.055  0.1664  0.0231  0.2142
 1151SOL    HW115086   3.365   2.533   9.097 -1.1327  1.8833 -1.7280
 1151SOL    HW215087   3.415   2.565   8.967 -0.9685  0.1248  0.6820
 1152SOL     OW15088   0.601   2.278   3.842  0.2982 -0.0110 -0.0400
 1152SOL    HW115089   0.533   2.237   3.789  1.0781  0.1944 -1.2009
 1152SOL    HW215090   0.670   2.220   3.810 -0.2925 -1.0399  0.5587
 1153SOL     OW15091   1.021   1.731   7.333 -0.1683 -0.4757 -0.2001
 1153SOL    HW115092   1.038   1.685   7.415 -1.2006  0.3962  0.5043
 1153SOL    HW215093   1.054   1.816   7.364  0.4890 -0.9646  0.4334
 1154SOL     OW15094   0.314   2.950   7.195 -0.6498 -0.3055  0.4578
 1154SOL    HW115095   0.219   2.953   7.197 -0.5850  1.6861  0.3470
 1154SOL    HW215096   0.326   2.884   7.126 -0.9141  0.2647 -0.1368
 1155SOL     OW15097   1.630   1.024  13.125 -0.1781 -0.3892 -0.3858
 1155SOL    HW115098   1.717   1.041  13.162  0.1695 -0.8037 -1.0137
 1155SOL    HW215099   1.581   1.010  13.206  1.2011 -1.0900  0.3138
 1156SOL     OW15100   2.928   2.378   2.959  0.1015  0.6206  0.0767
 1156SOL    HW115101   2.847   2.379   2.908  2.4485 -2.2977 -3.6272
 1156SOL    HW215102   2.986   2.327   2.903 -2.6560 -1.0265 -1.2294
 1157SOL     OW15103   3.998   1.984  11.058 -0.4984 -0.2484 -0.6675
 1157SOL    HW115104   4.000   1.888  11.056 -0.3789 -0.2569 -0.0968
 1157SOL    HW215105   4.012   2.002  11.151  1.4954  0.9912 -1.1986
 1158SOL     OW15106   3.817   4.192  11.258  0.1585  0.1547  0.2782
 1158SOL    HW115107   3.796   4.242  11.179  0.7457 -1.9901 -1.2436
 1158SOL    HW215108   3.912   4.188  11.261  0.1921  1.6322  1.0042
 1159SOL     OW15109   2.196   2.097   2.209  0.0714  0.2132  0.0957
 1159SOL    HW115110   2.188   2.188   2.235 -0.3312  0.8301 -2.1761
 1159SOL    HW215111   2.281   2.080   2.250 -0.1673 -1.0990  0.0429
 1160SOL     OW15112   3.789   1.878   9.419 -0.3682 -0.4050  0.4552
 1160SOL    HW115113   3.844   1.905   9.493 -1.8329 -1.3919  1.8895
 1160SOL    HW215114   3.720   1.941   9.438 -0.6667  0.0102 -2.0276
 1161SOL     OW15115   2.320   1.894   3.792  0.4867  0.3037  0.2292
 1161SOL    HW115116   2.226   1.905   3.778 -0.2438 -3.8481  1.7794
 1161SOL    HW215117   2.315   1.817   3.848  0.5448  0.7297  0.8233
 1162SOL     OW15118   2.587   2.099   7.979 -0.5995 -0.5019  0.5094
 1162SOL    HW115119   2.611   2.116   7.888  0.4459  2.8523  1.3877
 1162SOL    HW215120   2.618   2.009   7.986 -0.2866 -0.5618 -1.8667
 1163SOL     OW15121   0.523   4.387   4.820 -0.7839  0.3031 -0.1539
 1163SOL    HW115122   0.450   4.329   4.843  0.6224 -1.0156  1.0134
 1163SOL    HW215123   0.481   4.417   4.739  0.2474  1.3096 -0.3044
 1164SOL     OW15124   1.221   0.620  13.970  0.1368 -0.0328 -0.4188
 1164SOL    HW115125   1.259   0.664  14.046 -1.0929 -0.5714  0.4905
 1164SOL    HW215126   1.212   0.528  13.992 -0.4937  0.1324 -0.0079
 1165SOL     OW15127   3.151   1.959   4.936  0.2969  0.4004  0.2473
 1165SOL    HW115128   3.084   1.890   4.936 -1.3417  1.9813  0.4946
 1165SOL    HW215129   3.095   2.034   4.955  0.0975  0.1127  0.8082
 1166SOL     OW15130   3.686   2.900  15.182 -0.5867 -0.0833  0.3329
 1166SOL    HW115131   3.719   2.983  15.215  1.7315 -0.2150 -1.6218
 1166SOL    HW215132   3.703   2.841  15.255 -0.8430  1.2675  1.4759
 1167SOL     OW15133   2.632   1.170   2.859 -0.0085  0.3167  0.7403
 1167SOL    HW115134   2.624   1.229   2.934 -2.7040 -0.5300  1.1182
 1167SOL    HW215135   2.600   1.221   2.785  0.9184  0.7971  0.6722
 1168SOL     OW15136   3.722   4.461   6.238 -0.1468 -0.2414 -0.0758
 1168SOL    HW115137   3.722   4.452   6.143  0.2245 -2.0072  0.0828
 1168SOL    HW215138   3.631   4.443   6.264 -0.1056  0.0206  0.2366
 1169SOL     OW15139   1.140   0.125  15.842 -0.8145 -0.1250 -0.7394
 1169SOL    HW115140   1.180   0.208  15.814 -0.8971  0.2075  0.1295
 1169SOL    HW215141   1.053   0.147  15.875 -0.0830  1.2887  0.2626
 1170SOL     OW15142   2.543   2.046  14.269 -0.1314  0.3446 -0.0954
 1170SOL    HW115143   2.602   2.083  14.334  0.1848 -0.1923 -0.0775
 1170SOL    HW215144   2.561   2.106  14.197  0.3579  0.2552 -0.0485
 1171SOL     OW15145   3.995   3.704   1.530 -0.0706  0.1088  0.2550
 1171SOL    HW115146   4.051   3.781   1.535 -2.1983  1.6661  0.1734
 1171SOL    HW215147   3.930   3.714   1.600 -1.4591 -0.7893 -0.8865
 1172SOL     OW15148   2.464   0.098  11.433 -0.2555  0.0474  0.4279
 1172SOL    HW115149   2.539   0.114  11.490  1.1662  1.4370 -1.8428
 1172SOL    HW215150   2.480   0.020  11.379  0.3226 -0.2137  0.9884
 1173SOL     OW15151   0.325   4.102  12.844 -0.2979 -0.5615 -0.0468
 1173SOL    HW115152   0.248   4.099  12.900  0.0689 -1.9394  0.3916
 1173SOL    HW215153   0.378   4.025  12.864 -0.7120 -1.1800 -1.3694
 1174SOL     OW15154   3.556   3.513   4.268  0.2536 -0.4993  0.1149
 1174SOL    HW115155   3.500   3.449   4.225  1.4948  0.0133 -2.2699
 1174SOL    HW215156   3.502   3.591   4.262 -1.1952 -1.5683 -0.8267
 1175SOL     OW15157   0.114   4.087   4.115  0.1000  0.3539 -0.1835
 1175SOL    HW115158   0.206   4.103   4.096 -0.1080 -0.8635 -2.2596
 1175SOL    HW215159   0.092   4.019   4.051 -1.5626  2.2545 -1.6614
 1176SOL     OW15160   2.435   0.581  12.310 -0.1171 -0.3333  0.3847
 1176SOL    HW115161   2.467   0.492  12.297 -0.9183 -0.7192  1.0704
 1176SOL    HW215162   2.428   0.591  12.405  1.3049  0.4257  0.4077
 1177SOL     OW15163   1.792   4.094   8.083 -0.6963  0.4685 -0.1155
 1177SOL    HW115164   1.814   4.179   8.046  2.7433  0.5184  2.0779
 1177SOL    HW215165   1.814   4.093   8.176  2.0466 -1.5840 -0.7791
 1178SOL     OW15166   3.205   4.349   6.826 -0.5448 -0.0497  0.2832
 1178SOL    HW115167   3.151   4.322   6.752  0.6892 -0.1507 -0.5720
 1178SOL    HW215168   3.219   4.263   6.867  1.2157 -0.6970 -1.7145
 1179SOL     OW15169   2.551   3.505  12.267 -0.0583 -0.3785  0.1819
 1179SOL    HW115170   2.589   3.469  12.347  1.5714  1.4644  0.2307
 1179SOL    HW215171   2.469   3.456  12.257  1.1150 -2.3233  0.0862
 1180SOL     OW15172   1.968   0.901   3.728 -0.2626  0.4008 -0.0111
 1180SOL    HW115173   1.943   0.955   3.803  0.4792 -0.8128  1.1154
 1180SOL    HW215174   1.972   0.968   3.661  0.0097  0.1969 -0.1972
 1181SOL     OW15175   1.934   3.699   6.646  0.4103 -0.1767 -0.3497
 1181SOL    HW115176   2.007   3.720   6.704  0.0666 -1.2028  0.4499
 1181SOL    HW215177   1.933   3.604   6.660 -0.3757 -0.5668 -2.9551
 1182SOL     OW15178   2.611   3.172   2.178 -0.0054  0.3734 -0.2055
 1182SOL    HW115179   2.622   3.094   2.232 -0.6916 -0.5276 -1.3782
 1182SOL    HW215180   2.561   3.225   2.240  0.7313  1.8816 -0.9199
 1183SOL     OW15181   4.232   2.233   5.835 -0.3963 -0.9427 -0.1563
 1183SOL    HW115182   4.219   2.305   5.897  1.5859  0.5414 -1.4581
 1183SOL    HW215183   4.247   2.159   5.894  0.3488 -0.8969 -0.2897
 1184SOL     OW15184   0.318   0.507   8.223  0.1207 -0.3447 -0.2415
 1184SOL    HW115185   0.254   0.533   8.290 -0.1799  0.7834 -0.9654
 1184SOL    HW215186   0.382   0.460   8.275 -0.9270 -0.5804  0.8380
 1185SOL     OW15187   0.853   0.727   8.795  0.0998 -0.6451  0.1090
 1185SOL    HW115188   0.802   0.671   8.735  0.1653 -1.0144  0.3986
 1185SOL    HW215189   0.809   0.744   8.878  0.9915 -0.4786  0.5459
 1186SOL     OW15190   3.176   1.413   2.135  0.0152  0.0316  0.0767
 1186SOL    HW115191   3.256   1.461   2.113 -0.3254  0.7921  0.5160
 1186SOL    HW215192   3.127   1.439   2.057  1.8685 -1.1197 -1.4750
 1187SOL     OW15193   0.411   2.806   3.736  0.0672  0.0336  0.9792
 1187SOL    HW115194   0.407   2.781   3.829 -0.9172 -1.0011  0.6616
 1187SOL    HW215195   0.405   2.717   3.700 -1.2341  0.9587 -1.0895
 1188SOL     OW15196   2.844   1.691   8.283 -0.0731  0.0809  0.2387
 1188SOL    HW115197   2.833   1.779   8.247  0.1108 -0.3952 -0.9827
 1188SOL    HW215198   2.751   1.678   8.305  0.4724  0.1782  2.6236
 1189SOL     OW15199   1.328   3.383   3.058  0.1271  0.1215 -0.3684
 1189SOL    HW115200   1.308   3.396   2.965  2.8308  1.0949 -0.8025
 1189SOL    HW215201   1.408   3.434   3.069 -0.4215  1.3077 -1.9222
 1190SOL     OW15202   3.225   2.995   6.314  0.0622  0.5493 -0.6542
 1190SOL    HW115203   3.177   3.073   6.341 -0.7716 -0.2366  0.1157
 1190SOL    HW215204   3.311   3.023   6.348 -1.0551  2.6102  0.4710
 1191SOL     OW15205   0.035   3.321  15.100  0.3921 -0.1222 -0.2197
 1191SOL    HW115206   0.078   3.385  15.157 -0.8984  0.5536 -0.0080
 1191SOL    HW215207   4.726   3.270  15.167 -0.2312  2.4357  1.3096
 1192SOL     OW15208   4.156   4.076  11.656  0.1408 -0.2626 -0.0722
 1192SOL    HW115209   4.106   4.011  11.607 -0.3064 -0.7899  1.0811
 1192SOL    HW215210   4.089   4.122  11.708 -2.0419 -0.3240 -2.8165
 1193SOL     OW15211   3.432   1.750   5.671  0.1196  0.4514  0.6604
 1193SOL    HW115212   3.392   1.796   5.744 -1.0826 -0.1911  0.3960
 1193SOL    HW215213   3.451   1.664   5.707  2.5115  1.0559  0.8733
 1194SOL     OW15214   1.715   0.382   0.541  0.1300 -0.2528  0.0770
 1194SOL    HW115215   1.724   0.353   0.451  3.2503  0.7943  0.0492
 1194SOL    HW215216   1.781   0.327   0.583  0.0078  0.6916  1.5006
 1195SOL     OW15217   4.322   3.116   0.142  0.0771  0.1089  0.7205
 1195SOL    HW115218   4.313   3.063   0.062 -0.1031 -1.2459  1.6363
 1195SOL    HW215219   4.392   3.170   0.108  0.7683 -1.9636 -1.1560
 1196SOL     OW15220   3.521   1.844  12.882 -0.3089 -0.0376  0.5188
 1196SOL    HW115221   3.502   1.909  12.814 -3.6582 -0.1941  1.3320
 1196SOL    HW215222   3.615   1.827  12.878  0.1137  1.8263  2.7279
 1197SOL     OW15223   1.590   4.262   5.787 -0.2588  0.6331 -0.1511
 1197SOL    HW115224   1.513   4.305   5.752 -1.9354 -0.9659  1.6135
 1197SOL    HW215225   1.602   4.308   5.869 -0.1902 -0.5482  0.5026
 1198SOL     OW15226   1.651   0.201   6.684 -0.4016 -0.0437  0.2016
 1198SOL    HW115227   1.619   0.200   6.594 -0.3994 -0.1011  0.2018
 1198SOL    HW215228   1.721   0.136   6.684 -2.5386 -2.3558 -1.7234
 1199SOL     OW15229   2.860   0.467   2.745  0.2599  0.3193  0.6770
 1199SOL    HW115230   2.920   0.465   2.820  1.6962  2.2343 -0.4055
 1199SOL    HW215231   2.783   0.424   2.781 -1.3235  1.5233 -1.2938
 1200SOL     OW15232   4.521   0.607   5.914 -0.0531  0.2939  0.3757
 1200SOL    HW115233   4.586   0.677   5.921  2.6722 -1.5701 -6.4772
 1200SOL    HW215234   4.457   0.643   5.852  2.3380  0.9550 -1.6690
 1201SOL     OW15235   0.368   2.088   2.210  0.0251 -0.4514 -0.3602
 1201SOL    HW115236   0.307   2.061   2.279  1.7772  0.8389  1.7091
 1201SOL    HW215237   0.379   2.014   2.151 -1.5092 -0.2866 -0.8715
 1202SOL     OW15238   1.378   3.213   5.141 -0.3033  0.6168 -0.0454
 1202SOL    HW115239   1.401   3.192   5.232 -0.3507  1.4523  0.1547
 1202SOL    HW215240   1.455   3.260   5.111  1.2098 -2.0451 -0.3510
 1203SOL     OW15241   2.229   0.880   2.338  0.3018 -0.0293 -0.7429
 1203SOL    HW115242   2.216   0.938   2.414 -0.0507 -0.0538 -0.7825
 1203SOL    HW215243   2.143   0.893   2.297 -0.5462  0.2846  1.1304
 1204SOL     OW15244   2.283   2.218   5.641  0.2693  1.0925 -0.0576
 1204SOL    HW115245   2.314   2.270   5.567 -2.8895  0.0366 -2.1203
 1204SOL    HW215246   2.277   2.132   5.600  1.2538  2.5472 -3.2190
 1205SOL     OW15247   4.464   1.852   8.283 -0.2205 -0.3938  0.2724
 1205SOL    HW115248   4.463   1.883   8.373 -2.4407 -0.5629  0.2931
 1205SOL    HW215249   4.555   1.875   8.264 -0.5637  0.1348 -0.7497
 1206SOL     OW15250   2.412   0.740   3.490  0.8243 -0.0285  0.6422
 1206SOL    HW115251   2.324   0.775   3.474  1.3035  1.0035  0.2701
 1206SOL    HW215252   2.423   0.676   3.420 -0.8995  0.7422 -0.3496
 1207SOL     OW15253   3.684   1.337   1.093  0.1377 -0.2178 -0.0834
 1207SOL    HW115254   3.722   1.253   1.119  0.5919  1.0273  3.2493
 1207SOL    HW215255   3.635   1.314   1.014 -0.8008  0.4892  0.2886
 1208SOL     OW15256   2.100   3.767   5.294  0.2260  0.5570  0.1047
 1208SOL    HW115257   2.047   3.821   5.353 -1.8202  1.1508 -2.2600
 1208SOL    HW215258   2.113   3.828   5.221  1.4181  0.1737  0.0046
 1209SOL     OW15259   0.405   0.394   4.235  0.4017 -0.1943  0.2612
 1209SOL    HW115260   0.372   0.376   4.147  1.0792  0.9402 -0.2270
 1209SOL    HW215261   0.469   0.464   4.225 -0.3327  0.6951  1.8321
 1210SOL     OW15262   3.556   3.220   1.709 -0.0746  0.2459 -0.4514
 1210SOL    HW115263   3.643   3.189   1.682 -0.1699  3.3256 -4.2322
 1210SOL    HW215264   3.516   3.134   1.725 -0.3519  0.4940  0.1916
 1211SOL     OW15265   4.552   3.374   7.125 -0.2634 -0.2429 -0.5763
 1211SOL    HW115266   4.483   3.439   7.141  0.9259  0.7434  0.5488
 1211SOL    HW215267   4.509   3.291   7.148 -0.3671  0.2280  0.9316
 1212SOL     OW15268   0.162   0.393   2.417  0.0764  0.0974 -0.4331
 1212SOL    HW115269   0.200   0.480   2.429  0.9898 -0.4912  0.9338
 1212SOL    HW215270   0.239   0.337   2.415  1.3466  1.9154 -2.0953
 1213SOL     OW15271   1.575   2.349   2.731 -0.0450  0.0200  0.0049
 1213SOL    HW115272   1.636   2.307   2.671  0.3011 -2.0961  1.8387
 1213SOL    HW215273   1.499   2.291   2.730 -0.6235  0.7799 -0.3165
 1214SOL     OW15274   2.609   4.079   6.448 -0.5198  0.4498  0.8453
 1214SOL    HW115275   2.570   4.124   6.373  3.4997  1.0305 -0.8907
 1214SOL    HW215276   2.535   4.071   6.507 -0.2230 -0.6898  1.0652
 1215SOL     OW15277   3.609   0.010  13.977 -1.0294 -0.4629 -0.0304
 1215SOL    HW115278   3.669   0.023  14.050  1.3220 -1.4238 -1.7947
 1215SOL    HW215279   3.535   4.728  14.034 -0.8481 -2.0193 -0.2859
 1216SOL     OW15280   3.184   3.935   4.287 -0.1770  0.4826  0.4035
 1216SOL    HW115281   3.120   3.985   4.338 -0.0992  1.5028 -0.5013
 1216SOL    HW215282   3.168   3.966   4.198  0.2718 -0.2471  0.0744
 1217SOL     OW15283   0.343   1.011   2.425 -0.2764  0.0961 -0.3315
 1217SOL    HW115284   0.262   1.062   2.417  0.5209  1.1070 -2.2336
 1217SOL    HW215285   0.397   1.033   2.349  1.4838  1.3138  1.2752
 1218SOL     OW15286   2.359   0.500  13.359 -0.3435 -0.3008 -0.2333
 1218SOL    HW115287   2.296   0.435  13.389  0.5856 -0.1549  2.0362
 1218SOL    HW215288   2.307   0.521  13.282  1.6780  1.6021 -1.0918
 1219SOL     OW15289   4.405   3.821  11.404 -0.1763  0.3234 -0.0373
 1219SOL    HW115290   4.432   3.793  11.316 -0.2722 -2.7900  0.9354
 1219SOL    HW215291   4.326   3.769  11.401  0.0548 -0.0970  1.3734
 1220SOL     OW15292   3.757   2.092   0.733  0.2636  0.7405 -0.1161
 1220SOL    HW115293   3.797   2.046   0.807 -1.0898 -0.1767  0.0331
 1220SOL    HW215294   3.814   2.074   0.659 -0.7722  2.1412 -1.2715
 1221SOL     OW15295   1.412   2.618   2.385 -0.1023 -0.3374  0.4917
 1221SOL    HW115296   1.434   2.711   2.387 -2.4936  0.2163  0.4642
 1221SOL    HW215297   1.499   2.585   2.361 -0.4950  0.5150 -2.0240
 1222SOL     OW15298   2.048   1.539   8.759  0.1784 -0.0486  0.0945
 1222SOL    HW115299   2.106   1.615   8.761  0.2962 -0.1438  0.2704
 1222SOL    HW215300   2.032   1.524   8.852 -1.8642  0.0289 -0.2612
 1223SOL     OW15301   0.171   3.095   9.867 -0.4470  0.5631 -0.7927
 1223SOL    HW115302   0.221   3.018   9.896 -1.2569 -0.5329 -2.2771
 1223SOL    HW215303   0.239   3.161   9.878 -0.9028  1.3198 -2.4449
 1224SOL     OW15304   3.100   1.012  10.272 -0.3387  0.2940  0.1563
 1224SOL    HW115305   3.099   0.967  10.356  0.7297 -0.9153 -0.4711
 1224SOL    HW215306   3.119   1.103  10.297  1.3714 -0.1823  0.5949
 1225SOL     OW15307   0.977   0.948   7.115  0.2038 -0.4285 -0.2303
 1225SOL    HW115308   0.951   0.944   7.023  1.4866 -1.7456 -0.5392
 1225SOL    HW215309   1.003   1.040   7.118  0.4814 -0.5106 -0.0459
 1226SOL     OW15310   0.819   3.263   3.630  0.4532  0.2163 -0.1068
 1226SOL    HW115311   0.747   3.262   3.692 -0.4843  0.1725 -1.2048
 1226SOL    HW215312   0.892   3.297   3.682  1.9192 -0.5698 -1.6232
 1227SOL     OW15313   0.576   4.584   9.630 -0.1799 -0.3355  0.4166
 1227SOL    HW115314   0.503   4.566   9.689 -0.0045  0.6339  0.9293
 1227SOL    HW215315   0.554   4.666   9.587  0.2666  0.4766  1.7643
 1228SOL     OW15316   1.390   2.139   8.110 -1.2582 -0.3651 -0.0225
 1228SOL    HW115317   1.404   2.213   8.169 -1.4415 -1.1861  1.0534
 1228SOL    HW215318   1.323   2.092   8.160 -1.4587 -0.4202 -0.3474
 1229SOL     OW15319   2.642   2.567   8.847  0.2722 -0.1945 -0.3061
 1229SOL    HW115320   2.672   2.578   8.937  1.4500  0.0160 -0.7343
 1229SOL    HW215321   2.724   2.560   8.799  0.4133  1.2697 -0.2827
 1230SOL     OW15322   1.688   1.082   3.742 -0.4957  0.2171  0.5613
 1230SOL    HW115323   1.625   1.146   3.709 -0.2575  1.0061  1.6268
 1230SOL    HW215324   1.674   1.003   3.690  1.7313 -0.2517  0.6912
 1231SOL     OW15325   2.303   2.104   8.508  0.3877 -0.0724  0.2616
 1231SOL    HW115326   2.354   2.137   8.582  1.1180  0.2461 -0.3913
 1231SOL    HW215327   2.216   2.134   8.534  0.8498  1.7821 -0.3865
 1232SOL     OW15328   2.000   0.316   5.188 -0.0073  0.5521 -0.2509
 1232SOL    HW115329   2.040   0.351   5.109  2.3012  0.4159  0.8693
 1232SOL    HW215330   1.997   0.224   5.162 -1.6295  0.5113  0.0468
 1233SOL     OW15331   1.017   0.311   6.668  0.4196 -0.0812 -0.2535
 1233SOL    HW115332   1.033   0.217   6.659  0.2003 -0.1742  0.3142
 1233SOL    HW215333   0.925   0.301   6.695  0.4148 -0.1842 -0.3055
 1234SOL     OW15334   1.666   0.501   2.577 -0.1552  0.2750  0.0030
 1234SOL    HW115335   1.600   0.564   2.547 -2.0275 -0.9598  1.5246
 1234SOL    HW215336   1.616   0.423   2.603  1.5786 -1.0521 -0.6851
 1235SOL     OW15337   0.350   3.730  12.853 -0.2757 -0.3756  0.7131
 1235SOL    HW115338   0.402   3.786  12.911  1.6205 -1.1670 -0.2233
 1235SOL    HW215339   0.261   3.732  12.889 -0.8602  0.3700 -0.8186
 1236SOL     OW15340   0.515   0.628   9.114 -0.1434  0.0761  0.4594
 1236SOL    HW115341   0.602   0.629   9.153 -0.0289  1.0184  0.1748
 1236SOL    HW215342   0.457   0.624   9.191  1.1531 -2.1446  1.3282
 1237SOL     OW15343   4.006   4.019   8.016 -0.1139 -0.0105 -0.4362
 1237SOL    HW115344   4.033   3.984   7.931 -2.0410 -1.4804 -0.4320
 1237SOL    HW215345   4.093   4.011   8.054 -0.4401 -0.6661  0.1677
 1238SOL     OW15346   4.734   1.845   1.379 -0.4368  1.0828 -0.0415
 1238SOL    HW115347   0.061   1.918   1.384  1.0948 -0.1830 -1.2383
 1238SOL    HW215348   0.059   1.775   1.359 -2.9395 -0.9088 -0.6786
 1239SOL     OW15349   2.291   4.216   5.131  0.4003  0.9641  0.1212
 1239SOL    HW115350   2.273   4.309   5.141  1.2369  1.1061  0.2881
 1239SOL    HW215351   2.288   4.189   5.223  0.1603  0.6629  0.0281
 1240SOL     OW15352   2.584   1.612   2.963  0.4352  0.1528  0.9920
 1240SOL    HW115353   2.656   1.562   2.925 -0.8308  0.6151 -2.0064
 1240SOL    HW215354   2.586   1.591   3.057  0.4491 -0.2754  0.8954
 1241SOL     OW15355   4.225   2.010  16.074 -0.1810 -0.2662  0.8582
 1241SOL    HW115356   4.199   1.976  15.988  0.9854 -1.8898  1.1470
 1241SOL    HW215357   4.161   1.991  16.143 -0.1505  0.4695  1.0877
 1242SOL     OW15358   3.111   1.495   4.579  0.1932  0.3985  0.1163
 1242SOL    HW115359   3.054   1.421   4.600  1.5704 -0.4180  0.9547
 1242SOL    HW215360   3.151   1.515   4.664 -1.7301 -3.4925  1.9345
 1243SOL     OW15361   3.076   3.324   7.882  0.2339 -0.3013 -0.2587
 1243SOL    HW115362   3.143   3.285   7.827 -0.0920 -1.2049 -0.0147
 1243SOL    HW215363   3.003   3.282   7.835 -0.2891  0.1818  0.1180
 1244SOL     OW15364   1.449   0.329   2.273  0.1803 -0.0679  0.4351
 1244SOL    HW115365   1.440   0.424   2.279  0.7131  0.0936 -1.5405
 1244SOL    HW215366   1.354   0.313   2.272 -0.1093  1.5556  2.2571
 1245SOL     OW15367   3.152   0.134   4.518 -0.2676 -0.0554  0.1488
 1245SOL    HW115368   3.084   0.101   4.460 -0.0120 -1.4574  0.6390
 1245SOL    HW215369   3.113   0.212   4.558  0.5311  1.0597 -1.2731
 1246SOL     OW15370   0.465   2.831   1.378  0.6349 -1.0648  0.4909
 1246SOL    HW115371   0.428   2.802   1.295 -1.6908  0.6604  0.9159
 1246SOL    HW215372   0.532   2.896   1.359  0.1167  0.0722  2.4764
 1247SOL     OW15373   4.035   1.323   5.973 -0.7828 -0.4648  0.6856
 1247SOL    HW115374   3.992   1.308   6.057  0.0147  1.1963  1.4049
 1247SOL    HW215375   4.084   1.405   5.983 -0.4556 -0.2744 -2.3817
 1248SOL     OW15376   3.185   4.378   3.118 -0.0318  0.0221  0.1699
 1248SOL    HW115377   3.244   4.425   3.177  0.6471 -0.0747 -0.4425
 1248SOL    HW215378   3.231   4.294   3.111 -1.6040 -0.8615  0.4680
 1249SOL     OW15379   1.759   0.372   2.886  0.1320  0.7118 -0.2831
 1249SOL    HW115380   1.684   0.429   2.871 -0.9740 -0.4714  0.7434
 1249SOL    HW215381   1.742   0.295   2.831 -0.6436 -0.9040  2.2050
 1250SOL     OW15382   2.618   1.405   6.730  0.1686  0.1409 -0.5935
 1250SOL    HW115383   2.619   1.494   6.764  1.5042 -0.0109 -0.2308
 1250SOL    HW215384   2.563   1.359   6.793  1.3398  0.3149  0.5597
 1251SOL     OW15385   2.195   1.724   2.101  0.3345  0.1763  0.1258
 1251SOL    HW115386   2.196   1.811   2.063  1.6455 -0.0512 -0.3797
 1251SOL    HW215387   2.137   1.678   2.041  1.3202 -2.1408  0.9464
 1252SOL     OW15388   2.425   2.712   8.191 -0.3741  0.5430 -0.2533
 1252SOL    HW115389   2.370   2.782   8.225 -0.3720  0.2233  0.4104
 1252SOL    HW215390   2.404   2.712   8.098  2.1369 -0.8169 -0.8463
 1253SOL     OW15391   1.572   1.693   7.481  0.1599 -0.1051  0.7543
 1253SOL    HW115392   1.597   1.602   7.494 -0.8180 -0.6962 -1.6320
 1253SOL    HW215393   1.607   1.700   7.392 -1.2778 -4.2816 -0.1126
 1254SOL     OW15394   2.818   1.249   6.616  0.2902 -0.7571  0.2263
 1254SOL    HW115395   2.870   1.299   6.554 -0.1264 -0.3775  0.1786
 1254SOL    HW215396   2.772   1.312   6.670 -0.1059 -0.5244 -0.3782
 1255SOL     OW15397   1.197   0.055   1.569  0.3014 -0.1810  0.0588
 1255SOL    HW115398   1.140   0.062   1.645  1.0399  5.1033  0.1494
 1255SOL    HW215399   1.136   0.025   1.502  0.5456 -0.5371 -0.0017
 1256SOL     OW15400   0.024   4.063   9.046 -0.0935  0.2493  0.0151
 1256SOL    HW115401   4.673   4.101   9.062 -0.4038 -0.6197  0.3879
 1256SOL    HW215402   0.023   3.989   9.106  1.0718 -0.2128 -0.5417
 1257SOL     OW15403   0.534   0.237   8.673  0.2413 -0.1113  0.1552
 1257SOL    HW115404   0.517   0.292   8.750 -3.6112 -0.1336 -0.7264
 1257SOL    HW215405   0.620   0.272   8.647  0.7461 -2.6605 -1.6043
 1258SOL     OW15406   1.013   2.083   3.352 -0.6836  0.4314 -0.2574
 1258SOL    HW115407   1.017   2.030   3.431  4.1417  0.7802 -0.2258
 1258SOL    HW215408   1.083   2.038   3.303  0.8167  2.3373  0.1325
 1259SOL     OW15409   3.568   0.429   2.503  0.1948  0.1638 -0.0712
 1259SOL    HW115410   3.556   0.336   2.481 -0.2419  0.0045  0.8611
 1259SOL    HW215411   3.505   0.448   2.572  0.5302 -1.2149  0.6098
 1260SOL     OW15412   0.120   0.866   3.518  0.1330  0.7673 -0.5946
 1260SOL    HW115413   0.171   0.790   3.488 -0.4860  0.6900 -1.4408
 1260SOL    HW215414   0.107   0.851   3.611 -1.3637 -2.3921 -1.3342
 1261SOL     OW15415   3.806   1.340   2.456 -0.3045 -0.0083 -0.0719
 1261SOL    HW115416   3.717   1.310   2.440 -0.9312  0.8662  1.8710
 1261SOL    HW215417   3.821   1.397   2.380 -1.4420  0.5051  0.0900
 1262SOL     OW15418   3.748   0.466   8.497 -0.7657 -0.5633  0.2054
 1262SOL    HW115419   3.744   0.520   8.418  1.6844 -0.5627  0.0767
 1262SOL    HW215420   3.659   0.489   8.525 -0.6860  0.0888 -0.0927
 1263SOL     OW15421   3.627   2.617  10.991 -0.5664 -0.1309 -0.1509
 1263SOL    HW115422   3.705   2.585  11.037 -0.9689 -0.1423  0.5182
 1263SOL    HW215423   3.584   2.676  11.052  0.1166  0.7779 -0.5533
 1264SOL     OW15424   0.400   3.009  13.301 -0.5910 -0.4658  0.1615
 1264SOL    HW115425   0.389   3.028  13.208  2.8428 -0.4178 -0.2066
 1264SOL    HW215426   0.465   3.073  13.330  0.1767 -1.1280 -0.1111
 1265SOL     OW15427   1.037   1.083   5.954 -0.2099  0.1034  0.1869
 1265SOL    HW115428   1.056   1.014   6.017 -0.4614 -0.3047 -0.1837
 1265SOL    HW215429   1.118   1.134   5.962 -1.3422  2.0823 -0.9184
 1266SOL     OW15430   4.658   2.036   1.840 -0.0954 -0.0758 -0.5151
 1266SOL    HW115431   4.614   1.954   1.817  1.5438 -0.8857 -0.7465
 1266SOL    HW215432   4.696   2.070   1.759  2.3333  0.7820  1.0027
 1267SOL     OW15433   0.278   1.428   2.666 -0.2085  0.5758  0.3899
 1267SOL    HW115434   0.190   1.453   2.694 -0.0659  1.1238  0.3511
 1267SOL    HW215435   0.310   1.512   2.634  1.2212 -0.2564 -0.3442
 1268SOL     OW15436   3.163   0.882   5.025 -0.1763  0.0862  0.8235
 1268SOL    HW115437   3.191   0.936   4.952 -0.7907  0.5005  0.8918
 1268SOL    HW215438   3.183   0.798   4.983  1.2891  0.7439  0.2177
 1269SOL     OW15439   1.772   3.621  15.150 -0.5504  0.1668 -0.1572
 1269SOL    HW115440   1.735   3.594  15.066 -1.3211 -1.0651  0.5720
 1269SOL    HW215441   1.743   3.711  15.161 -0.5833  0.3598 -1.8308
 1270SOL     OW15442   0.050   3.213   6.663 -0.2613  0.0621 -0.4851
 1270SOL    HW115443   0.020   3.200   6.573  1.7012  0.3883 -1.1782
 1270SOL    HW215444   0.030   3.126   6.699 -0.7719 -0.8185 -2.8456
 1271SOL     OW15445   4.207   2.063   6.995 -0.0480  0.4318  0.3141
 1271SOL    HW115446   4.127   2.011   7.001 -1.5241  2.5508 -1.2373
 1271SOL    HW215447   4.161   2.147   7.003 -1.1965 -0.1455 -0.1934
 1272SOL     OW15448   1.298   2.843   5.504  0.8178  0.2503  0.2708
 1272SOL    HW115449   1.219   2.897   5.504  0.1402 -0.7547  0.0002
 1272SOL    HW215450   1.361   2.897   5.456  0.0061  1.1401  0.2084
 1273SOL     OW15451   1.765   2.300  11.965 -0.3143  0.1982  0.0712
 1273SOL    HW115452   1.781   2.339  12.051 -0.7866 -0.2748  0.3737
 1273SOL    HW215453   1.843   2.313  11.911  0.0993  0.6857  0.7800
 1274SOL     OW15454   0.110   1.509   7.265 -0.1123  0.2781 -0.4479
 1274SOL    HW115455   0.148   1.452   7.331 -0.6087  1.9826  1.3192
 1274SOL    HW215456   0.169   1.582   7.287 -2.5607  1.8613  0.8074
 1275SOL     OW15457   2.424   3.785   1.013  0.2903  0.4676  0.6863
 1275SOL    HW115458   2.489   3.804   0.944  0.3078 -1.0311  0.2776
 1275SOL    HW215459   2.475   3.736   1.077  1.1688  0.0309 -0.3284
 1276SOL     OW15460   4.077   1.966  13.337 -0.8223  0.0718 -0.0686
 1276SOL    HW115461   4.082   2.060  13.319  2.7484  0.0210  0.5336
 1276SOL    HW215462   4.125   1.964  13.419  0.7591  0.6453 -0.9689
 1277SOL     OW15463   4.667   2.497  12.167  0.1385 -0.5599 -0.5009
 1277SOL    HW115464   0.010   2.453  12.134  0.2290 -0.5082 -0.3587
 1277SOL    HW215465   4.682   2.584  12.130 -2.4884 -1.3624 -3.4421
 1278SOL     OW15466   2.758   2.004  12.335 -0.2439  0.5625  0.4258
 1278SOL    HW115467   2.672   1.995  12.375 -0.0477 -0.7539  0.5612
 1278SOL    HW215468   2.729   2.066  12.268  0.7387  1.4727  0.8411
 1279SOL     OW15469   0.088   2.528   6.706  0.1744  0.3952 -0.5926
 1279SOL    HW115470   4.730   2.517   6.725  0.3100  0.0433 -0.1312
 1279SOL    HW215471   0.131   2.453   6.748 -1.2510 -1.0446 -1.7220
 1280SOL     OW15472   1.216   3.409   9.337 -0.1419 -0.3133  0.4120
 1280SOL    HW115473   1.154   3.339   9.316  0.0859 -0.4711  0.2638
 1280SOL    HW215474   1.288   3.399   9.275 -1.9945 -1.0849 -1.6510
 1281SOL     OW15475   0.156   0.695   2.471  0.1055  0.4184  0.2891
 1281SOL    HW115476   0.133   0.753   2.398  0.9580  0.4972  0.0804
 1281SOL    HW215477   0.074   0.695   2.521 -0.4323  1.2370 -0.5907
 1282SOL     OW15478   1.135   2.018   1.486  0.2449  0.3253 -0.1223
 1282SOL    HW115479   1.131   1.978   1.399 -0.5274  0.4494 -0.1397
 1282SOL    HW215480   1.165   1.942   1.537  1.0254  1.3505  0.9414
 1283SOL     OW15481   1.302   2.756   6.789 -0.4375 -0.7162 -0.0591
 1283SOL    HW115482   1.335   2.666   6.779  3.2393  0.5974  0.4875
 1283SOL    HW215483   1.272   2.753   6.698 -0.4489  0.2639 -0.0877
 1284SOL     OW15484   2.521   1.579   4.097  0.1764  0.2410  0.4120
 1284SOL    HW115485   2.589   1.524   4.137  0.7777  1.1385  0.6413
 1284SOL    HW215486   2.501   1.641   4.168 -2.9048 -0.2482 -0.0451
 1285SOL     OW15487   3.843   0.804  16.914  0.5972  0.1982 -0.5701
 1285SOL    HW115488   3.752   0.816  16.885 -0.0700  1.3902  2.0122
 1285SOL    HW215489   3.831   0.786  17.007  0.5454 -0.4245 -0.6961
 1286SOL     OW15490   4.187   0.564   3.167 -0.1447  0.0300 -0.4583
 1286SOL    HW115491   4.221   0.475   3.153 -1.0549 -0.1834 -1.2945
 1286SOL    HW215492   4.142   0.571   3.084  1.1823 -0.0072 -1.1802
 1287SOL     OW15493   2.680   1.239   8.748  0.1641  0.4935  0.1855
 1287SOL    HW115494   2.746   1.169   8.746 -0.5075 -0.0855 -1.2629
 1287SOL    HW215495   2.604   1.192   8.716  1.1401 -1.3696  0.5646
 1288SOL     OW15496   2.488   3.578   8.810 -0.2054  0.1738 -0.2341
 1288SOL    HW115497   2.491   3.641   8.738 -1.5676  0.2530 -0.2187
 1288SOL    HW215498   2.521   3.643   8.873  1.9547  1.6165 -2.8386
 1289SOL     OW15499   0.535   1.326   7.512  0.2328 -0.2979  0.4641
 1289SOL    HW115500   0.629   1.316   7.520  0.4788  1.0110 -0.8364
 1289SOL    HW215501   0.506   1.236   7.493 -0.9416  0.1106  0.3193
 1290SOL     OW15502   3.964   2.919   1.649  0.4798  0.3075 -0.9011
 1290SOL    HW115503   4.037   2.961   1.603 -0.0060 -0.6275 -2.5027
 1290SOL    HW215504   3.979   2.828   1.624 -0.2540 -0.4210  1.3463
 1291SOL     OW15505   0.234   3.520  10.676  0.2961  0.4037  0.1028
 1291SOL    HW115506   0.139   3.512  10.679  0.3448  0.1263  0.9845
 1291SOL    HW215507   0.255   3.442  10.625 -2.6914  0.5359 -1.3093
 1292SOL     OW15508   2.833   4.629   5.480 -0.1897  0.5824 -0.5096
 1292SOL    HW115509   2.881   4.711   5.496  0.0062  0.3357  0.1544
 1292SOL    HW215510   2.853   4.601   5.569 -2.2048  1.3516  0.1865
 1293SOL     OW15511   4.653   3.224   9.802 -0.3651 -0.2954 -0.7152
 1293SOL    HW115512   4.688   3.193   9.718  2.4087 -0.3358  0.4684
 1293SOL    HW215513   4.723   3.194   9.860 -0.7202  1.1683  0.4460
 1294SOL     OW15514   4.262   1.331  13.160 -0.3972  0.1541 -0.1291
 1294SOL    HW115515   4.289   1.418  13.131 -1.1039  0.2990 -0.3344
 1294SOL    HW215516   4.326   1.277  13.113  1.7079  0.5090  2.2731
 1295SOL     OW15517   1.969   1.890   7.459 -0.3143 -0.0317  0.4552
 1295SOL    HW115518   1.964   1.805   7.504 -1.6250 -0.2496 -0.1109
 1295SOL    HW215519   1.892   1.931   7.498  1.2929 -0.5071  4.0770
 1296SOL     OW15520   3.242   1.263   3.778 -0.3228 -0.2119 -0.5789
 1296SOL    HW115521   3.260   1.177   3.817  1.4592  1.1216  1.5611
 1296SOL    HW215522   3.278   1.238   3.693  0.2393 -1.3658 -0.0051
 1297SOL     OW15523   1.084   1.375   4.544  0.0659 -0.0868 -0.1295
 1297SOL    HW115524   1.005   1.397   4.594 -2.1471 -1.3732 -3.0332
 1297SOL    HW215525   1.143   1.438   4.585  1.1472 -0.7779 -0.6222
 1298SOL     OW15526   0.177   0.683   7.658 -0.4230  0.5344  0.7237
 1298SOL    HW115527   0.225   0.722   7.586  0.7527 -0.5522  0.9315
 1298SOL    HW215528   0.254   0.648   7.704 -0.9029 -2.3041 -0.6665
 1299SOL     OW15529   1.998   4.604  10.905  0.3445  0.0411  0.3511
 1299SOL    HW115530   2.065   4.606  10.973  1.5111  0.7962 -0.8358
 1299SOL    HW215531   2.007   4.693  10.871 -1.2359 -0.6691 -1.9827
 1300SOL     OW15532   4.608   4.131   5.406  0.1537  0.3930  0.3285
 1300SOL    HW115533   4.639   4.208   5.358 -1.2869  1.6632  1.4388
 1300SOL    HW215534   4.675   4.067   5.381 -1.5539 -1.5664  0.7473
 1301SOL     OW15535   1.127   3.268   6.811  0.5140 -0.1947  0.6170
 1301SOL    HW115536   1.150   3.348   6.860 -1.1824  0.5817  0.1290
 1301SOL    HW215537   1.201   3.260   6.750 -0.5291 -3.8123 -0.1777
 1302SOL     OW15538   2.762   2.110  16.255  0.2812 -0.5202  0.0419
 1302SOL    HW115539   2.825   2.040  16.276  1.8275  1.0620  0.7235
 1302SOL    HW215540   2.801   2.159  16.183 -0.2944  0.7532  0.6056
 1303SOL     OW15541   1.335   1.822   8.690  0.2287 -0.2041 -0.2582
 1303SOL    HW115542   1.403   1.868   8.739 -1.7592  0.9608  1.4088
 1303SOL    HW215543   1.257   1.872   8.715  2.0748  1.6957  1.7319
 1304SOL     OW15544   3.602   3.379   1.923  0.7267  0.1016  0.6171
 1304SOL    HW115545   3.575   3.326   1.848  0.5899 -0.2635  0.9235
 1304SOL    HW215546   3.650   3.315   1.975  1.2043  0.7392  0.9637
 1305SOL     OW15547   1.755   4.062   5.825 -0.0980  0.0482 -0.0424
 1305SOL    HW115548   1.723   4.054   5.915  2.3420  0.2178  0.8308
 1305SOL    HW215549   1.693   4.129   5.795 -1.2503 -1.1896 -0.4180
 1306SOL     OW15550   1.652   0.232   8.987  0.1306  0.1665 -0.5260
 1306SOL    HW115551   1.596   0.305   9.014  1.8283  0.9234  1.0078
 1306SOL    HW215552   1.736   0.276   8.975  0.0182 -0.2516 -2.7229
 1307SOL     OW15553   3.640   1.060   2.672 -0.1358  0.3896 -0.3161
 1307SOL    HW115554   3.563   1.020   2.632 -0.5475 -1.1646  2.0210
 1307SOL    HW215555   3.594   1.117   2.733 -0.3731 -0.7088  0.5238
 1308SOL     OW15556   4.552   2.602   1.595 -0.3669  0.4692  0.1606
 1308SOL    HW115557   4.617   2.543   1.634  1.0314  1.0535 -1.2600
 1308SOL    HW215558   4.502   2.553   1.531 -1.5021  2.7940 -0.7483
 1309SOL     OW15559   0.825   2.385   3.609 -0.4410  0.0946 -0.8955
 1309SOL    HW115560   0.814   2.471   3.568 -1.9724  0.3305  0.0221
 1309SOL    HW215561   0.907   2.359   3.566  0.6961  0.3829  1.1396
 1310SOL     OW15562   1.246   3.764   3.085 -0.1223  0.2417 -0.4347
 1310SOL    HW115563   1.324   3.713   3.104  1.8043  2.6127 -1.9722
 1310SOL    HW215564   1.199   3.705   3.026  0.5235 -1.9684  1.2806
 1311SOL     OW15565   1.971   2.281   8.318  0.0735  0.1242 -0.3363
 1311SOL    HW115566   1.993   2.245   8.232 -0.4881  2.1054 -1.3223
 1311SOL    HW215567   1.876   2.285   8.305 -0.0515 -1.1116  0.2578
 1312SOL     OW15568   3.629   4.010   7.306 -0.2272 -0.1516  0.2189
 1312SOL    HW115569   3.654   4.016   7.398 -0.1019 -1.1255  0.2520
 1312SOL    HW215570   3.711   3.971   7.275 -1.3645 -1.1478 -1.5202
 1313SOL     OW15571   1.272   0.813   5.158  0.2893 -0.0664  0.4351
 1313SOL    HW115572   1.314   0.731   5.130 -1.1728 -0.5259 -0.4366
 1313SOL    HW215573   1.283   0.810   5.253  0.7670  3.1151  0.4679
 1314SOL     OW15574   3.252   2.334  14.191 -0.0135 -0.0021 -0.0368
 1314SOL    HW115575   3.239   2.407  14.252 -2.9333 -1.2842  0.8844
 1314SOL    HW215576   3.195   2.369  14.122 -0.8188  0.4241  0.8438
 1315SOL     OW15577   1.763   1.627   2.646 -0.9115 -0.0489  0.2948
 1315SOL    HW115578   1.741   1.536   2.625 -2.1718  0.7302 -1.7956
 1315SOL    HW215579   1.811   1.657   2.569 -0.5347 -0.9585  0.1758
 1316SOL     OW15580   3.980   2.336   3.078  0.1641  0.2230 -0.0485
 1316SOL    HW115581   4.018   2.405   3.024 -0.8487 -1.2842 -2.6775
 1316SOL    HW215582   3.944   2.393   3.146  2.0907  1.5921 -0.1647
 1317SOL     OW15583   3.312   2.510   0.967 -0.6587 -0.1685 -0.0335
 1317SOL    HW115584   3.314   2.591   0.916  1.8583 -0.3195 -0.1789
 1317SOL    HW215585   3.364   2.455   0.908 -0.4410 -1.7439  1.6392
 1318SOL     OW15586   4.618   3.285   5.595 -0.3089 -0.4223  0.3928
 1318SOL    HW115587   4.707   3.318   5.588 -0.6070  0.3570  0.2224
 1318SOL    HW215588   4.568   3.366   5.607  1.2511  0.1303  2.9978
 1319SOL     OW15589   4.211   3.559   4.411  0.9872  0.3254  0.5301
 1319SOL    HW115590   4.250   3.473   4.394 -0.6157  0.0715 -1.8912
 1319SOL    HW215591   4.285   3.618   4.427  1.2196 -0.0370  0.8123
 1320SOL     OW15592   1.858   3.621   7.939 -0.1850  0.1855  0.1287
 1320SOL    HW115593   1.943   3.655   7.910  0.9564 -1.7248  1.2347
 1320SOL    HW215594   1.813   3.703   7.956 -1.4782 -0.7348  1.1370
 1321SOL     OW15595   1.047   4.232  14.345 -0.1137 -0.0101 -0.0682
 1321SOL    HW115596   0.963   4.188  14.351 -0.7229  1.2101  0.3143
 1321SOL    HW215597   1.104   4.169  14.301 -2.1668 -2.5843  0.9978
 1322SOL     OW15598   0.672   2.239  14.485 -0.5958 -0.0592 -0.4598
 1322SOL    HW115599   0.736   2.245  14.556 -0.1280  0.9390 -0.9642
 1322SOL    HW215600   0.650   2.147  14.502 -1.2706  0.0727 -0.6432
 1323SOL     OW15601   3.996   4.480   7.497  0.0041 -0.0643 -0.0420
 1323SOL    HW115602   4.024   4.483   7.406 -1.5919 -1.2109 -0.5621
 1323SOL    HW215603   3.902   4.479   7.482  0.1687  0.4059 -1.1093
 1324SOL     OW15604   1.518   4.097  14.088 -0.0340 -0.8620  0.0438
 1324SOL    HW115605   1.470   4.014  14.094 -3.2738  0.9680 -0.3459
 1324SOL    HW215606   1.539   4.093  13.995 -0.6919 -2.0282 -0.0506
 1325SOL     OW15607   2.279   3.783   7.500 -0.1459  0.3066 -0.2057
 1325SOL    HW115608   2.352   3.724   7.480 -0.6709  0.5948 -3.0121
 1325SOL    HW215609   2.210   3.719   7.517  0.4356 -0.7381 -1.7785
 1326SOL     OW15610   1.654   0.690   4.431 -0.5329  0.1655  0.6266
 1326SOL    HW115611   1.687   0.770   4.390 -3.7407  0.7977 -0.6744
 1326SOL    HW215612   1.627   0.637   4.356 -0.6754 -1.2194  1.6659
 1327SOL     OW15613   2.031   3.135  15.616 -0.0027  0.5861  0.6427
 1327SOL    HW115614   2.059   3.192  15.688  1.8931 -1.0942  1.2310
 1327SOL    HW215615   2.089   3.059  15.614 -0.8309 -0.0412  0.4466
 1328SOL     OW15616   2.332   2.472   8.604 -0.4764  0.5778 -0.2703
 1328SOL    HW115617   2.381   2.421   8.669 -1.7364  2.1030  1.8603
 1328SOL    HW215618   2.262   2.520   8.649 -0.0050  2.1696 -1.2434
 1329SOL     OW15619   1.659   4.103   1.903  0.0745 -0.4444 -0.3979
 1329SOL    HW115620   1.739   4.139   1.940 -0.4997 -0.8959  1.2900
 1329SOL    HW215621   1.663   4.158   1.825 -0.8101  1.0194  0.5940
 1330SOL     OW15622   0.658   2.485  11.437 -0.4682  0.4683  0.5102
 1330SOL    HW115623   0.736   2.539  11.445 -0.3564 -0.1624  3.6130
 1330SOL    HW215624   0.639   2.472  11.529 -0.3424  0.3252  0.5176
 1331SOL     OW15625   4.694   0.604   5.525  0.0473 -0.5452  0.1520
 1331SOL    HW115626   4.662   0.533   5.580 -0.0481 -1.1463 -0.6831
 1331SOL    HW215627   4.614   0.605   5.473  1.3439 -1.3251 -1.8632
 1332SOL     OW15628   1.594   1.863  10.721  0.0661 -0.0334 -0.3561
 1332SOL    HW115629   1.543   1.790  10.755 -0.1573  1.8938  3.5287
 1332SOL    HW215630   1.662   1.828  10.664 -0.9237 -2.1911 -0.2011
 1333SOL     OW15631   1.622   0.434   1.653  0.5286  0.0517  0.0974
 1333SOL    HW115632   1.684   0.473   1.592 -0.7851 -1.3482 -2.1383
 1333SOL    HW215633   1.680   0.431   1.729  0.3631 -1.4364  0.1631
 1334SOL     OW15634   4.072   3.724   9.793 -0.5994  0.3682  0.5312
 1334SOL    HW115635   4.161   3.701   9.765 -1.4811 -0.0532 -1.8636
 1334SOL    HW215636   4.070   3.680   9.878 -2.3453 -0.6173 -0.0191
 1335SOL     OW15637   1.406   0.208   1.927 -0.1175  0.6803 -0.3911
 1335SOL    HW115638   1.489   0.238   1.964  0.6757  1.0389 -2.4632
 1335SOL    HW215639   1.422   0.173   1.840 -1.6926  1.9024 -1.1756
 1336SOL     OW15640   0.757   0.247   6.755 -0.0850 -0.2615 -0.1179
 1336SOL    HW115641   0.742   0.334   6.717 -0.1179 -1.7346 -3.4435
 1336SOL    HW215642   0.690   0.241   6.824 -1.3801 -0.8329 -1.4215
 1337SOL     OW15643   3.645   1.881  10.367  0.1044 -0.5663 -0.1373
 1337SOL    HW115644   3.614   1.962  10.327  0.8241 -0.0157  0.4259
 1337SOL    HW215645   3.590   1.870  10.445  2.2206 -0.2593  1.4274
 1338SOL     OW15646   1.217   1.660   7.067 -0.6381 -0.3005  0.1570
 1338SOL    HW115647   1.201   1.741   7.116 -0.0281 -0.8752  1.3099
 1338SOL    HW215648   1.165   1.594   7.115  1.5613 -1.3979  1.0153
 1339SOL     OW15649   4.016   3.941  11.474  0.6737 -0.4363  0.1595
 1339SOL    HW115650   3.923   3.956  11.462 -0.4429 -5.6116  2.3589
 1339SOL    HW215651   4.050   3.965  11.388 -0.8477 -0.5148 -0.4489
 1340SOL     OW15652   2.997   0.118  13.455  0.2849  0.0207  0.0660
 1340SOL    HW115653   2.961   0.091  13.370 -3.2832  0.5645  1.3904
 1340SOL    HW215654   2.958   0.205  13.451  2.5216  0.9923 -0.6715
 1341SOL     OW15655   4.604   0.884  16.681  0.4786  0.6906  0.4864
 1341SOL    HW115656   4.641   0.809  16.634 -2.8214 -0.5494 -0.0843
 1341SOL    HW215657   4.637   0.863  16.768 -0.5609  0.1045  0.7328
 1342SOL     OW15658   4.585   3.597   3.567 -0.0634 -0.3675 -0.2693
 1342SOL    HW115659   4.650   3.573   3.502  0.7213  0.4523  0.2171
 1342SOL    HW215660   4.600   3.529   3.633 -1.6755 -1.8055 -1.3767
 1343SOL     OW15661   2.242   4.544  15.643  1.1438  0.0922  0.2583
 1343SOL    HW115662   2.257   4.517  15.552 -0.3060  1.0564 -0.2702
 1343SOL    HW215663   2.288   4.627  15.635  0.4825  0.5616  1.3204
 1344SOL     OW15664   2.650   0.635   6.919 -1.0833  0.1140 -0.5528
 1344SOL    HW115665   2.687   0.674   6.998 -1.3697  0.2899 -0.5056
 1344SOL    HW215666   2.619   0.550   6.952  0.2956  0.1443  0.8524
 1345SOL     OW15667   0.879   3.298  17.301  0.1344  0.1349  0.3700
 1345SOL    HW115668   0.871   3.208  17.269 -0.7154  0.4091 -0.1868
 1345SOL    HW215669   0.973   3.309  17.311  0.1557  0.7761 -0.5577
 1346SOL     OW15670   0.987   4.293   7.757  0.4648  0.4068 -0.4162
 1346SOL    HW115671   0.924   4.227   7.731  0.4286 -0.9567  3.1480
 1346SOL    HW215672   1.044   4.277   7.682  0.8858 -1.0354  0.2090
 1347SOL     OW15673   4.410   4.069   5.609  0.5820 -0.0928  0.3204
 1347SOL    HW115674   4.421   3.974   5.603  1.2119  0.1249 -1.9666
 1347SOL    HW215675   4.440   4.091   5.521 -0.4718 -1.5299 -0.4046
 1348SOL     OW15676   2.488   2.665  10.585  0.6411  0.3547 -0.0884
 1348SOL    HW115677   2.453   2.618  10.510  1.6660 -0.1048 -0.2883
 1348SOL    HW215678   2.466   2.599  10.651 -0.0921  0.2169 -0.4729
 1349SOL     OW15679   0.347   3.280   5.163 -0.3523  0.3762 -0.2186
 1349SOL    HW115680   0.387   3.320   5.086  3.0457 -2.8171 -0.0991
 1349SOL    HW215681   0.429   3.248   5.199 -1.2196 -0.3931  1.0896
 1350SOL     OW15682   1.181   2.673   5.700  0.3754 -0.3923  0.1168
 1350SOL    HW115683   1.223   2.742   5.649 -1.6568  0.2211 -0.7603
 1350SOL    HW215684   1.087   2.689   5.688  0.6450 -0.1977 -1.7036
 1351SOL     OW15685   1.744   1.681  16.226 -0.4768 -0.0200  0.1765
 1351SOL    HW115686   1.700   1.617  16.281 -1.5888  0.0017 -0.6933
 1351SOL    HW215687   1.734   1.620  16.152 -1.8672 -0.6990  0.9322
 1352SOL     OW15688   1.424   0.459  16.321 -0.0269  0.3223  0.0708
 1352SOL    HW115689   1.350   0.422  16.368  0.0444 -0.6124 -0.5596
 1352SOL    HW215690   1.418   0.544  16.366 -0.3755  1.5230 -2.2008
 1353SOL     OW15691   1.204   2.521  10.869 -0.0500 -0.4435  0.6512
 1353SOL    HW115692   1.211   2.565  10.785 -1.0532 -0.6406  0.4610
 1353SOL    HW215693   1.131   2.568  10.910 -0.1789 -1.1523  1.2480
 1354SOL     OW15694   3.651   1.363  17.139 -0.8207 -1.2238 -0.0008
 1354SOL    HW115695   3.709   1.437  17.123  0.0896 -1.4363  2.3633
 1354SOL    HW215696   3.652   1.314  17.056  1.5288 -2.3129  0.6907
 1355SOL     OW15697   0.143   0.153  12.427  0.6737  0.1586  0.3640
 1355SOL    HW115698   0.141   0.120  12.517  0.2654 -4.2866 -1.2737
 1355SOL    HW215699   0.219   0.116  12.382 -0.7151  1.1615 -2.8651
 1356SOL     OW15700   0.075   0.079   7.078  0.1516 -0.3528 -0.1403
 1356SOL    HW115701   0.141   0.148   7.077 -0.1781 -0.0667 -1.7096
 1356SOL    HW215702   0.101   0.033   7.158  0.2011 -3.1650 -1.8101
 1357SOL     OW15703   0.990   2.827   4.068  0.7636 -0.0214  0.2390
 1357SOL    HW115704   0.907   2.841   4.021  2.1740 -1.7132 -2.7072
 1357SOL    HW215705   1.041   2.770   4.011 -2.2703  0.8826 -3.4316
 1358SOL     OW15706   3.166   2.553   3.920 -0.4841  0.4257 -0.7561
 1358SOL    HW115707   3.102   2.514   3.980  0.5097  1.7826  1.1878
 1358SOL    HW215708   3.153   2.647   3.932  1.0747  0.3922  1.1376
 1359SOL     OW15709   3.001   1.229  15.595  0.1495  0.0214  0.0431
 1359SOL    HW115710   2.946   1.153  15.580 -1.3013  1.5694 -2.5289
 1359SOL    HW215711   3.079   1.198  15.548  0.3139 -1.9155  1.6009
 1360SOL     OW15712   4.411   3.429   7.949  0.0448  0.2907  0.5166
 1360SOL    HW115713   4.492   3.454   7.904  0.2495 -1.9115 -0.3225
 1360SOL    HW215714   4.436   3.429   8.042 -0.6014  1.0611  0.6889
 1361SOL     OW15715   3.712   2.150   8.759 -0.2695  0.2845  0.0154
 1361SOL    HW115716   3.673   2.236   8.775 -1.4767 -0.5937  1.7466
 1361SOL    HW215717   3.741   2.128   8.848 -1.3923 -1.0145  0.0621
 1362SOL     OW15718   2.638   4.600  17.130  0.4931 -0.4045  0.5586
 1362SOL    HW115719   2.710   4.663  17.124 -1.1477  1.3157 -1.1439
 1362SOL    HW215720   2.636   4.599  17.226  0.5440  0.8398  0.5805
 1363SOL     OW15721   3.359   2.945   7.793  0.5195 -0.5105  0.1133
 1363SOL    HW115722   3.437   2.901   7.760 -0.2541 -2.0290  0.2620
 1363SOL    HW215723   3.400   2.994   7.864  0.5054 -2.3432  1.3873
 1364SOL     OW15724   0.461   3.400   1.868 -0.0816 -0.8073  0.1524
 1364SOL    HW115725   0.451   3.445   1.951  0.5137 -0.1994 -0.1007
 1364SOL    HW215726   0.552   3.371   1.875  0.4847  1.1552  0.7902
 1365SOL     OW15727   1.325   2.485   4.442  0.2037 -0.5174  0.0281
 1365SOL    HW115728   1.277   2.562   4.473 -3.4107 -2.9496  0.5356
 1365SOL    HW215729   1.408   2.518   4.408  1.0923 -0.0352  2.6608
 1366SOL     OW15730   1.533   3.549   3.101 -0.1428  0.1218 -0.7862
 1366SOL    HW115731   1.605   3.527   3.042  1.4440  0.8303  0.8725
 1366SOL    HW215732   1.548   3.644   3.103 -0.1661  0.0694  1.7768
 1367SOL     OW15733   2.304   3.359   8.518 -0.2943  0.1904  0.4404
 1367SOL    HW115734   2.302   3.426   8.449 -1.4312 -0.0386  0.2410
 1367SOL    HW215735   2.398   3.345   8.522 -0.4654 -1.2183 -0.5902
 1368SOL     OW15736   0.166   3.109   7.688 -0.3270  0.1398 -0.5778
 1368SOL    HW115737   0.220   3.180   7.654  2.3842 -0.7083  1.9854
 1368SOL    HW215738   0.200   3.036   7.636  1.3221  2.5485 -2.8595
 1369SOL     OW15739   4.319   1.981   4.773  0.2568  0.0956 -0.0002
 1369SOL    HW115740   4.309   1.895   4.814 -1.0850  1.3588  2.3414
 1369SOL    HW215741   4.255   2.029   4.826 -1.1287  0.1167 -1.7026
 1370SOL     OW15742   3.495   3.193   8.956 -0.0524  0.0153 -0.3243
 1370SOL    HW115743   3.476   3.158   8.868  0.8705  1.1061 -0.9627
 1370SOL    HW215744   3.458   3.125   9.012  0.5204  0.0806  0.1260
 1371SOL     OW15745   3.365   4.032  13.331 -0.5965 -0.1509  0.0197
 1371SOL    HW115746   3.297   3.968  13.353 -0.9812 -0.1678 -1.1751
 1371SOL    HW215747   3.437   3.970  13.323 -0.8776 -0.6095  0.9937
 1372SOL     OW15748   1.750   0.825   7.341  0.1682  0.0067 -0.4752
 1372SOL    HW115749   1.779   0.899   7.287 -1.1156 -0.3234 -1.5982
 1372SOL    HW215750   1.658   0.844   7.355  1.1366  3.6644  1.0910
 1373SOL     OW15751   1.722   3.051   1.069  0.0600 -0.1382 -0.4921
 1373SOL    HW115752   1.763   3.069   1.154 -1.1398  0.5612 -0.0570
 1373SOL    HW215753   1.708   2.957   1.068 -0.3575 -0.0769 -0.4086
 1374SOL     OW15754   2.173   0.339   5.728  0.8206  0.8946  0.0415
 1374SOL    HW115755   2.132   0.365   5.645  1.1346  0.8820 -0.1151
 1374SOL    HW215756   2.168   0.244   5.715  3.5524  0.4640  2.0510
 1375SOL     OW15757   1.882   0.047   9.639 -0.6858 -0.2901 -0.1938
 1375SOL    HW115758   1.952   4.724   9.613  0.0533  0.1119  0.8687
 1375SOL    HW215759   1.929   0.129   9.656  0.1377 -0.7944 -0.0536
 1376SOL     OW15760   3.130   3.551   8.784 -0.2952  0.7468  0.6094
 1376SOL    HW115761   3.135   3.457   8.799 -0.6973  0.5784 -0.3390
 1376SOL    HW215762   3.208   3.573   8.834  0.6256  2.1060 -1.4383
 1377SOL     OW15763   2.225   3.309  17.532  0.0219 -0.4210  0.8062
 1377SOL    HW115764   2.310   3.303  17.489  0.5194  2.4110  1.4228
 1377SOL    HW215765   2.163   3.295  17.460 -0.2520  4.4522  0.1548
 1378SOL     OW15766   2.012   3.821   3.990 -0.4828  0.0502  0.4877
 1378SOL    HW115767   1.969   3.882   4.049 -2.4385  1.2215 -2.1248
 1378SOL    HW215768   2.105   3.823   4.009 -0.7971 -0.6004  2.0879
 1379SOL     OW15769   1.479   1.510   2.106 -0.7074 -0.5712  0.6817
 1379SOL    HW115770   1.460   1.577   2.172 -1.5325  1.5106 -1.6672
 1379SOL    HW215771   1.476   1.557   2.023  0.3077 -2.1252 -0.2312
 1380SOL     OW15772   2.309   1.489   7.895  0.2349 -0.2334  0.0208
 1380SOL    HW115773   2.378   1.449   7.947  1.4022  0.5794 -0.8851
 1380SOL    HW215774   2.354   1.569   7.866  1.1860 -0.6726  0.3260
 1381SOL     OW15775   3.957   0.236   5.920  0.1132  0.6919 -0.1077
 1381SOL    HW115776   3.964   0.276   6.007 -1.1141 -2.4828  1.4406
 1381SOL    HW215777   4.003   0.299   5.864  3.7518 -0.5374  1.4694
 1382SOL     OW15778   1.500   2.604   1.480  0.5717 -0.2585  0.4932
 1382SOL    HW115779   1.407   2.606   1.457  0.5372 -2.9415  0.4008
 1382SOL    HW215780   1.494   2.543   1.554 -0.2460 -0.7423  0.0262
 1383SOL     OW15781   3.513   2.669  10.730  0.0230  0.4110 -0.0257
 1383SOL    HW115782   3.568   2.613  10.675 -2.7088 -0.0833 -2.2496
 1383SOL    HW215783   3.538   2.642  10.818 -1.9271  1.9491  1.0064
 1384SOL     OW15784   2.120   3.030  12.500 -0.4531  0.6228 -0.3918
 1384SOL    HW115785   2.059   2.965  12.465 -0.8740  1.0381 -0.4361
 1384SOL    HW215786   2.094   3.036  12.592  0.4071 -1.1868 -0.0359
 1385SOL     OW15787   2.941   0.001   6.922  0.3789  0.1384  0.9142
 1385SOL    HW115788   2.947   4.702   7.011 -0.5584  0.4408  1.0995
 1385SOL    HW215789   3.011   0.066   6.927 -0.4571  0.8617  3.5088
 1386SOL     OW15790   4.522   4.013  12.806  0.6627  0.6536 -0.3814
 1386SOL    HW115791   4.515   3.918  12.803  0.1892  0.7433 -2.4055
 1386SOL    HW215792   4.547   4.028  12.897  2.1820 -0.1694 -0.6620
 1387SOL     OW15793   0.051   1.034   4.608  0.1152 -0.0458 -0.4202
 1387SOL    HW115794   4.717   1.034   4.544 -2.4889 -0.4906  2.4008
 1387SOL    HW215795   0.111   1.079   4.548  1.4540 -0.1026  0.8631
 1388SOL     OW15796   0.883   0.719   4.868  0.3079  0.5624  0.0151
 1388SOL    HW115797   0.951   0.709   4.801 -1.0283 -1.2071 -1.0899
 1388SOL    HW215798   0.902   0.634   4.909 -1.8209  0.1261  0.1051
 1389SOL     OW15799   3.867   1.100   7.044 -0.4187  0.0503  0.4963
 1389SOL    HW115800   3.911   1.134   6.966  0.4795  0.5619  1.2191
 1389SOL    HW215801   3.821   1.181   7.065 -1.5540  0.1059 -2.1815
 1390SOL     OW15802   2.554   1.320   8.999  0.0445 -0.1027  0.2185
 1390SOL    HW115803   2.511   1.399   8.966  2.6705  2.0749  1.9681
 1390SOL    HW215804   2.593   1.296   8.915 -1.5909  1.1175 -0.8749
 1391SOL     OW15805   1.941   1.357   6.864  0.3994 -0.4120  0.3440
 1391SOL    HW115806   2.004   1.429   6.867  0.3101 -0.3466  0.6253
 1391SOL    HW215807   1.958   1.325   6.775 -2.4471 -2.4898  0.5720
 1392SOL     OW15808   1.994   2.197   9.346 -0.0621 -0.6070 -0.2911
 1392SOL    HW115809   2.023   2.254   9.417 -1.1412 -0.8666  0.3700
 1392SOL    HW215810   1.903   2.171   9.361  0.2340 -1.5710 -0.1547
 1393SOL     OW15811   0.125   4.036   9.426  0.3178  0.0902 -0.6627
 1393SOL    HW115812   0.160   3.956   9.387  0.0133 -1.0798  1.4824
 1393SOL    HW215813   0.192   4.102   9.406  1.3680 -0.9317 -0.5136
 1394SOL     OW15814   4.675   1.677   4.253 -0.0857  0.6114  0.4021
 1394SOL    HW115815   0.026   1.693   4.217  0.2566 -2.0141  0.0569
 1394SOL    HW215816   4.663   1.582   4.246 -2.8738  0.6423  4.8489
 1395SOL     OW15817   3.379   0.426  11.940 -0.1297 -0.3449 -0.7880
 1395SOL    HW115818   3.413   0.336  11.932  0.3022  0.0372 -3.3033
 1395SOL    HW215819   3.463   0.470  11.931 -1.3769  2.9335  3.2593
 1396SOL     OW15820   0.783   3.198   4.723 -0.0538  0.2716 -0.3674
 1396SOL    HW115821   0.719   3.236   4.663  1.1831  0.7863 -1.3697
 1396SOL    HW215822   0.853   3.264   4.726 -0.8330  1.1188 -0.6593
 1397SOL     OW15823   3.260   0.135   8.892 -0.2335  0.0381 -0.1405
 1397SOL    HW115824   3.245   0.182   8.974  0.6088  0.3815 -0.1891
 1397SOL    HW215825   3.201   0.171   8.825  1.0266  1.6517 -0.3685
 1398SOL     OW15826   2.995   0.297   3.849 -0.1835  0.1249 -0.2224
 1398SOL    HW115827   2.987   0.393   3.846 -3.1378 -0.0492  2.3662
 1398SOL    HW215828   2.909   0.263   3.826  0.4576 -1.6412 -0.0314
 1399SOL     OW15829   2.221   1.119   3.819  0.2353 -0.0562  0.4811
 1399SOL    HW115830   2.233   1.175   3.896  1.7638 -0.4745  0.5315
 1399SOL    HW215831   2.175   1.175   3.756  2.2872  1.1484  0.0555
 1400SOL     OW15832   2.812   0.640   1.823 -0.6783 -0.0544  0.1897
 1400SOL    HW115833   2.761   0.621   1.902 -0.3549 -0.5984  0.2716
 1400SOL    HW215834   2.855   0.714   1.865 -0.2448  0.4000 -1.0786
 1401SOL     OW15835   3.578   4.104   0.209 -0.3299 -0.0815 -0.0737
 1401SOL    HW115836   3.573   4.011   0.184  0.8407  0.1066 -0.9876
 1401SOL    HW215837   3.582   4.158   0.130  1.0224 -0.6659 -0.4041
 1402SOL     OW15838   3.094   0.999  11.787 -0.7517 -0.1066  0.0655
 1402SOL    HW115839   3.032   1.072  11.791  0.5030  0.7948  2.6230
 1402SOL    HW215840   3.048   0.934  11.734  2.2450 -3.1597  1.2264
 1403SOL     OW15841   4.116   0.326  11.740 -0.1217 -0.1267 -0.0973
 1403SOL    HW115842   4.059   0.351  11.813 -0.1464 -3.0589  0.8821
 1403SOL    HW215843   4.076   0.246  11.708 -1.0686  0.8230 -1.2658
 1404SOL     OW15844   4.519   0.309  11.605 -0.1668 -0.5080 -0.3995
 1404SOL    HW115845   4.503   0.216  11.591 -2.3621  0.0191 -1.3535
 1404SOL    HW215846   4.614   0.309  11.590  0.3609 -3.1880  2.9910
 1405SOL     OW15847   3.413   2.496   5.078 -0.9632  0.6546 -0.0911
 1405SOL    HW115848   3.409   2.486   4.983 -0.3238  0.8066 -0.1352
 1405SOL    HW215849   3.340   2.438   5.096  0.3642 -0.9100  0.2611
 1406SOL     OW15850   2.792   4.109   5.669 -0.6739 -0.2421  0.3744
 1406SOL    HW115851   2.819   4.035   5.723  3.5396  0.7032 -0.4315
 1406SOL    HW215852   2.729   4.070   5.609 -1.5891  0.4822  0.8589
 1407SOL     OW15853   4.608   3.862   4.303 -0.0111 -0.5449  0.2395
 1407SOL    HW115854   4.546   3.789   4.309 -0.1191 -0.6451 -1.8992
 1407SOL    HW215855   4.575   3.900   4.222 -1.2836  0.5032  1.2667
 1408SOL     OW15856   3.920   1.611   1.408  0.6568  0.0728 -0.3317
 1408SOL    HW115857   3.942   1.694   1.365 -2.2280  0.2062 -1.5588
 1408SOL    HW215858   3.835   1.596   1.366  2.1779 -2.0420 -2.6343
 1409SOL     OW15859   2.054   0.798   7.598 -0.8366  0.2849 -0.1146
 1409SOL    HW115860   2.070   0.874   7.541  1.2884 -0.2917 -0.2725
 1409SOL    HW215861   1.974   0.824   7.644 -1.2897 -0.7649 -0.3013
 1410SOL     OW15862   4.494   0.372   4.823  1.1603 -0.3064  0.1568
 1410SOL    HW115863   4.520   0.449   4.772  3.2197 -1.3556 -0.3853
 1410SOL    HW215864   4.573   0.356   4.874  1.6004 -0.9365 -0.7022
 1411SOL     OW15865   1.450   3.499   8.518  0.2845 -0.1199  0.0033
 1411SOL    HW115866   1.511   3.564   8.482 -1.2983  1.4217  0.1097
 1411SOL    HW215867   1.388   3.552   8.567 -0.4028 -0.7170 -0.2180
 1412SOL     OW15868   0.472   1.973   8.948 -0.6338 -0.0235  0.1184
 1412SOL    HW115869   0.546   1.965   8.888 -0.7603 -0.1120 -0.0238
 1412SOL    HW215870   0.520   1.942   9.025 -1.1181  1.2328  0.9409
 1413SOL     OW15871   1.004   4.289   5.241 -0.1436  0.0923  0.4587
 1413SOL    HW115872   0.997   4.317   5.150 -0.0948 -2.8361 -0.4400
 1413SOL    HW215873   0.913   4.260   5.246 -0.4248  0.6351 -1.4664
 1414SOL     OW15874   2.130   0.247  13.992  0.1967 -0.1942 -0.1685
 1414SOL    HW115875   2.080   0.263  14.072 -0.5196  1.3140 -0.9095
 1414SOL    HW215876   2.218   0.256  14.028 -0.3816 -1.7257  1.6100
 1415SOL     OW15877   1.928   1.233   6.620  0.7211 -0.0993  0.3883
 1415SOL    HW115878   2.004   1.179   6.643  1.4861  1.2803  1.0999
 1415SOL    HW215879   1.960   1.286   6.547  0.1268  0.6981  0.7046
 1416SOL     OW15880   3.718   3.709   4.597 -0.7126  0.3854 -0.2725
 1416SOL    HW115881   3.720   3.799   4.629 -1.5503  0.1369  0.4966
 1416SOL    HW215882   3.804   3.671   4.615  0.0541  2.3014  0.0066
 1417SOL     OW15883   4.384   3.475   5.165 -0.1575 -0.5180 -0.5901
 1417SOL    HW115884   4.425   3.397   5.201 -0.8930 -1.4961 -1.8960
 1417SOL    HW215885   4.441   3.483   5.088 -0.2081  0.9304 -0.4777
 1418SOL     OW15886   1.501   3.585   2.621 -0.8161 -0.5044 -0.1581
 1418SOL    HW115887   1.417   3.539   2.610  0.0318 -2.2212  0.5042
 1418SOL    HW215888   1.518   3.593   2.528  1.9848  1.1346  0.4966
 1419SOL     OW15889   1.015   3.680   7.442  0.8501  0.2079 -0.0463
 1419SOL    HW115890   1.037   3.752   7.502 -2.2288  0.8759  0.2864
 1419SOL    HW215891   1.081   3.682   7.373 -0.0390 -2.8998 -0.9674
 1420SOL     OW15892   1.134   4.155   2.278  0.0441 -0.0815 -0.1255
 1420SOL    HW115893   1.098   4.069   2.298  1.5715 -0.3320  1.5569
 1420SOL    HW215894   1.193   4.136   2.206  0.0345 -2.8434  0.6295
 1421SOL     OW15895   1.039   2.280   4.047 -0.4179 -0.9365 -0.3840
 1421SOL    HW115896   1.113   2.327   4.086 -1.2521  0.1173 -0.0598
 1421SOL    HW215897   0.990   2.245   4.121  0.7695  1.0625  1.3452
 1422SOL     OW15898   1.220   2.019   8.318  0.7477 -0.4559 -0.3381
 1422SOL    HW115899   1.285   2.050   8.381 -1.5528  2.3451  0.6782
 1422SOL    HW215900   1.230   1.925   8.333  0.7489  0.2893  4.4138
 1423SOL     OW15901   4.405   1.081   2.114  0.7192  0.0145  0.2118
 1423SOL    HW115902   4.333   1.116   2.063  1.7987  3.5529  1.1157
 1423SOL    HW215903   4.401   1.143   2.187 -1.1684  0.0333  0.0988
 1424SOL     OW15904   4.213   3.330   1.735  0.5235  0.8569 -0.5409
 1424SOL    HW115905   4.255   3.399   1.786  0.5373  1.4963 -1.4200
 1424SOL    HW215906   4.255   3.342   1.649  0.4861  0.2486 -0.6425
 1425SOL     OW15907   0.350   0.597   9.326 -0.0355 -0.3760  0.1978
 1425SOL    HW115908   0.273   0.568   9.277  0.8369  3.0099 -3.2422
 1425SOL    HW215909   0.325   0.682   9.363 -1.2300 -0.5557 -0.1888
 1426SOL     OW15910   4.050   3.845   1.139 -0.1084 -0.2710  0.0796
 1426SOL    HW115911   3.992   3.857   1.063 -0.4016 -0.1604  0.3201
 1426SOL    HW215912   4.098   3.925   1.158  0.1355  0.0384 -1.9122
 1427SOL     OW15913   1.405   3.430   5.586 -0.4003  0.2433 -0.1108
 1427SOL    HW115914   1.429   3.515   5.622  0.9024 -0.4809  0.7502
 1427SOL    HW215915   1.310   3.436   5.582 -0.3262  1.0714 -0.6374
 1428SOL     OW15916   3.447   2.489   5.599  0.0504 -0.4410 -0.2500
 1428SOL    HW115917   3.479   2.500   5.688  2.8905 -0.4471 -1.2614
 1428SOL    HW215918   3.522   2.530   5.554 -0.1354 -0.9648 -1.0201
 1429SOL     OW15919   4.073   2.811  15.927 -0.1739  0.1017  0.3612
 1429SOL    HW115920   4.031   2.814  16.013  0.3999  2.1308  0.5547
 1429SOL    HW215921   4.026   2.879  15.880 -0.0458 -0.5349 -0.7096
 1430SOL     OW15922   4.709   4.582   9.274  0.0987 -0.3957 -0.1271
 1430SOL    HW115923   4.693   4.590   9.179  2.1507  2.0591 -0.2864
 1430SOL    HW215924   4.692   4.490   9.291 -0.6841 -1.0562 -4.4195
 1431SOL     OW15925   4.281   4.170   2.565 -0.0864  0.4756 -0.6608
 1431SOL    HW115926   4.326   4.253   2.582  4.5055 -1.9444 -1.0254
 1431SOL    HW215927   4.340   4.131   2.500  3.0392  2.0785  1.2306
 1432SOL     OW15928   0.271   3.821   4.528  0.0819 -0.1551 -0.0159
 1432SOL    HW115929   0.348   3.842   4.475 -2.5522  1.7165 -3.1135
 1432SOL    HW215930   0.208   3.874   4.479 -0.2175 -0.8747 -0.4128
 1433SOL     OW15931   3.895   3.668   2.934  0.0276  0.5599 -0.1629
 1433SOL    HW115932   3.983   3.699   2.957  0.0635  0.3704 -0.0459
 1433SOL    HW215933   3.872   3.634   3.021 -1.3606  0.6409 -0.4982
 1434SOL     OW15934   3.415   1.679   3.913  0.4175 -0.2095 -0.2687
 1434SOL    HW115935   3.509   1.663   3.904  0.5249 -0.3124  1.1633
 1434SOL    HW215936   3.402   1.629   3.993  0.6405 -0.1409 -0.1909
 1435SOL     OW15937   2.437   4.658   8.443 -0.1340  0.1342  0.0468
 1435SOL    HW115938   2.510   4.595   8.443  0.3472  0.6963  1.5999
 1435SOL    HW215939   2.375   4.601   8.490 -0.0432  0.3553  0.4344
 1436SOL     OW15940   1.370   0.201   1.433 -0.7287 -0.3750  0.4480
 1436SOL    HW115941   1.417   0.149   1.367 -0.7997 -0.2891  0.3303
 1436SOL    HW215942   1.312   0.136   1.472  2.5291 -2.9251  1.0373
 1437SOL     OW15943   2.226   3.620   8.609  0.0746  0.4328 -0.5424
 1437SOL    HW115944   2.317   3.652   8.604  0.5963 -1.2845 -1.9745
 1437SOL    HW215945   2.238   3.529   8.635  2.5288  1.6256  2.5883
 1438SOL     OW15946   3.902   3.040   6.221 -0.0616  0.1771 -0.3114
 1438SOL    HW115947   3.938   3.128   6.233  0.7500 -0.2687  0.5310
 1438SOL    HW215948   3.832   3.059   6.159  0.1693  1.4861 -0.1758
 1439SOL     OW15949   4.547   1.175   7.349 -0.2925  0.4832  0.0161
 1439SOL    HW115950   4.551   1.161   7.254  0.8292 -1.7070  0.3695
 1439SOL    HW215951   4.535   1.269   7.343  2.8916  0.8071 -1.6472
 1440SOL     OW15952   0.338   4.377   3.739 -0.6511 -0.2693  0.0787
 1440SOL    HW115953   0.348   4.362   3.645  5.0571 -0.8073  0.7838
 1440SOL    HW215954   0.244   4.356   3.739 -1.1764  2.0938 -1.5507
 1441SOL     OW15955   1.370   1.716  12.140 -0.1248 -0.3612  0.3800
 1441SOL    HW115956   1.449   1.666  12.123  0.2133  0.2373  0.2167
 1441SOL    HW215957   1.411   1.799  12.163 -0.2283 -0.6394  1.5976
 1442SOL     OW15958   3.216   0.334  12.359  0.1776 -0.6981 -0.3510
 1442SOL    HW115959   3.288   0.285  12.319  0.9913  0.3053 -0.1171
 1442SOL    HW215960   3.182   0.374  12.279 -0.1228  0.4630  0.3557
 1443SOL     OW15961   0.100   3.035   3.701 -0.2289  0.7039 -0.5984
 1443SOL    HW115962   0.144   2.950   3.709 -1.2777  0.2487  0.3370
 1443SOL    HW215963   0.046   3.021   3.623 -0.7415  1.3507 -0.3566
 1444SOL     OW15964   0.068   4.353   5.653  0.1053 -0.0761  0.5065
 1444SOL    HW115965   0.128   4.427   5.660 -1.6157  1.3932 -0.0175
 1444SOL    HW215966   0.079   4.335   5.560  1.7417  2.2273  0.2459
 1445SOL     OW15967   1.996   3.923   7.030  0.4613  0.3930 -0.4521
 1445SOL    HW115968   1.904   3.940   7.053  0.6598  0.4028  0.3289
 1445SOL    HW215969   2.047   3.942   7.108  0.2848 -2.1336  0.2673
 1446SOL     OW15970   4.140   1.711   7.654 -0.1119  0.3142 -0.1927
 1446SOL    HW115971   4.212   1.675   7.705 -0.0822 -0.1737 -0.5803
 1446SOL    HW215972   4.112   1.785   7.708 -0.4987  0.3675 -0.4691
 1447SOL     OW15973   0.860   0.077   9.696  0.7576  0.2069 -0.6869
 1447SOL    HW115974   0.821   0.118   9.618 -0.0684 -0.3218 -0.5522
 1447SOL    HW215975   0.860   4.719   9.679  0.6261  0.4461 -2.0738
 1448SOL     OW15976   0.701   2.088   1.334  0.2294 -0.7160  0.3516
 1448SOL    HW115977   0.618   2.092   1.286  1.3007 -1.2345 -1.5525
 1448SOL    HW215978   0.709   2.183   1.336 -2.2489 -0.5200  0.8948
 1449SOL     OW15979   1.169   1.517   3.991  0.8292 -0.0457  0.1501
 1449SOL    HW115980   1.109   1.587   4.016 -0.4455 -1.5086  1.2003
 1449SOL    HW215981   1.210   1.491   4.074  0.9921 -0.8632 -0.1821
 1450SOL     OW15982   3.537   0.462   8.866  0.2219 -0.1394  0.0120
 1450SOL    HW115983   3.570   0.552   8.862  0.0290 -0.1373 -1.5361
 1450SOL    HW215984   3.609   0.414   8.825  0.4892  0.5351 -0.3133
 1451SOL     OW15985   3.503   0.527   8.595 -0.1823 -0.6347  0.0235
 1451SOL    HW115986   3.463   0.528   8.682 -2.5834 -1.2303 -1.0710
 1451SOL    HW215987   3.511   0.620   8.575 -2.1973 -0.4406  0.1694
 1452SOL     OW15988   0.157   0.242   8.988 -0.2622 -0.3743 -0.0766
 1452SOL    HW115989   0.147   0.299   8.912  0.7948 -0.0573  0.0211
 1452SOL    HW215990   0.094   0.172   8.973 -0.4686 -0.8396  2.9020
 1453SOL     OW15991   0.907   2.098   1.947 -0.0208 -0.0145  0.6168
 1453SOL    HW115992   0.888   2.112   2.040  1.1495 -0.7945  0.9758
 1453SOL    HW215993   0.908   2.187   1.912 -0.8867  0.1991  1.1521
 1454SOL     OW15994   3.858   3.414  16.432 -0.9459 -0.7149 -0.0833
 1454SOL    HW115995   3.948   3.408  16.399  0.2757  0.2618  3.0647
 1454SOL    HW215996   3.861   3.509  16.443  2.4322 -0.9395  1.0852
 1455SOL     OW15997   2.091   0.804  14.247 -0.0315  0.0388 -0.1339
 1455SOL    HW115998   2.163   0.857  14.281 -0.6623  0.7123  0.1332
 1455SOL    HW215999   2.058   0.767  14.329 -0.7111  0.6372 -0.1365
 1456SOL     OW16000   2.465   4.631   3.464 -0.1893 -0.0423  0.0294
 1456SOL    HW116001   2.385   4.644   3.413 -1.1258  1.3074  1.8457
 1456SOL    HW216002   2.443   4.691   3.536 -1.7782 -1.2602  0.5587
 1457SOL     OW16003   3.964   2.766   9.449 -0.5320  0.1761 -0.1842
 1457SOL    HW116004   3.920   2.724   9.524 -0.8009 -2.3137 -1.7363
 1457SOL    HW216005   3.986   2.855   9.476 -1.4449  0.7343 -1.2561
 1458SOL     OW16006   0.822   3.023  11.067 -0.7663 -0.1694 -0.5053
 1458SOL    HW116007   0.728   3.041  11.070 -0.7198 -0.3100  1.9932
 1458SOL    HW216008   0.821   2.945  11.012  1.1724 -0.6113  0.1016
 1459SOL     OW16009   0.951   2.290   2.696 -0.3629 -0.5068 -0.4083
 1459SOL    HW116010   0.996   2.216   2.655 -0.6275 -0.5554 -0.6132
 1459SOL    HW216011   0.929   2.249   2.780 -1.4968  0.5222 -0.2117
 1460SOL     OW16012   1.535   1.576   1.828 -0.1613 -0.1311  0.0260
 1460SOL    HW116013   1.442   1.561   1.811  0.0290 -0.4445 -0.7407
 1460SOL    HW216014   1.553   1.639   1.758  0.2207  2.1537  2.1917
 1461SOL     OW16015   4.118   2.565   6.652  0.1415  0.4709  0.5618
 1461SOL    HW116016   4.127   2.586   6.559  1.2344 -0.5059  0.4397
 1461SOL    HW216017   4.177   2.489   6.653 -1.1157 -0.5340 -1.1824
 1462SOL     OW16018   1.913   2.435   1.437 -0.3354 -0.0141 -0.4322
 1462SOL    HW116019   1.898   2.351   1.394 -2.8909  0.2467 -0.0081
 1462SOL    HW216020   1.969   2.403   1.508 -2.9849 -3.5293  0.0509
 1463SOL     OW16021   2.956   1.100  15.275 -0.0422  0.1701 -0.1102
 1463SOL    HW116022   3.045   1.115  15.307  0.4660  2.1755 -2.4686
 1463SOL    HW216023   2.951   1.005  15.282 -0.3353  0.1685 -0.3315
 1464SOL     OW16024   2.105   2.800   4.976  0.2128  0.0423 -0.0482
 1464SOL    HW116025   2.123   2.805   4.882  1.8977  2.1080  0.3592
 1464SOL    HW216026   2.010   2.793   4.972  0.2966 -0.3587 -1.4799
 1465SOL     OW16027   0.893   2.733   2.716 -0.4366 -0.2554  0.0949
 1465SOL    HW116028   0.950   2.671   2.670  1.0917  1.5172 -0.3756
 1465SOL    HW216029   0.807   2.727   2.674  0.9203 -1.9154 -2.4274
 1466SOL     OW16030   4.044   1.376   2.004 -0.2909 -0.1890  0.6645
 1466SOL    HW116031   4.066   1.414   2.089 -0.4019  1.9452 -0.2682
 1466SOL    HW216032   3.951   1.400   2.003  0.0607  1.1182 -0.0328
 1467SOL     OW16033   0.593   0.885   9.482 -0.1160 -0.8400  0.5332
 1467SOL    HW116034   0.685   0.877   9.504 -0.0422 -1.1547  0.1074
 1467SOL    HW216035   0.567   0.799   9.516  0.6756 -1.3203 -0.0904
 1468SOL     OW16036   2.582   2.005   8.575  0.5838 -0.1167  0.0731
 1468SOL    HW116037   2.653   2.008   8.511 -0.4537 -0.2786 -1.0930
 1468SOL    HW216038   2.620   1.950   8.644  0.1352 -1.8769 -1.0821
 1469SOL     OW16039   2.728   2.351  12.578 -0.1334 -0.3915 -0.3208
 1469SOL    HW116040   2.774   2.328  12.658 -2.9731 -1.0188  1.1286
 1469SOL    HW216041   2.695   2.264  12.555 -0.4076 -0.6483  1.0924
 1470SOL     OW16042   4.235   0.956  14.222 -0.6551 -0.1360 -0.2769
 1470SOL    HW116043   4.166   0.947  14.157 -1.1732  2.4326 -0.1142
 1470SOL    HW216044   4.179   1.001  14.286 -0.6080 -0.1054 -0.2573
 1471SOL     OW16045   2.739   3.623   2.043  0.0861 -0.3235 -0.4840
 1471SOL    HW116046   2.663   3.603   1.987  0.2308  1.6453 -1.3728
 1471SOL    HW216047   2.720   3.713   2.068 -0.1387 -0.7474  0.8445
 1472SOL     OW16048   0.461   0.842   9.923  0.5284  0.2874  0.0749
 1472SOL    HW116049   0.396   0.772   9.916  0.3917  0.3216  1.0564
 1472SOL    HW216050   0.514   0.808   9.995 -0.1247 -2.9939 -0.9988
 1473SOL     OW16051   3.262   3.720   1.215 -0.1843 -0.0649  0.0072
 1473SOL    HW116052   3.313   3.795   1.245  1.7260 -1.8144  1.1390
 1473SOL    HW216053   3.292   3.656   1.280 -1.1379  2.4432  2.9148
 1474SOL     OW16054   0.349   2.795   1.092  0.5145 -0.2219 -0.3865
 1474SOL    HW116055   0.324   2.708   1.125 -0.3126  0.3764  0.5802
 1474SOL    HW216056   0.264   2.822   1.056  0.3645 -0.9422 -0.5686
 1475SOL     OW16057   1.970   2.303   0.325  0.2806  0.1766 -0.1159
 1475SOL    HW116058   1.983   2.389   0.364  1.1234  0.4428 -0.9619
 1475SOL    HW216059   1.939   2.330   0.238 -1.1553 -2.8893 -0.5389
 1476SOL     OW16060   3.047   2.828   9.509  0.0546 -0.4733 -0.4847
 1476SOL    HW116061   3.043   2.733   9.498 -1.8832 -0.4633  0.1131
 1476SOL    HW216062   3.006   2.848   9.593  1.2939  0.2698 -0.0585
 1477SOL     OW16063   1.126   3.341   5.129 -0.1237  0.2894 -0.2000
 1477SOL    HW116064   1.076   3.288   5.191  0.1532  1.7976  1.3164
 1477SOL    HW216065   1.207   3.291   5.116  0.0693  1.0093 -1.8171
 1478SOL     OW16066   3.022   2.666   7.366  0.6127  0.0006  0.3230
 1478SOL    HW116067   3.085   2.666   7.294 -2.0697 -0.7591 -2.0057
 1478SOL    HW216068   2.947   2.620   7.329  2.0544  1.0145 -3.8889
 1479SOL     OW16069   1.269   2.368   7.766  0.2188  0.2397 -0.5236
 1479SOL    HW116070   1.321   2.341   7.690 -1.3583 -2.5311 -0.6651
 1479SOL    HW216071   1.218   2.439   7.726  0.5391 -0.2297 -1.7689
 1480SOL     OW16072   0.898   0.042   6.027 -0.0499 -0.1598  0.7036
 1480SOL    HW116073   0.827   4.721   6.056  0.7522 -0.8199  1.3473
 1480SOL    HW216074   0.899   0.114   6.090  1.4236 -0.9902  1.6136
 1481SOL     OW16075   4.298   1.619   2.031 -0.2874 -0.0812  0.3560
 1481SOL    HW116076   4.379   1.662   2.059 -0.3942 -0.1964  0.8270
 1481SOL    HW216077   4.280   1.669   1.951 -0.3897  0.3796  0.6709
 1482SOL     OW16078   3.575   1.132  13.944 -0.1052  0.5665 -0.1980
 1482SOL    HW116079   3.615   1.088  13.869 -0.6994  0.0905 -0.2280
 1482SOL    HW216080   3.539   1.051  13.980  0.6935  0.1647 -0.2842
 1483SOL     OW16081   3.883   0.436  12.042  0.1899  0.4570  0.2045
 1483SOL    HW116082   3.971   0.411  12.071  0.0986 -1.0400 -0.8244
 1483SOL    HW216083   3.839   0.354  12.064  0.0632  0.3051 -0.5971
 1484SOL     OW16084   0.945   2.262   9.017 -0.2309  0.2384  0.4039
 1484SOL    HW116085   0.969   2.330   8.954 -1.9370  1.6704  1.2966
 1484SOL    HW216086   0.953   2.311   9.099  1.3201 -0.4584  0.6676
 1485SOL     OW16087   1.093   1.154   2.661 -0.0767  0.0130  0.5284
 1485SOL    HW116088   1.057   1.221   2.720  0.5411 -1.4508  2.5495
 1485SOL    HW216089   1.084   1.073   2.710  0.0073 -1.0620 -1.2529
 1486SOL     OW16090   4.026   2.404   5.461  0.1083  0.3874 -0.1396
 1486SOL    HW116091   3.994   2.448   5.382  0.8342  1.3313  0.0783
 1486SOL    HW216092   4.104   2.360   5.427 -1.2153 -0.9802 -1.4000
 1487SOL     OW16093   4.267   0.090   5.123 -0.2586 -0.2691  0.0697
 1487SOL    HW116094   4.312   0.056   5.046  0.8110  0.1481  0.5134
 1487SOL    HW216095   4.320   0.059   5.197 -1.3069 -2.5321 -0.1263
 1488SOL     OW16096   3.255   0.530   4.952  0.1284 -0.0135 -0.2173
 1488SOL    HW116097   3.286   0.446   4.987  0.3802 -0.5808 -1.7948
 1488SOL    HW216098   3.198   0.553   5.025 -0.0328 -2.3947  0.4109
 1489SOL     OW16099   4.478   2.068   0.747  0.1042 -0.5595  0.6282
 1489SOL    HW116100   4.438   2.064   0.834  1.3360 -2.1276  1.1256
 1489SOL    HW216101   4.486   1.976   0.721 -0.8232 -0.9820  1.8467
 1490SOL     OW16102   3.333   1.000   4.834 -0.1647  0.0721  0.3869
 1490SOL    HW116103   3.401   0.949   4.790 -1.6193  0.9329 -2.8712
 1490SOL    HW216104   3.377   1.064   4.890  0.2694  1.1386 -1.1394
 1491SOL     OW16105   2.473   0.412   8.818 -0.0719 -0.1028 -0.1998
 1491SOL    HW116106   2.532   0.486   8.803 -0.5953  0.4010  0.2198
 1491SOL    HW216107   2.517   0.373   8.893 -2.2191 -1.9659  0.1095
 1492SOL     OW16108   4.391   4.500   2.190 -0.3310  0.0365 -0.0700
 1492SOL    HW116109   4.376   4.413   2.227 -0.2274 -0.0770 -0.2982
 1492SOL    HW216110   4.303   4.526   2.161 -0.3982  0.4004  0.4474
 1493SOL     OW16111   2.383   4.074  10.148  0.3369  0.0946  0.6618
 1493SOL    HW116112   2.290   4.097  10.141  0.5456  1.2558  1.7467
 1493SOL    HW216113   2.393   4.052  10.055 -1.6069  0.7628  0.2927
 1494SOL     OW16114   2.356   2.891  11.811  0.0799  0.1302  0.8872
 1494SOL    HW116115   2.270   2.853  11.795  0.1044  0.7505 -0.6440
 1494SOL    HW216116   2.347   2.919  11.902 -0.7677  0.1676  0.7892
 1495SOL     OW16117   4.550   0.098   2.420 -0.0263 -0.5110 -0.1794
 1495SOL    HW116118   4.566   0.104   2.326 -4.3206 -0.5707 -0.9044
 1495SOL    HW216119   4.642   0.088   2.447 -0.0056 -0.6841 -0.3099
 1496SOL     OW16120   2.957   2.692   0.287  0.3809 -0.1758 -0.1650
 1496SOL    HW116121   2.937   2.782   0.262 -2.3299 -0.0765  2.3098
 1496SOL    HW216122   3.036   2.677   0.236  0.7405  0.7002  0.1444
 1497SOL     OW16123   0.280   4.296   1.524  0.0819  0.0295 -0.8264
 1497SOL    HW116124   0.204   4.254   1.565  0.7788 -1.8528 -1.4276
 1497SOL    HW216125   0.268   4.388   1.548  0.2806 -0.3508  0.7629
 1498SOL     OW16126   4.546   3.854   6.892 -0.3253  0.0250 -0.1656
 1498SOL    HW116127   4.552   3.886   6.982 -1.0567 -0.2235 -0.0295
 1498SOL    HW216128   4.600   3.776   6.879  0.9564  1.0257 -0.8684
 1499SOL     OW16129   0.152   3.663  17.323 -0.1591 -0.5154  0.3872
 1499SOL    HW116130   0.234   3.675  17.275  0.3241 -4.2166  0.3039
 1499SOL    HW216131   0.176   3.671  17.416 -0.4859 -1.3084  0.5404
 1500SOL     OW16132   0.738   2.837  10.012  0.0133  0.3804 -0.4451
 1500SOL    HW116133   0.677   2.774   9.976 -0.9521  0.8820  0.3000
 1500SOL    HW216134   0.775   2.874   9.932 -1.1218 -1.0087 -1.5871
 1501SOL     OW16135   1.976   2.791   9.372 -0.3889  0.3249  0.4855
 1501SOL    HW116136   1.895   2.832   9.400 -1.0507 -0.5341 -0.1646
 1501SOL    HW216137   2.001   2.839   9.293 -1.1515 -0.2401 -0.0984
 1502SOL     OW16138   2.641   3.355   6.457 -0.2400 -0.0212  0.1886
 1502SOL    HW116139   2.553   3.351   6.494  0.1542 -0.3458  1.0937
 1502SOL    HW216140   2.613   3.382   6.370  2.1300 -0.5493 -0.7478
 1503SOL     OW16141   0.265   3.872  16.176  0.4394 -0.0758 -0.7320
 1503SOL    HW116142   0.207   3.947  16.160  2.0363  1.0926 -1.1089
 1503SOL    HW216143   0.257   3.847  16.268 -3.0834  2.0320 -0.4698
 1504SOL     OW16144   2.268   1.935   0.408  0.3597  0.2714  0.2668
 1504SOL    HW116145   2.187   1.966   0.368  0.3812  0.4682  0.3760
 1504SOL    HW216146   2.259   1.945   0.503 -2.2221  0.7127 -0.0391
 1505SOL     OW16147   3.365   4.552  10.122  0.1627  0.2087 -0.1777
 1505SOL    HW116148   3.370   4.491  10.048 -0.1680  2.0886 -1.7675
 1505SOL    HW216149   3.452   4.544  10.162  1.0644  2.3980 -1.6308
 1506SOL     OW16150   3.897   2.024   6.018  0.6174  0.7413 -0.0997
 1506SOL    HW116151   3.980   2.007   5.974  0.6735 -3.2939  1.5526
 1506SOL    HW216152   3.934   2.092   6.074  2.6744 -1.6747  1.4817
 1507SOL     OW16153   3.332   2.820   8.945 -0.6279 -0.6120 -0.2051
 1507SOL    HW116154   3.332   2.908   8.983  0.1979 -0.9404  0.5462
 1507SOL    HW216155   3.333   2.771   9.027 -1.4623 -1.6504 -0.8139
 1508SOL     OW16156   0.521   4.541   7.596 -0.0613 -0.2196  0.5426
 1508SOL    HW116157   0.605   4.496   7.605 -0.0146  0.5552  4.1511
 1508SOL    HW216158   0.511   4.595   7.674 -2.5457 -1.3430  1.0032
 1509SOL     OW16159   1.975   2.853   6.326 -0.1402 -0.0355 -0.3429
 1509SOL    HW116160   2.029   2.904   6.387 -3.9100  1.2762  1.9280
 1509SOL    HW216161   1.898   2.863   6.383  1.1536 -0.0358  1.4061
 1510SOL     OW16162   4.089   2.749   7.488  0.3080 -0.3571 -0.9633
 1510SOL    HW116163   4.099   2.833   7.534 -0.1146 -0.4703 -0.6547
 1510SOL    HW216164   4.171   2.708   7.514 -0.6111 -2.7032 -1.8235
 1511SOL     OW16165   1.448   2.039  11.700  0.3790  0.2991  0.3298
 1511SOL    HW116166   1.358   2.026  11.670  1.4035  0.6534 -2.7950
 1511SOL    HW216167   1.451   2.130  11.728 -2.2930  0.1811  0.9510
 1512SOL     OW16168   4.267   0.989   3.720 -0.3011  0.1928  0.7221
 1512SOL    HW116169   4.249   0.974   3.628  0.3008 -3.4018  1.2002
 1512SOL    HW216170   4.292   1.082   3.723  0.2994  0.1447 -2.7574
 1513SOL     OW16171   3.961   0.177  11.927 -0.6986  0.0406 -0.1793
 1513SOL    HW116172   3.981   0.093  11.968  1.2415  0.5683 -0.0450
 1513SOL    HW216173   3.872   0.158  11.897 -0.4729  2.8432 -2.5751
 1514SOL     OW16174   2.791   2.265   4.525  0.2169 -0.0189  0.2704
 1514SOL    HW116175   2.826   2.350   4.551  1.3403 -1.0568  2.1981
 1514SOL    HW216176   2.878   2.225   4.525  0.1344 -0.1916 -0.5306
 1515SOL     OW16177   2.147   1.472   5.714 -0.2506 -0.4466 -0.1885
 1515SOL    HW116178   2.125   1.382   5.738  0.9151 -0.0490  2.3034
 1515SOL    HW216179   2.239   1.485   5.736 -1.5295  1.6354  3.8215
 1516SOL     OW16180   3.075   3.909   5.690 -0.3520  0.1106  0.1012
 1516SOL    HW116181   3.148   3.969   5.702  0.8709 -1.2792 -0.4014
 1516SOL    HW216182   3.058   3.903   5.596  0.0760 -1.7862  0.1461
 1517SOL     OW16183   4.405   1.504  17.109  0.0786  0.4374  0.3119
 1517SOL    HW116184   4.345   1.576  17.125 -0.3773  0.6185 -2.1874
 1517SOL    HW216185   4.351   1.428  17.131 -1.0118  1.5511  1.4197
 1518SOL     OW16186   3.902   0.464   1.175 -0.0893  0.4145 -0.5536
 1518SOL    HW116187   3.848   0.528   1.128  0.1404  0.8478 -0.2314
 1518SOL    HW216188   3.975   0.448   1.116  1.6043  0.9880  1.3875
 1519SOL     OW16189   1.900   2.378   8.811 -0.4071  0.0299 -0.4211
 1519SOL    HW116190   1.896   2.289   8.846  0.2105 -0.5542 -1.8330
 1519SOL    HW216191   1.985   2.399   8.850 -1.6239  1.2850  1.5607
 1520SOL     OW16192   0.532   3.505   7.669 -0.7427  0.3930 -0.4779
 1520SOL    HW116193   0.535   3.486   7.762 -1.0244 -1.5617 -0.8629
 1520SOL    HW216194   0.482   3.586   7.672  0.1243  0.7587  3.0500
 1521SOL     OW16195   2.227   4.415   1.146 -0.2368 -0.5499  0.7697
 1521SOL    HW116196   2.132   4.405   1.135  0.0376 -0.8324 -1.3425
 1521SOL    HW216197   2.253   4.384   1.059  0.3130 -1.1702  1.1612
 1522SOL     OW16198   0.691   1.806   8.761  0.4213  0.3843 -0.2370
 1522SOL    HW116199   0.753   1.745   8.720 -1.1632 -1.6800  0.4560
 1522SOL    HW216200   0.668   1.754   8.838 -0.6721 -0.4657 -1.1400
 1523SOL     OW16201   0.930   0.279   7.747  0.4121  0.5548 -0.0707
 1523SOL    HW116202   0.868   0.286   7.675 -2.0759 -2.7668  1.7340
 1523SOL    HW216203   0.953   0.186   7.741  0.4169  0.6485 -1.3674
 1524SOL     OW16204   3.035   0.540   4.146 -0.8262  0.4414 -0.0193
 1524SOL    HW116205   3.019   0.529   4.053 -0.9477 -0.7324  0.1412
 1524SOL    HW216206   2.947   0.529   4.182 -1.7690  1.4106 -2.0630
 1525SOL     OW16207   2.689   4.097   5.391  0.0890 -0.2713  0.0081
 1525SOL    HW116208   2.649   4.144   5.317 -0.1742 -0.9804 -0.2958
 1525SOL    HW216209   2.744   4.162   5.434  0.3648 -0.7649  0.3927
 1526SOL     OW16210   0.749   4.394   7.639  0.8029 -0.2726 -0.2394
 1526SOL    HW116211   0.833   4.393   7.686 -0.0310  2.2390  1.2806
 1526SOL    HW216212   0.770   4.342   7.561  3.2363  1.1600 -0.5307
 1527SOL     OW16213   0.686   4.574   8.745  0.6509 -0.0301 -0.4678
 1527SOL    HW116214   0.728   4.644   8.696 -1.9355  1.7427 -0.1208
 1527SOL    HW216215   0.621   4.546   8.681  1.5307 -3.2486 -0.0005
 1528SOL     OW16216   0.008   1.173   5.093  0.3172  0.1935 -0.5775
 1528SOL    HW116217   4.735   1.153   5.000  1.5499 -1.1169 -0.4122
 1528SOL    HW216218   4.654   1.172   5.124  0.5525  0.4606  0.1173
 1529SOL     OW16219   1.912   2.575  11.966  0.2841 -0.0117  0.4203
 1529SOL    HW116220   1.874   2.539  12.047 -1.8707 -0.0164 -0.6020
 1529SOL    HW216221   1.986   2.513  11.965 -0.0138 -0.3787  1.3268
 1530SOL     OW16222   2.832   1.808   5.485 -0.1555 -0.3043 -0.3290
 1530SOL    HW116223   2.872   1.840   5.566 -0.9844 -1.0780  0.3853
 1530SOL    HW216224   2.763   1.875   5.479 -0.3519 -0.4824 -0.0384
 1531SOL     OW16225   2.050   4.088   8.712 -0.3120  0.6034 -0.5646
 1531SOL    HW116226   2.082   4.035   8.785  0.4439 -0.7049 -1.8400
 1531SOL    HW216227   2.131   4.097   8.662  0.7466  1.4820  1.3173
 1532SOL     OW16228   4.152   1.894   0.921 -0.7458 -0.5536  0.0360
 1532SOL    HW116229   4.214   1.885   0.848  1.6886 -1.2557  2.1788
 1532SOL    HW216230   4.131   1.802   0.934 -1.2705 -0.6987 -1.7825
 1533SOL     OW16231   4.453   0.224  11.201 -0.7158 -0.0862 -0.0730
 1533SOL    HW116232   4.478   0.310  11.236 -0.0650 -1.0352  1.8180
 1533SOL    HW216233   4.478   0.161  11.269 -2.2149  1.2298  1.6860
 1534SOL     OW16234   1.351   2.951  12.155 -0.0151 -0.2260 -0.3924
 1534SOL    HW116235   1.346   2.902  12.237 -0.0315 -0.9595 -0.8256
 1534SOL    HW216236   1.293   3.024  12.178  0.3591  0.6115 -2.1135
 1535SOL     OW16237   2.437   0.676   4.212 -0.0405 -0.5667 -0.2699
 1535SOL    HW116238   2.495   0.690   4.287  0.0762  0.4111 -0.5394
 1535SOL    HW216239   2.351   0.701   4.244 -0.7334 -2.3097 -0.7640
 1536SOL     OW16240   0.477   0.583  16.544 -0.4673 -0.0981  0.6488
 1536SOL    HW116241   0.392   0.626  16.546 -0.7829 -0.7545  1.1124
 1536SOL    HW216242   0.473   0.519  16.614  0.8283 -1.3054 -0.3795
 1537SOL     OW16243   4.499   4.422   8.850  0.1981  0.4182 -0.8321
 1537SOL    HW116244   4.441   4.481   8.899  1.5270  1.9065 -1.0487
 1537SOL    HW216245   4.440   4.405   8.777 -1.7065 -0.9242  1.0047
 1538SOL     OW16246   4.198   0.411   1.592  0.4682 -0.0490  0.1538
 1538SOL    HW116247   4.280   0.392   1.547  0.0673  0.0825 -0.6361
 1538SOL    HW216248   4.229   0.394   1.681  0.5692 -0.7627 -0.0158
 1539SOL     OW16249   0.962   0.382   4.600  0.0873 -0.4053  0.0012
 1539SOL    HW116250   1.047   0.348   4.569  0.6959 -0.2999  1.5863
 1539SOL    HW216251   0.991   0.456   4.653 -0.0041 -1.0893  0.9998
 1540SOL     OW16252   3.198   0.644  13.061 -0.0533 -0.0434  0.2535
 1540SOL    HW116253   3.167   0.674  13.146 -0.0684 -1.2237  0.6618
 1540SOL    HW216254   3.249   0.566  13.085 -0.3336 -0.5361 -0.7136
 1541SOL     OW16255   4.212   3.275   5.394  0.0346 -0.3844  0.6827
 1541SOL    HW116256   4.242   3.203   5.339 -0.4776  0.1353 -0.2819
 1541SOL    HW216257   4.141   3.312   5.340  1.4791 -0.4910 -1.2947
 1542SOL     OW16258   4.318   4.618   4.131  0.1139 -0.0241  0.3027
 1542SOL    HW116259   4.403   4.574   4.127 -1.6089 -3.2467 -0.1811
 1542SOL    HW216260   4.262   4.546   4.103 -0.2814  0.6241 -0.5650
 1543SOL     OW16261   0.033   0.675   9.076  0.1487 -0.0219  0.0423
 1543SOL    HW116262   0.068   0.594   9.115  0.1614  0.8331  1.8134
 1543SOL    HW216263   4.692   0.693   9.130 -0.6028 -0.9294 -0.7306
 1544SOL     OW16264   1.725   1.100   5.446 -0.1660  0.4542  0.1179
 1544SOL    HW116265   1.668   1.177   5.443 -3.2110 -1.8078 -0.4125
 1544SOL    HW216266   1.695   1.066   5.362  2.5079  1.1398 -1.1260
 1545SOL     OW16267   0.715   2.970   3.789 -0.1731 -0.4235 -0.1476
 1545SOL    HW116268   0.669   2.924   3.720  2.2100 -1.6416 -0.9255
 1545SOL    HW216269   0.723   2.899   3.852 -0.5736 -0.9469 -0.6898
 1546SOL     OW16270   1.811   4.733   8.933  0.0469 -0.2388  0.0974
 1546SOL    HW116271   1.794   4.666   8.999 -5.2372 -0.6943 -1.7401
 1546SOL    HW216272   1.764   0.071   8.971 -0.6218 -1.0489  0.8440
 1547SOL     OW16273   1.970   0.156   4.103  0.1014 -0.3582 -0.3332
 1547SOL    HW116274   1.986   0.226   4.040  0.5105  0.2968  0.4895
 1547SOL    HW216275   2.045   0.160   4.164 -0.0317  4.4242 -0.4895
 1548SOL     OW16276   3.744   1.322   8.822 -0.7540  0.0667 -0.3877
 1548SOL    HW116277   3.669   1.328   8.881 -0.6409 -0.4774 -0.1855
 1548SOL    HW216278   3.706   1.268   8.753  1.9149 -0.6881 -1.2747
 1549SOL     OW16279   0.543   2.642   4.957  0.8822  0.0930  0.1697
 1549SOL    HW116280   0.483   2.642   5.032 -0.8737  1.8571 -1.2050
 1549SOL    HW216281   0.483   2.661   4.885  1.2951 -0.7391 -0.3908
 1550SOL     OW16282   3.535   4.414   8.231  0.0502  0.0967  0.3318
 1550SOL    HW116283   3.558   4.437   8.321 -0.3376  0.9930  0.2064
 1550SOL    HW216284   3.440   4.430   8.224  0.2810  0.0113 -2.8269
 1551SOL     OW16285   2.006   2.663  11.528  0.2879 -0.0454 -0.6260
 1551SOL    HW116286   2.029   2.581  11.572 -1.8880 -0.8401 -1.0084
 1551SOL    HW216287   2.083   2.678  11.473  0.4007  0.5783 -0.2946
 1552SOL     OW16288   2.775   2.399   7.561  0.3711  0.2468 -0.4128
 1552SOL    HW116289   2.708   2.429   7.623 -1.0708 -1.8171 -0.9720
 1552SOL    HW216290   2.725   2.375   7.483  0.5681 -1.2758 -0.0742
 1553SOL     OW16291   2.137   4.574   7.756  0.1825 -0.4510  0.7056
 1553SOL    HW116292   2.165   4.561   7.665 -0.8058  0.4640  0.2648
 1553SOL    HW216293   2.117   4.667   7.762 -0.2862 -0.5643  0.9213
 1554SOL     OW16294   1.474   2.724  10.718  0.0998  0.6699  0.1667
 1554SOL    HW116295   1.521   2.670  10.781  0.7566  2.0090  0.8309
 1554SOL    HW216296   1.383   2.702  10.741  0.8334 -1.8926  0.5276
 1555SOL     OW16297   2.397   3.435   0.906  0.7653  0.1376  0.1711
 1555SOL    HW116298   2.440   3.358   0.943  1.3231  0.6434  0.5891
 1555SOL    HW216299   2.326   3.379   0.876  0.1295 -0.3195  2.5194
 1556SOL     OW16300   1.691   2.337   7.579 -0.2944 -0.2171 -0.3277
 1556SOL    HW116301   1.693   2.391   7.500 -2.2851  3.2852  1.9712
 1556SOL    HW216302   1.658   2.399   7.645  2.3091  0.0026  0.7729
 1557SOL     OW16303   2.793   3.541   5.556 -0.3181 -0.9806  0.3632
 1557SOL    HW116304   2.708   3.582   5.573 -0.4163 -0.8461 -0.4835
 1557SOL    HW216305   2.811   3.538   5.650  0.3479 -1.5159  0.2187
 1558SOL     OW16306   2.095   1.781  17.634  0.1837  0.7010  0.0206
 1558SOL    HW116307   2.183   1.818  17.639 -0.0959  1.5731 -1.5295
 1558SOL    HW216308   2.051   1.860  17.667  1.2402  1.6693 -0.9132
 1559SOL     OW16309   3.653   3.349   6.180 -0.3192 -0.2462 -0.2730
 1559SOL    HW116310   3.692   3.316   6.261  2.6966 -0.3950 -1.7658
 1559SOL    HW216311   3.667   3.443   6.191 -0.7984 -0.1398 -0.5859
 1560SOL     OW16312   4.588   4.540   4.105  0.4200  0.3206  0.3090
 1560SOL    HW116313   4.601   4.463   4.159 -1.6308 -1.0127 -1.0841
 1560SOL    HW216314   4.627   4.507   4.024  4.0414  0.5228  2.0044
 1561SOL     OW16315   4.463   1.686   7.402  0.1994 -0.4217 -0.1453
 1561SOL    HW116316   4.373   1.710   7.379  0.0979 -0.7227 -0.0643
 1561SOL    HW216317   4.509   1.750   7.348 -0.5724  0.2784  0.0304
 1562SOL     OW16318   3.936   1.697   9.076  0.8355 -0.5822  0.1772
 1562SOL    HW116319   3.906   1.631   9.014  1.3843  0.6554 -1.4018
 1562SOL    HW216320   3.934   1.647   9.158  3.8726  0.4096  0.8802
 1563SOL     OW16321   2.015   4.647   4.697 -0.3426 -0.6939 -0.1357
 1563SOL    HW116322   1.984   4.735   4.718  0.6605  0.0172 -1.6567
 1563SOL    HW216323   2.062   4.651   4.614 -1.7615  0.9258 -0.8838
 1564SOL     OW16324   1.076   1.650   1.602 -0.1076  0.0050 -0.1773
 1564SOL    HW116325   1.034   1.650   1.516  1.0218 -2.4068 -0.7345
 1564SOL    HW216326   1.009   1.612   1.659  0.2675  0.9626  0.8970
 1565SOL     OW16327   1.730   2.817   7.011  0.5052  0.2455  0.3307
 1565SOL    HW116328   1.769   2.866   6.938  0.1014  0.5496  0.3205
 1565SOL    HW216329   1.790   2.843   7.081  0.3875 -1.8785  1.2229
 1566SOL     OW16330   2.484   2.770   7.610 -0.2602 -0.2027 -0.0295
 1566SOL    HW116331   2.560   2.716   7.632 -0.2610 -0.6659 -1.2039
 1566SOL    HW216332   2.414   2.710   7.637 -1.0925  1.2675  1.0933
 1567SOL     OW16333   3.217   2.120   9.254  0.1573  0.9935 -0.0009
 1567SOL    HW116334   3.189   2.035   9.220 -0.5926  0.9151  0.8038
 1567SOL    HW216335   3.164   2.118   9.334 -2.0741 -0.6453 -1.5465
 1568SOL     OW16336   2.421   4.728   8.949 -0.2240  0.3047  0.3062
 1568SOL    HW116337   2.444   0.052   9.020 -0.4237  1.7673 -0.8850
 1568SOL    HW216338   2.332   4.715   8.982 -0.8668  0.0330 -1.5466
 1569SOL     OW16339   4.386   1.492  16.769  0.4949 -0.0798  0.1184
 1569SOL    HW116340   4.423   1.440  16.698 -0.8614 -1.0208  0.0800
 1569SOL    HW216341   4.368   1.420  16.830  2.1171  0.6029  1.3789
 1570SOL     OW16342   2.922   2.328   2.289  0.5615 -0.1285  0.6269
 1570SOL    HW116343   2.890   2.255   2.237 -0.9236  1.0214 -0.0581
 1570SOL    HW216344   2.852   2.341   2.353  1.3957 -0.4015  1.5902
 1571SOL     OW16345   1.466   3.484  17.673  0.5150 -0.5348 -0.0231
 1571SOL    HW116346   1.413   3.537  17.614  0.1748 -2.0738 -1.0884
 1571SOL    HW216347   1.393   3.428  17.700  0.9343 -1.2338 -0.3491
 1572SOL     OW16348   0.543   0.628   1.905 -0.2876  0.0485  0.1132
 1572SOL    HW116349   0.543   0.619   1.810  0.8993 -0.2881  0.1485
 1572SOL    HW216350   0.574   0.718   1.911 -2.6383  0.8330  0.5938
 1573SOL     OW16351   3.033   2.438   7.516  0.7943 -0.1205  0.3067
 1573SOL    HW116352   2.940   2.416   7.523  1.3705 -2.6663  0.0221
 1573SOL    HW216353   3.036   2.526   7.480 -1.8157 -0.0584  0.2167
 1574SOL     OW16354   1.149   3.822   1.791 -0.0742 -0.0479 -0.3113
 1574SOL    HW116355   1.161   3.728   1.801 -2.0708 -0.4381 -1.6922
 1574SOL    HW216356   1.060   3.832   1.758 -0.7988 -1.2502  1.2708
 1575SOL     OW16357   4.307   3.584   3.516 -0.3854 -0.0622  0.1386
 1575SOL    HW116358   4.401   3.592   3.531 -0.2701 -0.7648 -0.1895
 1575SOL    HW216359   4.271   3.632   3.590 -1.0452  0.1701 -0.3318
 1576SOL     OW16360   0.648   1.748   6.677  0.1326  0.7385 -0.0958
 1576SOL    HW116361   0.734   1.776   6.707 -1.1378  3.2037  1.2687
 1576SOL    HW216362   0.597   1.742   6.758 -1.7398 -1.6054 -1.4470
 1577SOL     OW16363   0.437   3.712   1.533 -0.2925  0.4082  0.2006
 1577SOL    HW116364   0.367   3.768   1.501 -0.2474 -1.8287 -3.8071
 1577SOL    HW216365   0.412   3.701   1.625 -0.8661 -1.3143 -0.1513
 1578SOL     OW16366   0.826   0.108   2.473  0.1799 -0.1621  0.2950
 1578SOL    HW116367   0.777   0.180   2.433  1.3430 -0.2840 -1.3610
 1578SOL    HW216368   0.900   0.104   2.411 -0.0062 -1.3996  0.1505
 1579SOL     OW16369   0.006   2.149   5.169  0.5237 -0.6402 -0.1952
 1579SOL    HW116370   4.706   2.095   5.239 -0.5153  0.1801 -0.1022
 1579SOL    HW216371   4.673   2.204   5.133 -0.6493 -0.8739  1.7232
 1580SOL     OW16372   2.314   1.962  14.184  0.3677 -0.6181 -0.1183
 1580SOL    HW116373   2.398   1.999  14.212  0.5501  0.4130 -2.0088
 1580SOL    HW216374   2.254   1.973  14.258  0.9637 -0.2761  0.3100
 1581SOL     OW16375   0.257   3.655   8.916 -0.3430 -0.4238  0.4346
 1581SOL    HW116376   0.301   3.594   8.856 -1.9214  1.8649 -3.0720
 1581SOL    HW216377   0.330   3.706   8.952  0.5351 -0.5147 -1.2038
 1582SOL     OW16378   3.529   2.070   3.190 -0.3484 -0.2778  0.2160
 1582SOL    HW116379   3.574   2.132   3.133 -1.0776  0.3363  0.3015
 1582SOL    HW216380   3.594   2.047   3.256  0.3600  1.8300  0.2349
 1583SOL     OW16381   1.347   1.216   8.658  0.2822  0.4601 -0.3557
 1583SOL    HW116382   1.415   1.279   8.682  2.5663 -1.9857 -0.4335
 1583SOL    HW216383   1.326   1.262   8.577  1.3012 -0.3544 -1.0888
 1584SOL     OW16384   4.428   3.382  11.235  0.9804  0.5197  0.8150
 1584SOL    HW116385   4.438   3.303  11.289 -0.5194 -0.0344  0.2861
 1584SOL    HW216386   4.335   3.407  11.238  0.2880 -1.8993 -0.1434
 1585SOL     OW16387   2.283   4.078   8.969 -0.1363 -0.2467 -0.3332
 1585SOL    HW116388   2.323   4.023   8.901  1.3924 -0.1882  0.5020
 1585SOL    HW216389   2.343   4.060   9.042  0.2620 -1.3542 -0.9249
 1586SOL     OW16390   3.738   0.382   5.232  0.2159  0.6854  0.2150
 1586SOL    HW116391   3.668   0.390   5.168  0.3090 -1.9668 -0.1980
 1586SOL    HW216392   3.689   0.365   5.313 -2.0028 -1.7509 -1.6766
 1587SOL     OW16393   1.957   3.257   6.488 -0.0124 -0.0053  0.0736
 1587SOL    HW116394   1.989   3.180   6.535 -0.3006  0.2597  0.7159
 1587SOL    HW216395   2.041   3.293   6.461  0.0544 -0.3854 -0.2213
 1588SOL     OW16396   3.103   0.549   1.849 -0.0966 -0.2089 -0.7993
 1588SOL    HW116397   3.061   0.633   1.831 -0.5103  0.2809  2.4988
 1588SOL    HW216398   3.161   0.539   1.774  1.4327 -0.4140  0.4155
 1589SOL     OW16399   4.700   1.519   0.637 -0.2726  0.4655 -0.0584
 1589SOL    HW116400   0.037   1.580   0.638  0.7737 -0.8178  0.5478
 1589SOL    HW216401   4.731   1.463   0.566  1.4179  0.5532  0.6313
 1590SOL     OW16402   0.465   1.253   4.845 -0.0915  0.4035 -0.1568
 1590SOL    HW116403   0.514   1.321   4.891 -1.3818  0.8308  0.5854
 1590SOL    HW216404   0.532   1.193   4.811 -1.1745 -0.2835 -1.0634
 1591SOL     OW16405   4.629   2.553   8.635  0.6493 -0.4400 -0.3705
 1591SOL    HW116406   4.631   2.525   8.727  1.8682  1.1187  0.0853
 1591SOL    HW216407   4.541   2.527   8.610 -0.4764  2.8208  0.2464
 1592SOL     OW16408   2.723   1.731   3.453 -0.5713  0.4917 -0.8052
 1592SOL    HW116409   2.767   1.746   3.536  0.3723  0.2319 -1.2627
 1592SOL    HW216410   2.634   1.758   3.476 -0.6319 -0.0910 -0.3646
 1593SOL     OW16411   4.162   3.503   5.010 -0.6521 -0.4586 -0.8264
 1593SOL    HW116412   4.097   3.463   5.067 -1.0364  2.8249  0.9994
 1593SOL    HW216413   4.235   3.499   5.071 -1.3706 -2.5805 -0.1208
 1594SOL     OW16414   3.548   2.792   8.770 -0.1560  0.0644  0.4652
 1594SOL    HW116415   3.473   2.811   8.825 -1.4470 -2.2422 -0.4972
 1594SOL    HW216416   3.528   2.839   8.689  0.7321 -0.1388  0.1214
 1595SOL     OW16417   4.575   2.019  12.085  0.1042  0.1479 -0.2838
 1595SOL    HW116418   4.580   1.926  12.060  3.7612  0.3504 -0.3379
 1595SOL    HW216419   4.575   2.013  12.180  2.0658  0.9441 -0.2237
 1596SOL     OW16420   2.407   3.344  13.145 -0.2070  0.3315  0.1341
 1596SOL    HW116421   2.321   3.305  13.155 -0.4013  1.2890  2.2099
 1596SOL    HW216422   2.394   3.438  13.148 -1.4065  0.1859 -0.7630
 1597SOL     OW16423   3.649   3.784   9.082  0.1873 -0.5556  0.0144
 1597SOL    HW116424   3.687   3.826   9.159 -3.5885  1.0664  0.9886
 1597SOL    HW216425   3.627   3.865   9.037  0.1946  0.1211  1.2314
 1598SOL     OW16426   0.614   1.752   9.861 -1.1824 -0.3710 -0.3134
 1598SOL    HW116427   0.648   1.663   9.871  0.4783  0.4240  1.0371
 1598SOL    HW216428   0.671   1.787   9.929  1.5543  0.9793 -3.3222
 1599SOL     OW16429   0.844   2.318   2.238 -0.2341  0.2218  0.6770
 1599SOL    HW116430   0.854   2.225   2.218  3.4114  0.2462  2.3130
 1599SOL    HW216431   0.806   2.316   2.326  2.3219  0.1132  1.7708
 1600SOL     OW16432   2.931   1.630   1.547 -0.4755  0.2188 -0.2507
 1600SOL    HW116433   2.972   1.696   1.603 -1.0531  2.0033 -1.9190
 1600SOL    HW216434   2.904   1.563   1.609 -0.3830  1.2342  0.8780
 1601SOL     OW16435   0.154   4.022  17.377  0.2989 -0.0143 -0.4864
 1601SOL    HW116436   0.179   4.092  17.316  0.6292  0.3115  0.0301
 1601SOL    HW216437   0.198   3.944  17.343  0.2839 -1.0877  1.9444
 1602SOL     OW16438   0.041   4.638   1.246  0.3790  0.1232  0.1448
 1602SOL    HW116439   0.012   4.597   1.164 -0.3799 -0.5499  0.7502
 1602SOL    HW216440   0.056   4.729   1.218  0.1984 -0.1954 -1.0158
 1603SOL     OW16441   4.442   1.548   0.644  0.3323 -0.1354 -0.2122
 1603SOL    HW116442   4.535   1.539   0.664  0.2769  0.4089  0.2862
 1603SOL    HW216443   4.437   1.518   0.554  1.5570  1.3105 -0.7670
 1604SOL     OW16444   1.845   1.029   3.971 -0.1366 -0.4263  0.0626
 1604SOL    HW116445   1.779   0.974   4.014  0.8687 -0.4801  1.5666
 1604SOL    HW216446   1.793   1.054   3.895 -0.5495  0.7987  0.7527
 1605SOL     OW16447   2.577   2.593   7.919 -0.1074 -0.1016 -0.2058
 1605SOL    HW116448   2.588   2.529   7.989 -1.1797  2.3933  2.2222
 1605SOL    HW216449   2.543   2.529   7.856 -2.3307  1.6017 -0.7691
 1606SOL     OW16450   1.098   1.306   5.693  0.3398  0.0807  0.4689
 1606SOL    HW116451   1.116   1.314   5.787 -0.5535 -1.8440  0.8062
 1606SOL    HW216452   1.044   1.384   5.681 -0.6383 -0.8085 -0.9833
 1607SOL     OW16453   4.180   0.538   7.005  0.0194 -0.3385 -0.0253
 1607SOL    HW116454   4.139   0.506   7.085 -0.2275  1.9191  0.7691
 1607SOL    HW216455   4.106   0.554   6.946 -1.8715 -2.3410  1.8468
 1608SOL     OW16456   0.153   0.567   8.423 -0.2709 -0.1720 -0.7425
 1608SOL    HW116457   0.147   0.652   8.379 -0.6743  0.1183 -0.1266
 1608SOL    HW216458   0.086   0.587   8.489  1.4246  1.4579  0.4696
 1609SOL     OW16459   3.925   3.185   0.185 -0.3205 -0.5503  0.3223
 1609SOL    HW116460   3.955   3.212   0.098  1.9316  1.1093  1.6111
 1609SOL    HW216461   3.994   3.232   0.233 -4.2270  3.8367  1.5927
 1610SOL     OW16462   1.598   0.785   5.132 -0.1047 -0.1538 -0.1940
 1610SOL    HW116463   1.642   0.700   5.133 -1.1076 -0.6548  1.0622
 1610SOL    HW216464   1.509   0.751   5.135  0.3686 -1.2558  1.3882
 1611SOL     OW16465   0.657   0.134   5.581 -0.4832 -0.2503 -0.3762
 1611SOL    HW116466   0.732   0.186   5.609  0.7436 -1.8094 -0.7893
 1611SOL    HW216467   0.700   0.051   5.561  0.0351  0.1495 -0.9204
 1612SOL     OW16468   4.678   4.280   4.205 -0.5441 -0.3960 -0.2549
 1612SOL    HW116469   4.725   4.207   4.165 -0.5154 -0.8947  0.6971
 1612SOL    HW216470   4.637   4.227   4.274 -0.1487  1.3110  1.2812
 1613SOL     OW16471   1.969   2.192   0.588 -0.1286 -0.5634 -0.4883
 1613SOL    HW116472   2.039   2.235   0.638 -3.2673  2.1998  1.5175
 1613SOL    HW216473   1.981   2.229   0.500 -0.6607  1.7098  0.3780
 1614SOL     OW16474   1.968   3.274   7.995 -0.0785  0.1794  0.0292
 1614SOL    HW116475   1.885   3.282   7.949  1.1511 -1.1684 -2.4291
 1614SOL    HW216476   1.973   3.179   8.006  0.4352  0.0667 -1.2111
 1615SOL     OW16477   1.928   0.931   6.960 -0.0526 -0.1728 -0.3224
 1615SOL    HW116478   1.952   0.844   6.993  1.7888  0.4223 -0.1110
 1615SOL    HW216479   2.015   0.968   6.951  0.2312 -0.3201  1.7795
 1616SOL     OW16480   4.056   3.448   9.287  0.6876  0.0698  0.0939
 1616SOL    HW116481   3.989   3.392   9.324  0.1982  0.7097  0.1794
 1616SOL    HW216482   4.098   3.380   9.234  3.1638  1.4019  0.3402
 1617SOL     OW16483   0.530   4.332  16.245  0.1776 -0.0137 -0.4831
 1617SOL    HW116484   0.539   4.318  16.151 -1.5995  1.5258 -0.8962
 1617SOL    HW216485   0.555   4.244  16.273  0.0162  0.1357  0.1385
 1618SOL     OW16486   0.072   2.280  16.689  0.5216  0.4876 -0.0832
 1618SOL    HW116487   4.723   2.239  16.703  0.1059  1.8425  1.2790
 1618SOL    HW216488   0.096   2.278  16.781 -0.5751  0.8340  0.2077
 1619SOL     OW16489   2.074   3.991   2.297  0.0696 -0.6024  0.0066
 1619SOL    HW116490   2.064   4.086   2.308  0.7411 -0.5604  0.2708
 1619SOL    HW216491   2.026   3.966   2.218 -2.1928  0.8533  0.9304
 1620SOL     OW16492   4.369   0.790   2.131 -0.7863 -0.2910  0.0392
 1620SOL    HW116493   4.408   0.876   2.140  0.0156 -0.6394 -0.1209
 1620SOL    HW216494   4.278   0.819   2.136 -1.2458 -1.6214 -0.4236
 1621SOL     OW16495   4.127   2.332  16.006 -1.2075 -0.1877 -0.0008
 1621SOL    HW116496   4.110   2.240  16.026  0.6661 -0.3581  0.8594
 1621SOL    HW216497   4.176   2.367  16.081  0.0908  0.3894 -1.1145
 1622SOL     OW16498   4.641   2.851  17.525 -0.5773 -0.6255 -0.2453
 1622SOL    HW116499   4.641   2.756  17.527  1.5915 -0.6198 -0.2857
 1622SOL    HW216500   4.642   2.886  17.435  0.1556 -0.9807 -0.3767
 1623SOL     OW16501   4.377   1.342   2.853 -0.1501 -0.7448 -0.6383
 1623SOL    HW116502   4.291   1.315   2.820 -0.6249  0.1188 -0.1028
 1623SOL    HW216503   4.395   1.276   2.920  1.5367  0.3005 -0.0763
 1624SOL     OW16504   0.554   2.836   5.510  0.6133 -0.6401 -0.3708
 1624SOL    HW116505   0.617   2.765   5.523  1.1108  0.1546  1.5360
 1624SOL    HW216506   0.528   2.808   5.422  0.0460  1.4048 -0.8532
 1625SOL     OW16507   2.158   2.617   5.414 -0.3935  0.0039 -0.0456
 1625SOL    HW116508   2.121   2.687   5.360  2.3083  2.6691  1.5513
 1625SOL    HW216509   2.198   2.662   5.488 -0.7915  0.8966 -0.3770
 1626SOL     OW16510   0.767   3.353   8.341  0.4668 -0.2632 -0.1354
 1626SOL    HW116511   0.749   3.442   8.310  0.4595 -1.1587 -2.7293
 1626SOL    HW216512   0.755   3.307   8.258  0.7334 -2.4809  1.0560
 1627SOL     OW16513   4.494   0.699   1.483 -0.7045  0.1573 -0.0388
 1627SOL    HW116514   4.498   0.636   1.555 -0.1613 -0.0215 -0.2239
 1627SOL    HW216515   4.399   0.700   1.471 -0.5633  2.7746 -0.9316
 1628SOL     OW16516   0.913   1.261   8.872  0.0410  0.1590 -0.3901
 1628SOL    HW116517   0.837   1.282   8.927  0.1149 -0.8283  0.0857
 1628SOL    HW216518   0.923   1.166   8.867  0.2320  0.2647 -2.3071
 1629SOL     OW16519   1.669   4.426   3.707 -0.4689  0.4747  0.2177
 1629SOL    HW116520   1.730   4.493   3.675 -0.9766  0.5038 -0.6971
 1629SOL    HW216521   1.596   4.412   3.648  1.0096 -1.3430 -1.1835
 1630SOL     OW16522   1.545   4.684   6.294 -0.1966 -0.9025 -0.1855
 1630SOL    HW116523   1.455   4.685   6.261 -0.3974 -0.1618  0.3858
 1630SOL    HW216524   1.546   4.622   6.366 -2.2556 -2.7844 -1.8076
 1631SOL     OW16525   2.576   3.027  12.824  0.4264 -0.5034 -0.2628
 1631SOL    HW116526   2.568   3.004  12.916  1.2939 -1.3948 -0.4117
 1631SOL    HW216527   2.495   3.078  12.818  0.4522 -0.2787  1.5003
 1632SOL     OW16528   0.123   1.253   4.056  0.2108 -0.8794  0.8919
 1632SOL    HW116529   0.135   1.171   4.104 -1.3772 -1.5266  0.1768
 1632SOL    HW216530   0.172   1.236   3.975 -0.4333  0.5183  0.2189
 1633SOL     OW16531   1.083   2.449   6.940  0.0997  0.1845  0.3927
 1633SOL    HW116532   1.085   2.541   6.966  2.4972  0.6812 -1.5711
 1633SOL    HW216533   1.171   2.416   6.960 -1.4154 -2.1013  3.4160
 1634SOL     OW16534   2.275   0.061   8.218 -0.5650 -0.2734  0.0425
 1634SOL    HW116535   2.277   0.019   8.132  0.7578  2.7583 -1.4333
 1634SOL    HW216536   2.353   0.024   8.259 -0.0619 -0.9387 -1.5101
 1635SOL     OW16537   0.007   3.978   6.066  0.1002 -0.2705  0.5917
 1635SOL    HW116538   0.005   4.027   5.984 -1.3342 -0.7422  0.3472
 1635SOL    HW216539   0.069   4.026   6.121  1.4829  1.2788 -2.3521
 1636SOL     OW16540   2.748   0.141   0.022 -0.6548 -0.1030 -0.4812
 1636SOL    HW116541   2.741   0.053  17.726  1.6634 -0.0565 -0.9863
 1636SOL    HW216542   2.812   0.126   0.091 -1.2010  2.0952  0.5039
 1637SOL     OW16543   1.800   1.853   7.048 -0.0527 -0.3047  0.2701
 1637SOL    HW116544   1.892   1.838   7.072 -0.5745 -0.5346  2.1059
 1637SOL    HW216545   1.813   1.943   7.020 -0.7610  0.8601  3.6662
 1638SOL     OW16546   2.115   4.621  17.072  0.8003 -0.3900 -0.2346
 1638SOL    HW116547   2.199   4.616  17.117 -0.1570  0.2756  1.6262
 1638SOL    HW216548   2.058   4.555  17.112 -2.5035  1.4645 -1.8627
 1639SOL     OW16549   3.056   1.027  13.554  0.1161 -0.2583  0.0345
 1639SOL    HW116550   3.126   1.092  13.551  0.3614 -0.5111  0.4850
 1639SOL    HW216551   2.982   1.087  13.540  0.5214  0.0679 -0.7179
 1640SOL     OW16552   4.480   3.536   5.565  0.7096  0.1879 -0.4859
 1640SOL    HW116553   4.406   3.558   5.509 -1.0974 -1.3701  1.2957
 1640SOL    HW216554   4.533   3.616   5.560 -0.3913  0.9500 -0.0848
 1641SOL     OW16555   3.921   0.219   6.277  0.3179 -0.2045  0.2225
 1641SOL    HW116556   3.916   0.143   6.220 -0.3741  0.2616 -0.3462
 1641SOL    HW216557   3.839   0.267   6.265 -0.3032 -1.6661 -1.2899
 1642SOL     OW16558   0.276   4.342   6.525  0.3707 -0.2350 -0.0506
 1642SOL    HW116559   0.242   4.261   6.562  0.2926 -0.0391  0.2990
 1642SOL    HW216560   0.343   4.371   6.587 -0.8958  0.3067  1.0504
 1643SOL     OW16561   4.443   3.472   2.666  0.4069 -0.1387  0.2493
 1643SOL    HW116562   4.401   3.550   2.703  0.8465  0.7303 -1.1132
 1643SOL    HW216563   4.387   3.460   2.589 -1.6375 -0.4290  1.7629
 1644SOL     OW16564   3.124   1.916   7.422  0.7462  0.0354  0.0450
 1644SOL    HW116565   3.206   1.947   7.460 -0.7180 -0.6650  3.7584
 1644SOL    HW216566   3.101   2.001   7.385  1.2419  0.4573  0.6967
 1645SOL     OW16567   3.404   4.594  17.522 -0.2280 -0.2428 -0.2207
 1645SOL    HW116568   3.335   4.559  17.467  0.5186  0.8142 -1.8286
 1645SOL    HW216569   3.368   4.671  17.565  0.7908  0.8692 -1.3748
 1646SOL     OW16570   2.307   2.749   2.369 -0.1568  0.2176  0.1469
 1646SOL    HW116571   2.261   2.826   2.334  0.2973 -0.9248 -2.9669
 1646SOL    HW216572   2.234   2.688   2.375 -1.2105  1.3965 -0.5513
 1647SOL     OW16573   3.025   2.164   7.370 -0.5957 -0.3858  0.2474
 1647SOL    HW116574   3.037   2.256   7.393  0.6622 -0.0535 -1.8119
 1647SOL    HW216575   2.947   2.159   7.313 -0.4827  1.0453 -0.0249
 1648SOL     OW16576   0.250   3.730   5.758 -0.0112 -0.2704  0.5063
 1648SOL    HW116577   0.339   3.695   5.767 -0.3356 -1.0416  0.6291
 1648SOL    HW216578   0.258   3.823   5.780 -1.2571  0.2593 -1.2088
 1649SOL     OW16579   0.028   4.660   2.585 -0.2609  0.3896 -0.7917
 1649SOL    HW116580   4.713   4.660   2.666 -0.9178 -2.1969 -1.1943
 1649SOL    HW216581   0.101   4.601   2.606 -0.1594  0.3373 -1.2733
 1650SOL     OW16582   4.467   2.186   0.177 -0.4485 -0.1344 -0.1269
 1650SOL    HW116583   4.505   2.142   0.253 -1.5289  0.1390  0.5693
 1650SOL    HW216584   4.375   2.182   0.204  0.3394  0.4820  2.6634
 1651SOL     OW16585   3.430   0.503  15.381  0.3619  0.0556  0.2447
 1651SOL    HW116586   3.355   0.478  15.327 -1.0894  1.0879  1.7671
 1651SOL    HW216587   3.426   0.598  15.370  2.0988  0.2810  1.4535
 1652SOL     OW16588   0.567   2.161   6.624 -0.0730  0.5620 -0.2064
 1652SOL    HW116589   0.563   2.133   6.715 -0.1626  0.9899 -0.0744
 1652SOL    HW216590   0.606   2.080   6.592 -2.1243  0.5103 -2.5285
 1653SOL     OW16591   0.827   0.240   6.251 -0.3654  0.3920  0.1907
 1653SOL    HW116592   0.739   0.269   6.227 -0.2499  2.5470  2.3803
 1653SOL    HW216593   0.803   0.188   6.328 -1.2739 -0.5574 -0.7238
 1654SOL     OW16594   0.586   1.301   3.037  0.3302 -0.1941  0.3442
 1654SOL    HW116595   0.609   1.381   3.084  0.9893  0.7750 -1.6367
 1654SOL    HW216596   0.657   1.247   3.073 -0.5210 -0.8649  1.0271
 1655SOL     OW16597   0.001   3.085   3.980 -0.2325  0.5732  0.0302
 1655SOL    HW116598   4.728   3.097   3.885  0.6543  1.0582  0.0073
 1655SOL    HW216599   4.644   3.092   4.001 -0.5139  0.0776 -1.0184
 1656SOL     OW16600   0.134   0.185   1.267  0.1745 -0.0006  0.1766
 1656SOL    HW116601   0.182   0.266   1.249 -1.0864 -0.1090 -3.7887
 1656SOL    HW216602   0.198   0.114   1.267  0.7823  0.5545  0.7418
 1657SOL     OW16603   1.028   1.122  16.607  0.2687  0.0099  0.8497
 1657SOL    HW116604   1.078   1.197  16.637 -0.9275  2.0943 -2.3979
 1657SOL    HW216605   0.945   1.138  16.652 -0.9532 -0.8419 -1.0836
 1658SOL     OW16606   4.424   0.653   5.389  0.8356  0.4066 -0.3913
 1658SOL    HW116607   4.366   0.726   5.367  0.8216  0.1644 -1.1692
 1658SOL    HW216608   4.388   0.586   5.331 -0.0544  0.6478 -0.1145
 1659SOL     OW16609   4.629   2.589   8.243  0.4483 -0.4583 -0.8275
 1659SOL    HW116610   4.584   2.508   8.266 -0.6135  0.6016  0.7224
 1659SOL    HW216611   4.721   2.559   8.239  0.5313 -0.5923  2.3789
 1660SOL     OW16612   1.990   3.760   8.618  0.3625 -0.4449  0.1488
 1660SOL    HW116613   2.068   3.706   8.631  1.8447  1.9836  1.4661
 1660SOL    HW216614   1.983   3.806   8.702 -0.8279 -1.4795  0.6011
 1661SOL     OW16615   3.363   1.782  16.703  0.1909  0.4315 -0.1892
 1661SOL    HW116616   3.331   1.710  16.758  0.5169 -0.6808 -1.4516
 1661SOL    HW216617   3.285   1.784  16.648  0.6529  1.1581 -0.8069
 1662SOL     OW16618   0.272   3.616   1.797 -0.1708 -0.0512 -0.2628
 1662SOL    HW116619   0.186   3.599   1.836 -0.0112  2.3285  1.1218
 1662SOL    HW216620   0.326   3.548   1.837  1.7457  0.5233 -1.9059
 1663SOL     OW16621   1.071   0.560   8.747 -0.4033 -0.2518 -0.3074
 1663SOL    HW116622   1.117   0.587   8.668 -1.0576  1.5006 -0.0920
 1663SOL    HW216623   1.017   0.635   8.773  1.4041  0.5857  1.0527
 1664SOL     OW16624   2.482   0.748   6.736 -0.1786  0.0145  0.4449
 1664SOL    HW116625   2.554   0.719   6.792  1.0082  1.1862 -0.4794
 1664SOL    HW216626   2.415   0.727   6.801  0.0395 -2.3534 -0.0857
 1665SOL     OW16627   0.393   2.138   3.699  0.1108  0.1491 -0.5049
 1665SOL    HW116628   0.402   2.180   3.613 -0.3675 -0.1500 -0.7019
 1665SOL    HW216629   0.401   2.045   3.681 -3.3003 -0.2038 -0.2444
 1666SOL     OW16630   0.870   0.392   0.623  0.3658 -0.0298  0.0771
 1666SOL    HW116631   0.957   0.427   0.643 -0.8995  3.1373 -0.0784
 1666SOL    HW216632   0.887   0.312   0.572 -0.7808  0.2422 -0.7183
 1667SOL     OW16633   1.117   0.348   9.179  0.0191  0.6062  0.5820
 1667SOL    HW116634   1.095   0.312   9.265 -0.2471  2.6702  1.3778
 1667SOL    HW216635   1.170   0.423   9.205  0.9861 -0.4947  1.8071
 1668SOL     OW16636   0.784   2.324  16.032  0.1871  0.4336 -0.5482
 1668SOL    HW116637   0.697   2.285  16.029  0.3994 -0.2681  3.2961
 1668SOL    HW216638   0.788   2.367  15.946  0.8446  0.3367 -0.5703
 1669SOL     OW16639   2.449   0.556   3.780 -0.0762  0.3795  0.3655
 1669SOL    HW116640   2.372   0.595   3.821  0.4129 -0.5202  2.1621
 1669SOL    HW216641   2.518   0.619   3.799 -0.8267  1.4679 -0.5652
 1670SOL     OW16642   3.651   1.624   3.284  0.2798  0.4801 -0.2381
 1670SOL    HW116643   3.559   1.600   3.283  0.2324  0.6164  1.2204
 1670SOL    HW216644   3.672   1.656   3.196  1.9717  0.9358  0.3362
 1671SOL     OW16645   4.287   2.454   0.493 -0.1258 -0.6454  0.1041
 1671SOL    HW116646   4.372   2.498   0.494 -0.0592 -0.8311  3.3221
 1671SOL    HW216647   4.254   2.474   0.581  1.0445  0.4745  0.2901
 1672SOL     OW16648   0.097   1.984  16.129  0.2078 -0.4475 -0.2551
 1672SOL    HW116649   0.060   1.988  16.217 -0.7460 -1.7064 -0.5871
 1672SOL    HW216650   0.045   2.054  16.090 -0.0970 -0.0657  0.8504
 1673SOL     OW16651   3.613   1.803   6.180 -0.6428 -0.5082 -0.1146
 1673SOL    HW116652   3.659   1.737   6.232 -0.5372 -2.4930 -2.7527
 1673SOL    HW216653   3.623   1.774   6.090  0.5833  2.3378 -0.9163
 1674SOL     OW16654   0.813   1.408   4.214  0.3747 -0.2494 -0.1733
 1674SOL    HW116655   0.795   1.474   4.281 -0.1511  0.1376 -0.6964
 1674SOL    HW216656   0.904   1.386   4.232  1.1353  2.3159 -0.7772
 1675SOL     OW16657   4.037   2.447   5.178  0.5962 -0.0637  0.2570
 1675SOL    HW116658   4.090   2.393   5.119  0.2032  0.8214 -0.9029
 1675SOL    HW216659   3.956   2.444   5.127 -0.0132 -0.4899  1.2677
 1676SOL     OW16660   3.310   3.835  14.108  0.0956 -0.1525 -0.4444
 1676SOL    HW116661   3.296   3.755  14.058  0.5345  0.3326 -1.3395
 1676SOL    HW216662   3.392   3.818  14.154 -0.7343 -1.5467  0.5557
 1677SOL     OW16663   4.523   3.278   7.439  0.1257  0.2074  0.0132
 1677SOL    HW116664   4.598   3.326   7.476 -0.2240  0.7899 -0.0330
 1677SOL    HW216665   4.451   3.296   7.498 -1.2883 -3.0756 -0.7682
 1678SOL     OW16666   0.743   0.658   0.582 -0.4761 -0.1800  0.1032
 1678SOL    HW116667   0.679   0.660   0.653  0.1342  3.4856  0.5348
 1678SOL    HW216668   0.780   0.569   0.584  0.2745  0.1629  1.6474
 1679SOL     OW16669   3.916   2.542   7.995 -0.5575  0.1748  0.3280
 1679SOL    HW116670   3.849   2.541   7.927 -0.9268  0.5969  0.6834
 1679SOL    HW216671   3.859   2.540   8.072 -0.6837  0.5579  0.2404
 1680SOL     OW16672   1.121   4.317   6.990 -0.2804 -0.9326  0.2259
 1680SOL    HW116673   1.066   4.393   6.969 -0.3763 -1.5973 -1.9160
 1680SOL    HW216674   1.208   4.358   6.982 -0.4023 -0.6622  0.3019
 1681SOL     OW16675   0.285   0.264   5.698  0.1995  0.6840 -0.4373
 1681SOL    HW116676   0.237   0.325   5.755 -1.3757 -1.1880  0.2442
 1681SOL    HW216677   0.281   0.309   5.613  0.3316 -0.4910 -1.0559
 1682SOL     OW16678   2.085   2.296   6.655 -1.0722  0.4742  0.8020
 1682SOL    HW116679   2.067   2.212   6.697 -0.3676 -0.1730 -0.1994
 1682SOL    HW216680   2.137   2.268   6.580 -3.6332 -0.6957 -0.5238
 1683SOL     OW16681   4.136   1.484   6.993 -0.3252  0.4574 -0.1523
 1683SOL    HW116682   4.166   1.565   7.034  1.0744 -0.2361  0.2186
 1683SOL    HW216683   4.056   1.477   7.046 -0.6908 -3.5848 -1.2199
 1684SOL     OW16684   0.761   3.223   9.465  0.2043  0.2859 -0.0899
 1684SOL    HW116685   0.724   3.201   9.550 -1.5420  1.3746 -0.5675
 1684SOL    HW216686   0.794   3.311   9.478 -1.3040  0.5535  1.8301
 1685SOL     OW16687   2.265   1.617   2.756 -0.0086 -0.3322  0.1961
 1685SOL    HW116688   2.253   1.554   2.684  2.7921  0.1805 -0.7267
 1685SOL    HW216689   2.276   1.572   2.839  0.6526 -1.9403 -0.7513
 1686SOL     OW16690   0.407   4.546   2.140  0.0472  0.8772 -0.5819
 1686SOL    HW116691   0.433   4.459   2.172  0.6102  0.8295 -1.1564
 1686SOL    HW216692   0.336   4.530   2.077  1.0290  1.4694 -1.8388
 1687SOL     OW16693   3.977   0.364   3.850  0.2875 -0.0419  0.3486
 1687SOL    HW116694   4.061   0.409   3.841 -0.3287  1.4495  2.0439
 1687SOL    HW216695   3.999   0.282   3.806  1.2994 -0.0387  0.8679
 1688SOL     OW16696   3.830   4.319   3.689 -0.2379 -0.7827 -0.1423
 1688SOL    HW116697   3.904   4.367   3.725 -0.1022 -0.2339 -1.1520
 1688SOL    HW216698   3.757   4.359   3.737 -2.1376 -2.8593 -1.2745
 1689SOL     OW16699   1.170   0.432   1.768 -0.1144 -0.6202 -0.3983
 1689SOL    HW116700   1.253   0.429   1.722 -0.1655  0.1988 -0.5454
 1689SOL    HW216701   1.156   0.527   1.761 -2.8476 -1.1075 -1.7307
 1690SOL     OW16702   3.540   1.040   9.173 -0.4885  0.1826  0.0321
 1690SOL    HW116703   3.621   1.056   9.221 -0.4955  0.6991 -0.1303
 1690SOL    HW216704   3.471   1.065   9.235 -1.0836  1.2737 -1.0608
 1691SOL     OW16705   1.290   3.417   3.535  0.1031  0.4009  0.2524
 1691SOL    HW116706   1.275   3.427   3.441  0.3878  1.0265  0.2742
 1691SOL    HW216707   1.319   3.504   3.562 -1.1842  1.0442 -0.4564
 1692SOL     OW16708   0.109   2.000   3.762  0.2625  0.1431 -0.3369
 1692SOL    HW116709   0.049   2.045   3.821  0.8759  1.4344 -0.7179
 1692SOL    HW216710   0.193   2.039   3.786 -0.5732  1.4043  0.5112
 1693SOL     OW16711   1.210   0.625   8.511 -0.9181  0.7029  0.0403
 1693SOL    HW116712   1.232   0.703   8.459  0.5235  2.0275  2.6095
 1693SOL    HW216713   1.185   0.565   8.441  0.8397  0.4812 -0.3978
 1694SOL     OW16714   3.866   2.314   1.840 -0.3043  0.2959  0.3762
 1694SOL    HW116715   3.869   2.220   1.825 -1.6410  0.3931 -0.4877
 1694SOL    HW216716   3.855   2.340   1.748  2.4241 -1.9855 -0.6110
 1695SOL     OW16717   4.399   0.560   9.287 -0.7266  0.2696 -0.0009
 1695SOL    HW116718   4.419   0.467   9.298  0.4390  0.5149  0.0053
 1695SOL    HW216719   4.370   0.571   9.378 -1.9411  0.3582 -0.3983
 1696SOL     OW16720   1.518   4.257   9.096 -0.6789 -0.5308  0.0348
 1696SOL    HW116721   1.511   4.195   9.024 -1.0164 -0.7018  0.2117
 1696SOL    HW216722   1.432   4.296   9.080  0.5535  0.8863 -3.1017
 1697SOL     OW16723   1.783   2.073   2.297 -0.4083 -0.1594 -0.5432
 1697SOL    HW116724   1.860   2.019   2.279 -1.7902 -2.1952 -0.4882
 1697SOL    HW216725   1.777   2.131   2.221 -1.3522 -0.5328 -0.7595
 1698SOL     OW16726   2.383   2.625   7.195 -0.0146 -0.2296 -0.0259
 1698SOL    HW116727   2.365   2.556   7.258  2.4908 -0.6768  0.2014
 1698SOL    HW216728   2.353   2.699   7.247 -1.4786  0.0774 -1.2926
 1699SOL     OW16729   3.228   0.642   2.766 -0.3986 -0.1788 -0.2537
 1699SOL    HW116730   3.159   0.670   2.826 -0.8169  0.0812 -0.8693
 1699SOL    HW216731   3.211   0.693   2.687  0.0932 -0.6386 -0.6572
 1700SOL     OW16732   1.115   3.423   5.834 -0.2768  0.1670 -0.8981
 1700SOL    HW116733   1.030   3.455   5.864 -0.0206  1.1245 -1.1954
 1700SOL    HW216734   1.108   3.432   5.739 -0.6034 -1.6960 -1.0586
 1701SOL     OW16735   0.996   3.370  11.160  0.5790  0.5023 -0.2759
 1701SOL    HW116736   1.072   3.421  11.131 -1.0611  1.5988 -2.6007
 1701SOL    HW216737   0.981   3.415  11.243  0.3406 -0.5351  0.2424
 1702SOL     OW16738   2.343   4.514   8.018 -0.2557  0.1002 -0.0541
 1702SOL    HW116739   2.388   4.598   8.006  1.4917 -0.6711  1.0517
 1702SOL    HW216740   2.342   4.481   7.928  2.6533 -0.2209 -0.0007
 1703SOL     OW16741   0.118   1.860  11.625  0.5431 -0.6217  0.4155
 1703SOL    HW116742   0.097   1.842  11.534 -0.0347 -3.7510  1.1790
 1703SOL    HW216743   0.075   1.944  11.641  1.1008 -0.1205 -0.7469
 1704SOL     OW16744   3.844   4.113   3.355  0.3330  0.0991 -0.4547
 1704SOL    HW116745   3.921   4.155   3.394  0.3504  0.1812 -0.5784
 1704SOL    HW216746   3.836   4.171   3.280  0.3714 -0.2235 -0.7099
 1705SOL     OW16747   2.330   2.202   7.998 -0.3859  0.2079  0.0529
 1705SOL    HW116748   2.406   2.182   7.944  1.0128 -1.5074  2.6655
 1705SOL    HW216749   2.369   2.186   8.084  1.3614  0.5629 -0.6904
 1706SOL     OW16750   3.211   3.914   0.680 -0.4927  0.6759 -0.2548
 1706SOL    HW116751   3.125   3.956   0.676 -0.7079  0.4386  1.5608
 1706SOL    HW216752   3.268   3.990   0.669  1.7109 -0.8980  0.3767
 1707SOL     OW16753   0.032   3.826   8.851 -0.1448 -0.1267  0.3685
 1707SOL    HW116754   0.099   3.767   8.885 -0.3458  0.2749  1.4530
 1707SOL    HW216755   0.046   3.908   8.898 -0.9954 -0.2003  0.7528
 1708SOL     OW16756   3.782   2.125   0.328 -0.5368  0.4131 -0.8456
 1708SOL    HW116757   3.837   2.121   0.249  0.2970  2.5714 -0.3737
 1708SOL    HW216758   3.776   2.220   0.329  1.7064  0.5648  0.1166
 1709SOL     OW16759   4.229   0.571   4.473 -0.5235  0.1955  0.5127
 1709SOL    HW116760   4.160   0.535   4.530  1.5553  1.0682  3.5827
 1709SOL    HW216761   4.251   0.497   4.417  0.6863  1.5747 -0.8261
 1710SOL     OW16762   0.343   0.336   3.416  0.4484 -0.0727  0.3220
 1710SOL    HW116763   0.382   0.289   3.490  0.2296 -1.7660 -0.6570
 1710SOL    HW216764   0.399   0.296   3.350 -0.9260 -1.6730  0.1248
 1711SOL     OW16765   0.981   2.775   3.573  0.0601 -0.3060 -0.1180
 1711SOL    HW116766   1.070   2.742   3.575  0.5100  0.9946  1.5080
 1711SOL    HW216767   0.966   2.821   3.655 -1.8056 -0.5174 -0.3247
 1712SOL     OW16768   1.316   0.544   6.333 -0.3044  0.1255 -0.5534
 1712SOL    HW116769   1.260   0.477   6.372 -1.5448  2.3214  1.4173
 1712SOL    HW216770   1.404   0.518   6.360 -0.5887  0.5274  0.7647
 1713SOL     OW16771   4.307   3.227   2.042 -0.4014  0.1374 -0.2088
 1713SOL    HW116772   4.396   3.262   2.057 -0.0087 -0.6862 -0.6332
 1713SOL    HW216773   4.326   3.148   1.992 -1.5535 -0.5027  0.3700
 1714SOL     OW16774   0.303   0.626   8.908 -0.1583  0.2905  0.4039
 1714SOL    HW116775   0.355   0.584   8.975  0.0382  0.7250  0.5246
 1714SOL    HW216776   0.310   0.711   8.952 -1.4579  1.2210 -1.1839
 1715SOL     OW16777   2.821   2.820  17.741 -0.2064 -0.3180 -0.6358
 1715SOL    HW116778   2.775   2.755  17.688 -2.6774 -1.8476  3.4154
 1715SOL    HW216779   2.905   2.774   0.002 -0.2548 -0.5286 -1.8478
 1716SOL     OW16780   2.875   0.918   2.731 -0.0491 -0.2377  0.1309
 1716SOL    HW116781   2.784   0.891   2.718  0.4469 -0.7568 -2.3481
 1716SOL    HW216782   2.880   0.965   2.648  3.0615 -0.8269 -0.0075
 1717SOL     OW16783   1.218   2.652   8.796 -0.1637 -0.0014  0.2974
 1717SOL    HW116784   1.251   2.600   8.723  0.9203  0.4149  0.4903
 1717SOL    HW216785   1.274   2.728   8.779 -0.4335  0.0295 -0.4171
 1718SOL     OW16786   1.701   1.776   5.586  0.3763 -0.8280  0.0017
 1718SOL    HW116787   1.745   1.737   5.661  0.1920 -1.8936 -0.4355
 1718SOL    HW216788   1.608   1.751   5.595  0.8075 -3.0291 -1.5189
 1719SOL     OW16789   4.049   3.615   4.128 -0.3743  0.4053  0.1073
 1719SOL    HW116790   4.000   3.668   4.065  0.1524  1.9096  0.9757
 1719SOL    HW216791   3.980   3.563   4.169  1.7337 -0.4238  2.6242
 1720SOL     OW16792   0.140   2.175   6.125 -0.2561 -0.3034 -0.4466
 1720SOL    HW116793   0.046   2.174   6.143 -0.0487 -3.2315  0.4242
 1720SOL    HW216794   0.161   2.148   6.214 -1.4319  0.8952  0.2009
 1721SOL     OW16795   0.423   1.658  16.392  0.0805  0.8781  0.6166
 1721SOL    HW116796   0.399   1.660  16.299 -0.2594  3.0475  0.7549
 1721SOL    HW216797   0.510   1.697  16.395  1.6033 -2.3618 -1.7455
 1722SOL     OW16798   0.546   3.520  14.656  0.3296 -0.1609  0.1713
 1722SOL    HW116799   0.465   3.490  14.614 -0.1540  3.1528 -1.2741
 1722SOL    HW216800   0.526   3.497  14.747  0.2189  3.7550  1.1480
 1723SOL     OW16801   3.320   1.528   4.139 -0.2316  0.2739  0.0333
 1723SOL    HW116802   3.321   1.543   4.233 -0.1025 -0.5997  0.1731
 1723SOL    HW216803   3.305   1.433   4.142 -2.2258  0.5604 -1.1717
 1724SOL     OW16804   1.929   2.835   0.317 -0.0729 -0.9186  0.2303
 1724SOL    HW116805   1.842   2.851   0.281  0.1397  0.3761  0.2982
 1724SOL    HW216806   1.972   2.836   0.232  0.9705 -1.2442  0.7403
 1725SOL     OW16807   3.299   0.116  17.541 -0.3487 -0.2866  0.6768
 1725SOL    HW116808   3.346   0.151  17.617  0.3829 -1.9694  1.0117
 1725SOL    HW216809   3.292   0.186  17.477  2.3382  0.2869  0.9828
 1726SOL     OW16810   3.594   2.692   2.225 -0.1926 -0.3627 -0.6473
 1726SOL    HW116811   3.522   2.633   2.203 -0.1117 -1.0865  1.0145
 1726SOL    HW216812   3.637   2.662   2.305  0.0152  0.4388 -0.4601
 1727SOL     OW16813   0.437   2.949  17.241 -0.5319  0.4977 -0.2937
 1727SOL    HW116814   0.471   3.028  17.200 -1.9220  2.5139  2.3776
 1727SOL    HW216815   0.453   2.977  17.331  2.0323 -0.9009 -0.3168
 1728SOL     OW16816   3.469   1.541   6.768 -0.1046 -0.3886 -0.3335
 1728SOL    HW116817   3.456   1.529   6.862 -0.5201  1.6172 -0.1437
 1728SOL    HW216818   3.462   1.636   6.776 -2.9949 -0.4853 -2.2054
 1729SOL     OW16819   1.495   4.501   6.482  0.1070  0.4145 -0.1303
 1729SOL    HW116820   1.531   4.529   6.566 -0.8110 -1.7564  0.9733
 1729SOL    HW216821   1.402   4.499   6.501  0.0819  1.8410 -0.0708
 1730SOL     OW16822   0.014   0.202  12.148 -0.6252 -0.6098  0.2995
 1730SOL    HW116823   0.036   0.182  12.239 -0.5793 -0.3682  0.3393
 1730SOL    HW216824   0.073   0.275  12.132 -1.6175  0.2343  0.5061
 1731SOL     OW16825   0.445   2.381   7.044 -0.5043 -0.1233 -0.1290
 1731SOL    HW116826   0.518   2.335   7.086 -0.9275 -0.8904 -0.2211
 1731SOL    HW216827   0.372   2.336   7.086 -0.2035 -0.4044  0.0981
 1732SOL     OW16828   0.232   0.086   0.417  0.4533  0.3154  0.1343
 1732SOL    HW116829   0.163   0.135   0.463 -1.1003 -0.9275 -0.8744
 1732SOL    HW216830   0.280   0.166   0.396  1.3555  0.3049  2.1031
 1733SOL     OW16831   2.714   3.424   6.028 -0.0466 -0.1509  0.1708
 1733SOL    HW116832   2.766   3.433   6.107 -0.7822 -1.1845  0.7777
 1733SOL    HW216833   2.778   3.397   5.962 -0.7913 -1.2620 -0.1069
 1734SOL     OW16834   4.300   2.155   7.584  0.1308 -0.1245 -0.4603
 1734SOL    HW116835   4.308   2.240   7.626  1.2572 -0.5044  0.0708
 1734SOL    HW216836   4.304   2.180   7.492  3.2393  0.8383 -0.0526
 1735SOL     OW16837   2.598   2.405   3.778 -0.0980  0.0434  0.0161
 1735SOL    HW116838   2.594   2.309   3.776 -2.5967  0.1346  1.5361
 1735SOL    HW216839   2.691   2.421   3.763 -0.4357  0.7340 -1.2960
 1736SOL     OW16840   0.165   4.140   8.559 -0.4165  0.2658 -0.2275
 1736SOL    HW116841   0.208   4.226   8.563 -2.2964  1.3984 -4.7798
 1736SOL    HW216842   0.099   4.148   8.628 -0.6319  0.3812 -0.4510
 1737SOL     OW16843   0.070   1.702   8.104 -0.5230 -0.1392  0.2256
 1737SOL    HW116844   0.056   1.620   8.151  0.8048  0.1321  1.0795
 1737SOL    HW216845   0.068   1.661   8.017 -0.7426 -1.2058  0.7376
 1738SOL     OW16846   1.163   2.272  15.733 -0.0922 -0.2662  0.2762
 1738SOL    HW116847   1.259   2.268  15.737 -0.0749  1.4827  1.5083
 1738SOL    HW216848   1.136   2.265  15.824  0.3290 -1.5964  0.3040
 1739SOL     OW16849   1.468   1.739   8.987  0.6255  0.3675 -0.1099
 1739SOL    HW116850   1.538   1.743   8.921  1.9032 -0.3844  1.1959
 1739SOL    HW216851   1.390   1.703   8.945  0.7769  0.5579 -0.5553
 1740SOL     OW16852   0.069   0.062   4.737  0.9865  0.1280  0.4066
 1740SOL    HW116853   4.715   0.084   4.714  1.0369  0.7320  0.7905
 1740SOL    HW216854   0.105   0.089   4.652  0.5151 -0.5200  0.0013
 1741SOL     OW16855   4.589   1.951   8.527 -0.0586  0.1011 -0.1667
 1741SOL    HW116856   4.524   1.998   8.579  0.0901 -0.1761  0.2732
 1741SOL    HW216857   4.657   2.019   8.522  1.7632 -1.8280 -1.7993
 1742SOL     OW16858   2.252   0.114   2.775  0.6412  0.1943 -0.5959
 1742SOL    HW116859   2.253   0.032   2.725  1.0308 -0.9751  1.3085
 1742SOL    HW216860   2.173   0.162   2.751 -0.1872 -1.5943 -1.4189
 1743SOL     OW16861   0.516   2.894  10.810  0.0403  0.7567 -0.0686
 1743SOL    HW116862   0.590   2.885  10.751  0.3929  0.1921  0.4568
 1743SOL    HW216863   0.518   2.809  10.855 -0.1851  0.2641 -0.9869
 1744SOL     OW16864   2.468   2.852   2.736  0.0357 -0.5232  0.0711
 1744SOL    HW116865   2.409   2.780   2.757 -2.9730  1.6689 -0.8110
 1744SOL    HW216866   2.399   2.917   2.720 -0.9386 -1.2277  1.4234
 1745SOL     OW16867   3.949   3.313   8.136  0.4478 -0.2009  0.2063
 1745SOL    HW116868   3.994   3.363   8.204 -0.2829 -0.3797  0.8239
 1745SOL    HW216869   4.003   3.334   8.059  1.5837  3.1319  1.9222
 1746SOL     OW16870   3.148   1.006   1.173 -0.2871  0.1676  0.3115
 1746SOL    HW116871   3.109   1.070   1.231 -2.1104 -0.4221 -0.2784
 1746SOL    HW216872   3.238   1.004   1.208 -0.1327 -2.3737 -0.2471
 1747SOL     OW16873   0.918   2.126  16.121 -0.5232 -0.0401 -0.2295
 1747SOL    HW116874   0.871   2.106  16.202  0.6103  0.0712  0.4502
 1747SOL    HW216875   0.861   2.201  16.103 -0.4159 -0.1375 -1.0022
 1748SOL     OW16876   4.337   0.977  16.736  0.4483 -0.1190  0.0052
 1748SOL    HW116877   4.319   0.947  16.646 -1.3788  0.7468  0.0858
 1748SOL    HW216878   4.419   0.930  16.750  1.0617  1.0620  0.3714
 1749SOL     OW16879   3.733   4.447   8.040 -0.1351  0.0797  0.6264
 1749SOL    HW116880   3.659   4.428   8.098  0.5598 -1.8247  0.8967
 1749SOL    HW216881   3.792   4.379   8.073  2.5902  0.9370 -2.4965
 1750SOL     OW16882   3.776   4.522  11.898 -0.2173 -0.1851  0.6926
 1750SOL    HW116883   3.823   4.453  11.852 -2.0425 -0.5150 -0.6762
 1750SOL    HW216884   3.686   4.518  11.866 -0.2249 -0.5491  0.7667
 1751SOL     OW16885   1.854   0.225   5.535 -0.3524 -0.0366  0.2363
 1751SOL    HW116886   1.873   0.199   5.625 -1.1298 -0.1820  0.3605
 1751SOL    HW216887   1.939   0.259   5.506 -1.6316  1.3566 -1.8650
 1752SOL     OW16888   2.821   0.744   8.163 -0.1171 -0.4411  0.0007
 1752SOL    HW116889   2.872   0.684   8.109 -1.2008 -0.5475 -0.8930
 1752SOL    HW216890   2.771   0.685   8.220  1.0260 -1.1108  0.3188
 1753SOL     OW16891   4.669   0.741   3.127  0.0493 -0.4816  0.5211
 1753SOL    HW116892   4.574   0.753   3.119  0.1061 -1.1363 -1.2874
 1753SOL    HW216893   4.694   0.819   3.077 -1.3267 -1.3051 -1.4982
 1754SOL     OW16894   3.082   1.696   2.701 -0.5527 -0.2254  0.8289
 1754SOL    HW116895   3.028   1.738   2.767  1.7153  2.3787  1.0081
 1754SOL    HW216896   3.029   1.621   2.674  0.0543  0.7806 -3.2192
 1755SOL     OW16897   0.408   4.552  16.358 -0.3054 -0.0360 -0.5776
 1755SOL    HW116898   0.449   4.477  16.315  0.5343 -0.9788  1.9115
 1755SOL    HW216899   0.398   4.505  16.441 -0.4401 -2.8466 -2.1499
 1756SOL     OW16900   1.521   2.877   1.470  0.1337 -0.2426  0.0679
 1756SOL    HW116901   1.530   2.784   1.489 -1.7809 -0.5501 -0.5550
 1756SOL    HW216902   1.430   2.899   1.488 -0.0967 -0.6869 -0.5678
 1757SOL     OW16903   4.116   0.300   5.214  0.0985 -0.3472  0.4598
 1757SOL    HW116904   4.074   0.226   5.258 -0.5196 -0.2434  0.0459
 1757SOL    HW216905   4.202   0.261   5.195  0.0144 -0.8038  1.0416
 1758SOL     OW16906   4.224   1.668   5.379  0.0145 -0.5529  0.1877
 1758SOL    HW116907   4.270   1.589   5.351  0.0057 -0.1642 -0.9639
 1758SOL    HW216908   4.279   1.744   5.358 -0.6525 -0.3575 -0.8825
 1759SOL     OW16909   3.521   3.028   1.407 -0.3402 -0.4231  0.1227
 1759SOL    HW116910   3.561   3.080   1.338 -0.1534  0.1474  0.6564
 1759SOL    HW216911   3.594   3.028   1.470 -0.7724 -1.0191  0.6207
 1760SOL     OW16912   3.023   3.248   4.230 -0.4961  0.3828 -0.2027
 1760SOL    HW116913   2.930   3.239   4.252 -0.6975  0.7273 -0.9430
 1760SOL    HW216914   3.054   3.279   4.315  1.0039  0.8725 -0.9276
 1761SOL     OW16915   0.674   1.175   4.663 -0.4539  0.4718 -0.2980
 1761SOL    HW116916   0.743   1.122   4.622  1.7374  1.9009  1.5692
 1761SOL    HW216917   0.604   1.123   4.623 -1.0914 -0.0306  1.4964
 1762SOL     OW16918   3.230   3.823   8.380 -0.3130 -0.4163  0.0925
 1762SOL    HW116919   3.323   3.845   8.382 -0.4223  0.1273 -0.8050
 1762SOL    HW216920   3.220   3.763   8.454  0.5623  0.7054  1.1133
 1763SOL     OW16921   2.033   4.376   8.676 -0.0533 -0.1219  0.4161
 1763SOL    HW116922   1.954   4.429   8.679 -0.7320 -1.3321  4.2070
 1763SOL    HW216923   2.002   4.286   8.689  1.2951 -0.3950  1.8346
 1764SOL     OW16924   1.908   0.697   0.024  0.4802 -0.0552  0.1265
 1764SOL    HW116925   1.818   0.686  17.738  0.3934 -2.5875  1.3826
 1764SOL    HW216926   1.956   0.708  17.684 -1.6340  3.6225 -0.6165
 1765SOL     OW16927   0.702   1.031  14.385  0.1470 -0.0861  0.4428
 1765SOL    HW116928   0.644   1.045  14.310  1.9869 -0.5153 -1.0570
 1765SOL    HW216929   0.714   1.117  14.426  0.9755 -0.5308  1.1252
 1766SOL     OW16930   2.226   0.159  17.561  0.0316  0.5238  0.3295
 1766SOL    HW116931   2.319   0.152  17.539 -0.5205 -2.1645 -1.0198
 1766SOL    HW216932   2.189   0.093  17.503  0.8272 -0.5591  1.0574
 1767SOL     OW16933   3.990   0.797  14.522  0.3035 -0.1190 -0.2938
 1767SOL    HW116934   4.068   0.752  14.489  2.3331  1.9994  1.6444
 1767SOL    HW216935   3.991   0.881  14.475  3.5366 -0.5727 -1.0552
 1768SOL     OW16936   1.218   0.981   8.685  0.2470  0.4042  0.0690
 1768SOL    HW116937   1.272   1.060   8.687 -1.1144  1.3449 -0.0059
 1768SOL    HW216938   1.269   0.920   8.633  0.8553 -0.4845  1.6997
 1769SOL     OW16939   0.228   0.522   2.723 -0.0504 -0.0860  0.4360
 1769SOL    HW116940   0.140   0.491   2.703  0.6761 -2.6802  1.2785
 1769SOL    HW216941   0.217   0.605   2.769 -3.0638 -0.4205  0.3190
 1770SOL     OW16942   4.160   2.578   2.711  0.1452 -0.3444 -0.0226
 1770SOL    HW116943   4.223   2.528   2.660  0.0692 -0.3654 -0.0952
 1770SOL    HW216944   4.144   2.653   2.655  0.2633  0.6986  1.3578
 1771SOL     OW16945   0.599   3.182  17.186  0.1591 -0.1818 -0.1231
 1771SOL    HW116946   0.681   3.133  17.191  1.1078  1.4898  0.9169
 1771SOL    HW216947   0.615   3.238  17.110 -0.8586 -0.4968 -0.5781
 1772SOL     OW16948   3.951   2.909  14.008  0.1197  0.0943  0.3808
 1772SOL    HW116949   4.016   2.909  13.938 -2.1468 -0.7526 -1.7437
 1772SOL    HW216950   3.948   2.815  14.022 -1.4537  0.0509 -0.2004
 1773SOL     OW16951   4.378   0.574  11.135  0.4234 -0.2571  0.3844
 1773SOL    HW116952   4.415   0.499  11.182  1.5035  1.0860  1.6737
 1773SOL    HW216953   4.414   0.644  11.190  2.1983  0.5984 -1.8758
 1774SOL     OW16954   3.902   0.005   2.796 -0.1144 -0.5067  0.8470
 1774SOL    HW116955   3.958   4.716   2.723 -1.4580  0.1936 -0.4110
 1774SOL    HW216956   3.861   0.082   2.757 -2.0274 -1.0060  1.8824
 1775SOL     OW16957   1.481   3.914   4.075 -0.4101 -0.3804  0.7891
 1775SOL    HW116958   1.488   3.922   3.980  2.7925 -1.9641  0.8675
 1775SOL    HW216959   1.401   3.962   4.096  1.7804  4.1391 -1.1528
 1776SOL     OW16960   0.579   3.750   4.545 -0.5309 -0.0914 -0.2843
 1776SOL    HW116961   0.623   3.789   4.621  0.3659  0.2043 -0.9699
 1776SOL    HW216962   0.558   3.829   4.496  1.1344 -0.6060 -1.7893
 1777SOL     OW16963   3.010   4.722   9.039 -0.1875 -0.2508 -0.0633
 1777SOL    HW116964   2.993   0.037   8.960  2.4733 -0.2852 -0.6501
 1777SOL    HW216965   2.932   0.010   9.089  0.4577  2.4495 -0.3877
 1778SOL     OW16966   2.216   3.023   9.436  0.0627 -0.1786  0.3998
 1778SOL    HW116967   2.260   2.945   9.400 -0.5071 -0.0909 -0.4935
 1778SOL    HW216968   2.203   2.988   9.523 -2.2346 -0.4245 -0.0616
 1779SOL     OW16969   2.318   0.814   7.545  0.3154 -0.0372  0.3735
 1779SOL    HW116970   2.364   0.782   7.622 -1.6385 -0.8638  1.1925
 1779SOL    HW216971   2.227   0.800   7.572 -0.1426 -0.5916 -1.3907
 1780SOL     OW16972   3.712   3.537   8.660  0.6575  0.8259 -0.0495
 1780SOL    HW116973   3.721   3.551   8.754 -1.1474 -2.8218  0.6735
 1780SOL    HW216974   3.724   3.630   8.639  0.0053  1.0833  0.7256
 1781SOL     OW16975   3.746   1.697  16.654 -0.2908  0.4867  0.1222
 1781SOL    HW116976   3.768   1.707  16.561  1.2625  1.9509  0.6766
 1781SOL    HW216977   3.827   1.697  16.703  0.7643 -1.4125 -1.5922
 1782SOL     OW16978   3.436   1.515   5.408  0.6979  0.1528  0.5902
 1782SOL    HW116979   3.503   1.583   5.415 -0.2054  1.2239 -1.2590
 1782SOL    HW216980   3.466   1.481   5.493 -2.4384  0.0287  1.6394
 1783SOL     OW16981   2.122   0.064   6.823 -0.3318  0.4293  0.2492
 1783SOL    HW116982   2.191   0.060   6.757  0.3635 -2.5459  1.1605
 1783SOL    HW216983   2.040   0.048   6.776 -1.5153 -1.6950  3.0687
 1784SOL     OW16984   0.067   0.236   7.370 -0.8301  0.1224 -0.0512
 1784SOL    HW116985   0.014   0.308   7.336  1.7497  1.3814 -1.3158
 1784SOL    HW216986   0.136   0.287   7.411 -1.3651  0.3434  0.5796
 1785SOL     OW16987   4.018   3.670  11.514  0.1142  0.3097 -0.3312
 1785SOL    HW116988   4.021   3.766  11.509 -0.3470  0.3254 -0.3348
 1785SOL    HW216989   4.008   3.660  11.419  0.5113  2.2660 -0.5924
 1786SOL     OW16990   4.304   2.613   5.497  0.4791  0.2193 -0.5096
 1786SOL    HW116991   4.294   2.519   5.511 -1.0601  0.8115  2.5660
 1786SOL    HW216992   4.376   2.634   5.557 -2.2453  1.0567  2.4792
 1787SOL     OW16993   2.033   1.529   9.044  0.3379 -0.6066 -0.0293
 1787SOL    HW116994   2.089   1.584   9.099 -1.2183  1.9266 -0.9644
 1787SOL    HW216995   2.069   1.443   9.063 -0.9542 -0.5368  2.7227
 1788SOL     OW16996   4.430   0.356   8.227 -0.3412  0.1785 -0.7598
 1788SOL    HW116997   4.387   0.288   8.278 -0.8992  1.3949  0.3689
 1788SOL    HW216998   4.482   0.311   8.160  1.1389 -0.7538  1.0355
 1789SOL     OW16999   1.045   2.997   3.776  0.0243  0.0074  0.2263
 1789SOL    HW117000   1.085   3.081   3.755  0.6491 -0.7205 -1.5781
 1789SOL    HW217001   0.952   3.013   3.792  0.9223  2.8670  2.4837
 1790SOL     OW17002   4.367   1.894   5.843 -0.0200  0.0739 -0.2609
 1790SOL    HW117003   4.448   1.869   5.798  0.1219  2.3371 -1.2750
 1790SOL    HW217004   4.399   1.952   5.912 -1.0648  2.3920 -1.7371
 1791SOL     OW17005   4.538   3.604   2.361 -0.0745  0.4873  0.1870
 1791SOL    HW117006   4.462   3.635   2.311 -1.2693 -0.2465  1.5631
 1791SOL    HW217007   4.522   3.654   2.441  0.2558  1.8891 -0.6211
 1792SOL     OW17008   1.174   0.149   3.421 -0.1337  0.2532  0.2403
 1792SOL    HW117009   1.095   0.096   3.404 -0.9557  1.2995  0.8368
 1792SOL    HW217010   1.229   0.101   3.482  0.2460 -1.4130 -1.4222
 1793SOL     OW17011   0.393   2.528   7.934  0.2711 -0.0118  0.3882
 1793SOL    HW117012   0.422   2.569   8.015  0.3808  0.2152  0.2345
 1793SOL    HW217013   0.360   2.601   7.881  0.2442  0.4966  1.1102
 1794SOL     OW17014   4.159   1.494   0.693  0.0667 -0.0900 -0.5823
 1794SOL    HW117015   4.143   1.505   0.600  0.9599  0.9023 -0.6153
 1794SOL    HW217016   4.255   1.494   0.695  0.0493  0.5588  0.1054
 1795SOL     OW17017   0.424   2.530   6.533  0.2781 -0.0362  0.3194
 1795SOL    HW117018   0.451   2.539   6.624  0.4464 -0.2896  0.2950
 1795SOL    HW217019   0.483   2.591   6.488 -0.2665 -1.0444 -1.7908
 1796SOL     OW17020   2.993   3.274   0.252  0.0962  0.5479  0.4167
 1796SOL    HW117021   3.004   3.345   0.189  0.5258  0.6120  0.5648
 1796SOL    HW217022   2.913   3.301   0.297 -0.4166 -0.2063 -0.0293
 1797SOL     OW17023   3.229   2.931   2.143  0.4711  0.3666 -0.0924
 1797SOL    HW117024   3.168   2.880   2.196 -1.4653 -1.2079 -3.8581
 1797SOL    HW217025   3.200   2.897   2.058 -0.1721  0.7411 -0.0210
 1798SOL     OW17026   3.201   3.548   5.906 -0.3484  0.3937 -0.5462
 1798SOL    HW117027   3.296   3.536   5.896 -0.8277 -4.0011  0.1103
 1798SOL    HW217028   3.176   3.464   5.943  0.4050  1.1364  1.6253
 1799SOL     OW17029   1.049   1.614  11.796 -0.3112  0.1607  0.4360
 1799SOL    HW117030   0.980   1.646  11.738  0.8699  0.3171 -0.8938
 1799SOL    HW217031   1.063   1.695  11.845 -0.2637  0.8939 -0.7726
 1800SOL     OW17032   3.241   3.461  11.378 -0.0576 -0.3668 -0.6166
 1800SOL    HW117033   3.187   3.499  11.448 -0.1501 -0.1082 -0.8285
 1800SOL    HW217034   3.321   3.428  11.418  0.2577  2.1229  0.8253
 1801SOL     OW17035   2.950   3.008   0.290  0.1376  0.0984 -0.2158
 1801SOL    HW117036   2.946   3.103   0.289 -2.5705 -0.0190 -0.2217
 1801SOL    HW217037   3.014   2.996   0.219  2.0092  1.2420  1.2794
 1802SOL     OW17038   4.296   1.258   7.810 -0.1360 -0.0518 -0.7917
 1802SOL    HW117039   4.358   1.231   7.742  0.4446 -0.0652 -0.2646
 1802SOL    HW217040   4.348   1.274   7.889  1.0899  2.0398 -2.0207
 1803SOL     OW17041   3.968   3.300   1.615  0.0663 -0.3430  0.2469
 1803SOL    HW117042   4.055   3.289   1.654  1.3852  0.6850 -2.4660
 1803SOL    HW217043   3.932   3.352   1.687  1.5413 -0.3846  1.0230
 1804SOL     OW17044   4.387   4.715  11.703 -0.5337 -0.2322 -0.2702
 1804SOL    HW117045   4.339   4.671  11.774  1.3753 -0.6305  0.7736
 1804SOL    HW217046   4.477   4.685  11.719 -0.3340  1.3715  1.6974
 1805SOL     OW17047   0.635   4.122   3.284  1.0911  0.0398  0.0006
 1805SOL    HW117048   0.660   4.042   3.238 -0.6460 -1.1465  1.1374
 1805SOL    HW217049   0.610   4.173   3.207 -4.4980 -0.8462  1.2762
 1806SOL     OW17050   2.260   3.660   0.830 -0.3563  0.1375 -0.6250
 1806SOL    HW117051   2.298   3.578   0.862 -1.7938 -0.1968  0.2591
 1806SOL    HW217052   2.307   3.729   0.876 -0.2995  0.3247 -0.9673
 1807SOL     OW17053   2.913   0.560  17.467 -0.3098 -0.5861  0.4215
 1807SOL    HW117054   2.844   0.562  17.534 -0.5168  2.3027  0.1210
 1807SOL    HW217055   2.938   0.468  17.476  0.2010 -0.4492  0.3747
 1808SOL     OW17056   0.784   2.335   6.494  0.4645  0.4743  0.3255
 1808SOL    HW117057   0.865   2.295   6.525  0.2227 -1.7662 -1.9751
 1808SOL    HW217058   0.713   2.272   6.489 -1.2605  2.6181 -1.9608
 1809SOL     OW17059   4.539   3.059   5.483 -0.1682  0.6694 -0.5070
 1809SOL    HW117060   4.514   3.103   5.401  0.3764  0.9817 -0.5109
 1809SOL    HW217061   4.581   3.136   5.521 -0.3569 -0.0523  1.1421
 1810SOL     OW17062   4.163   2.465   9.406  0.9171  0.0057 -0.8337
 1810SOL    HW117063   4.092   2.412   9.371 -1.2556  2.0055  0.5285
 1810SOL    HW217064   4.170   2.446   9.500  2.2651 -1.3498 -1.1989
 1811SOL     OW17065   3.818   2.172  10.087  0.2575 -0.0714  0.3227
 1811SOL    HW117066   3.883   2.158  10.018 -0.8686  0.6267 -0.8900
 1811SOL    HW217067   3.859   2.141  10.168  0.6632 -1.0338 -0.2614
 1812SOL     OW17068   2.931   0.234   6.127  0.1392 -0.0261  0.0233
 1812SOL    HW117069   2.881   0.309   6.093 -0.6530 -0.0147  1.2311
 1812SOL    HW217070   2.874   0.218   6.202 -1.1099  0.9057 -0.7163
 1813SOL     OW17071   3.388   0.184   8.230  0.3174 -0.1105 -0.0346
 1813SOL    HW117072   3.344   0.102   8.248 -0.8086  0.1996 -1.3809
 1813SOL    HW217073   3.355   0.220   8.312  1.8624 -1.0946  1.0230
 1814SOL     OW17074   2.011   2.845   5.947 -0.3912  0.2807 -0.7394
 1814SOL    HW117075   1.928   2.890   5.930 -0.5118  0.7680  1.1037
 1814SOL    HW217076   2.033   2.829   5.856 -0.3055 -0.9352 -0.5029
 1815SOL     OW17077   4.174   3.331   9.056  0.6973 -0.2213  0.3870
 1815SOL    HW117078   4.143   3.410   9.011  1.2041 -1.0782 -1.4785
 1815SOL    HW217079   4.110   3.270   9.020  0.0777  0.7467 -0.1660
 1816SOL     OW17080   1.958   0.129   7.456 -0.0394 -0.2644  0.1107
 1816SOL    HW117081   1.909   0.151   7.377  0.9318  1.5506  0.0020
 1816SOL    HW217082   1.887   0.114   7.518  0.1971  0.6234  0.5965
 1817SOL     OW17083   2.661   0.053   6.198 -0.4543  0.0591  0.3375
 1817SOL    HW117084   2.599   0.108   6.150 -0.7828  0.7157  1.5150
 1817SOL    HW217085   2.673   0.087   6.287  2.2245 -0.6297  0.2470
 1818SOL     OW17086   4.502   2.059  11.065  0.3282  0.1431  0.2141
 1818SOL    HW117087   4.413   2.093  11.077  0.5245  0.9754 -0.8080
 1818SOL    HW217088   4.485   1.968  11.092  0.8708  0.7730  2.7346
 1819SOL     OW17089   4.469   4.476   9.627  0.3501 -0.1452  0.4081
 1819SOL    HW117090   4.524   4.403   9.598  1.5456  0.2174  1.7563
 1819SOL    HW217091   4.531   4.511   9.691  1.7123  1.5293 -1.8061
 1820SOL     OW17092   4.197   3.036   8.789 -0.2773  0.3381  0.1319
 1820SOL    HW117093   4.157   2.967   8.841 -0.5891 -0.5966 -1.3306
 1820SOL    HW217094   4.292   3.026   8.797 -0.0705  2.7433  0.7389
 1821SOL     OW17095   2.532   1.073  14.491 -0.1673 -0.9055 -0.4191
 1821SOL    HW117096   2.601   1.084  14.426  0.7713  0.3968  0.8001
 1821SOL    HW217097   2.510   1.166  14.492 -0.8923 -1.0958  1.8553
 1822SOL     OW17098   0.940   0.272   8.058 -0.6329 -0.1928 -0.8008
 1822SOL    HW117099   0.890   0.326   7.996 -0.7106 -0.8858 -1.3521
 1822SOL    HW217100   1.033   0.288   8.043 -0.7176  1.3259  0.2540
 1823SOL     OW17101   2.696   0.898   5.734 -0.3257  0.4794  0.1470
 1823SOL    HW117102   2.756   0.829   5.761 -2.6195 -2.3759 -2.0242
 1823SOL    HW217103   2.634   0.896   5.807  0.8459  0.1225  1.1431
 1824SOL     OW17104   1.841   1.381   4.449  0.2232  0.4951  0.3840
 1824SOL    HW117105   1.790   1.386   4.368  1.2734  0.6947 -0.2570
 1824SOL    HW217106   1.930   1.402   4.423  0.4871  0.5871  1.3725
 1825SOL     OW17107   1.938   1.926   1.296  0.0958  0.1375 -0.3956
 1825SOL    HW117108   1.979   1.840   1.301  2.1358  1.1577  0.4387
 1825SOL    HW217109   1.850   1.906   1.327  0.8554 -1.7003  0.5450
 1826SOL     OW17110   1.454   2.597   7.197 -0.2224 -0.3901 -0.0412
 1826SOL    HW117111   1.511   2.659   7.243 -0.9854  0.6793 -0.5478
 1826SOL    HW217112   1.524   2.539   7.167  0.9886  1.8843 -1.6256
 1827SOL     OW17113   2.707   0.570  17.679 -0.0142 -0.9181  0.0505
 1827SOL    HW117114   2.719   0.558   0.030  0.0831  0.8016  0.2618
 1827SOL    HW217115   2.667   0.656  17.669  1.3786 -0.4323 -1.4502
 1828SOL     OW17116   4.688   4.680   2.866  0.0995  0.2434 -1.0983
 1828SOL    HW117117   4.687   4.667   2.961 -0.6548  0.9667 -1.0083
 1828SOL    HW217118   4.722   0.034   2.862  0.1346  0.2304 -1.0965
 1829SOL     OW17119   0.823   4.000   4.160  0.2555 -0.5084 -0.3394
 1829SOL    HW117120   0.919   4.004   4.158  0.1489  2.0583  0.6219
 1829SOL    HW217121   0.801   4.055   4.235 -0.0722  0.8347 -1.4299
 1830SOL     OW17122   0.058   1.015   8.482  0.3757 -0.2676 -0.5085
 1830SOL    HW117123   0.084   0.930   8.516 -2.4820  0.6391  3.9484
 1830SOL    HW217124   0.034   1.057   8.565  0.2499 -0.1832 -0.5883
 1831SOL     OW17125   4.335   0.538   4.034 -0.0176  0.0052 -0.2229
 1831SOL    HW117126   4.277   0.507   3.965  0.6923 -0.3089 -0.6760
 1831SOL    HW217127   4.342   0.459   4.087 -1.2682  0.4542  0.6079
 1832SOL     OW17128   1.697   2.311   9.606 -0.0064  0.1279 -0.6249
 1832SOL    HW117129   1.605   2.284   9.614 -0.5770  2.5031  0.8830
 1832SOL    HW217130   1.693   2.406   9.613 -2.2987 -0.0406  0.3165
 1833SOL     OW17131   4.718   4.303   9.334 -0.0031  0.0117  0.2001
 1833SOL    HW117132   4.691   4.287   9.425  0.5168 -2.3513 -0.0851
 1833SOL    HW217133   0.046   4.233   9.323  0.6342  0.4374  1.1641
 1834SOL     OW17134   3.356   1.068   3.594 -0.1068  0.1316 -0.4195
 1834SOL    HW117135   3.445   1.094   3.617 -0.4876  2.8384 -2.0399
 1834SOL    HW217136   3.362   1.068   3.498 -0.1585 -0.2338 -0.4237
 1835SOL     OW17137   2.526   2.553   9.854 -0.3859  0.6431  0.1483
 1835SOL    HW117138   2.574   2.587   9.929  0.7623 -0.8098  0.0738
 1835SOL    HW217139   2.433   2.555   9.876 -0.6501  1.6050 -1.0350
 1836SOL     OW17140   2.898   1.028  17.270 -0.5260 -0.1983  0.0460
 1836SOL    HW117141   2.924   0.976  17.346 -0.6407  1.0149  0.9145
 1836SOL    HW217142   2.871   0.961  17.207 -1.1740 -1.5281  1.7347
 1837SOL     OW17143   2.145   1.748   5.731 -0.0182  0.4749  0.3480
 1837SOL    HW117144   2.114   1.672   5.683  0.9615  1.6141 -2.0818
 1837SOL    HW217145   2.154   1.702   5.814  1.7364 -1.6428 -1.0318
 1838SOL     OW17146   3.876   0.921   6.718  0.1615  1.1400 -0.1033
 1838SOL    HW117147   3.971   0.916   6.718  0.1829  1.5398  0.5959
 1838SOL    HW217148   3.861   0.859   6.790 -0.5719  2.5801  1.0068
 1839SOL     OW17149   0.360   1.494   1.859  0.7639 -0.7449  0.2729
 1839SOL    HW117150   0.387   1.585   1.844  0.6853 -0.7796 -0.0726
 1839SOL    HW217151   0.443   1.450   1.877  0.3159 -0.8721  1.9856
 1840SOL     OW17152   0.807   4.630   2.935  0.3199 -0.6929  0.7827
 1840SOL    HW117153   0.804   4.725   2.940  0.2602 -0.6042 -1.0481
 1840SOL    HW217154   0.746   4.609   2.865  1.8714  1.9332 -1.3318
 1841SOL     OW17155   2.469   1.596  16.942  0.3047 -0.5188 -1.0363
 1841SOL    HW117156   2.404   1.546  16.991  0.7987 -0.8230 -0.6944
 1841SOL    HW217157   2.455   1.572  16.851 -0.4652 -1.5355 -0.6490
 1842SOL     OW17158   4.679   4.607  12.114  0.3448 -0.2333 -0.6174
 1842SOL    HW117159   0.022   4.626  12.064 -0.8807  1.4524 -1.8936
 1842SOL    HW217160   4.662   4.693  12.154 -1.0093 -0.0153 -1.6551
 1843SOL     OW17161   2.800   2.955   7.452 -0.0048  0.4442 -0.2239
 1843SOL    HW117162   2.777   2.864   7.433  0.4125  0.2998 -0.0098
 1843SOL    HW217163   2.859   2.944   7.526 -0.4745  0.6094  0.1725
 1844SOL     OW17164   2.993   3.539   6.690 -0.1901  0.2436 -0.0104
 1844SOL    HW117165   2.898   3.533   6.686 -0.3535  1.8646  1.4552
 1844SOL    HW217166   3.025   3.450   6.675  0.1392  0.8042 -2.5544
 1845SOL     OW17167   3.571   2.711   9.260 -0.1063  0.2565 -0.1989
 1845SOL    HW117168   3.537   2.661   9.185 -1.6292  0.8282  0.1143
 1845SOL    HW217169   3.518   2.661   9.322 -1.3891  2.1400  0.2090
 1846SOL     OW17170   0.784   4.392   1.771  0.3259 -0.3117 -0.2564
 1846SOL    HW117171   0.812   4.451   1.841  2.6981 -0.8203 -0.7547
 1846SOL    HW217172   0.710   4.348   1.812 -0.4249 -0.1482 -1.4343
 1847SOL     OW17173   1.367   1.100   6.781 -0.0869 -0.3014  0.1350
 1847SOL    HW117174   1.447   1.059   6.812 -0.1105 -0.0941  0.4654
 1847SOL    HW217175   1.347   1.045   6.706 -2.3456  0.2544  0.3083
 1848SOL     OW17176   4.709   0.682   8.571 -0.3742  0.5737 -0.0144
 1848SOL    HW117177   4.723   0.721   8.658 -0.8054 -0.9105  0.7265
 1848SOL    HW217178   4.615   0.664   8.563  0.1587 -1.2073 -2.2059
 1849SOL     OW17179   0.447   4.140  14.549 -0.0877  0.0314  0.2550
 1849SOL    HW117180   0.486   4.055  14.570  3.5164  1.8105  0.8708
 1849SOL    HW217181   0.456   4.143  14.453  1.0427  1.3476  0.4092
 1850SOL     OW17182   2.147   2.693   9.086 -0.3134  0.0744 -0.1590
 1850SOL    HW117183   2.234   2.669   9.053  0.7537  2.3603  0.9905
 1850SOL    HW217184   2.099   2.613   9.066  0.1765  0.4342 -2.7779
 1851SOL     OW17185   4.665   4.184  11.608  0.3790 -0.0712 -0.0927
 1851SOL    HW117186   4.574   4.196  11.637  0.3972  1.2675 -0.6047
 1851SOL    HW217187   4.705   4.205  11.693 -1.4788 -1.8178  1.2201
 1852SOL     OW17188   2.342   2.643   5.068  0.4706  0.0719  0.3146
 1852SOL    HW117189   2.249   2.620   5.062  0.3748  0.3310  0.7174
 1852SOL    HW217190   2.371   2.604   5.150 -0.2571 -0.6202  0.2416
 1853SOL     OW17191   2.530   1.641   1.557 -0.6352  0.4687  0.7750
 1853SOL    HW117192   2.480   1.716   1.523  2.1616  0.7605 -2.5827
 1853SOL    HW217193   2.499   1.635   1.648  0.7573 -2.6945  1.0065
 1854SOL     OW17194   1.776   2.283   7.006 -0.4791 -0.7112  0.1115
 1854SOL    HW117195   1.770   2.368   7.050  2.1587 -0.5848  0.2408
 1854SOL    HW217196   1.712   2.229   7.052 -0.1794  0.3554  1.7512
 1855SOL     OW17197   3.100   2.612  10.403 -0.4613 -0.6225  0.4203
 1855SOL    HW117198   3.147   2.597  10.486 -1.1104  0.8930  1.0654
 1855SOL    HW217199   3.122   2.533  10.354 -0.4510  0.2221 -0.9213
 1856SOL     OW17200   3.999   3.698   3.478 -0.0724  0.1378 -0.1696
 1856SOL    HW117201   3.988   3.695   3.383 -1.7102  0.6894  0.0076
 1856SOL    HW217202   4.071   3.761   3.480 -0.0413  0.1067 -0.3372
 1857SOL     OW17203   3.724   3.671   9.790 -0.1928  0.2818 -0.0967
 1857SOL    HW117204   3.754   3.580   9.784 -1.7511 -0.2018 -0.4870
 1857SOL    HW217205   3.757   3.716   9.713  0.6550 -0.1377  0.0194
 1858SOL     OW17206   0.317   1.975   6.855  0.4896  0.5270  0.1802
 1858SOL    HW117207   0.290   2.067   6.861  1.6174  0.7809  1.2503
 1858SOL    HW217208   0.412   1.975   6.862  0.6697 -1.6788 -2.2676
 1859SOL     OW17209   4.691   0.767   7.829  0.2061  0.4103  0.0908
 1859SOL    HW117210   0.038   0.736   7.793 -0.8801  0.3868 -2.3447
 1859SOL    HW217211   4.677   0.693   7.888  2.2448 -0.3810 -0.4219
 1860SOL     OW17212   2.098   3.261  16.444 -0.3017  0.3324 -0.1426
 1860SOL    HW117213   2.132   3.332  16.498  0.8237  0.9110 -1.6008
 1860SOL    HW217214   2.178   3.235  16.399 -1.5897 -3.6157 -0.1174
 1861SOL     OW17215   2.509   2.594   5.310  0.3963  0.4166 -0.4991
 1861SOL    HW117216   2.466   2.680   5.312 -2.6593 -1.1491  0.0116
 1861SOL    HW217217   2.518   2.565   5.400 -1.0117  0.4622 -0.3443
 1862SOL     OW17218   4.302   0.826  17.318 -0.2303  0.2228  0.2392
 1862SOL    HW117219   4.394   0.841  17.342 -0.4354  1.7583  0.0823
 1862SOL    HW217220   4.263   0.802  17.402 -1.2867 -3.4800 -1.3181
 1863SOL     OW17221   3.643   3.075   6.842 -0.1060  0.0875 -0.8255
 1863SOL    HW117222   3.707   3.008   6.815 -0.8317 -0.7579 -0.4433
 1863SOL    HW217223   3.561   3.026   6.840  0.5042 -0.9803 -0.0880
 1864SOL     OW17224   3.193   1.607   9.168  0.2324  0.1778  0.4463
 1864SOL    HW117225   3.284   1.594   9.192  0.6329  3.1552  0.4883
 1864SOL    HW217226   3.189   1.558   9.086  3.3826 -0.2309  0.5548
 1865SOL     OW17227   3.848   2.057   0.065  0.1248  0.4162  0.4419
 1865SOL    HW117228   3.793   2.037  17.732  2.2055 -0.9041 -0.7261
 1865SOL    HW217229   3.877   2.142   0.033  2.2893 -0.4119  0.2657
 1866SOL     OW17230   0.261   1.373   8.131 -0.0404  0.1195  0.0378
 1866SOL    HW117231   0.168   1.354   8.147 -0.0469  1.7608  1.9425
 1866SOL    HW217232   0.282   1.300   8.074 -0.5206 -1.1808  1.5283
 1867SOL     OW17233   3.620   2.243  16.606  0.5222 -0.0003 -0.2032
 1867SOL    HW117234   3.708   2.206  16.614  0.7789  0.2555 -1.9840
 1867SOL    HW217235   3.578   2.157  16.612 -0.1356  0.3744  0.5573
 1868SOL     OW17236   1.051   1.345  17.062 -0.5596 -0.1074 -0.0436
 1868SOL    HW117237   1.058   1.264  17.012 -0.1800  0.0187 -0.1925
 1868SOL    HW217238   0.980   1.305  17.112  0.7338 -2.3970 -0.0442
 1869SOL     OW17239   0.964   0.136   4.056  0.4232 -0.7204  0.0133
 1869SOL    HW117240   1.031   0.185   4.104  0.1900 -0.7008  0.3130
 1869SOL    HW217241   0.916   0.205   4.009  2.5381  0.3455 -0.6171
 1870SOL     OW17242   0.976   3.147   5.272  0.2736  0.0742  0.0420
 1870SOL    HW117243   0.921   3.170   5.346 -1.7151 -5.0046  0.1553
 1870SOL    HW217244   0.922   3.097   5.211  3.3748 -3.3371  0.0556
 1871SOL     OW17245   1.569   2.487   6.428  0.5440  0.0083  0.7685
 1871SOL    HW117246   1.578   2.445   6.342 -0.6834 -1.2338  1.2497
 1871SOL    HW217247   1.643   2.449   6.475  1.8935 -2.8125 -3.6491
 1872SOL     OW17248   0.056   3.843   0.528  0.4971  0.3993  0.2411
 1872SOL    HW117249   4.732   3.915   0.511  1.4983  0.8581 -1.3198
 1872SOL    HW217250   0.106   3.828   0.447  2.6674  0.2924  1.5999
 1873SOL     OW17251   3.548   1.729   5.198  0.2034 -0.5885  0.0400
 1873SOL    HW117252   3.463   1.770   5.181  0.0267 -1.3228 -0.8169
 1873SOL    HW217253   3.598   1.806   5.224 -0.4679  0.4869 -1.8871
 1874SOL     OW17254   2.315   1.826   1.627  0.1049  0.0524 -0.0219
 1874SOL    HW117255   2.271   1.886   1.567  0.7817  0.1398 -0.4312
 1874SOL    HW217256   2.397   1.874   1.638  0.2395  0.1500 -1.5352
 1875SOL     OW17257   0.464   0.217  13.635 -0.3366  0.3758 -0.2996
 1875SOL    HW117258   0.429   0.265  13.710  0.2279  0.2162  0.0674
 1875SOL    HW217259   0.452   0.271  13.557  0.5688  1.3423  0.2260
 1876SOL     OW17260   3.164   0.499  13.913 -0.0222  0.6203  0.1685
 1876SOL    HW117261   3.131   0.421  13.957 -0.2900 -0.7302 -2.4152
 1876SOL    HW217262   3.089   0.508  13.854 -0.5789 -1.6694  0.5407
 1877SOL     OW17263   4.364   4.226   1.934  0.0981 -0.3598  0.2303
 1877SOL    HW117264   4.423   4.236   1.859 -0.6188 -1.3496 -0.4732
 1877SOL    HW217265   4.413   4.177   2.000 -0.1044  0.5541  1.0560
 1878SOL     OW17266   0.590   1.113   6.472  0.0902 -0.2774 -0.1783
 1878SOL    HW117267   0.535   1.059   6.530 -1.0732 -0.2513 -1.2627
 1878SOL    HW217268   0.656   1.137   6.537 -0.0018  0.2061 -0.2621
 1879SOL     OW17269   2.225   1.090  15.879 -0.0541  0.0989  0.0209
 1879SOL    HW117270   2.264   1.004  15.897 -0.0177  0.2631  0.7557
 1879SOL    HW217271   2.258   1.141  15.953  1.9226 -0.7430 -0.2973
 1880SOL     OW17272   4.654   3.480   4.994 -0.4581  0.4702 -0.0081
 1880SOL    HW117273   0.013   3.475   5.001 -0.8403 -3.1937  2.9789
 1880SOL    HW217274   4.629   3.387   4.992 -1.1498  0.6857 -1.4017
 1881SOL     OW17275   2.846   0.024  17.189 -0.1480 -0.5064 -0.8516
 1881SOL    HW117276   2.903   4.687  17.213  1.5001  1.1975  0.3033
 1881SOL    HW217277   2.917   0.088  17.186 -1.0939  0.5075 -1.6290
 1882SOL     OW17278   4.611   1.567   7.630  0.4988  0.1460 -0.5023
 1882SOL    HW117279   4.519   1.588   7.612  0.2112  0.3312  1.1961
 1882SOL    HW217280   4.629   1.526   7.546 -1.9399 -0.5417 -0.6860
 1883SOL     OW17281   0.689   3.440   2.307 -0.4977  0.0785 -1.2981
 1883SOL    HW117282   0.764   3.484   2.269  1.0254  1.5443  3.3299
 1883SOL    HW217283   0.724   3.386   2.379 -0.1605 -1.0138 -2.2904
 1884SOL     OW17284   0.317   2.390   0.254 -0.2022 -0.2218  0.6589
 1884SOL    HW117285   0.297   2.397   0.347  0.3690 -1.7038  0.8886
 1884SOL    HW217286   0.392   2.450   0.253  1.4238 -2.2335  1.5281
 1885SOL     OW17287   4.512   1.198   7.641  0.7879 -0.0829 -0.1150
 1885SOL    HW117288   4.493   1.199   7.547  0.4362  3.0110 -0.0351
 1885SOL    HW217289   4.516   1.105   7.662  0.4989 -0.4288 -1.5791
 1886SOL     OW17290   2.100   4.487   5.699 -0.3089  0.3243  0.0026
 1886SOL    HW117291   2.008   4.513   5.695 -0.1385  0.9525  0.2179
 1886SOL    HW217292   2.090   4.403   5.744 -2.3185  0.7724  0.4155
 1887SOL     OW17293   2.528   2.705   5.819 -0.1111 -0.2790 -0.5868
 1887SOL    HW117294   2.434   2.719   5.806  0.0668  0.7573 -0.7764
 1887SOL    HW217295   2.521   2.718   5.914 -1.2639  2.4825 -1.0459
 1888SOL     OW17296   4.014   1.555   3.917  0.1774 -0.7486  0.0373
 1888SOL    HW117297   4.059   1.493   3.975  1.0936 -0.2653 -0.1663
 1888SOL    HW217298   4.004   1.500   3.839 -0.9854 -2.0612  1.1039
 1889SOL     OW17299   0.495   1.144   5.311  0.3110  0.4375 -0.2796
 1889SOL    HW117300   0.504   1.215   5.376  0.0045  0.7440 -0.5756
 1889SOL    HW217301   0.443   1.180   5.239 -0.2530  0.7233  0.2716
 1890SOL     OW17302   0.717   3.794   1.503 -0.2564 -0.8129  0.1333
 1890SOL    HW117303   0.655   3.866   1.495  0.9154 -0.1440 -3.1192
 1890SOL    HW217304   0.657   3.720   1.492  1.9617 -2.1876 -2.9061
 1891SOL     OW17305   0.954   0.603   3.009 -0.0398 -0.0630  0.4923
 1891SOL    HW117306   0.865   0.581   2.982 -0.0211  0.9357 -0.3613
 1891SOL    HW217307   1.009   0.559   2.945 -0.3115  0.1552  0.1144
 1892SOL     OW17308   2.152   0.050   5.630 -0.1485 -0.0159 -0.0398
 1892SOL    HW117309   2.111   4.717   5.578 -1.5363  0.9633 -0.2447
 1892SOL    HW217310   2.206   0.083   5.557 -1.3210  0.2215 -0.8033
 1893SOL     OW17311   3.294   2.329   3.030  0.2202  0.2613  0.1089
 1893SOL    HW117312   3.382   2.351   3.063  1.0730 -1.4863 -0.9890
 1893SOL    HW217313   3.278   2.244   3.072 -0.2421  1.3562  2.1447
 1894SOL     OW17314   4.312   3.409   7.302  0.7510  0.2761 -0.0190
 1894SOL    HW117315   4.235   3.360   7.273  2.0170 -1.3232 -0.6870
 1894SOL    HW217316   4.373   3.336   7.312  0.8051  0.2888 -0.2643
 1895SOL     OW17317   2.329   3.339  12.248 -0.0777 -0.1044 -0.1446
 1895SOL    HW117318   2.340   3.245  12.261  1.1215 -0.4248 -3.3564
 1895SOL    HW217319   2.264   3.338  12.178  0.3595 -0.2972 -0.5501
 1896SOL     OW17320   1.276   1.487   5.151  0.4289 -0.6518 -0.0027
 1896SOL    HW117321   1.218   1.474   5.075 -1.7851 -0.1104  1.5789
 1896SOL    HW217322   1.258   1.408   5.202  0.3346  0.4443  1.6275
 1897SOL     OW17323   4.519   3.074   3.730  0.1519 -0.2844  0.2741
 1897SOL    HW117324   4.442   3.054   3.784 -0.9543  2.8101 -0.1290
 1897SOL    HW217325   4.513   3.170   3.726  0.7554 -0.2554  0.0615
 1898SOL     OW17326   4.157   3.459   0.745  0.5189 -0.3886  0.2095
 1898SOL    HW117327   4.127   3.480   0.833  1.3375 -0.5650  0.5354
 1898SOL    HW217328   4.100   3.384   0.731  1.9441 -1.4960  0.3175
 1899SOL     OW17329   1.809   4.359   8.024  0.6502  0.2821 -0.1882
 1899SOL    HW117330   1.774   4.389   8.108  0.8434  2.0722 -0.7395
 1899SOL    HW217331   1.900   4.389   8.034 -0.1278  2.7071 -0.3842
 1900SOL     OW17332   0.270   3.680   9.244  0.5358  0.1865 -0.0077
 1900SOL    HW117333   0.260   3.589   9.216 -4.3568  0.6786  0.1398
 1900SOL    HW217334   0.361   3.701   9.225  0.5249 -1.1810 -1.5442
 1901SOL     OW17335   2.751   4.437   5.308  0.2238  0.6471 -0.1811
 1901SOL    HW117336   2.802   4.357   5.322  1.1121  1.0230 -1.3484
 1901SOL    HW217337   2.797   4.492   5.370 -2.5751 -0.4173  2.8545
 1902SOL     OW17338   4.462   0.715   6.530  0.3369 -0.3415 -0.2476
 1902SOL    HW117339   4.504   0.637   6.493  0.9438 -0.9412  1.6776
 1902SOL    HW217340   4.385   0.666   6.558 -0.1390  0.4421 -0.1917
 1903SOL     OW17341   0.038   1.040   8.854 -0.1136 -0.8489 -0.4402
 1903SOL    HW117342   0.126   1.066   8.828 -0.3308 -0.9848 -1.3189
 1903SOL    HW217343   0.044   1.045   8.949 -0.2807 -0.3036 -0.4544
 1904SOL     OW17344   1.741   2.405   0.112  0.2813 -0.1707  0.2856
 1904SOL    HW117345   1.742   2.309   0.120 -1.4235 -0.4342 -2.3872
 1904SOL    HW217346   1.649   2.432   0.115  0.7542  1.1378  2.6163
 1905SOL     OW17347   3.599   1.034   8.175  0.5037  0.2721  0.0780
 1905SOL    HW117348   3.621   1.083   8.095 -0.7939 -0.5595 -0.7802
 1905SOL    HW217349   3.551   0.959   8.142  1.1326  0.2593 -0.8080
 1906SOL     OW17350   0.023   0.476   7.136 -0.9547  0.3699 -0.3100
 1906SOL    HW117351   0.116   0.500   7.140 -0.6625 -0.7149 -0.4526
 1906SOL    HW217352   0.007   0.488   7.042  3.7653 -1.2340 -1.3804
 1907SOL     OW17353   3.616   2.820  16.629 -0.7644 -0.4975 -0.5171
 1907SOL    HW117354   3.700   2.866  16.627 -0.5861 -0.7873  0.8896
 1907SOL    HW217355   3.646   2.740  16.673  1.7632  0.2125 -0.9490
 1908SOL     OW17356   1.889   2.981   5.193 -0.1183  0.1131 -0.3400
 1908SOL    HW117357   1.875   2.889   5.218  0.3320  0.5525  1.5210
 1908SOL    HW217358   1.984   2.983   5.200 -0.1445 -0.9873  0.4915
 1909SOL     OW17359   3.505   0.949  15.773  0.3063  0.7589 -0.1419
 1909SOL    HW117360   3.464   0.964  15.858  0.8107 -0.8614  0.3980
 1909SOL    HW217361   3.492   1.035  15.734  0.3767 -0.2234 -2.3586
 1910SOL     OW17362   0.074   3.678   5.984  0.2852 -0.6768  0.4025
 1910SOL    HW117363   0.060   3.769   6.011  0.2723 -0.2414 -1.0840
 1910SOL    HW217364   0.138   3.684   5.913  0.9846  1.6390  1.2446
 1911SOL     OW17365   3.519   2.746  16.384 -0.2485  0.7692  0.5108
 1911SOL    HW117366   3.565   2.767  16.465  1.6488  1.3440 -0.7152
 1911SOL    HW217367   3.582   2.739  16.313 -1.0324  0.7210 -0.1860
 1912SOL     OW17368   3.832   0.601  12.351 -0.1104 -0.6301  0.5448
 1912SOL    HW117369   3.742   0.581  12.323 -0.4721  3.4043 -1.1823
 1912SOL    HW217370   3.847   0.686  12.309 -0.1189 -0.3986  1.0071
 1913SOL     OW17371   2.975   2.285   1.962 -0.4114 -0.1990  0.1112
 1913SOL    HW117372   3.015   2.344   2.025 -1.5652  0.2114  0.4550
 1913SOL    HW217373   2.903   2.248   2.013 -0.2839  0.2235  0.5853
 1914SOL     OW17374   1.742   2.859   2.060  0.3241  0.6435  0.1726
 1914SOL    HW117375   1.809   2.815   2.112  2.1493  1.7467 -1.2449
 1914SOL    HW217376   1.751   2.805   1.981 -1.6905 -1.1338  1.1708
 1915SOL     OW17377   2.249   0.966   4.224  0.0678 -0.4216  0.0531
 1915SOL    HW117378   2.210   1.049   4.194 -0.6005 -1.5459 -2.1753
 1915SOL    HW217379   2.180   0.904   4.201 -2.7527  2.1618  1.5736
 1916SOL     OW17380   3.166   1.445   3.003  0.5660 -0.7084  0.5402
 1916SOL    HW117381   3.208   1.366   3.036  1.1563 -0.4764  0.3516
 1916SOL    HW217382   3.096   1.460   3.066 -0.5522 -1.9636 -0.4091
 1917SOL     OW17383   3.213   4.728   8.299 -0.3873 -0.2897  0.2405
 1917SOL    HW117384   3.120   0.002   8.283 -0.2060 -0.1629 -0.6959
 1917SOL    HW217385   3.235   4.635   8.287  0.0937 -0.2511  0.7610
 1918SOL     OW17386   1.672   2.158  13.055  0.0463  0.0319 -0.0990
 1918SOL    HW117387   1.765   2.140  13.069  0.0321  0.9673  1.2164
 1918SOL    HW217388   1.676   2.216  12.978  1.3254 -0.6132 -0.5265
 1919SOL     OW17389   1.181   4.054   6.990 -0.3207  0.1304 -0.5472
 1919SOL    HW117390   1.132   4.029   6.912  0.5821 -1.9884 -0.4404
 1919SOL    HW217391   1.150   4.144   7.000  2.6144  1.0777 -0.0969
 1920SOL     OW17392   2.173   2.973   6.139  0.5857 -0.5860  0.0027
 1920SOL    HW117393   2.094   2.980   6.193  0.5708  2.1346 -0.3554
 1920SOL    HW217394   2.135   2.947   6.055  1.0829  0.5213 -0.5734
 1921SOL     OW17395   4.735   1.328   3.091 -0.1868 -0.4795  0.5046
 1921SOL    HW117396   4.664   1.285   3.138 -1.1270  1.6094  0.9642
 1921SOL    HW217397   4.710   1.417   3.112 -1.4585 -1.2196  2.1159
 1922SOL     OW17398   2.358   0.151  15.520  0.5430 -0.8106  0.1202
 1922SOL    HW117399   2.387   0.188  15.436  1.0961 -1.8812 -0.1659
 1922SOL    HW217400   2.276   0.114  15.489  0.0278 -1.5983  2.4703
 1923SOL     OW17401   0.004   0.596   3.347  0.6956 -0.3227  0.3303
 1923SOL    HW117402   4.715   0.657   3.278 -0.0652  0.3144  1.1617
 1923SOL    HW217403   0.079   0.563   3.298  0.1871 -0.7482 -0.1534
 1924SOL     OW17404   1.828   4.429   2.622 -0.2385  0.6247  0.4474
 1924SOL    HW117405   1.901   4.491   2.624  2.4917 -2.5792 -0.9758
 1924SOL    HW217406   1.757   4.485   2.654  0.3126  1.8703 -0.4978
 1925SOL     OW17407   3.411   0.706  16.529  0.5263  0.4767 -0.2506
 1925SOL    HW117408   3.480   0.661  16.479 -0.1763  1.0134 -1.6835
 1925SOL    HW217409   3.461   0.774  16.574 -2.1664  1.8574  0.5906
 1926SOL     OW17410   0.121   0.617   9.713 -0.2200  0.4926 -0.0304
 1926SOL    HW117411   0.036   0.653   9.687 -0.5687  0.0456  0.4973
 1926SOL    HW217412   0.096   0.526   9.697  0.2416  0.1349  1.2861
 1927SOL     OW17413   2.759   4.573   4.874  0.5717 -0.0874 -0.0095
 1927SOL    HW117414   2.707   4.610   4.803  2.0871  1.6271 -0.2141
 1927SOL    HW217415   2.790   4.487   4.845 -0.9279 -1.7159  3.2445
 1928SOL     OW17416   3.696   0.032   0.148 -0.4715 -0.0440 -0.0917
 1928SOL    HW117417   3.679   4.715   0.071  0.6019 -1.5418  0.6908
 1928SOL    HW217418   3.672   4.712   0.222  0.5180  0.7519  0.8317
 1929SOL     OW17419   0.720   3.106   1.300 -0.0121 -0.2875 -0.6605
 1929SOL    HW117420   0.790   3.050   1.332 -1.5717 -0.8768  1.7591
 1929SOL    HW217421   0.765   3.190   1.289 -1.8897  0.7409 -0.5973
 1930SOL     OW17422   3.682   3.936   4.724  0.3421  0.0273  0.6552
 1930SOL    HW117423   3.745   4.007   4.710 -0.0827  0.8721  2.9660
 1930SOL    HW217424   3.611   3.979   4.772  1.4327  1.6774  0.7981
 1931SOL     OW17425   0.247   3.611   1.121 -0.3550  0.5060 -0.1518
 1931SOL    HW117426   0.205   3.630   1.205 -1.9686  0.2902 -0.8910
 1931SOL    HW217427   0.334   3.649   1.128 -0.0643 -0.4303  1.3186
 1932SOL     OW17428   3.812   1.046  10.356  0.0829  0.1578  0.2845
 1932SOL    HW117429   3.871   1.115  10.386 -0.3013  0.1652  1.0192
 1932SOL    HW217430   3.832   0.992  10.432  0.5893 -0.3258 -0.1958
 1933SOL     OW17431   2.580   0.649   8.296 -0.1942  0.2653 -0.1276
 1933SOL    HW117432   2.559   0.562   8.262  1.4324 -0.3842  0.5368
 1933SOL    HW217433   2.493   0.685   8.313 -0.6051 -0.6375 -0.2850
 1934SOL     OW17434   4.241   2.589  12.443  0.3523  0.2816  0.1100
 1934SOL    HW117435   4.251   2.546  12.528  1.9513 -0.5221 -0.4865
 1934SOL    HW217436   4.197   2.670  12.466  1.0583  0.6878  0.0244
 1935SOL     OW17437   1.256   3.674   7.282  0.2884  0.9044  0.2850
 1935SOL    HW117438   1.263   3.582   7.255 -0.1235  1.3877 -1.4555
 1935SOL    HW217439   1.227   3.716   7.202 -0.0196 -0.9439 -0.5791
 1936SOL     OW17440   4.178   2.330   1.760 -0.4105  0.1210 -0.3769
 1936SOL    HW117441   4.148   2.264   1.821  0.3418 -0.2058 -0.3659
 1936SOL    HW217442   4.255   2.284   1.727 -1.2786 -0.3999 -1.6967
 1937SOL     OW17443   1.300   1.808   5.188  0.2170 -0.3534 -0.0595
 1937SOL    HW117444   1.243   1.739   5.222  1.4970 -1.4855 -0.1692
 1937SOL    HW217445   1.248   1.886   5.203 -1.4019 -1.4151 -0.1204
 1938SOL     OW17446   1.644   3.066  15.319  0.2391  0.3448  0.3447
 1938SOL    HW117447   1.739   3.055  15.330  0.1093  0.0750  1.2314
 1938SOL    HW217448   1.640   3.067  15.224 -0.0465 -2.6825  0.3166
 1939SOL     OW17449   3.627   0.384   0.496 -0.0932  0.2583  0.9258
 1939SOL    HW117450   3.682   0.307   0.485 -0.0797  0.5104 -0.7893
 1939SOL    HW217451   3.598   0.346   0.578  1.2251 -0.8086  0.9025
 1940SOL     OW17452   0.571   1.596   3.140 -0.0193 -0.2317  0.0825
 1940SOL    HW117453   0.646   1.628   3.190  0.9634 -0.5465 -1.1849
 1940SOL    HW217454   0.537   1.673   3.096 -3.4062 -1.5083  0.5056
 1941SOL     OW17455   2.145   3.691  11.014  0.1172  0.2323  0.3896
 1941SOL    HW117456   2.209   3.758  10.990 -2.9812  1.7864 -3.5539
 1941SOL    HW217457   2.186   3.648  11.089  0.0582 -0.0525  0.2611
 1942SOL     OW17458   4.269   1.865  10.919 -0.1184  0.3643 -0.4433
 1942SOL    HW117459   4.213   1.789  10.904 -0.5975  0.8255 -0.9719
 1942SOL    HW217460   4.261   1.869  11.015  4.2195  0.7518 -0.0948
 1943SOL     OW17461   4.192   0.536   8.256 -0.5044 -0.2988 -0.4590
 1943SOL    HW117462   4.200   0.609   8.195  3.9816 -0.5216 -0.1100
 1943SOL    HW217463   4.283   0.508   8.256 -0.4256 -0.1103  2.4985
 1944SOL     OW17464   1.128   4.131  16.277 -0.0653 -0.0542 -0.2089
 1944SOL    HW117465   1.187   4.204  16.297  2.4542 -1.6914 -1.6928
 1944SOL    HW217466   1.096   4.162  16.192  0.5648 -0.7573 -0.7008
 1945SOL     OW17467   0.479   3.692   3.780  0.4430  0.2834 -0.4351
 1945SOL    HW117468   0.411   3.651   3.834  0.3656  0.4036 -0.4398
 1945SOL    HW217469   0.563   3.679   3.825 -0.0386 -0.8540  0.1338
 1946SOL     OW17470   1.380   4.173  11.120 -0.2515  0.6160  0.1232
 1946SOL    HW117471   1.296   4.133  11.145  0.6340 -0.2925  1.6622
 1946SOL    HW217472   1.390   4.249  11.178  1.3982  0.0041  0.6159
 1947SOL     OW17473   3.605   0.115  13.458 -0.1110  0.1336  0.6024
 1947SOL    HW117474   3.596   0.085  13.549  1.5407  1.8602  1.3316
 1947SOL    HW217475   3.663   0.050  13.419 -0.8164  0.0608 -0.3243
 1948SOL     OW17476   3.768   3.163   2.719 -0.5531 -0.0525 -0.5308
 1948SOL    HW117477   3.701   3.100   2.747 -0.1879 -0.4275 -0.4987
 1948SOL    HW217478   3.835   3.106   2.681 -0.2498  0.5602 -0.9134
 1949SOL     OW17479   0.359   3.573  10.909  0.5295 -0.3967 -0.0634
 1949SOL    HW117480   0.314   3.579  10.824  2.0685  2.1538 -0.6872
 1949SOL    HW217481   0.305   3.513  10.962  1.4824  0.0988  1.4470
 1950SOL     OW17482   3.729   0.251   5.703 -0.2240  0.0898  0.2840
 1950SOL    HW117483   3.790   0.266   5.776  0.9031  0.9265 -0.8190
 1950SOL    HW217484   3.721   0.156   5.697 -0.4784  0.2239 -1.5108
 1951SOL     OW17485   1.359   4.176   7.925  0.3268 -0.0622 -0.7434
 1951SOL    HW117486   1.325   4.265   7.918  0.2728 -0.2626 -3.0118
 1951SOL    HW217487   1.372   4.153   7.833 -1.2431 -1.1366 -0.7022
 1952SOL     OW17488   1.308   0.983   2.769 -0.0206  0.1935 -0.4644
 1952SOL    HW117489   1.346   1.069   2.786  1.5446  0.0874 -3.5166
 1952SOL    HW217490   1.300   0.978   2.674 -0.3276 -1.3291 -0.3645
 1953SOL     OW17491   4.056   3.658   8.098 -0.2325  0.0239  0.2776
 1953SOL    HW117492   4.142   3.645   8.138 -0.5514 -0.7577  0.7234
 1953SOL    HW217493   4.075   3.635   8.007 -2.1263 -1.2944  0.1943
 1954SOL     OW17494   3.289   1.847   2.456  0.5241  0.1328 -0.6979
 1954SOL    HW117495   3.327   1.776   2.405 -0.1532  0.4365 -1.6052
 1954SOL    HW217496   3.368   1.899   2.471 -0.5098  1.6762 -0.6167
 1955SOL     OW17497   3.706   0.760   3.672 -0.0263  0.2949 -0.2728
 1955SOL    HW117498   3.801   0.762   3.663 -0.3874  0.0506 -4.2569
 1955SOL    HW217499   3.692   0.739   3.580 -0.5518 -0.8560  0.0641
 1956SOL     OW17500   3.493   2.183  15.366  0.1652 -0.6299  0.1173
 1956SOL    HW117501   3.539   2.099  15.357 -0.3328 -0.4914 -3.5233
 1956SOL    HW217502   3.420   2.165  15.307  1.0647 -0.8451 -0.9360
 1957SOL     OW17503   4.403   2.917   3.016  0.6458 -0.1285  0.1993
 1957SOL    HW117504   4.475   2.908   2.954  0.5446  0.7228 -0.0405
 1957SOL    HW217505   4.440   2.870   3.091  0.9768  0.7609  0.5995
 1958SOL     OW17506   0.902   2.983  10.723  0.5234  0.1085 -0.5970
 1958SOL    HW117507   0.905   3.025  10.810  1.4922 -1.3486  0.0798
 1958SOL    HW217508   0.989   3.010  10.691  0.2078  0.6787 -0.9736
 1959SOL     OW17509   1.777   0.640   0.803 -0.0217 -0.0938  0.1831
 1959SOL    HW117510   1.798   0.689   0.883 -1.4739  2.0940 -0.7692
 1959SOL    HW217511   1.867   0.620   0.779 -0.1578 -2.0179  1.3304
 1960SOL     OW17512   2.411   0.687   0.757  0.1492 -0.1283 -0.1138
 1960SOL    HW117513   2.374   0.734   0.831  0.5358 -0.7017  0.4396
 1960SOL    HW217514   2.447   0.610   0.801  0.4701 -0.5540 -1.1208
 1961SOL     OW17515   2.373   3.817   2.644 -0.6956 -0.4330  0.5936
 1961SOL    HW117516   2.438   3.886   2.660  0.4824 -1.5676  0.7045
 1961SOL    HW217517   2.350   3.845   2.556  0.0413  1.9868  1.1560
 1962SOL     OW17518   0.400   4.333  10.543  0.3642  0.1258 -0.4264
 1962SOL    HW117519   0.423   4.305  10.455 -0.9207 -0.1160 -0.6853
 1962SOL    HW217520   0.387   4.427  10.530  1.6067  0.0658 -2.0748
 1963SOL     OW17521   0.103   0.814   9.899 -0.4919  0.2287 -0.4088
 1963SOL    HW117522   0.011   0.790   9.889 -0.8316  1.8649 -1.1694
 1963SOL    HW217523   0.141   0.781   9.817 -3.6600  0.9036 -2.1347
 1964SOL     OW17524   2.086   3.571   4.826  0.0148 -0.8892  0.1290
 1964SOL    HW117525   2.002   3.543   4.790 -0.3212 -0.1501  0.3241
 1964SOL    HW217526   2.056   3.628   4.897  0.2843 -0.6282  0.0340
 1965SOL     OW17527   4.291   4.624  11.948 -0.0743  0.0142 -0.0851
 1965SOL    HW117528   4.208   4.658  11.979 -1.0325 -0.8430 -1.7140
 1965SOL    HW217529   4.316   4.569  12.023 -0.0446  0.3153  0.1272
 1966SOL     OW17530   3.782   3.585   7.404 -0.2630 -0.4766 -1.0134
 1966SOL    HW117531   3.751   3.644   7.335 -1.5704 -0.1143 -0.1217
 1966SOL    HW217532   3.843   3.528   7.359  0.0824 -1.5281  0.7966
 1967SOL     OW17533   1.542   3.641   3.848  0.0528 -0.0849 -0.2621
 1967SOL    HW117534   1.633   3.613   3.862 -0.0253 -0.3683 -0.3076
 1967SOL    HW217535   1.560   3.734   3.839 -0.5037 -0.1791 -2.3774
 1968SOL     OW17536   2.400   4.093   7.392 -0.2711  0.3798  0.2578
 1968SOL    HW117537   2.457   4.016   7.394 -2.7105 -1.3932  0.6612
 1968SOL    HW217538   2.357   4.087   7.477  0.5298 -0.2697  0.6171
 1969SOL     OW17539   1.353   4.182  15.895 -0.0299  0.1211  0.6388
 1969SOL    HW117540   1.314   4.248  15.953 -2.6669 -1.3638  0.5608
 1969SOL    HW217541   1.316   4.210  15.811  2.0393  2.7718  0.5887
 1970SOL     OW17542   3.454   2.009  16.653 -0.0426 -0.0594  0.2428
 1970SOL    HW117543   3.445   1.916  16.674  0.7800  0.3518  2.3282
 1970SOL    HW217544   3.413   2.049  16.729  0.8261  2.0542 -0.4100
 1971SOL     OW17545   2.131   3.825   6.500 -0.5831  0.2629 -0.2941
 1971SOL    HW117546   2.064   3.775   6.547  1.6097 -0.5338  2.0220
 1971SOL    HW217547   2.103   3.916   6.508 -0.1494  0.1731  2.4741
 1972SOL     OW17548   0.145   2.281   3.863  0.0809 -0.1218 -0.1966
 1972SOL    HW117549   0.223   2.233   3.836 -1.3234 -1.7276 -1.3523
 1972SOL    HW217550   0.095   2.278   3.782  0.2327 -1.4465 -0.2325
 1973SOL     OW17551   3.535   4.049  15.271  0.4867 -0.6562  0.6093
 1973SOL    HW117552   3.482   3.977  15.305  0.0988  0.7923  3.0310
 1973SOL    HW217553   3.505   4.072  15.183  2.5934  2.5479  0.7154
 1974SOL     OW17554   0.608   0.126  14.702  0.1345 -0.4684  0.4346
 1974SOL    HW117555   0.638   0.041  14.733  1.2972  0.0182  0.6285
 1974SOL    HW217556   0.586   0.097  14.613  0.4723 -1.6457  0.7445
 1975SOL     OW17557   3.219   1.867   8.857  0.5266 -0.4081 -0.0741
 1975SOL    HW117558   3.303   1.905   8.831  0.9169 -0.6554  0.8380
 1975SOL    HW217559   3.233   1.776   8.830  1.6371 -0.1108 -0.4804
 1976SOL     OW17560   4.553   1.863   4.106 -0.5146  0.3986  0.6609
 1976SOL    HW117561   4.598   1.801   4.163 -2.0473 -0.2953  1.1217
 1976SOL    HW217562   4.485   1.802   4.077  1.8124 -1.8491 -0.1180
 1977SOL     OW17563   0.665   0.883  12.418  0.8924 -0.1901  0.1128
 1977SOL    HW117564   0.693   0.967  12.382  2.2697  0.1691  2.0229
 1977SOL    HW217565   0.711   0.826  12.357  0.8007  2.1904 -2.1945
 1978SOL     OW17566   1.783   1.551   8.148  0.7750  0.1334  0.6886
 1978SOL    HW117567   1.876   1.540   8.128  0.5869 -0.9894  0.4035
 1978SOL    HW217568   1.745   1.565   8.061  3.4925 -0.7564 -0.6473
 1979SOL     OW17569   2.717   0.608   8.674  0.0670 -0.2374 -0.1343
 1979SOL    HW117570   2.661   0.672   8.631 -2.0653  0.3686  3.5388
 1979SOL    HW217571   2.704   0.627   8.767  0.7966  2.1346 -0.5308
 1980SOL     OW17572   4.512   1.755   2.148 -0.6346 -0.3066 -0.4591
 1980SOL    HW117573   4.588   1.811   2.168  0.3269 -0.5922 -3.2764
 1980SOL    HW217574   4.559   1.673   2.163  1.5418  1.3805  2.0607
 1981SOL     OW17575   2.328   3.953   2.388 -0.3342  0.1294  0.5517
 1981SOL    HW117576   2.254   3.950   2.327  0.8082 -0.7399 -0.7792
 1981SOL    HW217577   2.398   3.975   2.326  1.0380  0.3987  2.2018
 1982SOL     OW17578   2.467   2.938   9.208  0.1942  0.4609 -0.6627
 1982SOL    HW117579   2.388   2.899   9.245 -0.6262  1.8604 -0.9218
 1982SOL    HW217580   2.530   2.867   9.222  2.6633  2.5944 -0.8701
 1983SOL     OW17581   4.362   2.490  17.708  0.3675 -0.1163  0.2888
 1983SOL    HW117582   4.330   2.497   0.055 -0.8588  0.7154 -0.2000
 1983SOL    HW217583   4.379   2.583  17.690  1.1954 -0.2672  0.3180
 1984SOL     OW17584   2.699   4.032   8.084  0.1904 -0.2277 -0.2038
 1984SOL    HW117585   2.687   3.945   8.045 -1.2743 -0.6111  1.1294
 1984SOL    HW217586   2.700   4.084   8.003 -0.1707  0.3357  0.1569
 1985SOL     OW17587   1.181   1.920  17.535 -0.0267  0.0229 -0.1978
 1985SOL    HW117588   1.159   1.848  17.594  0.4449  0.6399  0.7250
 1985SOL    HW217589   1.204   1.987  17.599 -0.3103  1.2834 -1.4021
 1986SOL     OW17590   0.200   3.321  17.277 -0.0706 -0.3297 -0.3818
 1986SOL    HW117591   0.223   3.333  17.185 -1.4767  1.1922 -0.5291
 1986SOL    HW217592   0.293   3.332  17.299 -0.2107 -0.3385  0.2052
 1987SOL     OW17593   3.120   3.738   2.365 -0.1276  0.4307 -0.0491
 1987SOL    HW117594   3.077   3.681   2.301  0.3958 -0.7485  0.6506
 1987SOL    HW217595   3.051   3.799   2.391 -0.0219  2.1580 -3.7931
 1988SOL     OW17596   4.412   3.448   9.654  0.9270  0.4625  0.2667
 1988SOL    HW117597   4.434   3.537   9.683  0.4090  0.9343 -0.7843
 1988SOL    HW217598   4.319   3.447   9.630  1.2186 -0.7947 -0.7788
 1989SOL     OW17599   3.849   1.218   4.772  0.5543 -0.0159 -0.3805
 1989SOL    HW117600   3.838   1.312   4.789 -0.5968 -0.6630  2.3631
 1989SOL    HW217601   3.775   1.179   4.818  0.9262  0.4115  0.5661
 1990SOL     OW17602   4.681   3.116  15.287 -0.3756  0.1681 -0.5652
 1990SOL    HW117603   4.592   3.110  15.323  0.3834 -0.9748  1.1077
 1990SOL    HW217604   4.705   3.028  15.256  1.6063  0.9640 -1.2597
 1991SOL     OW17605   0.194   0.755   2.835 -0.4691  0.2071 -0.3794
 1991SOL    HW117606   0.238   0.824   2.786  0.7217  0.5481  1.1530
 1991SOL    HW217607   0.153   0.800   2.909 -1.6908  0.2474 -1.0947
 1992SOL     OW17608   1.432   1.531   8.638 -0.0662  0.1306  0.4876
 1992SOL    HW117609   1.346   1.574   8.647  0.5678  1.6691 -0.6778
 1992SOL    HW217610   1.476   1.604   8.594  0.2064 -0.9859 -1.0936
 1993SOL     OW17611   0.316   1.680  11.640 -0.3222  0.0627  0.4858
 1993SOL    HW117612   0.302   1.671  11.734 -1.9253  0.1887  0.2468
 1993SOL    HW217613   0.271   1.762  11.618 -1.2300  0.2472  3.0386
 1994SOL     OW17614   2.251   3.972   4.480 -0.0827  0.2304  0.3627
 1994SOL    HW117615   2.258   3.916   4.558  0.1724 -0.6019 -0.2538
 1994SOL    HW217616   2.173   3.938   4.438 -0.5962 -0.8628  2.1836
 1995SOL     OW17617   0.849   3.422   5.925 -0.5819  0.4814  0.3119
 1995SOL    HW117618   0.876   3.349   5.980 -2.3847 -0.6234 -0.2415
 1995SOL    HW217619   0.780   3.459   5.980 -0.4935  0.1375  0.6473
 1996SOL     OW17620   4.712   2.385   7.097  0.6744 -0.4540 -0.3985
 1996SOL    HW117621   4.705   2.310   7.038  4.3972 -1.8325  0.9081
 1996SOL    HW217622   0.007   2.456   7.041  0.5271 -0.1639 -0.1135
 1997SOL     OW17623   4.721   3.138  13.908 -0.3965 -0.2528  0.2237
 1997SOL    HW117624   0.033   3.208  13.862 -0.1317 -1.3349 -1.1540
 1997SOL    HW217625   4.700   3.174  13.994  0.8059 -0.2312  0.5109
 1998SOL     OW17626   2.168   0.859   8.631 -0.4838  0.4398 -0.5501
 1998SOL    HW117627   2.259   0.849   8.602  0.3186  0.7645  1.8808
 1998SOL    HW217628   2.125   0.778   8.602  1.0762  0.2026 -2.2467
 1999SOL     OW17629   3.038   0.574   3.839 -0.5517  0.2093  0.4239
 1999SOL    HW117630   3.108   0.620   3.886 -0.3968  2.1393 -1.6747
 1999SOL    HW217631   2.970   0.641   3.843  0.2362  0.8320  3.5327
 2000SOL     OW17632   4.265   4.293   9.588 -0.0583 -0.3769 -0.4464
 2000SOL    HW117633   4.209   4.317   9.662  1.1859  1.2967 -0.0337
 2000SOL    HW217634   4.335   4.358   9.598 -1.2982  0.8308  0.4681
 2001SOL     OW17635   1.197   2.868   5.145 -0.0416  0.0169 -0.1094
 2001SOL    HW117636   1.146   2.941   5.180  3.3889  2.4941 -0.2820
 2001SOL    HW217637   1.134   2.820   5.091 -2.2143  1.1485  1.4031
 2002SOL     OW17638   1.921   0.661   7.032 -0.3927 -0.4534  0.7449
 2002SOL    HW117639   1.826   0.670   7.035 -0.3461  0.3523 -0.1253
 2002SOL    HW217640   1.939   0.609   7.110  0.5470 -1.9379 -0.4694
 2003SOL     OW17641   4.495   3.301  17.473  0.3054  0.2144 -0.0517
 2003SOL    HW117642   4.428   3.244  17.436  0.2152 -0.7363  1.5642
 2003SOL    HW217643   4.556   3.296  17.400 -0.4916  0.4779 -0.7317
 2004SOL     OW17644   2.120   3.981   7.917  0.1513 -0.0639  0.0997
 2004SOL    HW117645   2.105   4.063   7.964  2.2749 -0.5681  1.6602
 2004SOL    HW217646   2.198   3.949   7.963 -0.0669 -0.2158  0.3580
 2005SOL     OW17647   2.629   4.401   0.384 -0.0687 -0.1433  0.6192
 2005SOL    HW117648   2.683   4.391   0.463 -1.8449  0.5850  1.9186
 2005SOL    HW217649   2.626   4.497   0.387  0.6055 -0.1431  1.4115
 2006SOL     OW17650   0.195   3.704  12.213  0.6345 -0.1518 -0.1464
 2006SOL    HW117651   0.288   3.721  12.200  0.3276 -0.0812 -2.2140
 2006SOL    HW217652   0.177   3.777  12.272  0.4071 -0.2097 -0.1445
 2007SOL     OW17653   1.589   1.949   2.472 -0.5067 -0.0257  0.2086
 2007SOL    HW117654   1.659   1.979   2.414 -1.6507  0.6292 -0.8323
 2007SOL    HW217655   1.529   2.021   2.456 -0.9067  0.0684  2.1516
 2008SOL     OW17656   0.530   1.394   7.800  0.0772 -0.3351  0.2149
 2008SOL    HW117657   0.518   1.304   7.831  1.5135  0.0970  2.0046
 2008SOL    HW217658   0.500   1.393   7.709  1.2279  0.9531 -0.1696
 2009SOL     OW17659   1.937   0.469   4.130 -0.6281 -0.5612 -0.5494
 2009SOL    HW117660   1.961   0.512   4.048  1.1547  4.6734  2.7193
 2009SOL    HW217661   1.967   0.544   4.181 -0.5745 -1.1730  0.3259
 2010SOL     OW17662   1.882   4.449  12.243  0.2714  0.8579  0.0294
 2010SOL    HW117663   1.905   4.530  12.197  1.1351  0.0704 -0.9220
 2010SOL    HW217664   1.951   4.441  12.309  0.8597  0.2303 -0.6587
 2011SOL     OW17665   3.639   1.684  15.123 -0.6560  0.3295 -0.1136
 2011SOL    HW117666   3.599   1.728  15.048 -0.5970 -1.1066 -0.9860
 2011SOL    HW217667   3.595   1.742  15.185 -0.5875 -0.7884  0.9756
 2012SOL     OW17668   2.366   1.525  17.741 -0.3627  0.6511 -0.3503
 2012SOL    HW117669   2.435   1.590   0.018  0.0992 -0.2526  1.0020
 2012SOL    HW217670   2.387   1.459   0.064  1.1653 -0.7591 -2.2613
 2013SOL     OW17671   1.407   1.538   3.820 -0.5353  0.0006  0.2716
 2013SOL    HW117672   1.362   1.540   3.905  0.1166  0.5138  0.6083
 2013SOL    HW217673   1.337   1.555   3.758  0.0443  1.9781  0.1787
 2014SOL     OW17674   1.703   0.151   2.742 -0.0358 -0.0059 -0.9062
 2014SOL    HW117675   1.705   0.055   2.736 -1.9479 -0.0203 -1.2277
 2014SOL    HW217676   1.669   0.171   2.655 -1.8679  0.6461 -0.0369
 2015SOL     OW17677   0.449   4.609   9.253 -0.2963  0.4481 -0.1157
 2015SOL    HW117678   0.447   4.688   9.307 -1.8591  1.5872 -1.8251
 2015SOL    HW217679   0.532   4.572   9.282 -1.0927 -2.6702 -1.8133
 2016SOL     OW17680   3.930   4.559   6.862  0.3942 -0.1307  0.2981
 2016SOL    HW117681   4.024   4.571   6.876  0.6837 -1.0037 -0.9586
 2016SOL    HW217682   3.904   4.546   6.953  1.0541 -0.3246  0.4581
 2017SOL     OW17683   2.200   1.030   7.057 -0.3992  0.1302 -0.4746
 2017SOL    HW117684   2.166   1.093   7.120 -0.8670 -0.2076 -0.3866
 2017SOL    HW217685   2.272   0.997   7.111  0.7175  0.4824 -1.7499
 2018SOL     OW17686   3.665   0.951   1.545 -0.3622  0.3195 -0.0620
 2018SOL    HW117687   3.751   0.913   1.567 -1.3310 -1.5423  0.4931
 2018SOL    HW217688   3.668   1.013   1.618  0.1711 -0.7673  0.8425
 2019SOL     OW17689   3.367   1.437   2.604 -0.1275 -0.2357 -1.0062
 2019SOL    HW117690   3.313   1.362   2.632 -0.9606  1.0998  0.9701
 2019SOL    HW217691   3.298   1.497   2.575  1.6940  0.6672 -3.4316
 2020SOL     OW17692   2.434   1.619   4.409 -0.3554 -0.0035  0.2375
 2020SOL    HW117693   2.523   1.606   4.440  0.4513  3.0645 -0.8993
 2020SOL    HW217694   2.411   1.526   4.411 -1.6398  0.2918 -0.8145
 2021SOL     OW17695   4.498   0.209   3.991 -0.6950  0.3712 -0.0790
 2021SOL    HW117696   4.433   0.187   3.925 -0.5080 -0.8066  0.1366
 2021SOL    HW217697   4.441   0.221   4.067 -0.6220 -0.9339  0.1651
 2022SOL     OW17698   3.930   1.703  13.376 -0.7396  0.9760 -0.3776
 2022SOL    HW117699   3.934   1.779  13.317  1.8962  1.3713  0.2667
 2022SOL    HW217700   3.910   1.639  13.308  1.5648 -1.2908  1.0963
 2023SOL     OW17701   4.665   2.601   0.625 -0.0462 -0.3221 -0.1191
 2023SOL    HW117702   4.639   2.679   0.675 -0.0026  0.4599 -1.3303
 2023SOL    HW217703   4.646   2.535   0.692 -1.4461  1.3403  1.1449
 2024SOL     OW17704   1.841   1.578   8.582  0.2400  0.2881 -0.3400
 2024SOL    HW117705   1.770   1.526   8.618  2.4623 -2.6709 -0.2351
 2024SOL    HW217706   1.903   1.587   8.655  0.2694 -0.1620 -0.3100
 2025SOL     OW17707   3.484   4.184   6.960  0.5915  0.9889  0.0484
 2025SOL    HW117708   3.502   4.265   6.914 -1.3326  1.3007 -0.1646
 2025SOL    HW217709   3.403   4.154   6.918  1.3458 -1.5316  0.3853
 2026SOL     OW17710   4.028   4.541   2.930  0.0119  0.1083  0.1903
 2026SOL    HW117711   3.987   4.627   2.917 -2.4483 -0.8534  1.5078
 2026SOL    HW217712   3.945   4.493   2.929 -0.3939  0.8605 -2.3914
 2027SOL     OW17713   0.367   3.916  13.789  0.1684 -0.1117  0.5443
 2027SOL    HW117714   0.278   3.943  13.767  1.0887  0.8524 -1.9714
 2027SOL    HW217715   0.414   3.999  13.789  0.8668 -0.5076  0.7749
 2028SOL     OW17716   1.322   3.393  11.413 -0.6790  0.0326 -0.1067
 2028SOL    HW117717   1.369   3.364  11.335  0.0026  0.4313  0.1598
 2028SOL    HW217718   1.344   3.322  11.474 -0.6678 -1.1647 -1.5091
 2029SOL     OW17719   2.009   4.292   9.551 -1.0191  0.4090 -0.2794
 2029SOL    HW117720   1.981   4.233   9.620 -0.8112 -1.8835 -2.1722
 2029SOL    HW217721   1.983   4.239   9.476 -1.6470  2.0401 -1.2216
 2030SOL     OW17722   2.202   0.876   6.023  0.2559 -0.2080 -0.2449
 2030SOL    HW117723   2.181   0.956   6.072 -0.9633 -0.8613  0.3016
 2030SOL    HW217724   2.127   0.823   6.049 -0.3446  1.2910  1.0546
 2031SOL     OW17725   4.287   3.269   5.658 -0.8166 -0.1120 -0.3136
 2031SOL    HW117726   4.256   3.286   5.569 -1.4771  3.7560  0.6271
 2031SOL    HW217727   4.332   3.351   5.680 -1.9151  0.7674 -1.3471
 2032SOL     OW17728   0.919   3.393   8.061  0.0790 -0.1184  0.0848
 2032SOL    HW117729   0.983   3.431   8.001  0.4016 -0.7193  0.0472
 2032SOL    HW217730   0.845   3.453   8.050  1.7318  2.0561  0.9953
 2033SOL     OW17731   0.898   1.161   5.276  0.2817  0.1923 -0.8713
 2033SOL    HW117732   0.951   1.093   5.316 -1.9100 -0.2069  1.3233
 2033SOL    HW217733   0.828   1.170   5.340  1.8198  1.1299  0.6725
 2034SOL     OW17734   0.713   4.670   3.868 -0.1010 -0.0062  0.0819
 2034SOL    HW117735   0.781   4.604   3.864  1.5069  1.7445 -1.4038
 2034SOL    HW217736   0.717   4.683   3.963  1.3776  1.2168 -0.1469
 2035SOL     OW17737   1.264   2.704   7.786 -0.5332 -0.3321  0.4482
 2035SOL    HW117738   1.345   2.740   7.822 -2.0518  3.2606  0.3183
 2035SOL    HW217739   1.277   2.614   7.815 -0.5413 -0.5960 -0.3762
 2036SOL     OW17740   1.094   0.315   2.427 -0.4089 -0.5832  0.6344
 2036SOL    HW117741   1.067   0.378   2.361 -0.1596 -3.9594 -2.7284
 2036SOL    HW217742   1.060   0.236   2.385 -0.7340  0.4046 -0.9669
 2037SOL     OW17743   2.536   2.859  13.797 -0.3417 -0.2787  0.2962
 2037SOL    HW117744   2.491   2.926  13.847 -0.3152 -2.7428  3.6536
 2037SOL    HW217745   2.624   2.860  13.836  0.0060  0.5560 -0.5392
 2038SOL     OW17746   2.893   1.477   5.088  0.3190 -0.3399 -0.3995
 2038SOL    HW117747   2.895   1.422   5.167 -4.0081 -0.1878 -0.1467
 2038SOL    HW217748   2.978   1.453   5.052 -0.3121 -0.6822 -1.6632
 2039SOL     OW17749   0.102   0.815  17.242 -0.2643  0.2957  0.3564
 2039SOL    HW117750   0.164   0.754  17.202  0.9763  1.6575  0.2134
 2039SOL    HW217751   0.108   0.892  17.186 -1.1843  1.1445  1.4101
 2040SOL     OW17752   0.373   0.601   9.738 -0.6355 -0.2632 -0.1525
 2040SOL    HW117753   0.287   0.624   9.703 -1.5046  0.1351  2.2210
 2040SOL    HW217754   0.337   0.566   9.819  0.9989 -1.4108  0.0766
 2041SOL     OW17755   0.559   0.064   7.165 -0.1726 -0.3733  0.5228
 2041SOL    HW117756   0.475   0.020   7.152 -0.1551 -0.4748  0.7506
 2041SOL    HW217757   0.603   4.728   7.211 -1.0236 -1.5610 -0.5130
 2042SOL     OW17758   3.263   2.395   7.279  0.2011  0.0025  0.0886
 2042SOL    HW117759   3.259   2.488   7.256 -0.2127 -0.1569 -0.4778
 2042SOL    HW217760   3.220   2.391   7.364  0.8370  0.2402  0.4234
 2043SOL     OW17761   1.791   2.607   7.912  0.1233  0.2593  0.2776
 2043SOL    HW117762   1.802   2.657   7.992  0.5844  0.8399 -0.1486
 2043SOL    HW217763   1.883   2.603   7.883  0.4343  0.0132  1.3154
 2044SOL     OW17764   4.278   2.617   2.054 -0.4078  0.2838 -0.3292
 2044SOL    HW117765   4.273   2.523   2.069 -1.4168  0.5677  1.1349
 2044SOL    HW217766   4.222   2.617   1.977 -0.6037  2.3446 -0.2032
 2045SOL     OW17767   3.061   0.094   0.168  0.0322 -0.1747  0.0807
 2045SOL    HW117768   3.120   0.161   0.200  0.2660  0.1255 -0.9618
 2045SOL    HW217769   3.054   0.126   0.078  0.5096  0.3121  0.2195
 2046SOL     OW17770   1.560   4.445   8.569 -0.2404  0.1109  0.3783
 2046SOL    HW117771   1.635   4.461   8.625  0.1225 -1.9310  0.4568
 2046SOL    HW217772   1.564   4.353   8.544  0.9914  0.7516 -1.7736
 2047SOL     OW17773   0.705   2.557   4.186 -0.1483 -0.0436  0.2832
 2047SOL    HW117774   0.691   2.507   4.266 -0.7794 -0.5313 -0.1341
 2047SOL    HW217775   0.683   2.488   4.124 -0.0351  1.9562 -1.9772
 2048SOL     OW17776   4.336   1.768   2.730  0.4244 -0.1620 -0.6727
 2048SOL    HW117777   4.295   1.850   2.702 -2.5970 -0.6810  2.2600
 2048SOL    HW217778   4.265   1.731   2.783  1.5655 -2.3521 -0.7067
 2049SOL     OW17779   2.295   3.465   8.244 -0.7089 -0.4591  0.1380
 2049SOL    HW117780   2.317   3.386   8.195 -0.5816 -0.8757  0.8681
 2049SOL    HW217781   2.201   3.477   8.228 -0.4538  2.9286  1.2238
 2050SOL     OW17782   4.350   2.247   6.271 -0.7169 -0.1664 -0.1960
 2050SOL    HW117783   4.429   2.247   6.325 -0.4012 -0.9426 -0.6656
 2050SOL    HW217784   4.305   2.171   6.307  0.5088  0.3479  2.3948
 2051SOL     OW17785   1.020   3.770   9.881  0.7415  0.0082  0.4988
 2051SOL    HW117786   1.030   3.820   9.961 -0.1359  1.8264 -0.5434
 2051SOL    HW217787   1.098   3.714   9.884  2.3685  2.3892  1.6654
 2052SOL     OW17788   3.598   2.539   8.659  0.0579  0.2890 -0.0804
 2052SOL    HW117789   3.562   2.475   8.720 -2.4300 -0.4395 -2.3002
 2052SOL    HW217790   3.586   2.620   8.709  1.0603  0.5439 -0.2504
 2053SOL     OW17791   3.462   4.431   3.744 -0.0134 -0.6082 -0.5137
 2053SOL    HW117792   3.385   4.485   3.724 -0.9292 -1.4624  0.7106
 2053SOL    HW217793   3.454   4.374   3.667 -1.2308 -0.0045 -0.8266
 2054SOL     OW17794   1.099   0.139   6.888 -0.1451 -0.0322 -0.1208
 2054SOL    HW117795   1.156   0.206   6.926  1.5146 -1.8990  0.6858
 2054SOL    HW217796   1.023   0.194   6.870 -1.5530 -2.4697 -1.5525
 2055SOL     OW17797   0.870   4.460  14.208  0.5053  0.1216 -0.2159
 2055SOL    HW117798   0.894   4.510  14.130  1.8610  0.4675  0.4183
 2055SOL    HW217799   0.937   4.392  14.214  0.1359 -0.3660 -1.6296
 2056SOL     OW17800   3.158   2.703   4.605  0.0293  0.6149 -0.2728
 2056SOL    HW117801   3.116   2.691   4.520 -0.5473 -1.0763  0.2549
 2056SOL    HW217802   3.113   2.779   4.642 -0.5805  0.9196 -1.6448
 2057SOL     OW17803   0.501   3.683   7.307  0.1357 -0.1743 -0.3199
 2057SOL    HW117804   0.430   3.673   7.370 -0.8552 -1.8576 -1.7089
 2057SOL    HW217805   0.483   3.611   7.246  2.7306 -0.1994 -1.0846
 2058SOL     OW17806   3.076   2.909   9.227  0.1085 -0.2096 -0.8789
 2058SOL    HW117807   3.012   2.945   9.166 -0.3340  1.8876  0.8485
 2058SOL    HW217808   3.020   2.872   9.294  0.7412  1.6528  0.6614
 2059SOL     OW17809   2.050   2.817   4.665  0.2361  0.0691  0.0743
 2059SOL    HW117810   1.979   2.811   4.728 -1.9902 -0.0442 -2.4569
 2059SOL    HW217811   2.016   2.779   4.584 -0.1094 -0.0446  0.2733
 2060SOL     OW17812   0.444   2.666   2.642  0.2041  0.0557 -0.0087
 2060SOL    HW117813   0.531   2.648   2.608 -0.1826 -0.8814 -0.5142
 2060SOL    HW217814   0.443   2.762   2.641 -0.1918  0.0610  1.0818
 2061SOL     OW17815   1.960   0.799   4.692  0.8732 -0.1493 -0.2165
 2061SOL    HW117816   2.029   0.862   4.673  1.1110 -0.5373 -0.6466
 2061SOL    HW217817   1.890   0.864   4.686  0.7475 -0.3335 -0.7965
 2062SOL     OW17818   1.124   1.708   9.555  0.4107  0.3850  0.1155
 2062SOL    HW117819   1.207   1.754   9.543  0.1281  1.0179  0.6364
 2062SOL    HW217820   1.138   1.613   9.561 -0.6463  0.2540  0.4522
 2063SOL     OW17821   3.387   4.297   0.326  0.0580  0.3019  0.0999
 2063SOL    HW117822   3.455   4.258   0.271 -0.0023 -2.8782  2.3394
 2063SOL    HW217823   3.407   4.241   0.401  0.3622 -2.0736 -1.7627
 2064SOL     OW17824   1.154   2.537   8.240 -0.1141 -0.3654  0.1014
 2064SOL    HW117825   1.096   2.534   8.164  0.0060 -0.8558  0.0273
 2064SOL    HW217826   1.211   2.612   8.221 -0.2205 -0.1552  0.6145
 2065SOL     OW17827   4.300   0.420   6.709 -0.5929 -0.5974 -0.0608
 2065SOL    HW117828   4.287   0.400   6.616  1.0748  2.9068 -1.0510
 2065SOL    HW217829   4.271   0.511   6.713  0.6338 -0.3037  2.2694
 2066SOL     OW17830   3.768   3.951  11.365  0.3150 -0.2380  0.7389
 2066SOL    HW117831   3.675   3.952  11.386  0.3614 -0.5814  0.9577
 2066SOL    HW217832   3.780   4.044  11.349 -0.2233 -0.7264 -2.5548
 2067SOL     OW17833   0.425   3.900   8.808 -0.1796 -0.1892  0.5073
 2067SOL    HW117834   0.390   3.962   8.871  0.1304 -0.3238  0.8137
 2067SOL    HW217835   0.460   3.827   8.860 -1.6287  0.3269  2.1814
 2068SOL     OW17836   3.487   0.665   5.770  0.3739 -0.0735  0.3041
 2068SOL    HW117837   3.564   0.722   5.764  0.8751 -1.0197 -2.0288
 2068SOL    HW217838   3.424   0.697   5.706 -1.2614 -1.2658  1.3077
 2069SOL     OW17839   2.100   2.332   9.549 -0.1929 -0.2045 -0.2319
 2069SOL    HW117840   2.191   2.309   9.567 -0.1913 -0.9540 -1.2485
 2069SOL    HW217841   2.082   2.414   9.596  1.1488 -0.3895  0.6052
 2070SOL     OW17842   0.924   1.812   7.896  0.0659 -0.6593  0.7411
 2070SOL    HW117843   0.856   1.822   7.963 -0.9156  0.7612 -0.4791
 2070SOL    HW217844   0.881   1.750   7.837 -0.1071 -0.0714  0.2486
 2071SOL     OW17845   2.571   0.814   6.347  0.3482 -0.2903 -0.1218
 2071SOL    HW117846   2.624   0.809   6.426  0.2808 -0.6865 -0.1003
 2071SOL    HW217847   2.482   0.789   6.373  1.0282 -3.9101 -1.1391
 2072SOL     OW17848   3.641   2.081   8.271 -0.1909  0.6002  0.2265
 2072SOL    HW117849   3.633   2.074   8.176  2.8914 -1.1229  0.1116
 2072SOL    HW217850   3.722   2.129   8.289  1.6316 -2.0400 -1.0065
 2073SOL     OW17851   0.719   0.574   8.254  0.0215 -0.1709 -0.6205
 2073SOL    HW117852   0.629   0.604   8.240  0.1391  1.3999  1.9813
 2073SOL    HW217853   0.728   0.597   8.346 -0.9225 -0.5899 -0.4325
 2074SOL     OW17854   3.019   4.157  12.922 -0.1858  0.3185  0.2143
 2074SOL    HW117855   2.973   4.090  12.872  1.1029 -2.0469  2.2065
 2074SOL    HW217856   3.066   4.112  12.992 -0.4339  0.1867  0.2958
 2075SOL     OW17857   0.453   2.425   4.761  0.0292 -0.1778 -0.4523
 2075SOL    HW117858   0.474   2.513   4.730  1.3017 -0.3775 -0.1757
 2075SOL    HW217859   0.360   2.430   4.780  0.0589  0.9713 -0.6026
 2076SOL     OW17860   4.494   4.195   1.682  0.1397 -0.1241  0.1488
 2076SOL    HW117861   4.478   4.216   1.590  0.0848  2.2534  0.6938
 2076SOL    HW217862   4.581   4.234   1.694  0.1533  0.9877 -3.6548
 2077SOL     OW17863   2.255   1.196   3.054 -0.2221  0.3813  0.5293
 2077SOL    HW117864   2.194   1.144   3.106 -0.1023  1.3720  1.6782
 2077SOL    HW217865   2.336   1.158   3.085 -0.4316  0.1826  0.8331
 2078SOL     OW17866   0.714   4.597   2.505  0.4200  0.0292 -0.0413
 2078SOL    HW117867   0.705   4.572   2.413  0.6365 -4.1813  1.0925
 2078SOL    HW217868   0.745   4.686   2.490  0.4815  0.0105 -0.0242
 2079SOL     OW17869   3.666   2.377  16.868  0.0045 -0.6128 -0.6041
 2079SOL    HW117870   3.586   2.327  16.851 -0.3401 -1.0442  2.2223
 2079SOL    HW217871   3.713   2.318  16.810 -0.2399 -2.6403  1.2415
 2080SOL     OW17872   4.416   0.018   4.892 -0.2455 -0.1215 -0.0296
 2080SOL    HW117873   4.462   4.685   4.939 -2.3160  0.0199  2.1917
 2080SOL    HW217874   4.482   0.055   4.834 -0.5316  0.4759  0.0235
 2081SOL     OW17875   2.084   1.846   6.383  0.3537  0.2764 -0.0916
 2081SOL    HW117876   2.084   1.753   6.407  0.7260  0.2252 -0.2926
 2081SOL    HW217877   1.993   1.870   6.367  0.7154 -0.6235 -3.4961
 2082SOL     OW17878   0.342   3.101   3.397 -0.5196 -0.5169  0.4708
 2082SOL    HW117879   0.430   3.099   3.359 -0.8641 -1.0717 -0.2695
 2082SOL    HW217880   0.295   3.162   3.340 -1.7645 -1.0548  0.9229
 2083SOL     OW17881   0.588   0.739   2.202  0.5100 -0.2090  0.1660
 2083SOL    HW117882   0.525   0.724   2.272  2.4689 -1.2318  1.7085
 2083SOL    HW217883   0.529   0.717   2.130  0.0181  0.2898  0.4237
 2084SOL     OW17884   2.503   2.281   2.796 -0.0626 -0.2134 -0.4339
 2084SOL    HW117885   2.464   2.245   2.875  0.6603  1.6595  0.7669
 2084SOL    HW217886   2.431   2.308   2.739 -0.5766  1.8945  1.2223
 2085SOL     OW17887   4.226   4.051  10.691  0.0452  0.9596 -0.0124
 2085SOL    HW117888   4.165   4.124  10.676  0.6295  0.9602 -2.3787
 2085SOL    HW217889   4.257   4.067  10.780 -1.8790  0.5310  0.7231
 2086SOL     OW17890   0.452   3.838  12.636 -0.2546  0.1038 -0.4293
 2086SOL    HW117891   0.418   3.790  12.711  1.7175  1.9844  1.6647
 2086SOL    HW217892   0.499   3.902  12.690  0.6508 -2.5649  1.8969
 2087SOL     OW17893   3.767   1.851   2.576  0.2901  0.1018  0.2931
 2087SOL    HW117894   3.769   1.918   2.507  0.5002 -0.4554 -0.2481
 2087SOL    HW217895   3.673   1.845   2.592  0.1721  1.9978  0.2678
 2088SOL     OW17896   3.099   1.061   4.683 -0.3879  1.0650  0.5148
 2088SOL    HW117897   3.105   0.980   4.633  1.0035  0.9669  0.8306
 2088SOL    HW217898   3.185   1.054   4.724  0.5436  2.0848 -1.2615
 2089SOL     OW17899   4.125   4.601  11.466 -0.0901 -0.7437  0.2007
 2089SOL    HW117900   4.197   4.593  11.529  1.1579  0.9272 -1.0149
 2089SOL    HW217901   4.054   4.637  11.518  0.2552 -0.8267  0.7212
 2090SOL     OW17902   3.704   2.720   1.559  1.3494  0.7836  0.0025
 2090SOL    HW117903   3.763   2.777   1.509  1.3209  0.1197 -0.7866
 2090SOL    HW217904   3.742   2.637   1.531  0.7647 -0.0138  1.5845
 2091SOL     OW17905   0.614   3.994   5.589  0.3328  0.0940  0.4955
 2091SOL    HW117906   0.586   4.013   5.499 -2.7487 -0.0632  1.4268
 2091SOL    HW217907   0.624   4.077   5.637  0.5203 -0.2453  1.0367
 2092SOL     OW17908   3.484   0.559   3.049  0.3863 -0.3591 -0.2973
 2092SOL    HW117909   3.482   0.622   2.977 -1.1625  0.2979  0.3135
 2092SOL    HW217910   3.395   0.573   3.081  1.2288 -1.5294  2.5254
 2093SOL     OW17911   4.630   1.756   5.128 -0.2348  1.0368 -1.1810
 2093SOL    HW117912   4.613   1.671   5.170  0.3295  1.2390 -0.5477
 2093SOL    HW217913   4.675   1.716   5.054 -0.4292 -1.3793 -0.0012
 2094SOL     OW17914   2.080   2.051   4.699 -0.0866  0.5149  0.4020
 2094SOL    HW117915   2.134   2.127   4.678 -0.2977  0.4315 -0.4627
 2094SOL    HW217916   1.997   2.091   4.673  1.3209  2.7971 -0.5316
 2095SOL     OW17917   3.813   0.329  15.645  0.6671  0.4696 -0.2190
 2095SOL    HW117918   3.720   0.338  15.622  0.8579 -1.2833 -1.7012
 2095SOL    HW217919   3.851   0.415  15.628 -0.7095  0.9908 -0.6640
 2096SOL     OW17920   2.109   3.568   9.977  0.4224  0.2189  0.4841
 2096SOL    HW117921   2.053   3.645   9.967 -0.0734 -0.3773 -1.2322
 2096SOL    HW217922   2.147   3.567   9.889  1.1386  2.2216  0.7526
 2097SOL     OW17923   1.861   1.021   7.202  0.3668  0.2943  0.0836
 2097SOL    HW117924   1.860   1.100   7.148 -2.1632 -0.9815 -1.7477
 2097SOL    HW217925   1.872   0.957   7.132 -1.1621 -0.1442  0.2506
 2098SOL     OW17926   0.228   2.804  12.187 -0.4987  0.4794 -0.1858
 2098SOL    HW117927   0.266   2.732  12.238  2.9043  2.8295  0.5900
 2098SOL    HW217928   0.141   2.806  12.226 -0.1986  0.0393  0.5094
 2099SOL     OW17929   0.757   0.538   9.390 -0.0020 -0.2882 -0.0356
 2099SOL    HW117930   0.821   0.551   9.460 -0.3396  0.2573  0.1752
 2099SOL    HW217931   0.673   0.540   9.437 -0.3768  0.2836 -0.7395
 2100SOL     OW17932   2.997   3.730   6.181  0.0879 -0.1967 -0.2027
 2100SOL    HW117933   2.970   3.809   6.229 -1.3381 -1.5112  1.1278
 2100SOL    HW217934   2.991   3.750   6.087 -0.5984 -0.2297 -0.1678
 2101SOL     OW17935   1.038   1.704   3.122 -0.7743 -0.1519  0.4916
 2101SOL    HW117936   1.045   1.624   3.175 -0.9488 -0.5013 -0.0154
 2101SOL    HW217937   1.061   1.680   3.032  1.0670  1.4118  0.5333
 2102SOL     OW17938   0.161   2.968   8.678 -0.0185 -0.4198 -0.5399
 2102SOL    HW117939   0.103   3.004   8.610  1.5623  0.7739 -1.2552
 2102SOL    HW217940   0.151   3.037   8.744  1.5357 -1.6427  0.9681
 2103SOL     OW17941   0.026   4.373   1.323 -0.2939  0.2089 -0.3171
 2103SOL    HW117942   0.027   4.395   1.416  0.8695  0.2341 -0.3400
 2103SOL    HW217943   0.040   4.462   1.292  0.7339  1.1852  2.9417
 2104SOL     OW17944   3.855   0.243   6.979 -0.5704 -0.3176 -0.0593
 2104SOL    HW117945   3.943   0.221   7.010 -0.9775  0.8252  1.9158
 2104SOL    HW217946   3.831   0.169   6.924 -0.7044 -0.0595 -0.3475
 2105SOL     OW17947   1.541   2.184   0.517 -0.3071  0.0708 -0.0950
 2105SOL    HW117948   1.459   2.175   0.469  0.5544 -1.9974 -1.1453
 2105SOL    HW217949   1.555   2.273   0.550  1.4899 -0.1067 -0.3458
 2106SOL     OW17950   3.746   0.607   5.444 -0.4032  0.2313 -0.4099
 2106SOL    HW117951   3.725   0.670   5.513  0.3300  0.7760 -0.6878
 2106SOL    HW217952   3.815   0.551   5.479  0.5670  0.4065 -2.0493
 2107SOL     OW17953   3.941   0.851   9.374 -0.0328 -0.0348 -0.3133
 2107SOL    HW117954   4.022   0.801   9.384 -0.6160 -1.0604 -0.7791
 2107SOL    HW217955   3.931   0.881   9.465 -1.0276 -1.5010  0.0603
 2108SOL     OW17956   0.518   2.406   7.705 -0.5246  0.2749  0.0218
 2108SOL    HW117957   0.605   2.365   7.705  0.0939  1.5960  0.4411
 2108SOL    HW217958   0.493   2.404   7.797 -3.4693 -0.3160 -0.8040
 2109SOL     OW17959   0.574   0.362   3.018 -0.1186  0.0089  0.0002
 2109SOL    HW117960   0.489   0.359   2.975 -1.0716 -1.1383  1.9387
 2109SOL    HW217961   0.603   0.450   2.995 -1.9715  1.2762  2.5349
 2110SOL     OW17962   1.510   4.428   8.142  0.7105 -0.0283  0.1992
 2110SOL    HW117963   1.494   4.478   8.222 -0.5216  1.7438 -1.1389
 2110SOL    HW217964   1.519   4.338   8.175 -1.7000  0.0855  1.1592
 2111SOL     OW17965   4.559   3.388   8.456  0.4342 -0.0495  0.4246
 2111SOL    HW117966   4.524   3.420   8.539  1.8083 -0.2231  1.0717
 2111SOL    HW217967   4.527   3.299   8.440  2.1744 -0.4031 -1.2021
 2112SOL     OW17968   2.867   2.316  16.091  0.3462  0.1748 -0.4070
 2112SOL    HW117969   2.953   2.347  16.061  0.9936 -0.8477  0.3629
 2112SOL    HW217970   2.802   2.356  16.033 -0.2205  0.0202  0.1247
 2113SOL     OW17971   0.284   1.894  16.434 -0.3853  0.0139 -0.0517
 2113SOL    HW117972   0.323   1.808  16.425 -1.5304 -0.3768 -1.4028
 2113SOL    HW217973   0.203   1.877  16.483 -0.2869 -0.7009 -0.1358
 2114SOL     OW17974   3.264   1.250   4.117 -0.3460  0.4176  0.0559
 2114SOL    HW117975   3.238   1.215   4.032 -2.2841  2.0548 -0.0118
 2114SOL    HW217976   3.327   1.185   4.150 -2.0375 -1.7381 -0.9585
 2115SOL     OW17977   0.123   0.960   4.194 -0.2238 -0.0919  0.3247
 2115SOL    HW117978   0.087   0.874   4.173 -0.4745  0.0125  0.3230
 2115SOL    HW217979   0.072   0.983   4.272 -0.1452  2.6047 -0.4071
 2116SOL     OW17980   1.775   0.182   3.754  0.0071 -0.2007  0.4558
 2116SOL    HW117981   1.835   0.173   3.680  0.7763 -0.2059  1.0777
 2116SOL    HW217982   1.769   0.270   3.790 -1.7849  0.9921 -2.7544
 2117SOL     OW17983   2.383   2.068   6.747 -0.5702 -0.6102 -0.1972
 2117SOL    HW117984   2.430   2.146   6.778 -1.1783 -0.2883 -0.0700
 2117SOL    HW217985   2.316   2.059   6.815 -0.3005 -0.2523  0.1195
 2118SOL     OW17986   0.295   2.315  15.255  0.0891 -0.3958 -0.2484
 2118SOL    HW117987   0.240   2.333  15.331  0.1068 -3.3205  0.4808
 2118SOL    HW217988   0.377   2.336  15.299 -1.9068  0.6850  2.8727
 2119SOL     OW17989   1.972   4.391   8.331  0.1310 -0.3545 -0.4778
 2119SOL    HW117990   1.971   4.464   8.392 -0.9100 -1.9076  1.3591
 2119SOL    HW217991   1.914   4.429   8.265  2.1829 -0.0441 -2.0916
 2120SOL     OW17992   2.556   2.000   3.014  0.4059  0.2139  0.4220
 2120SOL    HW117993   2.528   1.924   2.962  0.7082  0.6670 -0.3969
 2120SOL    HW217994   2.647   2.013   2.987 -0.2078 -0.3660 -1.8965
 2121SOL     OW17995   1.071   3.617   2.929 -0.4022 -0.3577  0.3187
 2121SOL    HW117996   1.029   3.615   3.015 -0.2718  0.8389  0.4083
 2121SOL    HW217997   1.006   3.646   2.865 -2.1834 -2.8153  1.0223
 2122SOL     OW17998   1.484   2.269   4.589  0.6346 -0.6600  0.4305
 2122SOL    HW117999   1.412   2.309   4.540  0.4421 -0.8377  0.5676
 2122SOL    HW218000   1.507   2.343   4.644 -0.4754 -0.4972  0.6816
 2123SOL     OW18001   1.043   2.361   5.772  0.1612 -0.2178 -0.3258
 2123SOL    HW118002   0.985   2.437   5.771  1.0343  0.4450 -0.7522
 2123SOL    HW218003   1.073   2.375   5.682  1.0469 -1.0404 -0.1541
 2124SOL     OW18004   3.996   4.433  11.695  0.3681 -0.4628  0.4048
 2124SOL    HW118005   4.010   4.367  11.762 -2.0402 -1.0594  0.3377
 2124SOL    HW218006   4.071   4.426  11.636 -1.0092 -2.3896 -1.0984
 2125SOL     OW18007   0.724   1.822  11.266  0.0352  0.4477 -0.2440
 2125SOL    HW118008   0.697   1.841  11.356  2.8994 -0.7949  0.8764
 2125SOL    HW218009   0.820   1.823  11.263  0.0027  1.4933 -0.9374
 2126SOL     OW18010   2.903   4.456   5.961 -0.1194 -0.3850 -0.2465
 2126SOL    HW118011   2.877   4.528   6.018  2.7071 -0.5339  1.2292
 2126SOL    HW218012   2.816   4.417   5.952 -0.5410  0.6985 -0.8150
 2127SOL     OW18013   2.358   4.036  13.446  0.1494  0.1277  0.0049
 2127SOL    HW118014   2.320   4.009  13.530  0.4529  0.6033  0.2972
 2127SOL    HW218015   2.380   4.129  13.442  0.1299  0.0624 -1.7147
 2128SOL     OW18016   1.712   3.730   6.508 -0.7827 -0.1497  0.5546
 2128SOL    HW118017   1.715   3.666   6.437 -0.5839  1.8610 -1.2582
 2128SOL    HW218018   1.798   3.712   6.545 -1.1093 -0.9583  0.9092
 2129SOL     OW18019   2.279   3.453   5.018 -0.7612 -0.2579 -0.3041
 2129SOL    HW118020   2.247   3.511   4.949 -0.9614 -0.5097 -0.4238
 2129SOL    HW218021   2.195   3.429   5.057 -1.6974  2.2755 -0.7404
 2130SOL     OW18022   3.804   1.827   3.123 -0.4888 -0.5138  0.1964
 2130SOL    HW118023   3.765   1.859   3.041  2.2046  0.3091 -0.7668
 2130SOL    HW218024   3.847   1.910   3.143 -3.3566  1.2533 -0.9920
 2131SOL     OW18025   1.284   2.962   1.530 -0.5034 -0.1312 -0.0516
 2131SOL    HW118026   1.312   3.033   1.588  0.3461  1.4558 -2.4007
 2131SOL    HW218027   1.198   2.943   1.568  0.3508 -0.6428  1.6157
 2132SOL     OW18028   2.831   1.098   6.891  0.4145  0.2224  0.4167
 2132SOL    HW118029   2.923   1.076   6.875  0.5560 -0.0881  1.6518
 2132SOL    HW218030   2.817   1.158   6.818 -1.5804 -2.4880 -1.3867
 2133SOL     OW18031   1.836   3.326  14.718 -0.6388 -0.0135 -0.0309
 2133SOL    HW118032   1.851   3.307  14.626  0.3640 -2.9195  0.7557
 2133SOL    HW218033   1.740   3.323  14.714 -0.6377  0.6501 -0.5446
 2134SOL     OW18034   2.094   3.836   8.912  0.0903 -0.3156 -0.3565
 2134SOL    HW118035   2.105   3.870   9.001  0.8989 -0.7666 -0.2893
 2134SOL    HW218036   2.133   3.749   8.915  0.4173 -0.1735 -0.6095
 2135SOL     OW18037   2.105   1.261   9.030 -0.0367  0.0233 -0.1292
 2135SOL    HW118038   2.049   1.191   9.065 -0.2095  0.7097  0.9691
 2135SOL    HW218039   2.195   1.230   9.040  0.4455  0.9173 -1.8130
 2136SOL     OW18040   1.070   0.366   5.917 -0.2344  0.1079 -0.4425
 2136SOL    HW118041   1.057   0.451   5.874 -2.2882 -0.0751 -0.1588
 2136SOL    HW218042   1.055   0.381   6.010  1.5134  1.7457 -0.4275
 2137SOL     OW18043   1.805   4.580  14.572  0.1330  0.2004  0.6640
 2137SOL    HW118044   1.891   4.548  14.546 -1.2839 -2.0710 -1.2418
 2137SOL    HW218045   1.747   4.514  14.533 -0.7092  2.3467 -1.6777
 2138SOL     OW18046   1.271   1.504   1.918 -0.8413 -0.2611 -0.0414
 2138SOL    HW118047   1.192   1.503   1.972 -0.5733 -0.3149  0.3552
 2138SOL    HW218048   1.302   1.413   1.917 -0.6085 -0.1637 -1.1687
 2139SOL     OW18049   3.077   4.034  13.405 -0.0792 -0.0821 -0.1416
 2139SOL    HW118050   3.053   3.956  13.456  2.0728 -1.4796 -1.2536
 2139SOL    HW218051   2.992   4.078  13.409 -0.2367 -0.3824 -0.1883
 2140SOL     OW18052   2.334   2.483   6.421  0.0916  0.1094 -0.0604
 2140SOL    HW118053   2.429   2.490   6.423 -0.1425  3.5909 -1.0403
 2140SOL    HW218054   2.321   2.391   6.399  1.3918  0.0103 -0.4215
 2141SOL     OW18055   1.474   0.421  17.709  0.5020  0.2784  0.7718
 2141SOL    HW118056   1.423   0.340  17.712  2.9143 -1.3280 -1.3778
 2141SOL    HW218057   1.558   0.381  17.734 -0.9098 -1.2896  3.0954
 2142SOL     OW18058   0.485   1.157   3.518 -0.0452 -0.3059  0.0904
 2142SOL    HW118059   0.487   1.159   3.613  2.8391 -0.2667  0.0405
 2142SOL    HW218060   0.394   1.181   3.501  0.4266  2.0521  0.9252
 2143SOL     OW18061   1.082   3.519   0.309 -0.3554  0.1601  0.1833
 2143SOL    HW118062   1.001   3.473   0.330  0.4842 -0.2242  2.6023
 2143SOL    HW218063   1.068   3.531   0.215 -1.9822 -0.0637  0.4048
 2144SOL     OW18064   1.878   0.385   2.417 -0.2252 -0.0859  0.4113
 2144SOL    HW118065   1.822   0.447   2.464  1.1199  2.1673 -0.9355
 2144SOL    HW218066   1.895   0.427   2.332 -0.1784  1.0355  0.9722
 2145SOL     OW18067   4.532   3.026   2.674 -0.2221  0.5997 -0.1257
 2145SOL    HW118068   4.514   3.103   2.728 -1.6564 -0.1107  0.3978
 2145SOL    HW218069   4.554   3.068   2.591 -1.8989 -0.4681 -1.0969
 2146SOL     OW18070   3.475   0.017   6.174  0.0085  0.1082 -1.0514
 2146SOL    HW118071   3.505   4.699   6.101 -0.8930 -1.0219 -0.5849
 2146SOL    HW218072   3.393   0.054   6.141 -0.3106  1.5773  1.4196
 2147SOL     OW18073   1.460   3.908   9.162  0.2442  0.2520 -0.0385
 2147SOL    HW118074   1.542   3.877   9.200  0.2099  0.3296  0.0987
 2147SOL    HW218075   1.451   3.980   9.223 -1.6917  0.7998 -0.9723
 2148SOL     OW18076   1.915   4.119   8.367  0.5359  0.0658 -0.3889
 2148SOL    HW118077   1.960   4.204   8.372  3.4808 -1.5016 -0.6198
 2148SOL    HW218078   1.988   4.060   8.352 -0.7217 -0.8572 -2.7342
 2149SOL     OW18079   1.442   2.925   5.050  0.3439 -0.6135  0.5236
 2149SOL    HW118080   1.438   3.020   5.058  4.3388 -0.3296 -0.8070
 2149SOL    HW218081   1.352   2.904   5.073 -0.0137  0.8166  0.3731
 2150SOL     OW18082   1.489   0.913   1.053  0.0205  0.5017 -0.2238
 2150SOL    HW118083   1.520   0.913   1.144  1.0009 -0.4160 -0.5471
 2150SOL    HW218084   1.566   0.889   1.002  0.2366  1.4373 -0.3290
 2151SOL     OW18085   1.568   4.557   5.035  0.2477  0.3992  0.1223
 2151SOL    HW118086   1.631   4.628   5.038  2.1262 -1.2473 -0.4790
 2151SOL    HW218087   1.618   4.495   4.982  1.5674  1.1627  0.5043
 2152SOL     OW18088   2.095   3.233   5.284 -0.2262 -0.1527 -0.8941
 2152SOL    HW118089   2.077   3.324   5.261  0.4642 -0.0761 -1.1507
 2152SOL    HW218090   2.138   3.212   5.201 -0.4929  0.1096 -1.0977
 2153SOL     OW18091   4.530   0.782   2.827  0.6275  0.2843 -0.0918
 2153SOL    HW118092   4.528   0.856   2.889 -2.9998 -0.4554  0.6967
 2153SOL    HW218093   4.556   0.823   2.745  0.1516  0.7055 -0.0328
 2154SOL     OW18094   0.232   1.334   8.513 -0.0789 -0.1182  0.0809
 2154SOL    HW118095   0.146   1.339   8.471  0.7597 -3.0447 -1.9996
 2154SOL    HW218096   0.223   1.254   8.566  0.7169 -1.0510 -1.2097
 2155SOL     OW18097   3.338   3.183  14.638  0.6972  0.1733 -0.0434
 2155SOL    HW118098   3.414   3.240  14.623  0.0344  1.8309  2.9098
 2155SOL    HW218099   3.293   3.192  14.554 -0.5859  0.2218  0.6526
 2156SOL     OW18100   2.628   0.572   7.538 -0.0314  0.0539  0.2432
 2156SOL    HW118101   2.685   0.535   7.470 -0.9704  1.6205 -1.3649
 2156SOL    HW218102   2.690   0.611   7.600  0.5041 -1.3108  0.5708
 2157SOL     OW18103   0.511   2.254  13.171  0.0958 -0.3325  0.4760
 2157SOL    HW118104   0.534   2.345  13.189 -0.8484  0.3204 -1.6534
 2157SOL    HW218105   0.494   2.234  13.263  1.4502 -1.4116  0.4958
 2158SOL     OW18106   3.950   0.042   9.269  0.3062 -0.0939  0.1904
 2158SOL    HW118107   3.899   0.121   9.249  0.4581 -0.1371 -0.3494
 2158SOL    HW218108   3.912   4.722   9.202 -3.1600  0.3868  1.7344
 2159SOL     OW18109   0.877   4.173  15.017  0.2274 -0.1087  0.3970
 2159SOL    HW118110   0.857   4.095  14.964  1.5999 -0.0229 -0.2232
 2159SOL    HW218111   0.960   4.193  14.974  0.2069 -0.0773  0.3721
 2160SOL     OW18112   1.591   3.041  13.256 -0.2099 -0.4660 -0.2742
 2160SOL    HW118113   1.666   3.003  13.303  0.0903  1.2080  0.6122
 2160SOL    HW218114   1.536   3.087  13.319 -0.0923  1.0956 -1.3317
 2161SOL     OW18115   4.005   4.153   1.365 -0.0686 -0.6908 -0.2771
 2161SOL    HW118116   4.002   4.224   1.429  0.8497 -1.7629  0.9553
 2161SOL    HW218117   3.919   4.162   1.324 -0.6293  1.4965  1.3278
 2162SOL     OW18118   4.015   3.233   1.994 -0.0080 -0.5468  0.1306
 2162SOL    HW118119   4.110   3.226   1.982 -0.2895  0.6056 -2.7542
 2162SOL    HW218120   4.001   3.313   1.943  0.4034 -0.7154 -0.2532
 2163SOL     OW18121   4.620   0.059  13.561  0.2734  0.2770 -0.4193
 2163SOL    HW118122   4.621   4.711  13.514  2.6039  0.2666 -0.3314
 2163SOL    HW218123   4.699   0.050  13.614 -1.0157  0.0280  1.4932
 2164SOL     OW18124   0.980   1.119   9.631  0.2445 -0.8358  0.8743
 2164SOL    HW118125   1.039   1.115   9.706  0.3886  0.6753  0.8443
 2164SOL    HW218126   0.980   1.030   9.596 -0.6411 -0.9267  1.1059
 2165SOL     OW18127   3.258   0.576   6.546 -0.3356  0.0549 -0.5175
 2165SOL    HW118128   3.312   0.625   6.607 -1.5132 -0.0943  0.6347
 2165SOL    HW218129   3.328   0.565   6.482 -0.5102 -0.4228 -0.6261
 2166SOL     OW18130   2.176   3.189   1.927  0.5259  0.5502  0.3589
 2166SOL    HW118131   2.195   3.275   1.965 -1.8254  1.2907 -0.1222
 2166SOL    HW218132   2.265   3.154   1.928  1.2673  2.4896  2.3451
 2167SOL     OW18133   4.452   4.373   9.284 -0.0969 -0.6078  0.6019
 2167SOL    HW118134   4.531   4.319   9.280  0.5401  0.3600  0.2248
 2167SOL    HW218135   4.488   4.451   9.325 -1.4246  1.2947 -1.8848
 2168SOL     OW18136   2.855   3.970  13.900 -0.2733  0.1822  0.0006
 2168SOL    HW118137   2.923   4.026  13.862 -0.9015  0.1133 -1.2267
 2168SOL    HW218138   2.839   3.911  13.826 -4.0967 -0.1169  1.0862
 2169SOL     OW18139   1.909   1.824   3.223 -0.1238 -0.1235  0.1284
 2169SOL    HW118140   1.884   1.907   3.184 -1.1634 -1.0859 -1.2368
 2169SOL    HW218141   1.997   1.810   3.189  0.4416  0.7889  1.2001
 2170SOL     OW18142   0.398   1.584   8.179 -0.0313 -0.1110 -0.4957
 2170SOL    HW118143   0.350   1.501   8.176 -1.1903  0.5243  0.2561
 2170SOL    HW218144   0.333   1.640   8.222 -1.6956  0.0354 -3.2007
 2171SOL     OW18145   3.743   4.386   3.413 -0.1480 -0.0074 -0.4238
 2171SOL    HW118146   3.832   4.397   3.447 -0.2041 -3.3759  0.8482
 2171SOL    HW218147   3.730   4.297   3.445 -2.0031 -0.5747 -2.7360
 2172SOL     OW18148   2.131   3.720   7.817 -0.2585  0.0349 -0.4045
 2172SOL    HW118149   2.211   3.707   7.869 -0.3057  0.1178 -0.3105
 2172SOL    HW218150   2.111   3.809   7.844 -1.3760  0.3198 -2.2317
 2173SOL     OW18151   1.781   2.060   0.446  0.1460  0.0129 -0.2980
 2173SOL    HW118152   1.698   2.093   0.479 -0.6804 -1.9571 -0.3949
 2173SOL    HW218153   1.840   2.109   0.504 -0.7694 -0.5049  1.0700
 2174SOL     OW18154   0.585   0.701  14.533  0.4220 -0.7108 -0.1882
 2174SOL    HW118155   0.497   0.673  14.507  0.3751 -1.2820  0.5563
 2174SOL    HW218156   0.629   0.647  14.468  1.8441 -0.1538  0.3140
 2175SOL     OW18157   1.631   1.722   8.485 -0.0883  0.1951  0.0323
 2175SOL    HW118158   1.713   1.673   8.491 -0.8894 -1.2660 -0.9031
 2175SOL    HW218159   1.658   1.775   8.411  1.5511  1.1136  1.2807
 2176SOL     OW18160   3.384   1.703   2.241  0.0745  0.2379  0.1245
 2176SOL    HW118161   3.355   1.718   2.151 -1.5861 -1.0417  0.4405
 2176SOL    HW218162   3.420   1.616   2.222 -1.0595 -0.2694  0.3055
 2177SOL     OW18163   3.697   0.368  11.294 -0.1742  0.5116 -0.3448
 2177SOL    HW118164   3.686   0.434  11.225  1.2669 -0.8044 -1.8428
 2177SOL    HW218165   3.726   0.420  11.369  2.2058  0.7709 -1.4358
 2178SOL     OW18166   3.452   2.366   1.258  0.1510 -0.3231  0.0340
 2178SOL    HW118167   3.452   2.393   1.350 -0.0882 -3.0695  0.8262
 2178SOL    HW218168   3.443   2.445   1.204 -0.1030 -0.2688  0.1562
 2179SOL     OW18169   4.048   1.416   7.440 -0.2433 -0.2634 -0.0749
 2179SOL    HW118170   4.119   1.474   7.413 -0.6781  0.3897  0.1949
 2179SOL    HW218171   3.985   1.483   7.466 -0.7002 -1.2307  1.3010
 2180SOL     OW18172   1.786   2.837   4.373  0.2032 -0.7649  0.2970
 2180SOL    HW118173   1.776   2.746   4.344  3.1158 -0.9105 -0.1692
 2180SOL    HW218174   1.866   2.864   4.328 -0.4763 -0.2038 -0.5752
 2181SOL     OW18175   3.833   2.189   8.473 -0.4645 -0.0746  0.0650
 2181SOL    HW118176   3.793   2.153   8.553  0.4541 -1.5483 -0.1447
 2181SOL    HW218177   3.766   2.255   8.453  0.7705  1.2331  0.2829
 2182SOL     OW18178   1.060   0.053   6.560  0.7168  0.1379  0.1759
 2182SOL    HW118179   1.031   4.699   6.546  4.0707 -1.0858  1.0921
 2182SOL    HW218180   1.144   0.027   6.600  0.7144  1.6365  1.1516
 2183SOL     OW18181   3.758   4.269  12.657 -0.1072 -0.4011 -0.4279
 2183SOL    HW118182   3.708   4.246  12.735 -0.7048  1.7982 -0.1613
 2183SOL    HW218183   3.847   4.266  12.692  0.1608  1.7247 -0.8896
 2184SOL     OW18184   0.889   2.697   5.661  0.2829 -0.1218  0.3426
 2184SOL    HW118185   0.834   2.647   5.601 -2.4888  1.5622  1.5020
 2184SOL    HW218186   0.815   2.721   5.716 -1.6173 -1.4193 -1.6678
 2185SOL     OW18187   1.480   2.987   3.685  0.1912 -0.9038  0.9171
 2185SOL    HW118188   1.510   2.933   3.612 -0.1696 -0.8919  0.7618
 2185SOL    HW218189   1.474   3.074   3.646  0.4440 -1.2015  0.2130
 2186SOL     OW18190   4.333   0.264  15.906  0.2206 -0.0674  0.4360
 2186SOL    HW118191   4.388   0.343  15.902 -0.4306  0.5632  3.8280
 2186SOL    HW218192   4.363   0.222  15.987  1.7283 -0.1226 -0.1474
 2187SOL     OW18193   0.402   0.996   1.592  0.5884  0.1854  0.0827
 2187SOL    HW118194   0.495   0.986   1.613  0.3857 -3.3414 -0.7170
 2187SOL    HW218195   0.368   0.911   1.620 -0.2814  0.7321  0.6455
 2188SOL     OW18196   0.058   3.497   9.568 -0.2146 -0.3914  0.2027
 2188SOL    HW118197   4.731   3.459   9.508  0.0872  3.3290 -2.4625
 2188SOL    HW218198   0.016   3.481   9.653 -0.2947  0.8420  0.3870
 2189SOL     OW18199   1.907   0.882   5.517  0.1462 -0.0966  0.3066
 2189SOL    HW118200   1.893   0.854   5.426 -2.2646  1.3457  0.2473
 2189SOL    HW218201   1.889   0.975   5.507  1.3880 -0.0061 -1.0378
 2190SOL     OW18202   4.022   0.069   4.338  0.0102  0.1304  0.2138
 2190SOL    HW118203   4.052   0.002   4.399  0.1082 -1.5042 -1.6283
 2190SOL    HW218204   3.929   0.050   4.322 -0.1055  1.2048 -0.3981
 2191SOL     OW18205   4.258   1.261   3.781 -0.1473 -0.1701 -0.3299
 2191SOL    HW118206   4.298   1.348   3.775 -1.0079  0.2991  0.6901
 2191SOL    HW218207   4.240   1.268   3.875  0.6429  2.3886 -0.3741
 2192SOL     OW18208   2.550   2.389   7.733 -0.3267 -0.1607 -0.2447
 2192SOL    HW118209   2.474   2.376   7.677  0.5370  0.8351 -1.6381
 2192SOL    HW218210   2.579   2.298   7.739 -1.3056 -0.5660 -1.8991
 2193SOL     OW18211   4.500   1.279   8.899 -0.5766  0.1126  0.5204
 2193SOL    HW118212   4.538   1.353   8.946  1.1742 -1.7824  2.0937
 2193SOL    HW218213   4.423   1.321   8.861 -1.5753 -0.9133  1.3905
 2194SOL     OW18214   3.271   0.191  13.842  0.0337 -0.4722 -0.2091
 2194SOL    HW118215   3.347   0.247  13.828 -1.0158  0.5360 -1.8377
 2194SOL    HW218216   3.271   0.143  13.760 -0.0829  1.4928 -1.3640
 2195SOL     OW18217   0.490   0.607   6.786  0.2611 -0.5041 -0.0798
 2195SOL    HW118218   0.472   0.621   6.693 -0.4886  0.3731  0.1978
 2195SOL    HW218219   0.561   0.669   6.802 -1.7200  1.1207  2.4614
 2196SOL     OW18220   0.911   3.384   3.131 -0.8179 -0.0208 -0.0975
 2196SOL    HW118221   0.823   3.422   3.119 -1.0642  0.0695  1.8894
 2196SOL    HW218222   0.887   3.325   3.203  0.0832  0.4835  0.6183
 2197SOL     OW18223   3.358   4.346   9.941 -0.2848 -0.1613  0.3445
 2197SOL    HW118224   3.316   4.263   9.962 -1.3064  0.3293  0.2366
 2197SOL    HW218225   3.362   4.330   9.847  1.3939 -2.4225  0.8083
 2198SOL     OW18226   1.425   1.112   0.627  0.0454  0.1352 -0.1384
 2198SOL    HW118227   1.454   1.193   0.670  0.4270 -0.4361  0.6670
 2198SOL    HW218228   1.390   1.071   0.706  0.6568 -0.2003 -0.0441
 2199SOL     OW18229   3.363   2.850   3.294 -0.2767  0.1375  0.0107
 2199SOL    HW118230   3.389   2.760   3.316 -0.9765 -0.1556 -0.3753
 2199SOL    HW218231   3.360   2.850   3.199 -0.5411  3.6379  0.0394
 2200SOL     OW18232   2.933   4.593   3.846  0.2382 -0.7359 -0.2241
 2200SOL    HW118233   2.919   4.680   3.884  1.3005 -0.3799 -0.6462
 2200SOL    HW218234   2.896   4.606   3.758 -0.3599  0.0983  0.1563
 2201SOL     OW18235   0.507   1.449   2.182 -0.1270  0.4709  0.2160
 2201SOL    HW118236   0.544   1.403   2.258 -0.8025 -1.6427 -0.7294
 2201SOL    HW218237   0.568   1.417   2.115  1.8286  2.1640  1.1629
 2202SOL     OW18238   3.495   0.908   2.290 -0.0741 -0.4581  0.5211
 2202SOL    HW118239   3.457   0.912   2.202 -0.3595  0.7029  0.6927
 2202SOL    HW218240   3.519   0.817   2.307  0.1060 -0.4109  0.5159
 2203SOL     OW18241   0.239   0.128  14.360 -0.5931  0.2833 -0.3174
 2203SOL    HW118242   0.202   0.195  14.303  0.3862  0.8958 -0.2503
 2203SOL    HW218243   0.169   0.064  14.359 -0.4811  0.1370  0.5979
 2204SOL     OW18244   4.151   3.437  14.082  0.0235  0.4940  0.5763
 2204SOL    HW118245   4.142   3.348  14.049  1.5066 -0.5131  2.9024
 2204SOL    HW218246   4.225   3.482  14.041  0.6456 -0.6167  0.4935
 2205SOL     OW18247   0.136   0.015   8.272  0.5839  0.1825 -0.3494
 2205SOL    HW118248   0.210   0.071   8.247  1.0507 -0.5877 -0.6965
 2205SOL    HW218249   0.076   0.057   8.211  1.0623  0.5874 -0.5447
 2206SOL     OW18250   3.793   1.275  10.963 -0.1188 -0.0612 -0.3650
 2206SOL    HW118251   3.831   1.187  10.970  0.5590  0.3794  1.4655
 2206SOL    HW218252   3.755   1.273  10.875  0.7139 -0.0467 -0.7303
 2207SOL     OW18253   1.061   1.630   6.828  0.0589  0.1706 -0.0769
 2207SOL    HW118254   1.121   1.635   6.753  0.2260  1.2418  0.1312
 2207SOL    HW218255   1.119   1.603   6.899  2.9849  1.7313 -1.8731
 2208SOL     OW18256   4.213   0.832   5.037  0.4417 -0.3497 -0.7577
 2208SOL    HW118257   4.220   0.746   4.996  0.1070  0.4586 -2.4968
 2208SOL    HW218258   4.119   0.847   5.033  0.0187 -2.2047  2.4362
 2209SOL     OW18259   4.112   0.595   5.247  0.0917  0.0825  0.2286
 2209SOL    HW118260   4.130   0.503   5.269 -0.1772  0.1065  0.5569
 2209SOL    HW218261   4.145   0.613   5.159 -1.7058  2.4363  0.0375
 2210SOL     OW18262   4.184   0.185   8.305 -0.0364 -0.0111 -0.0846
 2210SOL    HW118263   4.232   0.145   8.233  0.3982 -1.7930  1.1814
 2210SOL    HW218264   4.093   0.181   8.276 -0.2106 -0.2827  0.4777
 2211SOL     OW18265   4.625   1.444  11.642  0.1172  0.0393 -0.8423
 2211SOL    HW118266   4.636   1.509  11.573 -2.1176  1.7752  0.4242
 2211SOL    HW218267   4.702   1.464  11.696  0.3820 -1.7557 -0.5424
 2212SOL     OW18268   1.360   3.208   5.409  0.3403  0.3905 -0.1523
 2212SOL    HW118269   1.298   3.157   5.461 -0.6284 -0.8960 -2.5531
 2212SOL    HW218270   1.376   3.284   5.465  1.3345  0.1669 -0.1279
 2213SOL     OW18271   4.498   3.094   9.476  0.0645 -0.7492  0.1006
 2213SOL    HW118272   4.589   3.114   9.499  0.8149 -1.6549 -2.1274
 2213SOL    HW218273   4.491   3.001   9.457  0.3601 -0.7515  0.0175
 2214SOL     OW18274   2.893   4.362   2.455  0.2356 -0.0460 -0.1953
 2214SOL    HW118275   2.860   4.452   2.452  1.0927  0.1260 -4.1464
 2214SOL    HW218276   2.984   4.371   2.484 -0.1588  0.0782  1.0072
 2215SOL     OW18277   3.618   4.293  11.420 -0.4474  0.3325 -0.0682
 2215SOL    HW118278   3.680   4.260  11.355 -1.2872 -0.8504 -0.2850
 2215SOL    HW218279   3.680   4.353  11.460 -1.2591  0.1601  1.4572
 2216SOL     OW18280   0.461   0.023  14.470 -0.1106  0.0637 -0.1067
 2216SOL    HW118281   0.434   4.667  14.468 -0.7673  0.3170 -1.9923
 2216SOL    HW218282   0.395   0.064  14.414 -0.8938 -1.3757 -0.2354
 2217SOL     OW18283   3.187   2.434   5.482  0.0901 -0.4761 -0.1376
 2217SOL    HW118284   3.276   2.442   5.515 -0.2518 -2.5839  1.2913
 2217SOL    HW218285   3.127   2.462   5.551 -1.2082 -0.2172 -1.3535
 2218SOL     OW18286   2.189   2.539   1.981  0.0993  0.6676  0.7923
 2218SOL    HW118287   2.220   2.449   1.968  1.3550  0.9456  1.8800
 2218SOL    HW218288   2.267   2.582   2.014  0.1901  0.7001  0.5357
 2219SOL     OW18289   3.506   0.035  12.523 -0.0541  0.3680  0.3691
 2219SOL    HW118290   3.474   0.030  12.613 -0.2771 -0.7767  0.2209
 2219SOL    HW218291   3.593   4.730  12.523  1.6939  4.0982  0.0411
 2220SOL     OW18292   3.802   4.499   9.148  0.0924  0.1697  0.1522
 2220SOL    HW118293   3.783   4.455   9.065 -1.6665  0.4677  0.3825
 2220SOL    HW218294   3.825   4.419   9.195  1.0708  0.2687 -0.1533
 2221SOL     OW18295   1.640   1.887  16.357  0.3307  0.3060 -0.3058
 2221SOL    HW118296   1.659   1.847  16.441  1.8701  0.3612 -0.6362
 2221SOL    HW218297   1.698   1.855  16.288 -0.8376 -1.5146 -0.4381
 2222SOL     OW18298   1.821   0.927   3.466  0.2631  0.1588  0.0878
 2222SOL    HW118299   1.853   0.854   3.412 -0.0476 -0.7996  1.2021
 2222SOL    HW218300   1.743   0.894   3.510  0.3390 -0.0276  0.0834
 2223SOL     OW18301   3.555   2.915   5.958 -0.1679 -0.4802  0.0446
 2223SOL    HW118302   3.538   2.948   5.870  0.2192  3.4402  1.4621
 2223SOL    HW218303   3.608   2.986   5.994 -0.9439  1.1416 -2.0479
 2224SOL     OW18304   0.768   0.940   9.260 -0.5999 -0.0681  0.1675
 2224SOL    HW118305   0.696   0.937   9.324 -0.1171  1.4113  0.7755
 2224SOL    HW218306   0.779   0.852   9.225  2.1366 -0.7829  2.8890
 2225SOL     OW18307   2.612   1.703   5.812  0.2715  0.0256 -0.7283
 2225SOL    HW118308   2.545   1.767   5.791 -1.3722 -1.2620  0.5620
 2225SOL    HW218309   2.662   1.747   5.880 -0.5297  2.5110 -1.7369
 2226SOL     OW18310   2.564   1.736   9.477 -0.1749  0.3492  0.2432
 2226SOL    HW118311   2.555   1.663   9.415  1.4859 -0.3280  0.7824
 2226SOL    HW218312   2.489   1.793   9.461 -0.5928 -0.7508 -1.7647
 2227SOL     OW18313   0.898   0.262  15.950 -0.0131  0.0138  0.1809
 2227SOL    HW118314   0.807   0.260  15.922  0.1464 -2.6217 -0.1291
 2227SOL    HW218315   0.905   0.191  16.013  3.1079  0.3226  0.1835
 2228SOL     OW18316   0.614   1.146  17.134  0.5451 -0.1313 -0.5806
 2228SOL    HW118317   0.522   1.132  17.111  0.3118  0.2936  0.0776
 2228SOL    HW218318   0.620   1.138  17.229 -1.2692  0.9920 -0.3676
 2229SOL     OW18319   0.230   2.703   6.167  0.4527 -0.1059 -0.4862
 2229SOL    HW118320   0.264   2.742   6.247 -2.5588  0.8395  0.3328
 2229SOL    HW218321   0.267   2.615   6.164 -0.2855 -0.4078 -0.5763
 2230SOL     OW18322   1.118   4.122   1.792  0.7447 -0.4106  0.2099
 2230SOL    HW118323   1.127   4.026   1.795 -1.2185 -0.5596  0.9991
 2230SOL    HW218324   1.044   4.146   1.737 -0.1616 -1.4212  0.9780
 2231SOL     OW18325   4.375   2.265   7.340  0.0298 -0.1015 -0.0725
 2231SOL    HW118326   4.464   2.233   7.325  0.4449  0.7972  0.4262
 2231SOL    HW218327   4.396   2.358   7.330  0.3275 -0.2890 -1.1627
 2232SOL     OW18328   1.387   2.494   8.649  0.0828  0.3105  0.4370
 2232SOL    HW118329   1.434   2.528   8.573  1.7470 -0.8096  0.9684
 2232SOL    HW218330   1.327   2.431   8.607 -0.8896  1.1760  0.5178
 2233SOL     OW18331   0.262   2.944   1.914  0.2822 -0.0288 -0.1956
 2233SOL    HW118332   0.336   2.946   1.974  0.6499  0.7478 -0.6630
 2233SOL    HW218333   0.188   2.931   1.974 -0.2708 -1.5591 -1.2078
 2234SOL     OW18334   4.442   1.645   1.414 -0.6610  0.0934 -0.1751
 2234SOL    HW118335   4.406   1.608   1.333 -0.9562 -3.3984  1.5796
 2234SOL    HW218336   4.432   1.578   1.481  0.2331 -1.3790 -1.5356
 2235SOL     OW18337   3.641   0.230   8.285  0.7279  0.3095 -0.4522
 2235SOL    HW118338   3.643   0.198   8.375  1.5725 -0.0438 -0.5973
 2235SOL    HW218339   3.549   0.220   8.259  1.3267 -1.2376 -2.0032
 2236SOL     OW18340   1.055   1.561   7.827 -0.3180 -0.2197  0.2867
 2236SOL    HW118341   1.102   1.644   7.839 -2.5227  0.9735  0.8217
 2236SOL    HW218342   1.001   1.559   7.906  0.5572  0.4658  0.8996
 2237SOL     OW18343   2.374   4.627   1.282  0.1699  0.2232  0.4913
 2237SOL    HW118344   2.351   4.589   1.366 -2.2811 -0.6934 -0.5877
 2237SOL    HW218345   2.329   4.560   1.229  0.1861 -0.0726  0.8535
 2238SOL     OW18346   3.371   1.325  13.960 -0.3595  0.0438  0.3657
 2238SOL    HW118347   3.295   1.267  13.968 -0.7006  0.4890  0.3967
 2238SOL    HW218348   3.440   1.260  13.973 -0.4444 -0.7599 -3.3219
 2239SOL     OW18349   0.181   4.075  13.641 -0.8142  0.5898 -0.3568
 2239SOL    HW118350   0.217   4.104  13.557 -0.2292  2.8144  0.6799
 2239SOL    HW218351   0.102   4.029  13.612 -0.6026  1.7362 -2.7559
 2240SOL     OW18352   2.967   2.343   1.685  0.2646 -0.2834 -0.0035
 2240SOL    HW118353   2.937   2.296   1.764 -0.2382  0.0342 -0.0051
 2240SOL    HW218354   3.033   2.401   1.723  0.4774  0.6086 -1.7333
 2241SOL     OW18355   3.383   4.306   8.870 -0.2677 -0.1460  0.0388
 2241SOL    HW118356   3.292   4.329   8.856  0.4131  0.7765 -2.6956
 2241SOL    HW218357   3.422   4.392   8.853 -1.3511  0.3339 -0.0418
 2242SOL     OW18358   2.552   4.309  14.808  0.2423  0.0953 -0.1154
 2242SOL    HW118359   2.474   4.254  14.807  1.2473 -1.3354  0.2495
 2242SOL    HW218360   2.595   4.278  14.888  1.5353  2.4866  0.1021
 2243SOL     OW18361   4.107   0.982  10.265  0.0691  0.3196  0.3211
 2243SOL    HW118362   4.112   1.050  10.197  1.5990  0.6023  0.7063
 2243SOL    HW218363   4.167   1.009  10.335 -0.6810 -2.0634  1.8541
 2244SOL     OW18364   0.783   1.284  14.926  0.4857 -0.2603  0.5410
 2244SOL    HW118365   0.815   1.261  14.839 -0.6572 -0.2485  0.1253
 2244SOL    HW218366   0.824   1.370  14.932 -0.0706  0.1388 -1.4093
 2245SOL     OW18367   1.064   1.001   0.887 -0.0815  0.1578 -0.6521
 2245SOL    HW118368   1.109   1.045   0.815  1.9517 -0.2068  0.3887
 2245SOL    HW218369   0.974   1.026   0.868  0.3770  1.8147 -0.6514
 2246SOL     OW18370   2.719   3.701   7.446 -0.1086 -0.1956  0.1876
 2246SOL    HW118371   2.793   3.645   7.422  0.3474  0.3669  0.2804
 2246SOL    HW218372   2.684   3.652   7.520  0.8729 -0.6325  0.3680
 2247SOL     OW18373   1.023   2.356   1.399  0.4282 -0.3978  0.0495
 2247SOL    HW118374   1.039   2.319   1.485  1.9369 -2.6511 -1.2063
 2247SOL    HW218375   1.050   2.445   1.422 -2.3187 -0.1531  2.3008
 2248SOL     OW18376   0.284   0.426  15.321 -0.2059  0.1975  0.4057
 2248SOL    HW118377   0.328   0.500  15.280 -0.2898 -0.6918 -1.3002
 2248SOL    HW218378   0.243   0.464  15.399 -2.0677 -1.5837  0.2987
 2249SOL     OW18379   2.181   1.491   6.636  0.3961 -0.4943  0.3444
 2249SOL    HW118380   2.170   1.508   6.730  0.7399 -1.2426  0.5234
 2249SOL    HW218381   2.099   1.524   6.600 -0.0221 -0.2073  1.5368
 2250SOL     OW18382   4.686   0.096   8.865 -0.1532 -0.5705 -0.0468
 2250SOL    HW118383   4.676   0.067   8.774  0.7775 -0.5122 -0.1695
 2250SOL    HW218384   4.624   0.168   8.868 -1.8284 -1.9556 -1.3415
 2251SOL     OW18385   4.319   1.659   4.816  0.1697  0.6723 -0.2080
 2251SOL    HW118386   4.401   1.672   4.767 -1.1976  1.4928 -2.2669
 2251SOL    HW218387   4.268   1.598   4.762  2.7663 -1.4371 -0.2864
 2252SOL     OW18388   3.128   0.906   1.954 -0.1139  0.0333 -0.7325
 2252SOL    HW118389   3.095   0.837   2.010  1.2687  1.5042  1.8996
 2252SOL    HW218390   3.070   0.971   1.994  1.1130  1.5291 -1.3305
 2253SOL     OW18391   2.165   2.988   6.483 -0.2741  0.3032 -0.0606
 2253SOL    HW118392   2.237   2.927   6.462  0.5074  1.1305  0.2128
 2253SOL    HW218393   2.203   3.072   6.458 -1.0486  0.3973 -0.9053
 2254SOL     OW18394   0.274   0.657   5.982  0.0734  0.3416 -0.2413
 2254SOL    HW118395   0.250   0.749   5.996  1.4088  0.8246 -1.0307
 2254SOL    HW218396   0.354   0.674   5.931 -0.2603  0.5581 -0.6879
 2255SOL     OW18397   1.908   0.706   3.325 -0.1292 -0.1968 -0.1428
 2255SOL    HW118398   1.914   0.642   3.396  1.5555  0.6871  0.5197
 2255SOL    HW218399   1.859   0.658   3.258 -0.2359  0.2702 -0.3984
 2256SOL     OW18400   2.254   0.115   5.001  0.3981 -0.4121  0.5755
 2256SOL    HW118401   2.234   0.060   5.077  2.6946 -1.5094  0.3837
 2256SOL    HW218402   2.186   0.183   4.998 -0.3861 -1.2106  0.0049
 2257SOL     OW18403   0.487   3.544   4.681  0.6646 -0.0444  0.0938
 2257SOL    HW118404   0.497   3.618   4.621 -1.4782 -0.4931 -0.8215
 2257SOL    HW218405   0.532   3.477   4.631 -1.8392 -1.8952  0.2972
 2258SOL     OW18406   0.462   4.408   2.416  0.2559 -0.1959  0.2583
 2258SOL    HW118407   0.516   4.334   2.445 -0.4745 -0.5302  0.7696
 2258SOL    HW218408   0.535   4.469   2.413 -0.1979  0.4306  1.9229
 2259SOL     OW18409   4.113   4.351   4.311  0.3524  0.0890  0.3623
 2259SOL    HW118410   4.027   4.341   4.270  0.3508 -2.1923  0.9017
 2259SOL    HW218411   4.096   4.324   4.401 -3.2416  2.3799  0.3212
 2260SOL     OW18412   2.856   4.386   8.180 -0.3552 -0.1705 -0.0639
 2260SOL    HW118413   2.888   4.312   8.231 -1.4235 -0.5357  0.0787
 2260SOL    HW218414   2.842   4.347   8.094 -0.9123 -0.7506  0.2863
 2261SOL     OW18415   2.716   1.236   1.233  0.2600 -0.2057 -0.3417
 2261SOL    HW118416   2.692   1.322   1.269  0.1213 -0.3573 -0.0724
 2261SOL    HW218417   2.634   1.196   1.262  1.0280 -1.1796  0.4608
 2262SOL     OW18418   3.305   2.734   6.326 -0.4928  0.0602  0.0563
 2262SOL    HW118419   3.274   2.824   6.316 -0.2326  0.0198 -1.0856
 2262SOL    HW218420   3.374   2.721   6.261 -1.4709  1.2877 -1.2269
 2263SOL     OW18421   1.084   3.523   7.004  0.0991 -0.2696 -0.4097
 2263SOL    HW118422   1.121   3.605   7.037 -1.8239  0.5521 -0.2913
 2263SOL    HW218423   1.003   3.519   7.054 -0.1115 -3.0809 -0.9569
 2264SOL     OW18424   1.720   3.050   7.784 -0.0055  0.2752 -0.4665
 2264SOL    HW118425   1.768   3.133   7.778  3.0188 -1.5422 -0.9541
 2264SOL    HW218426   1.670   3.054   7.866  0.2618 -1.7695 -0.2219
 2265SOL     OW18427   1.771   2.978   5.907  0.5844 -0.7302 -0.0174
 2265SOL    HW118428   1.737   2.891   5.886  0.4129 -0.8379  0.6884
 2265SOL    HW218429   1.703   3.004   5.970  0.3822 -0.6814 -0.2546
 2266SOL     OW18430   4.664   0.211   2.773 -0.0166 -0.1100 -0.3814
 2266SOL    HW118431   4.597   0.162   2.725 -0.3497  0.1717 -0.1978
 2266SOL    HW218432   4.634   0.199   2.863 -0.5797  0.3565 -0.5094
 2267SOL     OW18433   2.439   0.472  13.747 -0.2608  0.7132  0.3665
 2267SOL    HW118434   2.420   0.382  13.721 -1.7758  2.5824 -5.1012
 2267SOL    HW218435   2.353   0.495  13.783 -1.6577  0.6646 -2.9203
 2268SOL     OW18436   3.037   1.386   9.262  0.1205 -0.1450 -0.0409
 2268SOL    HW118437   3.070   1.475   9.248 -0.4972 -0.1364 -1.4734
 2268SOL    HW218438   2.987   1.408   9.340 -0.5004  1.4851 -0.8989
 2269SOL     OW18439   2.983   2.659   5.028  0.2938 -0.5729 -0.2762
 2269SOL    HW118440   2.988   2.626   4.938  1.0655 -0.4439 -0.2815
 2269SOL    HW218441   2.902   2.623   5.062  0.0899 -0.1446 -0.3003
 2270SOL     OW18442   2.484   3.826  17.585  0.4473  0.4011 -0.4537
 2270SOL    HW118443   2.544   3.783  17.525  0.9378  2.0913 -1.1813
 2270SOL    HW218444   2.476   3.752  17.646  0.1960 -0.4784 -1.5632
 2271SOL     OW18445   3.307   3.422   4.593  0.1063  0.2014 -0.2658
 2271SOL    HW118446   3.398   3.447   4.581  0.3286 -0.6527 -0.3482
 2271SOL    HW218447   3.261   3.499   4.626 -0.3554  0.2138 -0.9356
 2272SOL     OW18448   1.626   1.732   3.075  0.4470 -0.3474  0.0230
 2272SOL    HW118449   1.671   1.770   3.000 -1.3505 -0.4424 -1.1142
 2272SOL    HW218450   1.702   1.686   3.110  0.0353 -1.2598 -0.2649
 2273SOL     OW18451   1.315   2.777   8.226 -0.2435 -0.0263  0.0650
 2273SOL    HW118452   1.252   2.849   8.216  1.2373  1.0615 -1.3813
 2273SOL    HW218453   1.374   2.821   8.287 -1.5507 -0.1862  1.4582
 2274SOL     OW18454   2.996   3.161   9.402  0.3005  0.4002 -0.1254
 2274SOL    HW118455   2.940   3.099   9.449 -0.8445  0.2015 -1.7675
 2274SOL    HW218456   2.947   3.180   9.322  1.4303  0.9968 -0.6814
 2275SOL     OW18457   3.208   2.043   3.633  0.3489  0.4980 -0.1010
 2275SOL    HW118458   3.122   2.074   3.606  0.1038  0.3713  0.5302
 2275SOL    HW218459   3.264   2.095   3.576  1.6872 -0.6655  0.1455
 2276SOL     OW18460   4.301   1.736   6.509 -0.0377  0.0337 -0.0862
 2276SOL    HW118461   4.248   1.686   6.571  1.6144 -1.3778  0.1793
 2276SOL    HW218462   4.375   1.676   6.509  0.4662  0.6583  0.7671
 2277SOL     OW18463   1.449   1.910   2.899 -0.5073  0.7361  0.1474
 2277SOL    HW118464   1.354   1.923   2.890 -0.2780  2.2029 -0.2376
 2277SOL    HW218465   1.452   1.817   2.919 -0.0889  1.0788  1.6367
 2278SOL     OW18466   2.074   0.761   2.617 -0.4373  0.7346 -0.0719
 2278SOL    HW118467   2.004   0.742   2.680  0.1794 -0.7682  0.1598
 2278SOL    HW218468   2.043   0.740   2.529 -1.6763  2.5016 -0.0589
 2279SOL     OW18469   2.850   4.219   4.056  0.8679 -0.5693 -0.0770
 2279SOL    HW118470   2.937   4.230   4.094  1.4791 -0.5714 -1.4806
 2279SOL    HW218471   2.811   4.156   4.117  0.5120 -2.5641 -2.3206
 2280SOL     OW18472   4.052   1.687  12.698 -0.0131 -0.2193 -0.5238
 2280SOL    HW118473   4.103   1.764  12.674  0.8382 -0.1665  1.4548
 2280SOL    HW218474   4.112   1.623  12.735 -2.0481 -1.0091  1.4685
 2281SOL     OW18475   3.056   0.156  14.308 -0.1217  0.0387  0.2405
 2281SOL    HW118476   3.111   0.184  14.235 -0.8386 -0.1453 -0.3652
 2281SOL    HW218477   3.125   0.154  14.374  0.4116  0.8139 -0.2886
 2282SOL     OW18478   4.211   3.674   1.252  0.0856  0.0631  0.7526
 2282SOL    HW118479   4.142   3.731   1.217  1.4466  0.8991 -0.5166
 2282SOL    HW218480   4.271   3.737   1.292 -0.3094 -0.1353  1.6739
 2283SOL     OW18481   3.841   1.836   0.591  0.1355  0.0073  0.6360
 2283SOL    HW118482   3.783   1.847   0.516 -0.8106 -0.9058  1.2420
 2283SOL    HW218483   3.914   1.895   0.571 -0.2483 -0.4667 -2.1617
 2284SOL     OW18484   2.630   1.890  14.004  0.0992 -0.4412 -0.0320
 2284SOL    HW118485   2.715   1.910  14.044 -0.0374  1.6547 -0.7968
 2284SOL    HW218486   2.573   1.925  14.072  1.1009  3.2785 -1.1129
 2285SOL     OW18487   3.167   4.374   2.489 -0.0950  0.0811 -0.6092
 2285SOL    HW118488   3.199   4.431   2.418  0.3642 -0.4975 -0.8686
 2285SOL    HW218489   3.237   4.311   2.505 -0.2450 -0.2183 -1.1292
 2286SOL     OW18490   4.125   4.356  13.403  0.1938 -0.2393  0.0522
 2286SOL    HW118491   4.167   4.349  13.317 -1.9208 -3.5858 -0.7040
 2286SOL    HW218492   4.146   4.272  13.442 -0.0604  0.7924  2.4176
 2287SOL     OW18493   0.337   4.604  13.024  0.0159 -0.0355 -0.8078
 2287SOL    HW118494   0.351   4.677  12.964 -0.3571 -0.4858 -1.4346
 2287SOL    HW218495   0.426   4.568  13.030  1.5564  3.7989 -1.0636
 2288SOL     OW18496   3.668   1.282  10.641  0.1058  0.4911  0.0608
 2288SOL    HW118497   3.752   1.255  10.602 -1.0357 -0.3253 -1.8047
 2288SOL    HW218498   3.630   1.329  10.566 -1.3821 -0.1037  0.4572
 2289SOL     OW18499   0.539   3.038  11.854  0.5655  0.0707 -0.8142
 2289SOL    HW118500   0.461   3.011  11.903  0.5096  0.6892 -0.5634
 2289SOL    HW218501   0.583   2.956  11.835  0.2072 -0.3852  0.3362
 2290SOL     OW18502   1.627   1.624   5.316 -0.0729 -0.0282  0.7023
 2290SOL    HW118503   1.602   1.714   5.298 -0.9385 -0.5146 -0.5412
 2290SOL    HW218504   1.568   1.612   5.391 -0.9553 -2.0644 -0.3242
 2291SOL     OW18505   4.627   4.228   4.521 -0.5161 -0.0639 -0.0929
 2291SOL    HW118506   4.533   4.240   4.527 -0.1274  4.6140 -2.8483
 2291SOL    HW218507   4.629   4.150   4.576  0.3113  0.7238  0.9840
 2292SOL     OW18508   1.037   4.601   7.818 -0.2671 -0.1491  0.1796
 2292SOL    HW118509   1.061   4.508   7.822  1.8218  0.4581  1.4420
 2292SOL    HW218510   1.097   4.638   7.882 -1.5174 -0.0179  1.2631
 2293SOL     OW18511   0.906   0.851   8.109 -0.1711 -0.2662 -0.0523
 2293SOL    HW118512   0.839   0.875   8.044  0.6632  0.0798 -0.7863
 2293SOL    HW218513   0.888   0.914   8.178 -2.4207  1.1395 -1.8766
 2294SOL     OW18514   0.930   3.207   6.060  0.1222  0.2205  0.1021
 2294SOL    HW118515   0.919   3.120   6.021  0.2259  0.1862  0.1478
 2294SOL    HW218516   1.020   3.217   6.089  1.1926 -3.7768 -1.8280
 2295SOL     OW18517   4.321   0.221   7.229 -0.0756 -0.3403 -0.0323
 2295SOL    HW118518   4.343   0.181   7.313  2.7173  2.5756  0.6230
 2295SOL    HW218519   4.401   0.215   7.177  1.1077 -0.4446  1.7917
 2296SOL     OW18520   0.358   1.988   7.495 -0.2900 -0.3627  0.3201
 2296SOL    HW118521   0.355   2.082   7.513 -3.4479 -0.4148  0.0502
 2296SOL    HW218522   0.405   1.952   7.570  1.7093 -1.6756 -1.5678
 2297SOL     OW18523   4.266   2.110   2.259 -1.0262  0.0992 -0.1271
 2297SOL    HW118524   4.185   2.065   2.236  1.6002 -5.3427  0.9840
 2297SOL    HW218525   4.301   2.047   2.322 -2.4194 -1.0357 -0.4897
 2298SOL     OW18526   2.087   2.015   1.729  0.5588  0.1168 -0.3496
 2298SOL    HW118527   2.128   2.100   1.742  0.7702 -0.3098  1.6651
 2298SOL    HW218528   2.110   2.011   1.636  1.6544  1.1157 -0.1281
 2299SOL     OW18529   0.540   2.136   1.108  0.2097 -0.0375 -0.0937
 2299SOL    HW118530   0.562   2.197   1.037 -0.0001  0.2168  0.0570
 2299SOL    HW218531   0.492   2.072   1.056  1.4348 -0.6262 -0.4900
 2300SOL     OW18532   2.207   1.882   4.857  0.4546 -1.0346 -0.1989
 2300SOL    HW118533   2.164   1.953   4.810  0.7400 -0.9617 -0.3497
 2300SOL    HW218534   2.219   1.927   4.941 -0.6104 -1.3045  0.0930
 2301SOL     OW18535   0.350   4.649   8.995  0.0128 -0.2166  0.1558
 2301SOL    HW118536   0.373   0.005   9.007  0.2998 -0.3627  0.7213
 2301SOL    HW218537   0.378   4.619   9.082 -0.8186 -2.8270 -0.4731
 2302SOL     OW18538   0.083   0.287  14.199 -0.0243  0.1197 -0.1053
 2302SOL    HW118539   0.002   0.250  14.164  0.4322  0.5395 -1.5766
 2302SOL    HW218540   0.048   0.369  14.235  1.5480  1.3536 -1.4452
 2303SOL     OW18541   4.432   2.638   3.613  0.0135  0.6152 -0.1870
 2303SOL    HW118542   4.347   2.683   3.612  0.6459  1.7499 -3.5435
 2303SOL    HW218543   4.487   2.694   3.668 -0.6992 -0.0861  1.2628
 2304SOL     OW18544   2.959   3.106   6.790  0.4700 -0.3583 -0.4280
 2304SOL    HW118545   3.038   3.151   6.761  1.1226  0.2008  2.2275
 2304SOL    HW218546   2.889   3.149   6.740 -0.1355 -1.6915 -0.7268
 2305SOL     OW18547   0.571   1.296  12.875  0.3987 -0.7403 -0.1024
 2305SOL    HW118548   0.565   1.391  12.862  2.1790 -0.6033  0.0643
 2305SOL    HW218549   0.636   1.284  12.944 -0.1330 -0.6916  0.4080
 2306SOL     OW18550   2.270   2.102  11.773  0.3345  0.0297  0.0517
 2306SOL    HW118551   2.268   2.026  11.831  0.1001  0.4695  0.6192
 2306SOL    HW218552   2.317   2.069  11.697 -1.4629 -1.8759 -0.2364
 2307SOL     OW18553   4.689   4.355   7.543 -0.1853 -0.4406  0.0997
 2307SOL    HW118554   4.649   4.287   7.489  0.0732 -0.0527 -0.5878
 2307SOL    HW218555   4.614   4.415   7.551  1.8302  2.3086 -1.4255
 2308SOL     OW18556   3.677   2.702   3.087  0.4914 -0.0093 -0.1595
 2308SOL    HW118557   3.732   2.760   3.140  0.9507 -0.7291  0.1443
 2308SOL    HW218558   3.605   2.760   3.060  1.7337  0.3077 -2.7989
 2309SOL     OW18559   3.863   3.527  10.513 -0.9627  0.1484 -0.2728
 2309SOL    HW118560   3.772   3.554  10.526 -0.6003  0.8612  0.8381
 2309SOL    HW218561   3.862   3.473  10.593  2.7725  1.2348  0.5019
 2310SOL     OW18562   0.391   1.889   0.563 -0.1282  0.0012 -0.0979
 2310SOL    HW118563   0.474   1.887   0.515  0.1749 -2.6127  0.5449
 2310SOL    HW218564   0.337   1.910   0.488  1.4644 -0.1495 -1.2900
 2311SOL     OW18565   2.472   0.284   5.549  0.5660  0.1946  0.4998
 2311SOL    HW118566   2.557   0.286   5.506  0.4330 -0.8505  0.2051
 2311SOL    HW218567   2.443   0.374   5.530  2.9288  0.9042  0.2782
 2312SOL     OW18568   0.728   0.439   2.625  0.2542 -0.2456  0.1764
 2312SOL    HW118569   0.771   0.501   2.566 -1.7122  0.9756  0.0451
 2312SOL    HW218570   0.640   0.431   2.588  0.8759 -0.2190 -1.3015
 2313SOL     OW18571   0.251   4.075   2.538  0.6369 -0.6564  0.4528
 2313SOL    HW118572   0.241   4.117   2.623  0.3596  2.0232 -0.8937
 2313SOL    HW218573   0.335   4.102   2.501 -0.4388  2.5510  0.3770
 2314SOL     OW18574   1.074   0.641  16.665 -0.0661  0.3058 -0.3707
 2314SOL    HW118575   0.996   0.638  16.721  1.2159  0.8693  1.4423
 2314SOL    HW218576   1.074   0.550  16.635  1.1601 -0.0562  0.7348
 2315SOL     OW18577   3.144   0.869   9.193  0.5932  1.1379  0.2558
 2315SOL    HW118578   3.155   0.964   9.203  0.6457  1.0970  0.6036
 2315SOL    HW218579   3.087   0.854   9.269 -0.4361  1.8039 -0.3786
 2316SOL     OW18580   4.456   1.100   5.212  1.0042  0.1591  0.5628
 2316SOL    HW118581   4.411   1.108   5.128  2.3829 -0.9265 -0.2915
 2316SOL    HW218582   4.397   1.134   5.279 -0.3818  1.0690 -1.1155
 2317SOL     OW18583   1.596   2.653   5.376  0.4977  0.0578  0.1839
 2317SOL    HW118584   1.617   2.666   5.468  0.1158 -3.3973  0.7796
 2317SOL    HW218585   1.549   2.735   5.361 -0.2143 -0.4019 -0.1027
 2318SOL     OW18586   4.596   1.289   1.501  0.3972  0.0028 -0.0010
 2318SOL    HW118587   4.502   1.308   1.505  0.3746 -0.1003 -0.0279
 2318SOL    HW218588   4.601   1.245   1.586 -3.9373  2.3112  1.4669
 2319SOL     OW18589   3.588   2.566   7.933 -0.1741 -0.2610  0.0145
 2319SOL    HW118590   3.575   2.618   8.012  0.0258  0.2940 -0.3176
 2319SOL    HW218591   3.511   2.509   7.943 -0.8663  0.5152 -0.8103
 2320SOL     OW18592   4.176   4.138   8.390 -0.8079  0.2073  0.2851
 2320SOL    HW118593   4.209   4.072   8.328 -2.2870  0.4732 -0.7737
 2320SOL    HW218594   4.252   4.147   8.448 -0.8005 -0.6286  0.4099
 2321SOL     OW18595   2.671   0.712   3.927  0.5755 -0.1739  0.2562
 2321SOL    HW118596   2.755   0.758   3.926  1.7947 -2.3936  2.4203
 2321SOL    HW218597   2.692   0.629   3.970 -0.3834 -0.0575  0.9572
 2322SOL     OW18598   4.004   2.686   4.534 -0.2402  0.6511 -0.6277
 2322SOL    HW118599   4.063   2.614   4.513 -1.0485 -0.8798  2.2801
 2322SOL    HW218600   3.928   2.648   4.579 -0.0909  0.8918 -0.1620
 2323SOL     OW18601   4.055   2.423   1.536  0.1200 -0.3019  0.0175
 2323SOL    HW118602   4.115   2.412   1.610 -0.7907 -1.1555  0.6401
 2323SOL    HW218603   4.055   2.518   1.525 -0.1396 -0.1990  0.8989
 2324SOL     OW18604   4.676   0.152   2.185  0.1210  0.3409  0.0286
 2324SOL    HW118605   0.030   0.122   2.195  0.5401  1.9110  0.9424
 2324SOL    HW218606   4.685   0.245   2.164  0.9262  0.2044 -0.2335
 2325SOL     OW18607   1.971   3.977   4.195 -0.2285  0.2027 -0.4560
 2325SOL    HW118608   2.001   4.066   4.211 -1.5547  0.3872  1.0031
 2325SOL    HW218609   1.876   3.983   4.182 -0.5516 -2.6965  0.5062
 2326SOL     OW18610   2.422   3.299   2.340 -0.1691 -0.9437  0.0090
 2326SOL    HW118611   2.395   3.241   2.411 -1.4981  0.3695  0.5724
 2326SOL    HW218612   2.339   3.342   2.323  0.3239  0.2411  0.5957
 2327SOL     OW18613   1.860   3.328   3.917  0.2972 -0.1965 -0.0533
 2327SOL    HW118614   1.776   3.282   3.920  0.6786 -0.8743  0.0892
 2327SOL    HW218615   1.839   3.421   3.925  1.2996 -0.0413  0.7803
 2328SOL     OW18616   1.196   3.114   0.072  0.2309  0.6660 -0.1902
 2328SOL    HW118617   1.150   3.157   0.144 -0.0162 -2.3140  1.4473
 2328SOL    HW218618   1.285   3.108   0.107  0.8084  2.0568 -1.3979
 2329SOL     OW18619   1.215   2.421   3.717 -0.1330  0.6988 -0.4314
 2329SOL    HW118620   1.170   2.386   3.640  0.7588  0.4535 -0.8375
 2329SOL    HW218621   1.205   2.355   3.786  0.4632  1.5092  0.4170
 2330SOL     OW18622   3.665   3.014   0.614  0.0028  0.3958  0.4482
 2330SOL    HW118623   3.695   3.063   0.690 -2.4747  2.4932  0.0726
 2330SOL    HW218624   3.738   3.034   0.556 -0.6162  1.0403 -0.1011
 2331SOL     OW18625   3.770   1.045   3.450 -0.3753 -0.3024 -0.1909
 2331SOL    HW118626   3.848   1.099   3.466 -0.0738 -0.5852 -0.6963
 2331SOL    HW218627   3.723   1.116   3.405 -0.7561 -0.4109  0.0416
 2332SOL     OW18628   3.706   1.196   3.997 -0.4773  0.3651  0.3567
 2332SOL    HW118629   3.659   1.273   3.965 -0.7506 -0.6253 -1.6569
 2332SOL    HW218630   3.728   1.158   3.912 -1.0117  0.8862 -0.0222
 2333SOL     OW18631   0.308   2.582  14.462 -0.0906  0.1259  0.0954
 2333SOL    HW118632   0.325   2.590  14.555 -0.5105  0.3302  0.1571
 2333SOL    HW218633   0.328   2.489  14.456 -3.4331 -0.6071  0.0347
 2334SOL     OW18634   1.605   2.686   1.830  0.4278 -0.0512 -0.0565
 2334SOL    HW118635   1.567   2.761   1.875 -1.9774 -1.2740 -0.0571
 2334SOL    HW218636   1.541   2.659   1.764  0.0816  1.0122 -0.1624
 2335SOL     OW18637   2.289   3.934   5.499 -1.0559 -0.3312 -0.6534
 2335SOL    HW118638   2.226   3.882   5.549 -2.8293  2.8467  0.3947
 2335SOL    HW218639   2.333   3.870   5.443 -0.4882 -0.4416 -0.0735
 2336SOL     OW18640   3.569   0.661   2.351 -0.1505 -0.5178 -0.0908
 2336SOL    HW118641   3.557   0.596   2.282  0.1177  0.2348 -0.8497
 2336SOL    HW218642   3.568   0.599   2.423  0.2169  1.6859  1.8306
 2337SOL     OW18643   2.042   1.653   1.278 -0.8939 -0.8576 -0.8189
 2337SOL    HW118644   2.011   1.582   1.334 -0.5390  0.4837  1.0732
 2337SOL    HW218645   2.117   1.613   1.235  1.3908  2.8594 -0.3109
 2338SOL     OW18646   3.765   3.572   8.939  0.0683 -0.1291 -0.9294
 2338SOL    HW118647   3.738   3.662   8.960 -2.1192 -1.1274  0.5553
 2338SOL    HW218648   3.757   3.531   9.025 -0.5893  1.1354 -0.3891
 2339SOL     OW18649   2.278   1.325  12.108  0.0791 -0.1447  0.3771
 2339SOL    HW118650   2.225   1.313  12.029  0.5318  0.4002 -0.0008
 2339SOL    HW218651   2.229   1.264  12.164  0.9752 -0.8223  0.4195
 2340SOL     OW18652   3.406   3.369  14.844  0.1798 -0.1992 -0.1209
 2340SOL    HW118653   3.483   3.314  14.863  1.5824  2.3854  1.7900
 2340SOL    HW218654   3.342   3.300  14.832  1.4498 -1.3474 -0.2995
 2341SOL     OW18655   2.323   1.366   4.447 -0.4902  0.5698 -0.3531
 2341SOL    HW118656   2.271   1.308   4.501  0.5563  0.6545  0.7679
 2341SOL    HW218657   2.399   1.309   4.433 -0.4353  0.2031  1.3852
 2342SOL     OW18658   0.353   1.678   3.865  0.1902  0.0433  0.4194
 2342SOL    HW118659   0.379   1.704   3.954  2.0705  1.4786 -0.5402
 2342SOL    HW218660   0.339   1.583   3.869 -1.4318  0.3362  1.5413
 2343SOL     OW18661   3.274   2.058   3.126  0.0623  0.5047 -0.0708
 2343SOL    HW118662   3.271   1.963   3.113  1.7707  0.5446 -0.7266
 2343SOL    HW218663   3.359   2.074   3.166  0.5420  0.5174 -1.0711
 2344SOL     OW18664   2.437   2.014   5.143 -0.0688 -0.0706  0.3707
 2344SOL    HW118665   2.444   1.919   5.150 -1.1070 -0.2775 -1.4196
 2344SOL    HW218666   2.346   2.016   5.116 -0.0152 -0.2083  0.1758
 2345SOL     OW18667   2.383   2.403   9.424  0.2238  0.0792  0.2310
 2345SOL    HW118668   2.424   2.470   9.480 -0.5983  0.2343  0.6475
 2345SOL    HW218669   2.355   2.350   9.499 -0.3495 -0.1770 -0.1665
 2346SOL     OW18670   1.314   1.516   8.017 -0.2434  0.3795 -0.1871
 2346SOL    HW118671   1.301   1.562   8.100  0.2958  0.3408 -0.0819
 2346SOL    HW218672   1.253   1.443   8.027  0.8986 -0.2972  1.7246
 2347SOL     OW18673   3.405   1.549  17.436  0.4072 -0.2879 -0.2233
 2347SOL    HW118674   3.330   1.540  17.377 -2.0281 -1.8605  3.1315
 2347SOL    HW218675   3.396   1.638  17.469 -2.3575 -0.6431 -0.0327
 2348SOL     OW18676   2.301   3.587  17.455 -0.0498  0.2257 -0.0870
 2348SOL    HW118677   2.373   3.526  17.471  0.2480  0.8899  1.0480
 2348SOL    HW218678   2.239   3.563  17.523  0.6474  0.0124  0.4677
 2349SOL     OW18679   3.990   0.860   2.827 -0.4256 -0.1855 -0.5998
 2349SOL    HW118680   3.977   0.792   2.761  0.6350 -0.2665 -0.7216
 2349SOL    HW218681   4.077   0.839   2.859 -0.4265  0.7633  0.0309
 2350SOL     OW18682   0.059   2.130   8.531 -0.0954 -0.4435  0.4465
 2350SOL    HW118683   0.102   2.080   8.462  0.3497 -0.9342  1.0884
 2350SOL    HW218684   0.087   2.222   8.531  2.4490 -1.2190  2.0840
 2351SOL     OW18685   2.976   4.139   4.923  0.7110 -0.2285 -0.3591
 2351SOL    HW118686   2.883   4.150   4.906  0.3830 -1.9036  0.3330
 2351SOL    HW218687   2.971   4.148   5.019 -0.7794 -1.3775 -0.3376
 2352SOL     OW18688   0.403   2.215  16.793  0.0500 -0.6491 -0.1185
 2352SOL    HW118689   0.383   2.199  16.700  0.4169 -0.1195 -0.2869
 2352SOL    HW218690   0.323   2.203  16.845  0.2903 -0.4751  0.2904
 2353SOL     OW18691   2.956   3.599   3.834 -0.3672  0.2436 -0.1810
 2353SOL    HW118692   2.909   3.517   3.818  1.1394 -0.6504 -0.0903
 2353SOL    HW218693   2.973   3.591   3.927 -0.8883  2.3179  0.0821
 2354SOL     OW18694   1.688   4.646  12.725  0.0353 -0.6085  0.0605
 2354SOL    HW118695   1.760   4.671  12.782  1.2474  0.0896 -1.7991
 2354SOL    HW218696   1.727   4.582  12.665  2.1577 -0.6067  1.4592
 2355SOL     OW18697   2.915   4.455   1.784  0.1711 -0.1960  0.4992
 2355SOL    HW118698   2.822   4.435   1.785 -0.2786  1.8983  1.9599
 2355SOL    HW218699   2.952   4.371   1.810 -1.1416 -0.2274  2.3111
 2356SOL     OW18700   3.597   4.079   5.902 -0.5402 -0.4948  0.2188
 2356SOL    HW118701   3.558   4.164   5.882  2.2294  0.2591 -1.9456
 2356SOL    HW218702   3.544   4.037   5.970 -0.5587 -2.5203 -1.0340
 2357SOL     OW18703   4.569   2.244  14.339 -0.3375 -0.2091  0.7704
 2357SOL    HW118704   4.657   2.264  14.372 -0.5712  0.1625  1.1645
 2357SOL    HW218705   4.543   2.317  14.283 -1.0379 -1.5862 -0.6782
 2358SOL     OW18706   2.197   1.014   2.597  0.1817  0.4176 -0.5674
 2358SOL    HW118707   2.158   0.929   2.618  1.9568  0.1905  1.7427
 2358SOL    HW218708   2.246   1.040   2.675  1.1432  2.2101 -1.7585
 2359SOL     OW18709   2.671   4.619  17.403  0.5391 -0.2678 -0.3757
 2359SOL    HW118710   2.642   4.557  17.469  0.0868  0.4473  0.0924
 2359SOL    HW218711   2.764   4.625  17.426  0.2708 -1.2770  0.9703
 2360SOL     OW18712   2.372   3.190   9.096  0.2302  0.4778  0.5815
 2360SOL    HW118713   2.337   3.206   9.008  1.2526 -0.3436  0.0330
 2360SOL    HW218714   2.384   3.096   9.104 -0.3207  0.6607  3.4836
 2361SOL     OW18715   0.881   4.525  11.953 -0.3719  0.4718  0.3644
 2361SOL    HW118716   0.890   4.517  11.858 -1.2195 -5.0862  0.7119
 2361SOL    HW218717   0.934   4.453  11.989 -1.2612  1.7323  4.2054
 2362SOL     OW18718   3.863   2.793   1.341  0.0372 -0.2194 -0.0286
 2362SOL    HW118719   3.844   2.875   1.296 -0.0297 -0.1611  0.1063
 2362SOL    HW218720   3.846   2.723   1.277 -1.2144 -0.1774  0.2605
 2363SOL     OW18721   1.039   2.425   8.835 -0.3414  0.8366 -0.1171
 2363SOL    HW118722   1.081   2.510   8.829  0.4651  0.3743 -1.0322
 2363SOL    HW218723   0.949   2.444   8.805 -0.5983 -0.4730 -0.1830
 2364SOL     OW18724   4.244   1.098   6.661  0.5717  0.1902  0.2759
 2364SOL    HW118725   4.296   1.178   6.651  0.2058  0.6356  1.9245
 2364SOL    HW218726   4.320   1.043   6.679  1.1582  0.9783  0.2332
 2365SOL     OW18727   1.204   3.805  16.093 -0.6564 -0.4700  0.3993
 2365SOL    HW118728   1.136   3.778  16.155 -0.6714  1.3147  1.1517
 2365SOL    HW218729   1.271   3.737  16.091 -1.1193 -0.9337  0.4772
 2366SOL     OW18730   3.566   3.870   5.724  0.1165 -0.2100 -0.2393
 2366SOL    HW118731   3.552   3.951   5.773  0.9379 -0.5398  0.5483
 2366SOL    HW218732   3.542   3.881   5.632 -0.5551 -0.7349 -0.1261
 2367SOL     OW18733   3.947   3.118   5.338 -0.4453  0.3430 -0.7029
 2367SOL    HW118734   3.903   3.034   5.351  2.4012 -1.1923 -0.9560
 2367SOL    HW218735   3.982   3.141   5.424  0.3809  1.9792 -1.4873
 2368SOL     OW18736   1.421   3.707  11.762  0.2381  0.0602 -0.0479
 2368SOL    HW118737   1.513   3.687  11.742 -0.3119  0.0738 -2.5630
 2368SOL    HW218738   1.415   3.799  11.734 -3.2258  0.1345  0.9864
 2369SOL     OW18739   4.532   3.813   3.846  0.2643 -0.1373 -0.3956
 2369SOL    HW118740   4.442   3.830   3.818  0.1190 -0.5866 -0.2055
 2369SOL    HW218741   4.523   3.723   3.877  1.1417  0.5254  1.7420
 2370SOL     OW18742   3.694   0.462   4.460 -0.1433  0.1524 -0.6656
 2370SOL    HW118743   3.734   0.535   4.508  0.4677 -0.4173 -0.3064
 2370SOL    HW218744   3.656   0.412   4.532 -0.0457  1.0916  0.0373
 2371SOL     OW18745   0.866   4.280   7.090  0.6764 -1.0512 -0.9480
 2371SOL    HW118746   0.958   4.270   7.114  0.6053 -0.6408 -0.4861
 2371SOL    HW218747   0.827   4.195   7.071 -0.5940 -0.7779  0.4092
 2372SOL     OW18748   3.479   2.145  11.953 -0.1430 -0.6641  0.0110
 2372SOL    HW118749   3.467   2.105  12.038  0.2264 -1.2335 -0.2030
 2372SOL    HW218750   3.550   2.205  11.976  0.7321 -1.3916 -0.7452
 2373SOL     OW18751   4.378   4.271   7.605 -0.0230  0.1998  0.2469
 2373SOL    HW118752   4.394   4.339   7.539 -1.0248 -0.7137 -0.9357
 2373SOL    HW218753   4.285   4.254   7.587 -0.2650  0.4527  1.2868
 2374SOL     OW18754   0.231   0.370   5.447  0.7045  0.8348  0.3255
 2374SOL    HW118755   0.163   0.412   5.393  0.6566 -0.8714 -0.9440
 2374SOL    HW218756   0.267   0.434   5.509 -0.7342  2.6352 -0.6711
 2375SOL     OW18757   0.982   3.788   2.562 -0.1639  0.0542  0.8279
 2375SOL    HW118758   0.951   3.755   2.646 -1.7250  0.9093  0.6014
 2375SOL    HW218759   1.022   3.711   2.523 -0.6042  1.4806 -2.4919
 2376SOL     OW18760   0.035   3.799   0.812  0.4782 -0.1353  0.4027
 2376SOL    HW118761   0.003   3.814   0.723  2.2548 -0.5677 -0.3117
 2376SOL    HW218762   0.087   3.878   0.828 -0.1535  0.2590  0.5221
 2377SOL     OW18763   4.170   1.785   7.371 -0.4729 -0.2026 -0.1088
 2377SOL    HW118764   4.149   1.878   7.366  0.1635 -0.0202  0.5710
 2377SOL    HW218765   4.147   1.769   7.462 -1.5314  2.1435  0.0166
 2378SOL     OW18766   1.230   1.942   2.402 -0.3823 -0.1979 -0.1995
 2378SOL    HW118767   1.282   1.890   2.341 -1.4404  0.2644 -1.5042
 2378SOL    HW218768   1.288   2.015   2.424  0.9377 -1.0579 -0.8148
 2379SOL     OW18769   3.382   4.687   5.327 -0.0570 -0.5777 -0.1253
 2379SOL    HW118770   3.298   4.664   5.367 -0.8678 -0.2199 -1.6070
 2379SOL    HW218771   3.442   4.626   5.370  0.0009 -2.0348 -2.2583
 2380SOL     OW18772   0.521   4.153   2.556  0.3061  0.0009 -0.8496
 2380SOL    HW118773   0.593   4.145   2.494 -1.7899 -2.0164 -2.9907
 2380SOL    HW218774   0.536   4.071   2.603  0.0732  2.4797  3.6541
 2381SOL     OW18775   3.795   3.272   2.237 -0.1116  0.5607 -0.3069
 2381SOL    HW118776   3.745   3.236   2.163 -0.5668 -0.3172  0.4293
 2381SOL    HW218777   3.800   3.197   2.297 -0.2096 -0.0300 -1.0268
 2382SOL     OW18778   3.700   2.484   5.103 -0.6236 -0.0121 -0.1999
 2382SOL    HW118779   3.605   2.496   5.105 -0.4083  1.5730  1.1062
 2382SOL    HW218780   3.696   2.437   5.020 -0.6527  1.5582 -1.0824
 2383SOL     OW18781   2.463   1.308   1.854  0.2596  0.2252  0.3671
 2383SOL    HW118782   2.488   1.253   1.928  0.1820 -0.3380 -0.0237
 2383SOL    HW218783   2.501   1.395   1.868 -2.0548  1.1366  0.9785
 2384SOL     OW18784   0.102   4.245  10.465  0.2176  0.1510 -0.1954
 2384SOL    HW118785   0.156   4.280  10.535  0.1141 -0.0426 -0.0177
 2384SOL    HW218786   0.130   4.153  10.457 -1.7690 -0.4953  0.2566
 2385SOL     OW18787   2.832   4.500   6.385 -0.0403 -0.1568 -0.5108
 2385SOL    HW118788   2.837   4.404   6.379 -0.5232 -0.1897 -0.3670
 2385SOL    HW218789   2.755   4.507   6.441  0.2397  0.6993 -0.2442
 2386SOL     OW18790   3.077   2.191   2.786  0.2116  0.3696  0.5980
 2386SOL    HW118791   3.014   2.232   2.726 -2.1364 -2.2633  1.2668
 2386SOL    HW218792   3.085   2.106   2.743 -1.5802  0.5667 -0.1446
 2387SOL     OW18793   0.319   3.867   3.983  0.2742  0.2991 -0.0996
 2387SOL    HW118794   0.308   3.867   3.888  0.9006 -1.8224 -0.1713
 2387SOL    HW218795   0.366   3.950   3.993 -0.0804  0.2602  1.8434
 2388SOL     OW18796   3.184   2.464   2.264  0.1523 -0.3102 -0.1849
 2388SOL    HW118797   3.115   2.398   2.273 -0.3655  0.2240 -0.2221
 2388SOL    HW218798   3.262   2.414   2.287 -0.1189  0.2463  1.8775
 2389SOL     OW18799   4.394   0.012   2.936  0.2877  0.0420 -0.3425
 2389SOL    HW118800   4.422   0.097   2.969  3.2355 -1.3234  0.6670
 2389SOL    HW218801   4.468   4.726   2.879 -0.4218 -0.6086 -1.0081
 2390SOL     OW18802   2.496   4.249   2.574 -0.8550  0.5079 -0.2012
 2390SOL    HW118803   2.473   4.289   2.658 -0.5263 -1.5207  0.8547
 2390SOL    HW218804   2.490   4.323   2.513 -2.2246  0.5356 -0.0324
 2391SOL     OW18805   1.873   2.053  10.569  0.1452  1.3717  0.0222
 2391SOL    HW118806   1.858   2.003  10.488 -2.0018  0.8550  0.7573
 2391SOL    HW218807   1.952   2.101  10.543  0.9990  0.4063  0.7983
 2392SOL     OW18808   3.115   1.174   9.761  0.0891  0.0183  0.5492
 2392SOL    HW118809   3.205   1.144   9.761  0.6237  1.6326  1.1306
 2392SOL    HW218810   3.082   1.170   9.851 -0.5494 -2.7257  0.1839
 2393SOL     OW18811   2.493   0.325   3.637 -0.6382  0.9153 -0.2521
 2393SOL    HW118812   2.492   0.409   3.683 -2.2328  1.2976 -0.9917
 2393SOL    HW218813   2.576   0.323   3.590 -1.8410 -1.1873 -2.3108
 2394SOL     OW18814   2.548   0.907   4.067 -0.4385  0.3105  0.0948
 2394SOL    HW118815   2.484   0.865   4.124 -2.4309  2.3298 -0.6911
 2394SOL    HW218816   2.592   0.836   4.020  0.7903  0.8615  0.3982
 2395SOL     OW18817   2.247   2.900   2.970  0.0150 -0.0939  0.5591
 2395SOL    HW118818   2.159   2.905   3.008  0.0045 -1.1423  0.6652
 2395SOL    HW218819   2.279   2.816   3.002 -1.2772 -0.3962  1.0614
 2396SOL     OW18820   3.574   4.073   6.311 -0.0595 -0.2844 -0.5212
 2396SOL    HW118821   3.494   4.046   6.267  0.1232  1.1790 -1.7375
 2396SOL    HW218822   3.646   4.037   6.259  1.9008 -0.4513  2.3271
 2397SOL     OW18823   2.077   2.001   6.620 -0.6171 -0.3610 -0.2763
 2397SOL    HW118824   2.103   1.992   6.529  0.5944  0.9789 -0.0726
 2397SOL    HW218825   1.985   1.974   6.617 -0.2541 -1.5844 -0.3045
 2398SOL     OW18826   3.161   0.688   0.211 -0.3219 -0.1967  0.5584
 2398SOL    HW118827   3.175   0.767   0.160 -2.3001  1.3108  2.3542
 2398SOL    HW218828   3.100   0.642   0.154 -0.5738 -1.5001  1.8665
 2399SOL     OW18829   2.553   3.025   1.305  0.4744  0.1741  0.2301
 2399SOL    HW118830   2.618   3.007   1.372  0.0612  0.3398  0.6779
 2399SOL    HW218831   2.594   2.986   1.227  2.7296 -0.7377  1.8788
 2400SOL     OW18832   4.311   2.487   0.785 -0.0515  0.8743 -0.1340
 2400SOL    HW118833   4.216   2.490   0.792 -0.0060  0.0935  0.9316
 2400SOL    HW218834   4.329   2.513   0.876  0.6849 -1.7325  0.4615
 2401SOL     OW18835   1.805   0.037   8.673  0.1739  0.1163 -0.3782
 2401SOL    HW118836   1.765   0.123   8.667 -2.1273 -0.9694 -0.7703
 2401SOL    HW218837   1.823   0.029   8.766  2.1556  1.1278 -0.6735
 2402SOL     OW18838   3.112   1.772  11.188 -0.2122  0.6802  0.3238
 2402SOL    HW118839   3.149   1.830  11.122 -0.2974 -0.0461 -0.3565
 2402SOL    HW218840   3.088   1.691  11.143 -2.2144  1.6086 -0.2992
 2403SOL     OW18841   2.453   1.663   1.833 -0.0615 -0.3742 -0.0551
 2403SOL    HW118842   2.485   1.632   1.918  0.0301  0.8687  0.3650
 2403SOL    HW218843   2.364   1.686   1.860 -0.3546 -0.5354 -0.9000
 2404SOL     OW18844   3.042   4.219   1.588 -0.1582  0.1747  0.2089
 2404SOL    HW118845   2.978   4.219   1.659 -1.2505 -0.8877 -0.7715
 2404SOL    HW218846   3.021   4.304   1.549 -1.4179 -0.5646 -0.7203
 2405SOL     OW18847   4.106   3.118   9.639 -0.1042  0.3047  0.2161
 2405SOL    HW118848   4.013   3.102   9.622  0.0210 -1.5401  1.2278
 2405SOL    HW218849   4.114   3.086   9.729 -0.5467 -0.7548 -0.1274
 2406SOL     OW18850   2.831   1.516   8.989  0.2809 -0.3998  0.5870
 2406SOL    HW118851   2.912   1.566   9.001  0.8872 -1.1916 -0.1986
 2406SOL    HW218852   2.854   1.432   9.030  2.0188 -0.0176  0.3701
 2407SOL     OW18853   3.695   3.634   6.182  0.6925  0.5038 -0.4037
 2407SOL    HW118854   3.620   3.652   6.125  1.1893  1.1794 -0.8431
 2407SOL    HW218855   3.678   3.706   6.242  0.9578  0.2830 -0.0661
 2408SOL     OW18856   0.602   2.113   2.736  0.3605 -0.1457 -0.1300
 2408SOL    HW118857   0.608   2.059   2.815  1.6359  0.6868  0.3427
 2408SOL    HW218858   0.573   2.197   2.773 -1.5966 -0.0937 -1.7880
 2409SOL     OW18859   3.783   0.191  12.158  0.0143  0.2018  0.3014
 2409SOL    HW118860   3.772   0.119  12.220 -1.0160 -2.0139 -2.4669
 2409SOL    HW218861   3.835   0.245  12.217  2.2539 -0.3377 -1.2054
 2410SOL     OW18862   1.885   1.658   9.431 -0.6371 -0.3634  0.5491
 2410SOL    HW118863   1.804   1.610   9.443 -0.4510 -1.2476 -1.5474
 2410SOL    HW218864   1.843   1.727   9.380  0.5854  0.3571  0.5264
 2411SOL     OW18865   3.624   0.296  11.629  0.6661  0.0927 -0.4295
 2411SOL    HW118866   3.608   0.208  11.665 -0.3599 -0.7695 -3.0125
 2411SOL    HW218867   3.608   0.359  11.699  0.8452 -1.9872  1.4920
 2412SOL     OW18868   4.022   0.055   3.244  0.0713  0.2635  0.1058
 2412SOL    HW118869   4.112   0.027   3.225  0.9428  2.2829  1.3202
 2412SOL    HW218870   4.008   0.091   3.157 -1.9290  0.7340  0.6428
 2413SOL     OW18871   0.277   4.371   8.569 -0.2655  0.4910  0.1074
 2413SOL    HW118872   0.279   4.434   8.641  1.2174 -1.0514  1.4248
 2413SOL    HW218873   0.223   4.421   8.508 -0.2404 -0.5601 -0.7666
 2414SOL     OW18874   0.889   0.909   2.518 -0.1167  0.1465 -0.1868
 2414SOL    HW118875   0.964   0.951   2.477  0.3552  0.8914  1.4178
 2414SOL    HW218876   0.828   0.930   2.447 -0.9636  0.7698  0.7227
 2415SOL     OW18877   4.101   3.832   2.693  0.2479 -0.1686  0.2231
 2415SOL    HW118878   4.086   3.846   2.600 -0.7329 -0.4772  0.3380
 2415SOL    HW218879   4.009   3.830   2.718  0.4027  2.2550  1.0815
 2416SOL     OW18880   1.793   1.437   2.061  0.3744 -0.1773 -0.5374
 2416SOL    HW118881   1.703   1.435   2.094  0.1356 -0.3818 -1.1945
 2416SOL    HW218882   1.835   1.407   2.142 -1.8499  1.0752  1.0861
 2417SOL     OW18883   2.684   0.041   7.658  0.1798 -0.4767  0.4821
 2417SOL    HW118884   2.726   4.712   7.602 -0.2106 -2.6246  2.6961
 2417SOL    HW218885   2.738   0.118   7.642  0.5148 -1.0396 -1.0684
 2418SOL     OW18886   0.344   1.023   9.630 -0.2948 -0.1032  0.0364
 2418SOL    HW118887   0.359   1.102   9.579  2.4200 -0.6673 -0.0642
 2418SOL    HW218888   0.329   0.954   9.565 -0.0445  0.3786 -0.5249
 2419SOL     OW18889   3.524   4.435   2.483 -0.0080  0.0472 -0.2546
 2419SOL    HW118890   3.574   4.423   2.403  0.4482  0.4540 -0.0298
 2419SOL    HW218891   3.445   4.480   2.451 -0.0554  0.8342  0.9552
 2420SOL     OW18892   4.690   3.252   2.303 -0.2570  0.2993 -0.0239
 2420SOL    HW118893   4.627   3.268   2.233 -0.2826  0.6637  0.0836
 2420SOL    HW218894   4.626   3.223   2.368  2.7446 -1.6652  2.0857
 2421SOL     OW18895   1.725   2.860  12.778  0.8426 -0.3752  0.5044
 2421SOL    HW118896   1.645   2.836  12.826 -0.3930  1.3761 -0.6688
 2421SOL    HW218897   1.774   2.778  12.772  0.2472 -0.6894 -0.0304
 2422SOL     OW18898   0.159   1.896   4.178 -0.1739  0.3326 -0.0076
 2422SOL    HW118899   0.231   1.957   4.162  1.8016 -1.3646  2.3392
 2422SOL    HW218900   0.086   1.952   4.152  0.3284  2.4330  3.1268
 2423SOL     OW18901   0.071   1.803   3.552  0.6864  0.5928 -0.3513
 2423SOL    HW118902   0.080   1.885   3.600 -0.4965  0.8186 -0.5161
 2423SOL    HW218903   0.079   1.736   3.619  1.2610  1.6100  0.5942
 2424SOL     OW18904   3.347   3.873  15.331 -0.2102  0.1395 -0.0952
 2424SOL    HW118905   3.266   3.902  15.372  0.8010 -0.1651  2.0922
 2424SOL    HW218906   3.340   3.791  15.381 -0.9551  0.2705  0.0033
 2425SOL     OW18907   0.304   1.369  11.095  0.0068  0.2171 -0.2968
 2425SOL    HW118908   0.339   1.457  11.080 -0.1716  0.1216 -1.2482
 2425SOL    HW218909   0.310   1.341  11.004 -0.4658 -2.1306  0.3981
 2426SOL     OW18910   4.305   1.280   5.885  0.2714  0.4334  0.7046
 2426SOL    HW118911   4.212   1.285   5.861  0.4427 -0.1393 -0.1109
 2426SOL    HW218912   4.294   1.256   5.977 -1.3709  0.1437  0.4405
 2427SOL     OW18913   0.457   0.296   9.633 -0.4524  0.3993 -0.3211
 2427SOL    HW118914   0.381   0.290   9.692 -0.8445 -1.1548 -0.9942
 2427SOL    HW218915   0.488   0.384   9.653  0.5803 -0.4879  2.0503
 2428SOL     OW18916   0.286   0.866   8.714 -0.4350 -0.1493  0.2713
 2428SOL    HW118917   0.247   0.834   8.796  2.5394 -2.9543  0.5883
 2428SOL    HW218918   0.274   0.961   8.715 -2.6149 -0.3818 -2.9290
 2429SOL     OW18919   1.536   3.436   8.937  0.0717 -0.0509  0.0835
 2429SOL    HW118920   1.483   3.388   8.874 -3.2255  1.4864  1.7174
 2429SOL    HW218921   1.560   3.515   8.890  1.1136 -0.4226 -0.0183
 2430SOL     OW18922   3.453   1.463   2.073  0.1689 -0.2735  0.2830
 2430SOL    HW118923   3.442   1.368   2.082 -0.5223  0.0757  3.0006
 2430SOL    HW218924   3.518   1.483   2.005  0.4925 -1.6826  0.1818
 2431SOL     OW18925   1.633   2.037   6.838 -0.1535 -0.2609  0.3283
 2431SOL    HW118926   1.589   1.987   6.906 -1.9724  0.1581 -0.5313
 2431SOL    HW218927   1.566   2.095   6.801 -1.7961 -1.5125  1.3158
 2432SOL     OW18928   0.357   4.146   5.253  0.1894  0.1139  0.0119
 2432SOL    HW118929   0.303   4.110   5.183  1.1600 -0.2458 -0.5432
 2432SOL    HW218930   0.414   4.206   5.205 -0.6860  2.3591  1.7665
 2433SOL     OW18931   1.324   3.455   4.667 -0.2594 -0.3595  0.3348
 2433SOL    HW118932   1.407   3.436   4.709  0.1696  1.1605  0.1815
 2433SOL    HW218933   1.303   3.377   4.617  0.4976  0.0595 -0.6173
 2434SOL     OW18934   0.768   2.225  14.746  0.1985  0.0665  1.0162
 2434SOL    HW118935   0.697   2.282  14.775  0.4257  1.9245 -2.0759
 2434SOL    HW218936   0.826   2.214  14.821 -1.2385 -0.0491  2.0998
 2435SOL     OW18937   0.477   4.243   3.470 -0.0607 -0.3567  0.0745
 2435SOL    HW118938   0.500   4.176   3.406  0.5244 -0.5806  0.5076
 2435SOL    HW218939   0.491   4.193   3.551 -2.0806  0.8349  1.1647
 2436SOL     OW18940   3.347   0.618   6.023  0.0670 -0.3499  0.4503
 2436SOL    HW118941   3.357   0.636   5.929 -2.3129 -0.8252  0.1049
 2436SOL    HW218942   3.362   0.705   6.059 -0.7077 -0.9333  2.1513
 2437SOL     OW18943   4.592   1.982   3.460 -0.6392  0.1863  0.2312
 2437SOL    HW118944   4.634   1.897   3.444  0.0155  0.3137  1.2706
 2437SOL    HW218945   4.564   2.016   3.375  0.0591  0.8796  0.2798
 2438SOL     OW18946   0.744   3.715  15.281 -0.6505  0.3896 -0.2467
 2438SOL    HW118947   0.792   3.654  15.225 -1.2153 -0.7818  0.5611
 2438SOL    HW218948   0.778   3.801  15.254  0.9761 -0.4971 -1.0100
 2439SOL     OW18949   3.660   4.087   9.453 -0.3225 -0.1681  0.0212
 2439SOL    HW118950   3.594   4.055   9.515  0.3511 -0.4004  0.6154
 2439SOL    HW218951   3.601   4.113   9.383  0.3265  1.2492  0.0107
 2440SOL     OW18952   3.481   1.314   3.157 -0.3524  0.9961 -0.0914
 2440SOL    HW118953   3.472   1.404   3.189  0.4766  0.7498  0.8269
 2440SOL    HW218954   3.389   1.289   3.146  0.6845 -2.2987 -1.3203
 2441SOL     OW18955   3.385   0.434   1.719 -0.2623  0.8253  1.0415
 2441SOL    HW118956   3.348   0.393   1.641  0.2358  0.4499  1.0027
 2441SOL    HW218957   3.457   0.373   1.736 -1.3875 -1.6548 -3.0968
 2442SOL     OW18958   1.994   0.567   2.930 -0.5158 -0.4039 -0.2435
 2442SOL    HW118959   1.976   0.478   2.960  1.2249 -0.4639  0.5823
 2442SOL    HW218960   1.931   0.573   2.858 -1.6891  1.2760  0.9206
 2443SOL     OW18961   2.989   2.904   4.736  0.0658  0.3353  0.0785
 2443SOL    HW118962   3.075   2.942   4.755 -0.5839  1.1484  1.4314
 2443SOL    HW218963   2.938   2.937   4.810 -1.6956  1.3097 -1.5669
 2444SOL     OW18964   1.517   2.546   8.897  0.2891  1.0894  0.1454
 2444SOL    HW118965   1.498   2.562   8.805 -1.7600 -0.8484  0.2617
 2444SOL    HW218966   1.429   2.558   8.932 -0.1986  1.6581 -1.2651
 2445SOL     OW18967   1.900   0.915   6.436  0.3550 -0.1952  0.0774
 2445SOL    HW118968   1.825   0.963   6.471 -1.7804 -0.8071 -3.6431
 2445SOL    HW218969   1.939   0.980   6.377  3.1551 -2.9214 -1.1399
 2446SOL     OW18970   3.140   3.386   8.418 -0.6681  0.0678  0.3891
 2446SOL    HW118971   3.127   3.359   8.327 -0.2575 -1.9585  0.9321
 2446SOL    HW218972   3.092   3.327   8.476 -0.9124  2.3337  2.5363
 2447SOL     OW18973   1.057   2.566   3.947  0.4332 -0.3324  0.1718
 2447SOL    HW118974   0.963   2.569   3.928  0.5872 -0.2440 -0.5516
 2447SOL    HW218975   1.074   2.472   3.946  0.6247 -0.3004  0.2930
 2448SOL     OW18976   0.288   3.306   2.369 -0.2765 -0.4104 -0.4634
 2448SOL    HW118977   0.281   3.398   2.344  1.2762 -0.0829  0.3205
 2448SOL    HW218978   0.272   3.257   2.288 -2.6544 -0.9673  0.3396
 2449SOL     OW18979   4.248   4.198   6.004 -0.1343 -0.2968  0.1830
 2449SOL    HW118980   4.252   4.122   6.061 -0.6669 -0.9702 -0.6905
 2449SOL    HW218981   4.191   4.178   5.930  0.8735 -2.8423  0.1239
 2450SOL     OW18982   3.565   2.084   0.949 -0.1696 -0.1914 -0.1033
 2450SOL    HW118983   3.549   2.021   0.879 -0.4420 -0.2163 -0.0213
 2450SOL    HW218984   3.652   2.117   0.927 -0.0121 -1.7550 -1.8183
 2451SOL     OW18985   4.021   1.591   1.651  0.0356  0.4015  0.4935
 2451SOL    HW118986   3.978   1.620   1.570 -0.2921 -2.2040 -0.2832
 2451SOL    HW218987   3.972   1.511   1.672  1.4378 -0.3772  0.8168
 2452SOL     OW18988   4.183   4.565   7.655 -0.3765 -0.4307  0.5011
 2452SOL    HW118989   4.113   4.518   7.610 -1.3526  2.0693 -0.5980
 2452SOL    HW218990   4.136   4.628   7.710  0.2843  0.6381 -0.1474
 2453SOL     OW18991   3.101   3.350   2.625 -0.0475  0.1691  0.2159
 2453SOL    HW118992   3.148   3.269   2.646  0.3391 -0.1734 -2.0194
 2453SOL    HW218993   3.178   3.405   2.611  0.7874 -1.3362 -1.1610
 2454SOL     OW18994   0.267   4.585   5.505 -0.1976  0.1263 -0.4795
 2454SOL    HW118995   0.278   4.492   5.485  1.3154  0.4411 -1.1470
 2454SOL    HW218996   0.282   4.622   5.417  2.6594  1.1872  0.4469
 2455SOL     OW18997   3.418   3.782   7.983  0.2684 -0.3385  0.0116
 2455SOL    HW118998   3.488   3.724   8.011 -0.5072  0.9882  4.7730
 2455SOL    HW218999   3.345   3.724   7.961  1.3829 -1.4339 -0.7641
 2456SOL     OW19000   2.441   1.992   9.675  0.4022  0.4982 -0.1662
 2456SOL    HW119001   2.352   1.962   9.693  0.2994  1.1623  0.4212
 2456SOL    HW219002   2.497   1.914   9.677 -0.3932 -0.0777 -0.4344
 2457SOL     OW19003   3.418   3.104  15.588 -0.0471  0.0266 -0.0181
 2457SOL    HW119004   3.370   3.107  15.671 -0.5978  3.2106 -0.4430
 2457SOL    HW219005   3.507   3.087  15.618 -1.3849 -1.2286  3.1781
 2458SOL     OW19006   0.222   4.281   8.181 -0.0666 -0.4204 -0.1800
 2458SOL    HW119007   0.303   4.246   8.219  0.7713  0.2549 -1.3537
 2458SOL    HW219008   0.257   4.319   8.101 -0.0392 -0.1767 -0.0534
 2459SOL     OW19009   0.997   1.861   8.584 -0.1788 -0.2875 -0.0364
 2459SOL    HW119010   0.958   1.829   8.502 -0.6667 -0.9623  0.4543
 2459SOL    HW219011   0.973   1.953   8.576 -1.2209 -0.5471 -0.0058
 2460SOL     OW19012   3.751   3.592   8.237 -0.2273 -0.1136  0.0939
 2460SOL    HW119013   3.815   3.541   8.287  1.6082  1.3463 -0.7901
 2460SOL    HW219014   3.783   3.682   8.239 -1.5187  0.3701 -1.1655
 2461SOL     OW19015   2.201   4.190   5.501  0.0245  0.1899  0.4801
 2461SOL    HW119016   2.272   4.128   5.519  0.4325  0.4943 -0.0670
 2461SOL    HW219017   2.134   4.154   5.559 -0.4641  1.2728  0.5904
 2462SOL     OW19018   4.546   1.527   5.254  0.3884 -0.2996 -0.0656
 2462SOL    HW119019   4.454   1.500   5.256 -0.0220  1.1723  1.5624
 2462SOL    HW219020   4.578   1.525   5.344  1.3234  2.4688 -0.3382
 2463SOL     OW19021   1.676   2.166   3.769 -0.0913  0.1180 -0.1607
 2463SOL    HW119022   1.731   2.094   3.740 -2.1321 -1.2617 -0.5776
 2463SOL    HW219023   1.633   2.138   3.849  0.9905 -0.5172  0.1983
 2464SOL     OW19024   4.006   1.193   3.504  0.2730  0.0726 -0.2758
 2464SOL    HW119025   4.097   1.184   3.477 -0.1748  0.2856 -1.8342
 2464SOL    HW219026   4.011   1.135   3.581 -0.2862  0.3956 -0.0017
 2465SOL     OW19027   2.142   3.399   3.776 -0.2619  0.2170  0.1659
 2465SOL    HW119028   2.202   3.330   3.746 -2.1096 -0.1348 -2.8148
 2465SOL    HW219029   2.076   3.353   3.829 -0.1028  0.5238  0.6272
 2466SOL     OW19030   2.018   1.607   6.234  0.1250 -0.6267 -0.1120
 2466SOL    HW119031   1.937   1.655   6.218 -0.2217 -0.5071  1.9941
 2466SOL    HW219032   2.069   1.643   6.161  0.9139 -2.2360 -0.3659
 2467SOL     OW19033   0.443   0.023   2.836 -1.0866  0.1264 -0.7509
 2467SOL    HW119034   0.517   4.701   2.816 -0.7566  0.0529  0.6909
 2467SOL    HW219035   0.461   0.026   2.930  2.0143  0.5105 -1.3512
 2468SOL     OW19036   4.257   2.316   1.105  0.2341 -0.0888  0.8612
 2468SOL    HW119037   4.264   2.230   1.065  0.8950  0.2640  0.2285
 2468SOL    HW219038   4.236   2.280   1.191 -0.6178  3.2599  2.0758
 2469SOL     OW19039   1.167   1.910   3.223  0.1006  0.5253  0.0217
 2469SOL    HW119040   1.225   1.857   3.277  1.6037  1.5114 -0.6300
 2469SOL    HW219041   1.134   1.836   3.172  1.2977  0.5466 -0.7916
 2470SOL     OW19042   0.083   3.456   6.142 -0.3999 -0.5407  0.4556
 2470SOL    HW119043   0.097   3.535   6.090 -0.8411 -1.5800 -1.2256
 2470SOL    HW219044   0.033   3.485   6.219  0.9439 -0.8598  1.4422
 2471SOL     OW19045   3.389   2.557  15.521  0.6740  0.4790  0.0166
 2471SOL    HW119046   3.452   2.490  15.548  0.9621  0.6227 -0.2996
 2471SOL    HW219047   3.429   2.641  15.545 -0.1155  0.6459  0.7569
 2472SOL     OW19048   1.945   1.008  12.752 -0.4084 -0.7847  0.1302
 2472SOL    HW119049   1.961   1.092  12.710  2.1948 -1.8113 -0.8735
 2472SOL    HW219050   1.869   1.033  12.806 -0.6272 -0.5321 -0.2956
 2473SOL     OW19051   3.700   3.272   5.466  0.6813 -0.3572  0.8389
 2473SOL    HW119052   3.782   3.244   5.427  0.4714 -0.2219  0.3047
 2473SOL    HW219053   3.632   3.240   5.406  2.6959 -3.0760  0.0175
 2474SOL     OW19054   2.065   4.178   9.064 -0.1093  0.1445 -0.6263
 2474SOL    HW119055   2.005   4.181   8.989 -0.1479 -1.7356 -0.6725
 2474SOL    HW219056   2.143   4.135   9.030  1.4481  2.3278  0.2049
 2475SOL     OW19057   2.636   3.805   5.315 -0.1942  0.0887 -0.2093
 2475SOL    HW119058   2.602   3.881   5.362 -3.6485 -2.3378  1.2226
 2475SOL    HW219059   2.558   3.751   5.327 -0.2669  0.1046 -0.5812
 2476SOL     OW19060   0.903   4.576  15.823  0.1102 -0.0616 -0.4663
 2476SOL    HW119061   0.974   4.620  15.871 -0.5076  1.4030 -0.8943
 2476SOL    HW219062   0.851   4.550  15.899  2.7039 -0.1472  1.2872
 2477SOL     OW19063   3.722   1.815  13.618  0.9272  0.1813  0.2921
 2477SOL    HW119064   3.672   1.857  13.548 -0.7109 -1.6553  0.3483
 2477SOL    HW219065   3.773   1.752  13.566 -0.4517  0.1126 -0.9736
 2478SOL     OW19066   0.977   2.645   7.404 -0.0073  0.6654 -0.0967
 2478SOL    HW119067   1.048   2.667   7.344  1.9191  0.5506  2.1258
 2478SOL    HW219068   0.982   2.712   7.472 -0.3251  0.1721  0.4126
 2479SOL     OW19069   1.246   0.651   6.090  0.3975 -0.0803  0.2780
 2479SOL    HW119070   1.273   0.592   6.161  1.3574  2.0510  1.7056
 2479SOL    HW219071   1.288   0.611   6.014  1.3486  0.4422  0.5243
 2480SOL     OW19072   0.789   1.534   7.501  0.1059 -0.1080 -0.3819
 2480SOL    HW119073   0.870   1.572   7.535 -0.1793  1.2184 -1.1896
 2480SOL    HW219074   0.821   1.444   7.511 -1.6377 -0.6178  0.5469
 2481SOL     OW19075   0.798   4.674   4.656  0.3621 -0.3725  0.0256
 2481SOL    HW119076   0.767   4.655   4.744  0.4341 -0.1426  0.1014
 2481SOL    HW219077   0.739   4.632   4.594 -0.1964  1.6293 -0.8195
 2482SOL     OW19078   3.050   2.613   8.657  0.4013 -0.1799  0.3289
 2482SOL    HW119079   3.035   2.655   8.572  0.5312 -2.1210 -0.6417
 2482SOL    HW219080   3.012   2.679   8.715  0.1670 -2.0227  2.2596
 2483SOL     OW19081   3.590   0.310   5.473 -0.5781 -0.1964  0.0191
 2483SOL    HW119082   3.650   0.282   5.542 -2.7466 -1.8233  1.2341
 2483SOL    HW219083   3.520   0.353   5.522 -0.3845  0.1233  0.0200
 2484SOL     OW19084   4.134   0.206   7.955 -0.6611 -0.0776  0.6354
 2484SOL    HW119085   4.207   0.156   7.992 -0.1571  0.1599 -0.0353
 2484SOL    HW219086   4.074   0.197   8.028 -0.4829 -0.0198  0.7895
 2485SOL     OW19087   3.389   2.798   4.235 -0.3170 -0.2349  0.3065
 2485SOL    HW119088   3.408   2.877   4.184  1.4282 -0.5356  0.4726
 2485SOL    HW219089   3.392   2.727   4.171  0.2136 -0.6569  0.7994
 2486SOL     OW19090   4.420   2.454   1.415  0.1557 -0.6928 -0.1840
 2486SOL    HW119091   4.356   2.386   1.392 -2.2355  1.2522  0.7914
 2486SOL    HW219092   4.423   2.515   1.341 -1.1793 -0.1224  0.2355
 2487SOL     OW19093   0.951   1.111   0.501 -0.0778 -0.2027  0.5967
 2487SOL    HW119094   0.921   1.035   0.551  0.6376 -0.3261  0.8357
 2487SOL    HW219095   1.018   1.141   0.562  0.9632  0.3373 -0.8271
 2488SOL     OW19096   4.035   1.917   6.366  0.1671 -0.3808 -0.6300
 2488SOL    HW119097   4.059   1.907   6.458 -0.6072 -0.1880 -0.4109
 2488SOL    HW219098   3.967   1.982   6.378  1.6127  1.4905 -2.5808
 2489SOL     OW19099   2.579   1.667   8.291 -0.0274  0.3252 -0.5492
 2489SOL    HW119100   2.512   1.601   8.311  1.7043 -0.7627  1.5913
 2489SOL    HW219101   2.539   1.748   8.321  0.9238  1.2341 -1.7537
 2490SOL     OW19102   4.687   3.717   6.623 -0.4176 -0.1214 -0.0009
 2490SOL    HW119103   4.618   3.769   6.581  0.2779 -0.6056 -1.7404
 2490SOL    HW219104   4.647   3.652   6.680 -0.3250 -1.1748 -1.1214
 2491SOL     OW19105   0.840   1.031   9.915 -0.3925 -0.0768 -0.2787
 2491SOL    HW119106   0.825   0.960   9.977 -1.1610 -0.4517 -0.8956
 2491SOL    HW219107   0.755   1.021   9.872 -0.0439 -0.4740 -0.8752
 2492SOL     OW19108   2.724   2.835   1.415 -0.5419 -0.4395  0.6343
 2492SOL    HW119109   2.812   2.872   1.424  0.2038 -1.4605 -2.6799
 2492SOL    HW219110   2.700   2.825   1.508  0.3262  1.8832  1.1219
 2493SOL     OW19111   3.845   0.944   2.157 -0.6167 -0.1392 -0.3758
 2493SOL    HW119112   3.818   1.036   2.154  2.2580  0.6592 -1.7433
 2493SOL    HW219113   3.800   0.908   2.081  1.4326  1.9140 -2.5341
 2494SOL     OW19114   3.548   3.462  13.886 -0.4897  0.7106  0.2519
 2494SOL    HW119115   3.596   3.379  13.885 -1.0424  0.3924  0.8062
 2494SOL    HW219116   3.559   3.496  13.975 -1.4716  0.5052  0.4505
 2495SOL     OW19117   2.500   2.940  10.572 -0.3623 -0.4467  0.8561
 2495SOL    HW119118   2.489   2.845  10.579  2.1887 -0.7904  0.1633
 2495SOL    HW219119   2.472   2.948  10.481  0.8423  2.2610  0.7126
 2496SOL     OW19120   0.031   3.199   5.047  0.5408  0.0726  0.1801
 2496SOL    HW119121   0.081   3.119   5.028 -0.2615 -0.2534 -0.5921
 2496SOL    HW219122   4.681   3.167   5.076  0.1397  0.5642 -0.4630
 2497SOL     OW19123   0.463   2.453   8.845  0.5553  0.9902  0.4635
 2497SOL    HW119124   0.521   2.381   8.871  0.2260  0.8845  0.8953
 2497SOL    HW219125   0.469   2.501   8.928  2.0458  0.8651  0.4331
 2498SOL     OW19126   4.678   4.655  11.533  0.3745 -0.3307  0.4485
 2498SOL    HW119127   4.659   4.652  11.626 -2.1631 -0.7871 -0.0763
 2498SOL    HW219128   0.016   4.595  11.539 -0.0531 -0.7394  1.5496
 2499SOL     OW19129   1.402   2.945   4.180  0.4992  0.2111  0.5686
 2499SOL    HW119130   1.398   2.927   4.086 -1.6997 -0.0284  0.7063
 2499SOL    HW219131   1.342   2.884   4.223  1.8328 -1.4231  0.0863
 2500SOL     OW19132   0.831   1.857   5.495  0.3717 -0.2773  0.7566
 2500SOL    HW119133   0.774   1.871   5.571 -1.5706 -3.2619 -0.1625
 2500SOL    HW219134   0.767   1.843   5.425  0.9361 -3.5717  0.8998
 2501SOL     OW19135   2.405   0.607   5.025 -0.5596 -0.2753 -0.1640
 2501SOL    HW119136   2.440   0.696   5.023 -2.0615  0.3122 -0.1122
 2501SOL    HW219137   2.421   0.578   5.115 -2.2972  0.7757  0.4946
 2502SOL     OW19138   0.422   0.859   5.110  0.0865  0.3565  0.0657
 2502SOL    HW119139   0.451   0.877   5.020 -1.9226  0.0920 -0.6354
 2502SOL    HW219140   0.328   0.870   5.098 -0.1905 -4.4264 -2.4430
 2503SOL     OW19141   0.314   1.492   3.172 -0.1621 -0.7444 -0.2527
 2503SOL    HW119142   0.302   1.567   3.114 -0.2815 -0.2773  0.3774
 2503SOL    HW219143   0.409   1.498   3.182 -0.2939  2.6364 -1.0138
 2504SOL     OW19144   3.737   3.380   0.458 -0.6881 -0.2929 -0.6040
 2504SOL    HW119145   3.660   3.370   0.515 -0.3346  0.8071  0.0743
 2504SOL    HW219146   3.745   3.302   0.403  1.9739 -1.4458  1.4418
 2505SOL     OW19147   1.332   1.059  16.326  0.0529 -0.1258 -0.0106
 2505SOL    HW119148   1.356   0.997  16.258  0.3900  1.7140 -1.5721
 2505SOL    HW219149   1.290   1.111  16.257 -0.9934  1.6754  1.9780
 2506SOL     OW19150   4.050   0.673   2.071  0.0269  0.1239 -0.4873
 2506SOL    HW119151   4.090   0.744   2.120 -0.8746 -0.4448  1.0823
 2506SOL    HW219152   3.964   0.657   2.111 -0.6803 -1.0373 -2.4549
 2507SOL     OW19153   4.440   1.478   7.993  0.2625 -0.1513  0.4686
 2507SOL    HW119154   4.450   1.485   8.088  0.1684  1.2177  0.3765
 2507SOL    HW219155   4.532   1.462   7.972  0.1673 -0.9331  0.6497
 2508SOL     OW19156   0.644   3.084   6.511 -0.4173  0.2329 -0.1609
 2508SOL    HW119157   0.695   3.149   6.463  1.0576 -0.7592  0.0476
 2508SOL    HW219158   0.589   3.145   6.561  3.2323  2.4769  1.1415
 2509SOL     OW19159   1.581   0.595   4.195 -0.3828 -0.2665  0.5869
 2509SOL    HW119160   1.513   0.552   4.143 -0.2244 -1.0709  1.0405
 2509SOL    HW219161   1.641   0.521   4.209 -0.5278 -0.6032 -0.5505
 2510SOL     OW19162   4.531   4.174   8.639 -0.0753 -0.2110 -0.2033
 2510SOL    HW119163   4.596   4.223   8.589 -0.3586  0.5020  0.1324
 2510SOL    HW219164   4.451   4.226   8.628 -0.4871 -0.4730  1.4768
 2511SOL     OW19165   3.692   4.566   6.489  0.3641 -0.2323  0.4794
 2511SOL    HW119166   3.711   4.550   6.397  0.2828  1.9967  0.0898
 2511SOL    HW219167   3.625   4.634   6.489 -3.4516 -3.9983  1.7449
 2512SOL     OW19168   1.187   0.098   9.097 -0.1359  0.2031  0.5337
 2512SOL    HW119169   1.152   0.187   9.100 -0.7135 -0.0055  0.1112
 2512SOL    HW219170   1.256   0.108   9.031 -1.8170  0.6472 -1.1634
 2513SOL     OW19171   1.875   2.733   2.723 -0.3675 -0.2920  0.1125
 2513SOL    HW119172   1.810   2.796   2.754  0.7859  1.5181 -1.1515
 2513SOL    HW219173   1.816   2.661   2.698 -1.2447  0.6028 -0.4317
 2514SOL     OW19174   1.594   0.422   3.461 -0.7027 -0.0749 -0.1789
 2514SOL    HW119175   1.527   0.375   3.411 -1.1034  0.1228  0.1745
 2514SOL    HW219176   1.557   0.412   3.548  1.0813  0.2214  0.5992
 2515SOL     OW19177   0.284   2.759  11.474 -0.3148 -0.7206 -0.2855
 2515SOL    HW119178   0.325   2.682  11.513  3.0575  0.5469 -1.3362
 2515SOL    HW219179   0.247   2.799  11.553 -0.7115 -1.2840 -0.1833
 2516SOL     OW19180   3.990   1.335   1.736 -0.2685 -0.1748  0.2748
 2516SOL    HW119181   3.897   1.328   1.758 -0.3307 -1.1811 -0.3443
 2516SOL    HW219182   4.031   1.352   1.821 -1.2826 -0.6377  0.8565
 2517SOL     OW19183   2.418   2.026  11.562 -0.2403 -0.1343 -0.0031
 2517SOL    HW119184   2.509   2.029  11.591 -1.1447  2.8850  2.5094
 2517SOL    HW219185   2.431   1.942  11.518  0.6540 -0.5412  1.0565
 2518SOL     OW19186   0.731   3.478   5.506  0.3156 -0.1414  0.0975
 2518SOL    HW119187   0.741   3.572   5.522  0.0175 -0.4497  2.0235
 2518SOL    HW219188   0.681   3.445   5.580 -1.8361  1.8130 -0.4833
 2519SOL     OW19189   3.357   1.496   5.147  0.3885  0.2627 -0.5109
 2519SOL    HW119190   3.308   1.577   5.136 -0.0903  0.0210 -0.1515
 2519SOL    HW219191   3.385   1.509   5.237 -0.7522  0.3426 -0.1694
 2520SOL     OW19192   2.786   1.817  11.715  0.1154  0.2509  0.1271
 2520SOL    HW119193   2.764   1.857  11.631 -0.1837  0.9740  0.5528
 2520SOL    HW219194   2.864   1.762  11.704 -0.3435 -0.2604 -0.5328
 2521SOL     OW19195   3.404   4.541   5.017  0.3403 -0.4108  0.5139
 2521SOL    HW119196   3.392   4.574   5.106 -3.2876 -0.6592  0.1272
 2521SOL    HW219197   3.485   4.492   5.026  0.9971  0.8331  1.2092
 2522SOL     OW19198   1.157   1.937   7.124 -0.1296 -0.1770 -0.4632
 2522SOL    HW119199   1.119   1.973   7.204 -0.3691 -0.8671 -0.2684
 2522SOL    HW219200   1.166   2.013   7.066 -2.7258  0.3688 -0.1188
 2523SOL     OW19201   2.261   0.533   1.021  0.0245  0.2500  0.6617
 2523SOL    HW119202   2.230   0.581   0.944 -0.9801  0.7734  1.3937
 2523SOL    HW219203   2.298   0.453   0.984  0.1779  0.9068 -0.6237
 2524SOL     OW19204   0.288   1.647   5.724  0.5201  0.1442  0.8294
 2524SOL    HW119205   0.315   1.594   5.799 -1.1435 -0.0198  1.3115
 2524SOL    HW219206   0.338   1.599   5.658  1.2605 -0.9606  2.1939
 2525SOL     OW19207   2.502   4.249   1.088  1.1448 -0.6154 -0.7526
 2525SOL    HW119208   2.559   4.201   1.028  1.1121  0.1414 -1.3871
 2525SOL    HW219209   2.548   4.234   1.170 -0.7583 -0.1845  0.3968
 2526SOL     OW19210   3.562   3.162  16.469  0.1068 -0.1843  0.1885
 2526SOL    HW119211   3.547   3.247  16.512  0.4093  1.5789 -3.2205
 2526SOL    HW219212   3.517   3.104  16.531  1.6340 -0.1804  1.3085
 2527SOL     OW19213   1.316   0.886   7.801 -0.9144  0.0077  0.1250
 2527SOL    HW119214   1.402   0.926   7.790 -0.3737 -0.7723  1.6453
 2527SOL    HW219215   1.334   0.799   7.765  2.0423  1.5118 -1.9752
 2528SOL     OW19216   0.155   0.897   1.929 -0.6802 -0.0247  0.0717
 2528SOL    HW119217   0.069   0.903   1.971 -1.7570 -2.0862 -1.8265
 2528SOL    HW219218   0.151   0.943   1.845  0.6313 -0.9162 -0.4782
 2529SOL     OW19219   3.093   4.563   4.691 -1.0871  0.4726  0.0141
 2529SOL    HW119220   3.071   4.477   4.727  1.4887 -0.1756  0.0333
 2529SOL    HW219221   3.130   4.539   4.606 -0.4422  1.9239 -0.1273
 2530SOL     OW19222   3.971   2.584   5.692 -0.1511 -0.8992  0.2010
 2530SOL    HW119223   4.046   2.629   5.732 -1.6190  1.1845  0.5927
 2530SOL    HW219224   4.018   2.525   5.632 -0.0484  1.0188 -1.6363
 2531SOL     OW19225   0.100   0.997   6.014 -0.0086  0.8081  0.2537
 2531SOL    HW119226   0.009   0.968   6.014  0.2094  0.0953 -1.1955
 2531SOL    HW219227   0.104   1.036   6.101 -2.1847  1.1827  0.1734
 2532SOL     OW19228   1.653   1.522   9.471 -0.0429 -0.0965  0.4135
 2532SOL    HW119229   1.601   1.454   9.512  2.0442 -1.7789  0.2681
 2532SOL    HW219230   1.596   1.542   9.396 -0.7339 -1.7644  0.5025
 2533SOL     OW19231   0.992   2.903   5.504  0.3421 -0.0691  0.1946
 2533SOL    HW119232   0.970   2.818   5.542  0.9327 -0.7110 -0.8924
 2533SOL    HW219233   0.913   2.921   5.454  0.6308 -0.3173 -0.3594
 2534SOL     OW19234   2.698   1.671  11.331  0.0022 -0.2462  0.5289
 2534SOL    HW119235   2.613   1.711  11.347  0.7762  1.3096  0.7628
 2534SOL    HW219236   2.742   1.739  11.279  0.4152 -0.7500  0.2198
 2535SOL     OW19237   2.959   2.879  16.389 -0.5891 -0.5155  0.6644
 2535SOL    HW119238   2.906   2.954  16.418  0.1032  1.0119 -2.0946
 2535SOL    HW219239   3.015   2.923  16.326  0.0800  0.9318  2.2543
 2536SOL     OW19240   3.081   3.420   5.232 -0.2704 -0.2719  0.0997
 2536SOL    HW119241   3.052   3.362   5.303  0.0979  0.1234  0.5715
 2536SOL    HW219242   3.116   3.352   5.175 -1.9024 -0.7643 -0.3247
 2537SOL     OW19243   3.007   3.029   3.336  0.3870  0.2641  0.3628
 2537SOL    HW119244   2.949   3.007   3.263  1.2643  0.5824 -0.4511
 2537SOL    HW219245   2.945   3.080   3.387  1.1168  1.0248  0.4983
 2538SOL     OW19246   1.080   3.122  11.165 -0.0397  0.6231  0.4326
 2538SOL    HW119247   1.067   3.216  11.157 -1.9507  0.2615 -0.6195
 2538SOL    HW219248   1.002   3.077  11.133 -0.6919  1.8702  0.2621
 2539SOL     OW19249   1.129   0.084   3.841 -0.0762 -0.5125  0.8071
 2539SOL    HW119250   1.223   0.085   3.857  0.3200  0.3469 -1.5127
 2539SOL    HW219251   1.098   0.100   3.930 -0.7004 -1.5485  0.7787
 2540SOL     OW19252   1.633   4.708   3.935  0.3688 -0.0116 -0.4089
 2540SOL    HW119253   1.676   4.717   4.019  1.7706 -2.1166 -0.9180
 2540SOL    HW219254   1.700   0.014   3.881  1.4568  0.3870  1.2688
 2541SOL     OW19255   2.438   2.338   4.480  0.3613 -0.8788 -0.1208
 2541SOL    HW119256   2.489   2.257   4.474 -0.3448 -1.3056 -0.3703
 2541SOL    HW219257   2.356   2.293   4.499  0.4053 -0.9545 -0.1116
 2542SOL     OW19258   3.377   3.270  16.207 -0.9109  0.3280 -0.2078
 2542SOL    HW119259   3.317   3.337  16.177 -0.9070  0.4670  0.0965
 2542SOL    HW219260   3.393   3.302  16.295 -1.4702 -1.1836  0.4498
 2543SOL     OW19261   2.688   0.528   6.471  0.1100  0.1397 -0.1484
 2543SOL    HW119262   2.596   0.531   6.499 -0.9857  0.9070 -3.7873
 2543SOL    HW219263   2.664   0.558   6.383 -1.7230 -0.7128  0.0485
 2544SOL     OW19264   3.309   0.959   7.791  0.5267 -0.3635 -0.4630
 2544SOL    HW119265   3.368   0.905   7.842 -1.8932  1.4541  4.2715
 2544SOL    HW219266   3.301   1.039   7.843 -0.5372 -1.3497  0.8796
 2545SOL     OW19267   0.793   0.886  16.958 -0.5897 -0.1554  0.3973
 2545SOL    HW119268   0.835   0.946  17.020  0.4638  0.7648 -1.1974
 2545SOL    HW219269   0.817   0.799  16.991  0.6038  0.4968  1.2579
 2546SOL     OW19270   3.100   1.379   5.918 -0.3518  0.6455 -0.3334
 2546SOL    HW119271   3.163   1.450   5.903  1.2539 -1.1345 -2.0631
 2546SOL    HW219272   3.119   1.341   6.004  0.7552  0.1542 -0.7848
 2547SOL     OW19273   1.876   1.781  12.171 -0.3962  0.2978 -0.9020
 2547SOL    HW119274   1.953   1.769  12.115  1.1179 -0.9684  1.4407
 2547SOL    HW219275   1.833   1.700  12.142  1.6814 -0.9055 -0.6648
 2548SOL     OW19276   1.720   2.451   3.714  0.0570 -0.3104  0.1121
 2548SOL    HW119277   1.814   2.444   3.696  0.1029  1.1828 -0.2270
 2548SOL    HW219278   1.707   2.358   3.734  2.2979 -0.6840 -0.1368
 2549SOL     OW19279   2.073   4.652   2.266  0.1891  0.6745 -0.4918
 2549SOL    HW119280   2.030   4.691   2.342  0.1946 -1.1495  0.4403
 2549SOL    HW219281   2.018   4.575   2.255  2.9045 -0.8267 -3.2637
 2550SOL     OW19282   1.999   3.206  14.893 -0.2071 -0.0978  0.6209
 2550SOL    HW119283   1.949   3.256  14.828 -1.0136 -1.2772  0.3478
 2550SOL    HW219284   2.081   3.256  14.888 -1.9738  2.6438 -1.1448
 2551SOL     OW19285   2.555   1.215   4.489 -0.4349 -0.3460  0.9096
 2551SOL    HW119286   2.518   1.131   4.460 -1.4168  0.1494  0.7574
 2551SOL    HW219287   2.624   1.169   4.538  2.5957 -0.1156 -3.1112
 2552SOL     OW19288   0.263   1.178   4.454 -0.1972  0.2310  0.4054
 2552SOL    HW119289   0.319   1.196   4.379 -0.2604 -3.4490 -0.5487
 2552SOL    HW219290   0.213   1.259   4.450  0.2965  0.4556 -1.5032
 2553SOL     OW19291   3.430   1.970   5.918  0.4677  0.0110 -0.2048
 2553SOL    HW119292   3.513   1.998   5.957 -1.2690  3.4135  0.9771
 2553SOL    HW219293   3.385   2.051   5.898 -0.2766 -0.0249  1.2827
 2554SOL     OW19294   1.396   0.590   5.076 -0.1378 -0.8350  0.0135
 2554SOL    HW119295   1.412   0.513   5.131  0.2284 -1.7638 -1.3906
 2554SOL    HW219296   1.419   0.559   4.988 -2.0363  0.8200 -1.0747
 2555SOL     OW19297   2.461   0.931  14.128 -0.5618  0.0446 -0.1988
 2555SOL    HW119298   2.512   1.010  14.145 -0.5806 -0.2483  1.1991
 2555SOL    HW219299   2.463   0.919  14.033 -1.8645  1.5903 -0.4281
 2556SOL     OW19300   2.096   3.580   1.718 -0.0427 -0.5160 -0.0015
 2556SOL    HW119301   2.086   3.656   1.660 -0.9912  0.0695  0.9186
 2556SOL    HW219302   2.044   3.609   1.793 -3.6644 -0.8045 -2.4308
 2557SOL     OW19303   4.426   4.491   1.161  0.6736 -0.1612  0.0504
 2557SOL    HW119304   4.355   4.539   1.117 -0.5330 -1.6745  0.3643
 2557SOL    HW219305   4.486   4.489   1.087 -2.6657  0.4185 -2.6869
 2558SOL     OW19306   1.906   0.928  11.192  0.2702  1.1255  0.2935
 2558SOL    HW119307   1.812   0.924  11.174  0.6935  0.4276 -1.8177
 2558SOL    HW219308   1.903   0.854  11.252  0.1620  2.0614  1.4283
 2559SOL     OW19309   0.957   0.059   9.974  0.0803  0.0223  0.1180
 2559SOL    HW119310   1.007   4.731   9.923  1.2923  0.0807  1.2348
 2559SOL    HW219311   0.895   0.098   9.912  1.4226  0.0214 -1.2205
 2560SOL     OW19312   2.069   2.219   8.580  0.3683  0.6115 -0.4613
 2560SOL    HW119313   2.025   2.263   8.507 -1.5752 -1.3179 -0.4691
 2560SOL    HW219314   2.060   2.290   8.643  2.0633 -0.4871  1.0225
 2561SOL     OW19315   0.676   2.659   6.835 -0.1331 -0.2774 -0.0099
 2561SOL    HW119316   0.671   2.708   6.753  0.2820  2.3049  1.5075
 2561SOL    HW219317   0.769   2.637   6.831 -0.3717 -1.0577 -1.5213
 2562SOL     OW19318   4.321   2.900   8.502  0.0746 -0.0882 -0.3333
 2562SOL    HW119319   4.358   2.936   8.582 -1.1401  0.4466 -0.0261
 2562SOL    HW219320   4.322   2.807   8.526 -1.1948  0.7527  2.8883
 2563SOL     OW19321   2.980   2.756   8.892 -0.4156 -0.0419 -0.5210
 2563SOL    HW119322   3.011   2.680   8.941 -2.4860 -1.6098 -1.6173
 2563SOL    HW219323   2.894   2.763   8.933 -0.4033 -1.6296 -0.2460
 2564SOL     OW19324   2.566   4.587   5.092  0.0481 -0.4322 -0.1370
 2564SOL    HW119325   2.495   4.626   5.041 -0.7204 -2.0615 -0.3221
 2564SOL    HW219326   2.628   4.571   5.021 -0.3188  0.0106 -0.5613
 2565SOL     OW19327   1.525   4.105   7.683  0.1888 -0.1399 -0.4039
 2565SOL    HW119328   1.592   4.163   7.646  0.7460 -0.5818 -0.0839
 2565SOL    HW219329   1.553   4.018   7.654  0.9147  0.3816 -1.2605
 2566SOL     OW19330   0.929   4.471   9.078 -0.0969 -0.1830 -0.4591
 2566SOL    HW119331   0.921   4.528   9.002 -0.6485  0.5632  0.1555
 2566SOL    HW219332   0.926   4.386   9.033  0.4112 -0.6912  0.4825
 2567SOL     OW19333   0.819   2.411  17.447  1.0403  0.5140  0.3578
 2567SOL    HW119334   0.789   2.368  17.367 -0.7032  0.9480  0.7805
 2567SOL    HW219335   0.732   2.430  17.483  1.2555 -0.7339  1.5268
 2568SOL     OW19336   1.877   1.031   4.337 -0.3148 -0.2351 -0.0735
 2568SOL    HW119337   1.797   1.072   4.305  1.7469  3.3721 -0.6665
 2568SOL    HW219338   1.944   1.073   4.284 -0.9822 -1.9249 -2.2260
 2569SOL     OW19339   3.676   2.334   2.441 -0.2668  0.0566 -0.0548
 2569SOL    HW119340   3.653   2.386   2.519 -0.1907 -1.3450  0.9006
 2569SOL    HW219341   3.752   2.380   2.407 -1.3829  3.1477  1.5904
 2570SOL     OW19342   3.095   1.666   4.087 -0.2589 -0.7896 -0.3575
 2570SOL    HW119343   3.182   1.628   4.103 -0.3929  0.4363  3.2289
 2570SOL    HW219344   3.042   1.623   4.153 -0.2645  2.0992  1.5470
 2571SOL     OW19345   1.099   0.962   5.285 -0.2143 -0.2265  0.5418
 2571SOL    HW119346   1.166   0.914   5.236 -1.3821 -0.3205 -0.9922
 2571SOL    HW219347   1.042   0.889   5.309 -0.8975  0.1701  0.1247
 2572SOL     OW19348   0.966   3.027   3.078 -0.0604  0.7127 -0.3134
 2572SOL    HW119349   1.035   2.994   3.136 -1.4543  2.8872  2.5910
 2572SOL    HW219350   0.908   2.951   3.073 -1.4944  1.7811  0.3090
 2573SOL     OW19351   0.142   0.167   9.321  0.1157  0.0587  0.3834
 2573SOL    HW119352   0.090   0.108   9.375 -0.1475 -1.1992 -1.2574
 2573SOL    HW219353   0.092   0.168   9.239  0.1686 -0.0361  0.3501
 2574SOL     OW19354   0.112   1.919   4.644 -0.4322  0.7465 -0.3825
 2574SOL    HW119355   0.027   1.885   4.671 -0.9822  1.6865 -0.9416
 2574SOL    HW219356   0.151   1.919   4.732  0.4605 -0.5344 -0.7850
 2575SOL     OW19357   3.979   4.311   0.824 -0.0378  0.0712 -0.0338
 2575SOL    HW119358   3.984   4.259   0.904 -0.4839 -0.8200 -0.5735
 2575SOL    HW219359   3.886   4.336   0.827  0.2203  1.1012 -0.6966
 2576SOL     OW19360   2.537   2.364  13.191  0.1339  0.3791 -0.6829
 2576SOL    HW119361   2.452   2.379  13.232  1.6442 -1.0188  3.0052
 2576SOL    HW219362   2.585   2.318  13.260 -0.8309 -1.7134 -1.4291
 2577SOL     OW19363   4.167   4.609   7.134  0.0843  0.2431 -0.3688
 2577SOL    HW119364   4.182   4.694   7.093  1.6092  0.8220  1.3984
 2577SOL    HW219365   4.075   4.604   7.158  0.3611  1.5527  0.9839
 2578SOL     OW19366   1.810   4.446   4.652 -0.3690 -0.2200 -0.4075
 2578SOL    HW119367   1.834   4.396   4.574  0.9307  0.7550 -0.6231
 2578SOL    HW219368   1.864   4.525   4.651 -1.2786  0.4116 -0.4612
 2579SOL     OW19369   4.339   2.206   9.243 -0.2644 -0.6141  0.4427
 2579SOL    HW119370   4.313   2.149   9.170  0.7113 -0.0224 -0.3591
 2579SOL    HW219371   4.287   2.174   9.317 -1.7303 -1.8832 -1.1126
 2580SOL     OW19372   2.487   3.108   8.139 -0.1266 -0.1174  0.5510
 2580SOL    HW119373   2.492   3.177   8.205 -0.9208 -1.2256  1.7795
 2580SOL    HW219374   2.554   3.048   8.172 -0.7639 -0.9014  0.4324
 2581SOL     OW19375   3.903   0.115   5.312 -0.1951 -0.0401  0.2632
 2581SOL    HW119376   3.860   0.197   5.334 -1.4156  0.0188 -2.3138
 2581SOL    HW219377   3.831   0.067   5.271 -0.5399 -0.0949  0.9410
 2582SOL     OW19378   3.869   2.959   8.658  0.3016 -0.0292 -0.6325
 2582SOL    HW119379   3.892   3.049   8.680  1.5341 -1.2657  3.1564
 2582SOL    HW219380   3.823   2.937   8.738  0.0549  1.6936 -0.2967
 2583SOL     OW19381   1.542   3.811  10.450 -0.1978 -0.1039  0.0713
 2583SOL    HW119382   1.551   3.785  10.542 -0.4930  1.6424  0.6008
 2583SOL    HW219383   1.485   3.888  10.453  1.3615  1.0673 -0.6078
 2584SOL     OW19384   3.337   1.478  17.703  0.5558 -0.3361  0.2932
 2584SOL    HW119385   3.397   1.406  17.685 -0.5144 -0.8094 -1.3479
 2584SOL    HW219386   3.346   1.517  17.617 -2.4397 -1.6408 -0.6252
 2585SOL     OW19387   1.876   2.973   6.842  0.5914 -0.7598  0.1521
 2585SOL    HW119388   1.841   3.059   6.865  1.5835 -0.5691  0.9782
 2585SOL    HW219389   1.969   2.985   6.820 -0.2017  0.3012 -2.5431
 2586SOL     OW19390   0.314   0.428  12.278  0.4871  0.4318  0.3731
 2586SOL    HW119391   0.234   0.480  12.278  2.2412  3.0695  2.8196
 2586SOL    HW219392   0.330   0.425  12.372  0.7834  2.4968  0.3682
 2587SOL     OW19393   3.477   1.548   7.443 -0.0041  0.2284 -0.0753
 2587SOL    HW119394   3.471   1.512   7.354  0.5815  1.1902 -0.5062
 2587SOL    HW219395   3.395   1.513   7.479  0.8052  1.8014  3.2464
 2588SOL     OW19396   3.427   2.165  11.401 -0.5206  0.2063  1.0149
 2588SOL    HW119397   3.369   2.162  11.477 -1.6930  1.2108  0.1678
 2588SOL    HW219398   3.398   2.087  11.355 -0.2200  0.7734 -0.1286
 2589SOL     OW19399   0.251   0.951   3.305  0.1498  0.0867  0.3138
 2589SOL    HW119400   0.339   0.919   3.324  0.1872 -0.5238 -0.9228
 2589SOL    HW219401   0.213   0.946   3.393  0.3412  1.9598  0.5072
 2590SOL     OW19402   1.518   1.842   8.083  0.0802 -0.5096 -0.5676
 2590SOL    HW119403   1.539   1.871   7.995 -1.9499  0.3201 -0.7929
 2590SOL    HW219404   1.443   1.898   8.106  0.6040  0.0124 -0.1174
 2591SOL     OW19405   1.210   2.763  12.316  0.6979  0.0292  0.9298
 2591SOL    HW119406   1.143   2.831  12.327 -1.0941 -1.5724 -0.0269
 2591SOL    HW219407   1.148   2.690  12.319  2.1469 -1.1448  2.5759
 2592SOL     OW19408   1.378   0.934   6.393 -0.3146  0.0076  0.4771
 2592SOL    HW119409   1.394   0.893   6.478  1.9782 -0.4568 -0.1833
 2592SOL    HW219410   1.292   0.894   6.383 -0.3716  0.5259 -1.2013
 2593SOL     OW19411   3.032   3.336   0.560 -0.7428 -0.1289  0.3207
 2593SOL    HW119412   2.982   3.268   0.514  1.1410 -0.3932 -1.3275
 2593SOL    HW219413   3.115   3.289   0.556 -1.5174 -1.3411 -1.5813
 2594SOL     OW19414   4.316   3.193   6.852  0.4149 -0.0862  0.4887
 2594SOL    HW119415   4.257   3.177   6.779  2.9917 -0.1966 -1.5460
 2594SOL    HW219416   4.334   3.284   6.829 -1.3512 -0.2447 -1.4629
 2595SOL     OW19417   2.857   2.306   5.688 -0.3935  0.0874  0.1620
 2595SOL    HW119418   2.839   2.292   5.781  0.6537  0.2097  0.3780
 2595SOL    HW219419   2.930   2.247   5.671 -2.5942 -3.4767  3.0741
 2596SOL     OW19420   0.849   3.928   6.363  1.1421 -0.4289 -0.1714
 2596SOL    HW119421   0.767   3.941   6.315  0.2113  0.4494  1.6466
 2596SOL    HW219422   0.884   3.853   6.315 -0.3619 -1.9482  1.0993
 2597SOL     OW19423   1.797   3.856   8.390  0.1723 -0.5545  0.0715
 2597SOL    HW119424   1.831   3.942   8.361 -2.2908  0.2705 -0.3482
 2597SOL    HW219425   1.874   3.831   8.442  0.4374 -0.8062 -0.4418
 2598SOL     OW19426   0.658   1.506   6.553  0.1609 -0.5046  0.0033
 2598SOL    HW119427   0.735   1.481   6.603  1.6813 -0.8071 -2.4627
 2598SOL    HW219428   0.625   1.581   6.602 -0.1211 -0.4094 -0.3273
 2599SOL     OW19429   4.201   0.742   1.621 -0.0452 -0.2937 -0.0903
 2599SOL    HW119430   4.172   0.651   1.613 -0.8752  0.0340 -0.8408
 2599SOL    HW219431   4.244   0.738   1.706 -0.2187  0.7975  0.0544
 2600SOL     OW19432   3.542   4.416   1.481 -0.3507  0.4547  0.0287
 2600SOL    HW119433   3.618   4.470   1.460 -1.5529  1.9269 -0.5596
 2600SOL    HW219434   3.497   4.467   1.548 -1.1363 -0.6538  0.3557
 2601SOL     OW19435   0.167   1.025   4.913  0.3518  0.5877 -0.9006
 2601SOL    HW119436   0.206   0.941   4.889  2.2771  1.2272 -0.0606
 2601SOL    HW219437   0.101   1.030   4.844 -1.0217  3.9895  0.6597
 2602SOL     OW19438   0.487   3.774   9.062 -0.2141 -0.3147  0.6934
 2602SOL    HW119439   0.492   3.856   9.111 -1.5272  0.5682 -0.6536
 2602SOL    HW219440   0.578   3.747   9.072 -0.0905 -0.2279 -0.1757
 2603SOL     OW19441   0.379   3.747  15.369 -0.4732  0.0302  0.0122
 2603SOL    HW119442   0.367   3.661  15.409  3.7036  0.3860  1.9768
 2603SOL    HW219443   0.457   3.771  15.419 -1.0771 -1.4327  1.6770
 2604SOL     OW19444   1.745   1.892   6.654  0.0064  0.8522  0.1577
 2604SOL    HW119445   1.700   1.957   6.708  0.5885  1.0109  0.4467
 2604SOL    HW219446   1.760   1.827   6.722 -1.9889  0.3060  0.0756
 2605SOL     OW19447   3.588   4.553   2.750  0.1904  0.4146  0.1804
 2605SOL    HW119448   3.563   4.524   2.662  3.7673  1.6453 -1.2307
 2605SOL    HW219449   3.530   4.503   2.807 -0.2661 -2.0658 -2.4511
 2606SOL     OW19450   2.026   1.947   9.498 -0.0968 -0.4312 -0.2639
 2606SOL    HW119451   1.931   1.954   9.506 -0.2368 -1.6693 -0.9558
 2606SOL    HW219452   2.044   2.010   9.428 -0.5036 -1.5492 -1.3695
 2607SOL     OW19453   1.289   1.465  16.974  0.0217 -0.0353 -0.0375
 2607SOL    HW119454   1.213   1.424  17.017  0.9316 -0.1872  1.4248
 2607SOL    HW219455   1.286   1.432  16.884 -0.5801 -0.1488  0.0223
 2608SOL     OW19456   0.531   0.718   6.499  0.5688  0.6883 -0.6148
 2608SOL    HW119457   0.626   0.728   6.507  0.5196  0.1625  0.5954
 2608SOL    HW219458   0.503   0.788   6.439  1.6998  1.4805 -0.2274
 2609SOL     OW19459   4.560   2.334   0.780 -0.5391  0.4322 -0.1954
 2609SOL    HW119460   4.466   2.351   0.781 -0.6286 -0.0184 -0.5739
 2609SOL    HW219461   4.550   2.244   0.746  2.8870  1.1772 -3.2473
 2610SOL     OW19462   1.336   0.449   5.674 -0.4015  0.1187 -0.1527
 2610SOL    HW119463   1.325   0.489   5.761  0.4294  0.9635 -0.4381
 2610SOL    HW219464   1.384   0.370   5.701 -1.1951  0.3253  1.8969
 2611SOL     OW19465   1.190   1.797   2.004  0.3092  0.1350 -0.1210
 2611SOL    HW119466   1.251   1.788   2.077  0.3673  2.7171  0.1465
 2611SOL    HW219467   1.135   1.719   2.005  0.0235  0.3259 -1.3500
 2612SOL     OW19468   0.219   2.240  16.473 -0.4321 -0.1760 -0.2391
 2612SOL    HW119469   0.166   2.184  16.416 -0.1152 -0.6850 -0.0306
 2612SOL    HW219470   0.161   2.267  16.544 -1.0492 -0.9943 -0.4371
 2613SOL     OW19471   2.728   0.629   2.082  0.6356  0.1628  0.7232
 2613SOL    HW119472   2.685   0.649   2.165  1.9295  1.0937  1.1731
 2613SOL    HW219473   2.822   0.635   2.103  0.8278  0.8824 -0.3801
 2614SOL     OW19474   1.795   4.527   6.160 -0.0726 -0.0338 -0.6022
 2614SOL    HW119475   1.786   4.491   6.248  1.1765  1.4103  0.1059
 2614SOL    HW219476   1.726   4.474   6.119 -0.4356 -0.6585  0.8288
 2615SOL     OW19477   2.626   0.639  16.439 -0.1070 -0.5002 -0.2946
 2615SOL    HW119478   2.549   0.640  16.495  0.0389  0.9608 -0.1213
 2615SOL    HW219479   2.608   0.715  16.384  2.8050 -1.6561 -2.8395
 2616SOL     OW19480   0.804   0.634   9.126  0.1804 -0.3654  0.5536
 2616SOL    HW119481   0.881   0.593   9.088  0.1228 -0.4733  0.5548
 2616SOL    HW219482   0.805   0.583   9.207  1.9331  0.3107  0.9594
 2617SOL     OW19483   0.078   4.644  13.288 -0.2493 -0.1083  0.1582
 2617SOL    HW119484   0.017   4.660  13.216 -0.8145  0.3673  0.7392
 2617SOL    HW219485   0.019   4.627  13.362  1.5951 -3.4642  0.8422
 2618SOL     OW19486   0.926   0.129  17.581  0.7015 -0.1138 -0.0434
 2618SOL    HW119487   0.975   0.112  17.662 -1.9084  0.2894  1.6365
 2618SOL    HW219488   0.988   0.155  17.514  1.3959  2.4629  1.6126
 2619SOL     OW19489   0.147   4.658  11.951  0.3227 -0.5406 -0.2907
 2619SOL    HW119490   0.229   4.675  11.998 -0.8097  1.4301  0.9994
 2619SOL    HW219491   0.171   4.686  11.863 -0.8282  1.5891  0.0744
 2620SOL     OW19492   1.815   2.733   6.150 -0.1003 -1.1237  0.2654
 2620SOL    HW119493   1.743   2.797   6.147  0.9025 -0.0225 -0.5830
 2620SOL    HW219494   1.891   2.785   6.179  0.7787 -0.4168 -3.3218
 2621SOL     OW19495   3.939   1.934   9.659 -0.4124 -0.1769  1.0659
 2621SOL    HW119496   4.013   1.982   9.697 -0.7054  0.4808  0.8192
 2621SOL    HW219497   3.951   1.840   9.664  2.3871  0.0679 -0.8811
 2622SOL     OW19498   3.257   3.066   6.637 -0.1948 -0.1450  0.2857
 2622SOL    HW119499   3.293   3.001   6.696 -0.3948  0.1415  0.7291
 2622SOL    HW219500   3.334   3.083   6.584  0.3739  0.1019  1.1932
 2623SOL     OW19501   0.311   2.783   5.613 -0.1930  0.0515  0.0158
 2623SOL    HW119502   0.395   2.810   5.577 -1.4607  2.0394 -1.5056
 2623SOL    HW219503   0.319   2.783   5.709 -0.3035  0.1948  0.0253
 2624SOL     OW19504   0.587   1.825   5.677  0.0497  0.5294  0.5631
 2624SOL    HW119505   0.556   1.738   5.654  2.7964 -1.2250  3.4023
 2624SOL    HW219506   0.575   1.813   5.772 -0.5829  0.4771  0.4776
 2625SOL     OW19507   1.069   2.405   9.208 -0.2348  0.1587  0.7869
 2625SOL    HW119508   1.057   2.450   9.291  0.0022 -1.8727  1.9410
 2625SOL    HW219509   1.092   2.318   9.242 -0.3826 -0.4092 -0.5421
 2626SOL     OW19510   3.813   0.561   2.857  0.0206  0.2275 -0.0292
 2626SOL    HW119511   3.786   0.579   2.947 -0.7215  0.4306 -0.2924
 2626SOL    HW219512   3.785   0.630   2.797  1.0039  2.0024  1.5452
 2627SOL     OW19513   1.788   3.077  12.590  0.0168  0.1944 -0.2894
 2627SOL    HW119514   1.746   3.033  12.516  1.5660 -0.7891 -0.5577
 2627SOL    HW219515   1.749   3.018  12.654  0.4114  1.3007  0.9650
 2628SOL     OW19516   4.590   2.275   9.357 -0.5022 -0.2004  0.6367
 2628SOL    HW119517   4.502   2.251   9.326  0.3285  0.1091 -2.0037
 2628SOL    HW219518   4.647   2.274   9.279  0.8288  0.5743  1.6026
 2629SOL     OW19519   4.719   0.365  15.820 -0.2403 -0.1725  0.3539
 2629SOL    HW119520   4.641   0.418  15.803 -0.8802 -1.8638 -2.0627
 2629SOL    HW219521   0.050   0.431  15.835 -1.7473  1.4927 -0.1637
 2630SOL     OW19522   3.067   1.116   5.793 -0.6114  0.1598 -0.4561
 2630SOL    HW119523   3.008   1.189   5.809  1.4239  1.6054  0.4042
 2630SOL    HW219524   3.038   1.080   5.709 -2.0217  1.4806 -0.5499
 2631SOL     OW19525   2.062   4.459   8.039  0.6636  0.1694 -0.2946
 2631SOL    HW119526   2.149   4.480   8.073  0.6647  0.2843 -0.3679
 2631SOL    HW219527   2.055   4.522   7.968 -3.7023  0.9247  0.8477
 2632SOL     OW19528   4.350   3.425  12.557 -0.7921  0.2173  0.2856
 2632SOL    HW119529   4.369   3.331  12.563  1.4968  0.5314 -2.0946
 2632SOL    HW219530   4.405   3.449  12.483 -1.6400  0.4329 -0.2691
 2633SOL     OW19531   3.550   4.182  17.368  0.0894 -0.0136  0.0819
 2633SOL    HW119532   3.625   4.219  17.414 -0.6579  0.1134  1.2042
 2633SOL    HW219533   3.589   4.107  17.324  0.9220  0.5122 -0.0705
 2634SOL     OW19534   1.616   4.428   2.410 -0.0805 -0.6996  0.8387
 2634SOL    HW119535   1.694   4.433   2.465 -1.5293 -1.5297  2.9859
 2634SOL    HW219536   1.646   4.459   2.325  1.5095 -2.1065  0.8741
 2635SOL     OW19537   2.746   0.455   4.045 -0.1522  0.2155  0.5029
 2635SOL    HW119538   2.718   0.440   4.136  0.3066 -1.4303  0.3624
 2635SOL    HW219539   2.677   0.401   4.007 -0.4530 -0.5260  2.0707
 2636SOL     OW19540   1.486   1.431   6.521 -0.2210 -0.0733  0.6776
 2636SOL    HW119541   1.468   1.359   6.461  0.2667  0.7614 -0.4864
 2636SOL    HW219542   1.573   1.451   6.487  0.1598 -1.3267  0.9152
 2637SOL     OW19543   0.953   2.525   6.220 -0.0296  0.1143 -0.1953
 2637SOL    HW119544   0.925   2.447   6.170 -1.1110 -0.8805  1.9472
 2637SOL    HW219545   0.872   2.535   6.270 -1.0757  0.3144 -1.9185
 2638SOL     OW19546   1.501   1.022  10.143 -0.3336 -0.3866  0.1310
 2638SOL    HW119547   1.478   0.986  10.058 -1.2556 -0.5076  0.4339
 2638SOL    HW219548   1.552   0.954  10.188 -0.3038  0.0826  0.8170
 2639SOL     OW19549   1.194   1.035  17.641 -0.6457  0.0632 -0.0009
 2639SOL    HW119550   1.226   1.070  17.724 -0.3112 -0.0758 -0.0689
 2639SOL    HW219551   1.249   0.958  17.623  0.6504  1.0682 -0.3265
 2640SOL     OW19552   3.281   2.938   1.481 -0.0549 -0.2278  0.4982
 2640SOL    HW119553   3.250   3.015   1.529  0.1533 -0.4258  0.9437
 2640SOL    HW219554   3.361   2.966   1.437 -0.4116 -0.2654 -0.1787
 2641SOL     OW19555   1.413   2.736  12.613 -0.4915 -0.7160 -0.1913
 2641SOL    HW119556   1.375   2.802  12.554  0.0977  0.2398  0.4913
 2641SOL    HW219557   1.335   2.686  12.634 -0.3100  0.2472  2.7311
 2642SOL     OW19558   1.129   0.884   2.969  0.0673 -0.3886 -0.3196
 2642SOL    HW119559   1.195   0.901   2.901 -0.0305 -2.7501 -1.0010
 2642SOL    HW219560   1.076   0.813   2.934  0.0196  0.7259 -2.4799
 2643SOL     OW19561   0.213   0.817   8.261 -0.0025  0.6150  0.0150
 2643SOL    HW119562   0.138   0.820   8.202  0.6685  0.0629 -0.8716
 2643SOL    HW219563   0.226   0.911   8.273  2.2913  0.1917  0.8493
 2644SOL     OW19564   1.177   0.577  15.178  0.3424 -0.5259  0.3928
 2644SOL    HW119565   1.197   0.667  15.152 -0.0614 -0.3700  0.6158
 2644SOL    HW219566   1.082   0.577  15.171  0.4080 -0.1896 -0.4905
 2645SOL     OW19567   1.328   2.030  11.988  0.3609  0.3131 -0.3695
 2645SOL    HW119568   1.381   2.060  11.914 -1.1370 -0.3800 -1.7431
 2645SOL    HW219569   1.386   1.991  12.054 -0.1686 -2.4801 -1.5356
 2646SOL     OW19570   1.208   3.871  15.823  0.2371 -0.2669  1.0990
 2646SOL    HW119571   1.201   3.855  15.917 -0.1379 -3.5917  0.4756
 2646SOL    HW219572   1.302   3.891  15.815 -0.1151  0.4206 -1.3191
 2647SOL     OW19573   3.218   2.447  15.348  0.3485  0.3286  0.9576
 2647SOL    HW119574   3.281   2.483  15.411  0.6955  1.2997  0.0632
 2647SOL    HW219575   3.157   2.521  15.353 -1.2131 -0.7787 -1.9534
 2648SOL     OW19576   3.379   3.682   7.062 -0.8191 -0.0517  0.1229
 2648SOL    HW119577   3.287   3.671   7.085 -1.4003  4.5902 -0.0810
 2648SOL    HW219578   3.394   3.771   7.093 -2.3112 -0.7303  2.7346
 2649SOL     OW19579   2.262   1.014   4.918 -0.0490  0.2511  0.3039
 2649SOL    HW119580   2.196   1.054   4.975 -0.0401  0.1382  0.3957
 2649SOL    HW219581   2.217   1.015   4.834 -0.4009 -2.0357  0.4544
 2650SOL     OW19582   3.285   3.945  12.524  0.4113 -0.3235  0.0851
 2650SOL    HW119583   3.231   4.010  12.570  0.9394  0.0543  0.1777
 2650SOL    HW219584   3.230   3.932  12.447  3.2097  1.1480 -2.1750
 2651SOL     OW19585   1.789   3.580   8.567 -0.2100 -0.2470 -0.3807
 2651SOL    HW119586   1.857   3.648   8.576 -1.1363  0.6372 -0.0175
 2651SOL    HW219587   1.728   3.620   8.506 -0.3336 -0.5257 -0.4386
 2652SOL     OW19588   2.341   1.414   5.079  1.0728  0.2528  0.0950
 2652SOL    HW119589   2.327   1.505   5.104 -1.4853 -0.4908  1.2990
 2652SOL    HW219590   2.436   1.404   5.086  0.9660 -1.3876 -0.7498
 2653SOL     OW19591   0.911   4.696  17.288 -0.4254  0.2965  0.5153
 2653SOL    HW119592   0.815   4.697  17.287 -0.4203 -1.3060 -1.4335
 2653SOL    HW219593   0.931   0.053  17.293 -0.4324  0.3888 -1.0907
 2654SOL     OW19594   3.627   2.881   9.482 -0.0617 -0.4386  0.1559
 2654SOL    HW119595   3.557   2.945   9.471  0.1246  0.3482  3.3866
 2654SOL    HW219596   3.623   2.839   9.397 -2.2791  2.1507 -1.0216
 2655SOL     OW19597   3.531   3.131   8.684 -0.1762  0.4740 -0.1387
 2655SOL    HW119598   3.475   3.199   8.647  0.5452  0.8745 -0.5073
 2655SOL    HW219599   3.553   3.089   8.600  0.2640 -1.2538  0.8360
 2656SOL     OW19600   2.190   0.488   6.132 -0.7285 -0.4783  0.2944
 2656SOL    HW119601   2.256   0.471   6.065 -1.2253 -0.4367 -0.2124
 2656SOL    HW219602   2.223   0.570   6.169  0.5116 -0.3285 -1.1466
 2657SOL     OW19603   0.009   2.279   5.516 -0.1611 -0.5063 -0.1847
 2657SOL    HW119604   0.036   2.196   5.476 -2.0454 -1.7232  1.0958
 2657SOL    HW219605   0.083   2.333   5.488 -0.3587 -0.6230 -0.9182
 2658SOL     OW19606   1.835   2.846   3.598  0.4831  0.6229 -0.1723
 2658SOL    HW119607   1.787   2.859   3.517 -0.6368 -1.1944  0.1836
 2658SOL    HW219608   1.910   2.790   3.574 -0.1136 -1.1988  2.1283
 2659SOL     OW19609   4.104   0.986   3.256 -0.2342 -0.0433  0.1706
 2659SOL    HW119610   4.025   0.932   3.252 -0.3896  0.2136 -0.1880
 2659SOL    HW219611   4.079   1.049   3.189  0.1820 -0.3972 -0.3170
 2660SOL     OW19612   1.586   4.606   7.163  0.0651  0.0087 -0.0151
 2660SOL    HW119613   1.663   4.640   7.117  0.6254 -1.0673  0.1428
 2660SOL    HW219614   1.608   4.523   7.205 -0.5752  1.0606  2.3812
 2661SOL     OW19615   3.112   0.230   6.877  0.2975 -0.0050 -0.4349
 2661SOL    HW119616   3.132   0.202   6.788 -0.1797  1.5489 -1.0397
 2661SOL    HW219617   3.123   0.324   6.861  3.3549 -0.3945 -0.5091
 2662SOL     OW19618   1.203   0.013   2.783  0.5804 -0.2871  0.0191
 2662SOL    HW119619   1.124   4.714   2.825 -0.1074  0.7350 -0.4213
 2662SOL    HW219620   1.274   4.694   2.815  0.8354 -0.7961 -1.4196
 2663SOL     OW19621   2.958   0.344   1.568 -0.1294  0.1649 -0.5175
 2663SOL    HW119622   2.894   0.287   1.526 -3.4910  3.6318 -0.0905
 2663SOL    HW219623   2.911   0.422   1.597  1.2756  0.5916  0.5713
 2664SOL     OW19624   2.589   0.285  15.376 -0.1950  0.6957 -0.4409
 2664SOL    HW119625   2.550   0.233  15.305 -0.8410 -0.9099  1.1046
 2664SOL    HW219626   2.520   0.352  15.376  1.3262  2.2822 -0.4660
 2665SOL     OW19627   1.884   4.674   8.428  0.2586 -0.1419  0.0642
 2665SOL    HW119628   1.917   0.011   8.375 -1.8591  0.9815  0.2887
 2665SOL    HW219629   1.857   4.716   8.509 -2.3735  0.2544 -1.0312
 2666SOL     OW19630   2.844   2.881   7.719 -0.6987  0.4123  0.4583
 2666SOL    HW119631   2.888   2.796   7.720 -0.7962  0.3524 -0.4763
 2666SOL    HW219632   2.885   2.915   7.799 -0.3106  0.6097  0.1732
 2667SOL     OW19633   0.579   1.116  14.846  0.4693  0.0691 -0.2170
 2667SOL    HW119634   0.634   1.194  14.853  0.8065 -0.1880 -0.0604
 2667SOL    HW219635   0.497   1.162  14.867 -1.0065 -1.1943 -3.1456
 2668SOL     OW19636   0.640   1.250   9.943 -0.0604  0.7474 -0.6159
 2668SOL    HW119637   0.611   1.293  10.023  0.0133 -1.1301  0.4233
 2668SOL    HW219638   0.581   1.179   9.916 -0.7238  1.0728 -0.0342
 2669SOL     OW19639   4.564   0.936   8.349  0.1923  0.0847  0.1946
 2669SOL    HW119640   4.512   1.016   8.338 -1.5930 -1.1257 -0.2027
 2669SOL    HW219641   4.645   0.977   8.377 -1.0564 -0.1417  4.1114
 2670SOL     OW19642   0.589   3.183  10.656  0.0001  0.5000  0.6898
 2670SOL    HW119643   0.597   3.277  10.671 -0.6141  0.7508 -0.5372
 2670SOL    HW219644   0.604   3.151  10.745  0.5017  0.3940  0.5643
 2671SOL     OW19645   0.044   3.906   3.927 -0.1278 -0.3097  0.2164
 2671SOL    HW119646   4.703   3.852   3.913  0.4163 -0.1839 -3.1452
 2671SOL    HW219647   0.091   3.888   3.845  0.6009 -1.8550  0.9764
 2672SOL     OW19648   4.504   3.524   6.233 -0.6667  0.0990  0.2054
 2672SOL    HW119649   4.559   3.498   6.307 -0.5318 -0.3066 -0.0399
 2672SOL    HW219650   4.414   3.497   6.252  0.1451 -1.5568  1.6232
 2673SOL     OW19651   1.996   4.078   5.697  0.2595  0.1116 -0.1229
 2673SOL    HW119652   1.917   4.093   5.747  0.7843 -1.5591  1.2088
 2673SOL    HW219653   1.969   3.995   5.657  1.6818 -0.8495  0.9112
 2674SOL     OW19654   4.424   0.772   3.778 -0.4151  0.4263  0.0234
 2674SOL    HW119655   4.356   0.838   3.792  2.0159  3.3274 -1.8487
 2674SOL    HW219656   4.470   0.788   3.696  1.7228 -2.3759  0.6929
 2675SOL     OW19657   2.073   4.267   3.767 -0.0510 -0.3940  0.6891
 2675SOL    HW119658   1.987   4.234   3.790 -0.3871 -0.6807 -0.9751
 2675SOL    HW219659   2.125   4.226   3.837  2.5255 -0.9772 -1.5538
 2676SOL     OW19660   2.414   4.017   6.633  0.0950 -0.3768 -0.3401
 2676SOL    HW119661   2.331   4.020   6.679  1.7795  0.4443  2.6403
 2676SOL    HW219662   2.459   3.967   6.701  2.7585  1.8954 -0.4035
 2677SOL     OW19663   2.802   0.960   8.958 -0.2166 -0.2112 -0.1516
 2677SOL    HW119664   2.813   0.929   9.048  0.1925  1.6098  0.4189
 2677SOL    HW219665   2.736   0.894   8.933 -0.0003 -0.6649  0.4427
 2678SOL     OW19666   3.786   4.281   5.723 -0.0609  0.1150  0.1960
 2678SOL    HW119667   3.853   4.302   5.658 -1.0922 -0.4868 -1.0509
 2678SOL    HW219668   3.796   4.354   5.784  1.5311 -1.4849  1.8582
 2679SOL     OW19669   3.105   2.305   5.931  0.0337 -0.0648  0.5166
 2679SOL    HW119670   3.023   2.271   5.965 -0.1321  0.5044  0.6754
 2679SOL    HW219671   3.140   2.356   6.004  2.2773  0.2576 -0.7804
 2680SOL     OW19672   3.710   2.987   8.883 -0.4565 -0.4190 -0.1464
 2680SOL    HW119673   3.660   3.049   8.830 -1.4999 -1.4234 -0.3229
 2680SOL    HW219674   3.670   2.902   8.865  2.3185 -1.8687  0.4335
 2681SOL     OW19675   0.606   3.083   8.475 -0.0883 -0.5313 -0.2720
 2681SOL    HW119676   0.552   3.130   8.412 -0.1653  1.8105  1.5579
 2681SOL    HW219677   0.540   3.034   8.524 -1.0327  0.5218 -0.4900
 2682SOL     OW19678   3.813   4.302   4.879 -0.9397  0.0280  0.5317
 2682SOL    HW119679   3.868   4.231   4.845  1.1824  1.4501  0.9591
 2682SOL    HW219680   3.886   4.357   4.908 -1.2194  1.1996 -1.0056
 2683SOL     OW19681   1.483   3.553  13.898  0.6248 -0.2686  0.5509
 2683SOL    HW119682   1.527   3.584  13.819  1.4430 -0.0393  1.0955
 2683SOL    HW219683   1.550   3.538  13.964  0.7648  0.4287  0.5730
 2684SOL     OW19684   2.576   0.895  13.867 -0.5531 -0.2660 -0.0733
 2684SOL    HW119685   2.573   0.800  13.855 -0.7705  0.1494 -3.2732
 2684SOL    HW219686   2.565   0.923  13.777 -1.9412 -2.2046 -0.5110
 2685SOL     OW19687   0.794   0.806  10.103 -0.6905  0.3051 -0.4309
 2685SOL    HW119688   0.762   0.871  10.166 -2.5859 -1.3515  0.3326
 2685SOL    HW219689   0.734   0.734  10.124  1.5231 -1.0130  1.4266
 2686SOL     OW19690   3.732   0.588  17.739  0.7992  0.2280  0.1522
 2686SOL    HW119691   3.663   0.650   0.021  0.4645 -0.7699  1.6989
 2686SOL    HW219692   3.736   0.548   0.083  1.9489 -0.6126 -0.2970
 2687SOL     OW19693   1.896   3.001   8.270  0.4376 -0.5130 -0.7827
 2687SOL    HW119694   1.895   3.091   8.303 -0.7197 -1.0423  0.6492
 2687SOL    HW219695   1.939   3.014   8.186  1.0335  0.2830 -0.3599
 2688SOL     OW19696   0.743   1.685   1.352 -0.3606  0.4298 -0.4062
 2688SOL    HW119697   0.706   1.723   1.273  0.2690 -0.3447 -1.0746
 2688SOL    HW219698   0.789   1.763   1.385  0.5497 -0.2363 -0.0936
 2689SOL     OW19699   1.390   1.862  13.443  0.1618 -0.2754  0.6869
 2689SOL    HW119700   1.458   1.887  13.381  0.1490 -0.3126  0.6585
 2689SOL    HW219701   1.440   1.795  13.490  1.0595 -0.8190 -1.0598
 2690SOL     OW19702   0.299   1.401   3.775 -0.1782 -0.7680 -0.1662
 2690SOL    HW119703   0.374   1.342   3.786  2.6093  2.2739 -3.0544
 2690SOL    HW219704   0.230   1.339   3.747 -1.6312  0.2013  1.2648
 2691SOL     OW19705   2.803   2.076   4.178 -0.6252 -0.1653  0.1380
 2691SOL    HW119706   2.734   2.135   4.207 -0.2707  1.7462 -2.8955
 2691SOL    HW219707   2.854   2.115   4.107  0.3746  3.0964  2.6051
 2692SOL     OW19708   3.436   4.261   3.485 -0.1888  0.3648 -0.2169
 2692SOL    HW119709   3.444   4.286   3.393  0.3689  1.2768  0.0795
 2692SOL    HW219710   3.435   4.166   3.474  1.1179  0.4885 -1.4393
 2693SOL     OW19711   3.951   3.384   3.246  0.0662  0.0395 -0.0197
 2693SOL    HW119712   3.966   3.305   3.194 -0.0219 -1.0126  1.5641
 2693SOL    HW219713   3.944   3.343   3.333  0.3192  1.7805  0.8208
 2694SOL     OW19714   0.416   4.058   1.631 -0.1140 -0.1636  0.1478
 2694SOL    HW119715   0.394   4.145   1.598 -2.5730  0.4984  3.5329
 2694SOL    HW219716   0.473   4.033   1.558 -0.6864 -2.9408  0.6341
 2695SOL     OW19717   1.825   1.288   7.102 -0.0916  0.3074  0.1878
 2695SOL    HW119718   1.865   1.332   7.027  0.4417  0.8406  0.7799
 2695SOL    HW219719   1.730   1.296   7.088 -0.1576  0.5881  0.7591
 2696SOL     OW19720   1.273   1.414   5.528 -0.1535  0.4469  0.6791
 2696SOL    HW119721   1.214   1.384   5.597 -1.0872 -0.2077 -0.4146
 2696SOL    HW219722   1.221   1.401   5.449 -0.1732  0.4945  0.6843
 2697SOL     OW19723   4.010   1.866   7.030  0.3670 -0.1646 -0.3203
 2697SOL    HW119724   3.944   1.881   7.097  1.5828 -0.0296  0.8435
 2697SOL    HW219725   3.961   1.815   6.965  0.4115 -1.8879  0.9782
 2698SOL     OW19726   0.974   1.902   6.528  0.8149  0.4737  0.4323
 2698SOL    HW119727   0.937   1.892   6.616  1.4436  0.1753  0.6623
 2698SOL    HW219728   0.908   1.868   6.467  1.0404  2.7981 -1.0993
 2699SOL     OW19729   4.287   1.715   5.062 -0.4810  0.6675  0.7145
 2699SOL    HW119730   4.199   1.678   5.072 -1.5072  2.7979 -0.5484
 2699SOL    HW219731   4.318   1.695   4.974 -0.9989 -0.3902  0.7780
 2700SOL     OW19732   2.123   0.425   3.218  0.3478  0.1671 -0.2622
 2700SOL    HW119733   2.053   0.414   3.282  1.9927 -1.8979  1.1818
 2700SOL    HW219734   2.092   0.377   3.141  1.6062 -1.5109  0.2526
 2701SOL     OW19735   2.605   4.443   6.558  0.3234 -0.1447  0.1559
 2701SOL    HW119736   2.556   4.515   6.519 -1.6133 -1.4153  0.2352
 2701SOL    HW219737   2.537   4.379   6.582  1.8820 -1.6310  0.6479
 2702SOL     OW19738   2.804   2.004   2.891 -0.2510 -0.7774 -0.5122
 2702SOL    HW119739   2.825   1.913   2.866 -1.4555 -1.5187  1.1771
 2702SOL    HW219740   2.852   2.010   2.974  0.6560  1.3343 -1.1924
 2703SOL     OW19741   3.200   3.295   5.967  0.1396 -0.4091  0.3837
 2703SOL    HW119742   3.267   3.262   5.906 -0.4984 -0.1080 -0.4876
 2703SOL    HW219743   3.235   3.267   6.051  3.0390 -0.0335 -0.6805
 2704SOL     OW19744   4.710   2.120  17.724 -0.2776 -0.2175 -0.5013
 2704SOL    HW119745   0.049   2.081   0.027 -0.2558 -1.5330 -1.6623
 2704SOL    HW219746   4.657   2.151   0.055 -0.6504  1.2934 -1.4044
 2705SOL     OW19747   3.885   4.010   0.841 -0.1097 -0.4139 -0.3670
 2705SOL    HW119748   3.967   4.026   0.795  0.2402 -1.6726 -0.1625
 2705SOL    HW219749   3.886   4.087   0.899 -0.3963  0.8329 -2.0118
 2706SOL     OW19750   1.879   0.403   9.343 -0.8773  1.0385  0.8860
 2706SOL    HW119751   1.799   0.351   9.343  1.5642 -2.6751 -1.3215
 2706SOL    HW219752   1.837   0.482   9.310  1.6157  2.1143  0.2377
 2707SOL     OW19753   2.640   1.177  14.175  0.3204  0.0616 -0.0885
 2707SOL    HW119754   2.703   1.248  14.192  0.7668 -0.1998 -0.6360
 2707SOL    HW219755   2.570   1.230  14.138  0.6197  0.4545 -0.0970
 2708SOL     OW19756   4.222   4.575  12.870 -0.2444  0.1560  0.2864
 2708SOL    HW119757   4.254   4.629  12.798 -0.2598  0.0780  0.2218
 2708SOL    HW219758   4.287   4.506  12.880  1.7189  1.4927 -3.1499
 2709SOL     OW19759   3.721   3.150   6.411  0.3291 -0.2185 -0.4888
 2709SOL    HW119760   3.755   3.180   6.496 -0.8390  0.2051 -0.1663
 2709SOL    HW219761   3.797   3.109   6.370 -0.2540  0.0600 -1.8632
 2710SOL     OW19762   2.046   1.741  10.104  0.0421 -0.2931 -0.2267
 2710SOL    HW119763   2.075   1.695  10.025 -0.9469 -1.3237  0.0031
 2710SOL    HW219764   2.071   1.675  10.168 -3.0167 -0.2537  1.0447
 2711SOL     OW19765   2.701   1.752   1.899  0.4143  0.2736  0.4915
 2711SOL    HW119766   2.611   1.732   1.873  1.0613  0.0427 -1.5864
 2711SOL    HW219767   2.679   1.829   1.951  0.7085  0.6205  0.1009
 2712SOL     OW19768   1.068   0.159   1.818 -0.0636 -0.4556  0.1140
 2712SOL    HW119769   1.074   0.254   1.828  1.3089 -0.0953 -4.0450
 2712SOL    HW219770   0.973   0.146   1.809 -0.2987 -0.1992  2.2211
 2713SOL     OW19771   2.364   3.704  17.217  0.2159 -0.3631  0.0275
 2713SOL    HW119772   2.333   3.668  17.300 -1.1806  1.0516  0.1239
 2713SOL    HW219773   2.429   3.768  17.247 -2.3287  1.2038  2.1432
 2714SOL     OW19774   2.087   4.020   5.182 -0.1343 -0.0811  0.2098
 2714SOL    HW119775   2.043   4.104   5.174  3.3479  1.7271 -0.0506
 2714SOL    HW219776   2.167   4.047   5.136 -0.0534 -1.2175 -0.3241
 2715SOL     OW19777   0.231   3.006   9.376  0.0640 -0.2626  0.6687
 2715SOL    HW119778   0.188   2.966   9.452 -0.4165 -0.3449  0.3533
 2715SOL    HW219779   0.299   3.058   9.420 -1.0227  0.4107  1.5565
 2716SOL     OW19780   4.153   1.771   8.526 -0.0586 -0.0136 -0.0795
 2716SOL    HW119781   4.096   1.764   8.449  2.4838 -0.3092 -1.9463
 2716SOL    HW219782   4.193   1.684   8.532 -1.6933 -0.6929  1.0079
 2717SOL     OW19783   0.579   1.839   4.672 -0.6845 -0.2277  0.2020
 2717SOL    HW119784   0.521   1.822   4.597 -3.1376  1.4969  1.7118
 2717SOL    HW219785   0.632   1.759   4.670  0.2541  0.3968 -0.0887
 2718SOL     OW19786   4.695   3.462   6.440  0.2284 -0.4307 -0.7810
 2718SOL    HW119787   4.674   3.505   6.523  3.9042 -0.3054  0.0916
 2718SOL    HW219788   4.654   3.376   6.451 -2.2810  0.6690 -1.3943
 2719SOL     OW19789   2.285   3.132   7.661  0.1678  0.2665 -0.1031
 2719SOL    HW119790   2.272   3.219   7.698  0.3182  0.0063  0.5589
 2719SOL    HW219791   2.371   3.112   7.698 -1.2241 -1.2703  2.3322
 2720SOL     OW19792   0.123   0.009  13.746  0.0111 -0.5817 -0.4245
 2720SOL    HW119793   0.155   0.080  13.689 -1.9949  1.6099  1.1925
 2720SOL    HW219794   0.135   0.050  13.832 -0.0037 -0.5638 -0.4310
 2721SOL     OW19795   1.051   2.325   7.909 -0.5571  0.0583  0.0717
 2721SOL    HW119796   1.128   2.356   7.862 -0.7887 -2.3246 -1.8992
 2721SOL    HW219797   1.043   2.238   7.869 -1.3023  0.6971 -1.1328
 2722SOL     OW19798   1.753   2.692   5.863  0.1284  0.6553  0.1407
 2722SOL    HW119799   1.796   2.698   5.948  1.2597 -1.3937 -0.2833
 2722SOL    HW219800   1.821   2.631   5.835 -1.3260 -0.1967 -1.5849
 2723SOL     OW19801   3.240   0.043  13.610  0.4580 -0.0355 -0.1056
 2723SOL    HW119802   3.172   0.079  13.553 -0.0708  0.4658  0.8326
 2723SOL    HW219803   3.234   4.684  13.607 -0.2681  0.0015  0.2238
 2724SOL     OW19804   3.625   3.357  15.757  0.2015  0.2236 -0.1155
 2724SOL    HW119805   3.623   3.328  15.848  3.6518 -0.1435 -0.1374
 2724SOL    HW219806   3.647   3.273  15.716  0.1412 -0.3205  0.9905
 2725SOL     OW19807   4.091   3.186   2.276  0.4691  0.4847  0.2334
 2725SOL    HW119808   4.059   3.208   2.189 -2.0488  0.4020  1.1219
 2725SOL    HW219809   4.039   3.244   2.332 -0.5284 -1.6278  1.5261
 2726SOL     OW19810   4.655   1.066   4.379  0.1156  0.5156  0.0240
 2726SOL    HW119811   4.620   1.149   4.412  0.0170 -0.9786  3.6659
 2726SOL    HW219812   4.600   1.053   4.302  0.1507  1.9018 -0.2491
 2727SOL     OW19813   0.334   1.544   5.360 -0.0409  0.0158 -0.6009
 2727SOL    HW119814   0.317   1.524   5.268  0.6655  0.6807 -0.8797
 2727SOL    HW219815   0.259   1.595   5.389  1.4006  0.3378  2.6029
 2728SOL     OW19816   3.639   0.541  13.133 -0.2922  0.0262  0.0034
 2728SOL    HW119817   3.663   0.452  13.107 -1.3253  0.1690 -1.4168
 2728SOL    HW219818   3.579   0.570  13.065 -0.6242  1.2439  0.8166
 2729SOL     OW19819   3.531   0.656   3.879 -0.3156 -0.6121  0.5445
 2729SOL    HW119820   3.581   0.589   3.926  0.0556 -0.7831 -0.0937
 2729SOL    HW219821   3.559   0.652   3.787  0.9310 -0.4489  0.9215
 2730SOL     OW19822   1.129   0.449   0.326  0.0398 -0.0709 -0.1182
 2730SOL    HW119823   1.141   0.534   0.284  0.0098  0.4372  0.8928
 2730SOL    HW219824   1.157   0.482   0.412 -1.2459 -0.3705  0.4055
 2731SOL     OW19825   2.178   1.985   5.115  0.2625 -0.2483 -0.2685
 2731SOL    HW119826   2.157   1.901   5.157  0.1117 -0.4880 -0.8192
 2731SOL    HW219827   2.094   2.029   5.128 -0.1330 -1.3298  0.8296
 2732SOL     OW19828   0.108   1.416   5.185 -0.2100  0.8980  0.4010
 2732SOL    HW119829   0.126   1.362   5.262 -0.8165  0.6331  0.3576
 2732SOL    HW219830   0.015   1.396   5.172 -0.1579  0.7195  0.3027
 2733SOL     OW19831   0.617   1.537   6.282 -0.3569 -0.4816  0.1726
 2733SOL    HW119832   0.617   1.535   6.378  0.8276 -0.3063  0.1718
 2733SOL    HW219833   0.660   1.454   6.259 -0.5822 -0.8039  0.9164
 2734SOL     OW19834   3.209   2.030   2.217 -0.1625  0.7046 -0.1047
 2734SOL    HW119835   3.167   1.948   2.241 -1.5295  1.4855  0.1985
 2734SOL    HW219836   3.202   2.069   2.304  0.1558 -0.9926  0.6800
 2735SOL     OW19837   3.047   1.687   5.782  0.1625  0.2869 -0.3004
 2735SOL    HW119838   3.137   1.657   5.793  0.1684  0.2311 -0.5010
 2735SOL    HW219839   2.993   1.613   5.812  1.4575 -0.9625 -1.0655
 2736SOL     OW19840   1.420   2.535   3.594 -0.3761  0.3764 -0.0162
 2736SOL    HW119841   1.451   2.479   3.523 -0.2356  0.5142 -0.0627
 2736SOL    HW219842   1.340   2.487   3.614  1.2360 -1.5964  1.7184
 2737SOL     OW19843   0.769   0.100   2.159  0.1081 -0.4634  1.1164
 2737SOL    HW119844   0.753   0.133   2.071 -1.1943 -3.6670  0.1357
 2737SOL    HW219845   0.723   0.169   2.206 -0.5607 -0.2555  0.1490
 2738SOL     OW19846   0.335   3.482   8.376 -0.2393  0.4248  0.5077
 2738SOL    HW119847   0.242   3.482   8.354 -0.3952 -0.8189  1.1543
 2738SOL    HW219848   0.322   3.506   8.468  3.6422  0.7060  0.9978
 2739SOL     OW19849   1.206   0.144   5.785  0.1371 -0.0037  0.6257
 2739SOL    HW119850   1.142   0.204   5.824 -1.7184  0.1929 -2.7891
 2739SOL    HW219851   1.164   0.059   5.790 -0.7254  0.4020  0.1767
 2740SOL     OW19852   2.335   0.887   7.872  0.3807  0.5330  0.3278
 2740SOL    HW119853   2.263   0.937   7.834 -0.0989 -1.0630 -0.8739
 2740SOL    HW219854   2.353   0.933   7.954 -0.0872  2.0025 -0.4007
 2741SOL     OW19855   4.652   0.150   3.331  0.7929 -0.6307 -0.1628
 2741SOL    HW119856   0.008   0.127   3.318  1.3748  1.3854  0.3424
 2741SOL    HW219857   4.628   0.079   3.391  0.0698 -0.2690 -0.0237
 2742SOL     OW19858   1.731   0.122   7.322  0.2831  0.1790 -0.0560
 2742SOL    HW119859   1.704   0.100   7.233  0.3824  2.4202 -0.6558
 2742SOL    HW219860   1.658   0.089   7.375  1.5503  0.1824  1.6730
 2743SOL     OW19861   2.063   3.637   7.551  0.0844  0.2024  0.3409
 2743SOL    HW119862   2.076   3.543   7.564 -1.5837 -0.4590 -2.9057
 2743SOL    HW219863   2.067   3.663   7.643 -1.3988  0.3803  0.3534
 2744SOL     OW19864   2.725   2.312   4.957  0.6009 -0.3245 -0.2265
 2744SOL    HW119865   2.714   2.351   5.044 -3.0386  2.4340 -1.9176
 2744SOL    HW219866   2.693   2.375   4.892  0.7949  0.9836  0.9460
 2745SOL     OW19867   4.254   2.127  11.118  0.7494  0.7311  0.1656
 2745SOL    HW119868   4.217   2.210  11.088  3.3242  1.5891 -0.6166
 2745SOL    HW219869   4.196   2.065  11.073 -0.6274 -0.3040  3.3658
 2746SOL     OW19870   3.332   1.321   0.787  0.3336  0.4170  0.1437
 2746SOL    HW119871   3.280   1.387   0.741  0.3769  0.3160 -0.0491
 2746SOL    HW219872   3.260   1.279   0.834  0.9630 -2.0120 -1.0333
 2747SOL     OW19873   0.922   1.460  12.011 -0.2684  0.3691  0.5261
 2747SOL    HW119874   0.886   1.510  12.084 -1.4966  3.1722 -1.9754
 2747SOL    HW219875   0.976   1.516  11.955 -0.5721 -0.0893 -0.2301
 2748SOL     OW19876   4.301   1.421   5.250  0.6024  0.5385  0.0720
 2748SOL    HW119877   4.276   1.348   5.307 -2.8205  0.1065 -2.0268
 2748SOL    HW219878   4.244   1.410   5.175 -1.0247  0.1994  1.3620
 2749SOL     OW19879   3.663   0.272   6.197 -0.2848  0.2431 -0.1952
 2749SOL    HW119880   3.606   0.335   6.152 -0.3903  0.3360  0.0689
 2749SOL    HW219881   3.623   0.187   6.177 -1.7349  0.9481 -0.2831
 2750SOL     OW19882   4.397   1.339   6.643  0.3499 -0.0057  0.1880
 2750SOL    HW119883   4.366   1.368   6.557 -1.0703 -2.1786 -0.0356
 2750SOL    HW219884   4.427   1.411   6.698  0.1905  0.7452 -0.7152
 2751SOL     OW19885   4.538   0.239   7.083  0.3652 -0.0498 -0.3017
 2751SOL    HW119886   4.618   0.188   7.100  0.0066 -0.3068  0.5729
 2751SOL    HW219887   4.566   0.330   7.076 -2.4779  0.9459  1.6286
 2752SOL     OW19888   3.240   0.304   3.482  0.1927  0.3392  0.6108
 2752SOL    HW119889   3.313   0.364   3.497  1.8842 -2.1340  2.1593
 2752SOL    HW219890   3.271   0.258   3.404  1.5584  0.5699  1.0233
 2753SOL     OW19891   0.825   1.701   3.852 -0.2047 -0.4866 -0.4400
 2753SOL    HW119892   0.732   1.694   3.875  0.1544 -1.2971  0.7885
 2753SOL    HW219893   0.825   1.652   3.770 -0.0527 -1.7023  0.2897
 2754SOL     OW19894   2.407   4.304  13.465 -0.3446 -0.4716 -0.5876
 2754SOL    HW119895   2.354   4.367  13.416  0.4713  1.2896  0.8223
 2754SOL    HW219896   2.382   4.319  13.556  2.1220  0.1814 -0.0109
 2755SOL     OW19897   4.099   2.955   4.163 -0.1824  0.0974  0.5326
 2755SOL    HW119898   4.173   2.919   4.213  0.8727  0.6136 -0.6432
 2755SOL    HW219899   4.027   2.901   4.194 -0.2947  0.1641  0.3829
 2756SOL     OW19900   0.187   1.836  13.875  0.1861 -0.1171  0.0356
 2756SOL    HW119901   0.243   1.761  13.891  1.9138  1.5815  2.0720
 2756SOL    HW219902   0.221   1.898  13.940  0.1929 -1.5283  1.3860
 2757SOL     OW19903   0.706   0.231   9.536  0.1654  0.0010  0.3146
 2757SOL    HW119904   0.618   0.263   9.554  0.1179  0.7564 -1.3161
 2757SOL    HW219905   0.711   0.236   9.441 -1.9831  3.1782  0.3785
 2758SOL     OW19906   2.012   0.736  12.747  0.2106 -0.4400 -0.1467
 2758SOL    HW119907   2.027   0.718  12.654  0.5361 -1.9494  0.1850
 2758SOL    HW219908   1.988   0.828  12.747 -1.4036 -0.8547 -2.3207
 2759SOL     OW19909   3.874   0.715   6.881  0.7313 -0.3150  0.0796
 2759SOL    HW119910   3.910   0.626   6.871  0.3088 -0.3918 -0.7928
 2759SOL    HW219911   3.928   0.763   6.944  2.8782 -1.6757 -0.7113
 2760SOL     OW19912   2.881   3.347   3.831  0.4548  0.1173  0.3410
 2760SOL    HW119913   2.881   3.349   3.735 -0.5939 -1.4524  0.3249
 2760SOL    HW219914   2.789   3.339   3.854  0.2576  1.2152 -0.0450
 2761SOL     OW19915   0.607   2.048   7.305  0.1902  0.3365 -0.2955
 2761SOL    HW119916   0.548   1.983   7.343  1.7901 -1.4047 -0.7878
 2761SOL    HW219917   0.572   2.133   7.333 -0.5418 -0.2368  0.5159
 2762SOL     OW19918   1.987   2.773   2.189 -0.0591  0.2367 -0.1644
 2762SOL    HW119919   1.999   2.741   2.279  1.0915 -1.1548 -0.8074
 2762SOL    HW219920   2.013   2.698   2.136 -2.2655 -1.5635  1.3089
 2763SOL     OW19921   3.278   0.790   3.656 -0.2169  0.0655 -0.1224
 2763SOL    HW119922   3.282   0.767   3.749 -0.4720  0.3331 -0.0467
 2763SOL    HW219923   3.292   0.884   3.669  0.9072  0.1027 -1.5443
 2764SOL     OW19924   0.962   3.573   4.739 -0.3592 -0.1048 -0.2043
 2764SOL    HW119925   0.975   3.504   4.803 -1.2799 -0.8778 -0.8448
 2764SOL    HW219926   0.922   3.530   4.663  0.3992  0.7454 -1.0964
 2765SOL     OW19927   3.674   0.812   9.566 -0.9452 -0.4217  0.5900
 2765SOL    HW119928   3.665   0.761   9.486 -1.0320 -0.4128  0.5937
 2765SOL    HW219929   3.590   0.859   9.563 -0.8799 -0.2291  1.7208
 2766SOL     OW19930   3.742   3.195   7.641  0.0763 -0.1322 -0.6012
 2766SOL    HW119931   3.834   3.203   7.666 -0.1266  0.2977  0.0106
 2766SOL    HW219932   3.704   3.283   7.643  1.1187  0.2927 -0.0758
 2767SOL     OW19933   1.433   2.982   0.377  0.4771  0.3819 -0.2298
 2767SOL    HW119934   1.388   2.904   0.345  0.9933 -0.4180  1.0370
 2767SOL    HW219935   1.479   2.954   0.456  0.7340 -1.4163 -1.0140
 2768SOL     OW19936   2.461   3.681   9.098  0.6230  0.2555  0.4081
 2768SOL    HW119937   2.554   3.658   9.102  1.0603  2.3509  2.5471
 2768SOL    HW219938   2.444   3.691   9.191 -1.1262  0.1338  0.0925
 2769SOL     OW19939   2.945   2.926   7.015  0.1344  0.1704  0.4037
 2769SOL    HW119940   2.984   2.843   6.987 -1.6475  0.0930 -1.8212
 2769SOL    HW219941   2.931   2.978   6.936  1.4965  1.1003  0.7714
 2770SOL     OW19942   4.238   4.304   6.645  0.5054 -0.3094 -0.5906
 2770SOL    HW119943   4.228   4.367   6.574 -0.3648  0.0141 -0.1793
 2770SOL    HW219944   4.239   4.363   6.721 -1.7831 -0.4176 -0.4865
 2771SOL     OW19945   3.001   0.247   2.933  0.2279 -0.4911  0.5574
 2771SOL    HW119946   3.022   0.330   2.975  0.3679 -0.6830  0.8692
 2771SOL    HW219947   2.920   0.228   2.981 -1.8766  2.9380 -1.6885
 2772SOL     OW19948   2.835   2.822  12.457 -0.4332 -0.2410  0.0046
 2772SOL    HW119949   2.890   2.870  12.396 -0.9082 -0.2219 -0.4126
 2772SOL    HW219950   2.846   2.735  12.417  0.8365  0.2248 -0.6478
 2773SOL     OW19951   2.290   2.230  11.373 -0.2611  1.0793 -0.5629
 2773SOL    HW119952   2.367   2.286  11.376  1.2078 -0.8793 -1.8319
 2773SOL    HW219953   2.331   2.159  11.422  0.3519 -0.4767 -3.3362
 2774SOL     OW19954   1.000   3.852   1.536 -0.2472 -0.1844 -0.1755
 2774SOL    HW119955   0.964   3.806   1.460  2.6182 -1.6173 -0.6674
 2774SOL    HW219956   0.962   3.940   1.536 -1.9424 -0.9147 -0.3352
 2775SOL     OW19957   0.083   2.419   8.481 -0.4366 -0.3513  0.9420
 2775SOL    HW119958   0.021   2.482   8.519  0.3733  1.5027 -0.8445
 2775SOL    HW219959   0.163   2.469   8.468 -2.3062  1.6268 -2.9467
 2776SOL     OW19960   3.406   4.591   7.415 -0.4678 -0.2296 -0.3279
 2776SOL    HW119961   3.469   4.601   7.343  0.3699  0.4703  0.5027
 2776SOL    HW219962   3.327   4.618   7.367  0.0912  0.8427 -0.6529
 2777SOL     OW19963   4.443   4.064  10.513 -0.0680 -0.1604 -0.0922
 2777SOL    HW119964   4.377   4.072  10.582 -0.7255  0.2078 -0.7597
 2777SOL    HW219965   4.514   4.014  10.553  0.9115  0.4067 -1.1192
 2778SOL     OW19966   1.263   1.213   9.146  0.2995 -0.0062  0.3444
 2778SOL    HW119967   1.180   1.188   9.185  0.7710 -0.6064  0.9565
 2778SOL    HW219968   1.241   1.255   9.062  0.8463 -0.2006  0.1055
 2779SOL     OW19969   2.924   2.352   5.226 -0.5202  0.5056 -0.5269
 2779SOL    HW119970   2.886   2.411   5.291 -0.6530  0.3800 -0.4910
 2779SOL    HW219971   2.848   2.295   5.228 -2.3432  3.0315  2.4999
 2780SOL     OW19972   0.069   2.500   3.419 -0.3852  0.2989 -0.5300
 2780SOL    HW119973   0.042   2.592   3.417 -0.9058  0.0820 -2.9058
 2780SOL    HW219974   4.720   2.460   3.436 -1.0479  0.7074 -2.8336
 2781SOL     OW19975   2.934   4.728  16.246  0.3902 -0.1310 -0.3728
 2781SOL    HW119976   2.840   4.711  16.254  0.9653 -1.8367  2.7678
 2781SOL    HW219977   2.969   4.642  16.226  2.0197  0.4910 -0.2125
 2782SOL     OW19978   2.917   1.353   3.095  0.1338 -0.6170 -0.5867
 2782SOL    HW119979   2.927   1.258   3.095 -1.7677 -0.8081  1.3437
 2782SOL    HW219980   2.842   1.370   3.152  0.0920 -1.4423 -0.3966
 2783SOL     OW19981   4.299   1.939   5.579  0.1425  0.0092  0.1169
 2783SOL    HW119982   4.324   1.899   5.662  3.9417 -2.3037 -2.1397
 2783SOL    HW219983   4.349   2.021   5.583  0.5673 -0.1534 -1.6174
 2784SOL     OW19984   2.546   3.875   4.924  0.2460 -0.3950  0.3323
 2784SOL    HW119985   2.464   3.845   4.963  0.6797  0.5003  1.9065
 2784SOL    HW219986   2.614   3.849   4.985  1.0073  0.8963  0.0381
 2785SOL     OW19987   2.461   0.228   6.103 -0.2332 -0.3891 -0.1036
 2785SOL    HW119988   2.410   0.297   6.060 -2.2221 -0.7603  1.6302
 2785SOL    HW219989   2.458   0.157   6.039 -0.0484 -0.5212  0.0328
 2786SOL     OW19990   3.630   1.602   7.111  0.2542  0.0465  0.0755
 2786SOL    HW119991   3.534   1.608   7.113  0.1980 -1.0287  0.8335
 2786SOL    HW219992   3.655   1.636   7.197 -0.8698  1.4703 -0.1608
 2787SOL     OW19993   0.916   0.002   3.344 -0.5684  0.3474 -0.6717
 2787SOL    HW119994   0.915   0.096   3.325  2.3636  0.4782 -0.1468
 2787SOL    HW219995   0.825   4.717   3.323 -0.9090  0.0996  1.0830
 2788SOL     OW19996   3.100   3.246   7.364 -0.2985  0.5345  1.3056
 2788SOL    HW119997   3.079   3.230   7.457  2.5894 -1.8264  1.5360
 2788SOL    HW219998   3.053   3.172   7.326  1.0129  0.5535 -0.3231
 2789SOL     OW19999   1.787   0.928  17.380  0.1533  0.3379 -0.4728
 2789SOL    HW120000   1.720   0.925  17.448  0.4580  0.7547 -0.1554
 2789SOL    HW220001   1.862   0.902  17.433 -0.6392  2.6515  1.7882
 2790SOL     OW20002   1.326   0.175   6.275 -0.5375 -0.4303  0.0607
 2790SOL    HW120003   1.304   0.089   6.311  3.4544 -0.4836  2.3218
 2790SOL    HW220004   1.257   0.228   6.314 -0.7473  1.1893 -2.6006
 2791SOL     OW20005   3.338   1.192  10.897  0.2348 -0.0544 -0.2414
 2791SOL    HW120006   3.282   1.129  10.942  3.0569 -2.9819 -0.8898
 2791SOL    HW220007   3.392   1.233  10.964  1.0578 -0.0427 -0.9173
 2792SOL     OW20008   3.788   2.857   6.774  0.0262  0.1322 -0.2994
 2792SOL    HW120009   3.878   2.884   6.795  0.7877 -2.5207 -0.2027
 2792SOL    HW220010   3.794   2.763   6.793 -0.5476  0.3019  0.7224
 2793SOL     OW20011   2.982   1.452   2.629  0.1483  0.0893  0.1130
 2793SOL    HW120012   2.989   1.370   2.677  2.0388 -1.6671 -3.1418
 2793SOL    HW220013   3.004   1.417   2.542  0.8682  0.6542  0.0676
 2794SOL     OW20014   2.341   2.757   4.512  0.1059  0.2057  0.2049
 2794SOL    HW120015   2.252   2.722   4.516  0.1959  0.0093  0.4560
 2794SOL    HW220016   2.363   2.718   4.427  0.6814  0.2628  0.3279
 2795SOL     OW20017   2.035   3.574   4.254  0.6172  0.2368 -0.4271
 2795SOL    HW120018   2.012   3.488   4.289 -0.0626  1.0233  1.0796
 2795SOL    HW220019   2.080   3.561   4.170  1.7546 -0.4931  0.2909
 2796SOL     OW20020   0.963   3.308  12.087 -0.3821 -0.7766  0.1012
 2796SOL    HW120021   0.885   3.281  12.038  0.2892 -0.1005 -1.3313
 2796SOL    HW220022   0.965   3.403  12.093 -3.6077 -0.6917 -0.2233
 2797SOL     OW20023   4.120   2.100   4.924 -0.0613 -0.5675 -0.1796
 2797SOL    HW120024   4.160   2.062   5.003 -0.3991  0.3355  0.4169
 2797SOL    HW220025   4.035   2.129   4.955  0.5025 -1.3752  2.0924
 2798SOL     OW20026   2.606   4.106   3.587 -0.1116 -0.1329  0.7674
 2798SOL    HW120027   2.609   4.174   3.520  0.0498  0.8891  1.8128
 2798SOL    HW220028   2.513   4.085   3.580 -0.2448  0.4889  0.6939
 2799SOL     OW20029   2.011   1.394   6.384 -0.2397 -0.4073  0.2227
 2799SOL    HW120030   2.086   1.349   6.343  2.0951  3.0407  0.7198
 2799SOL    HW220031   2.009   1.472   6.330 -3.1725  0.5934  1.7731
 2800SOL     OW20032   0.804   2.949  16.053 -0.4020  0.2447  0.2292
 2800SOL    HW120033   0.828   3.029  16.100 -0.9238  0.2717  0.4398
 2800SOL    HW220034   0.784   2.901  16.133 -0.1764 -1.6856 -0.8766
 2801SOL     OW20035   1.331   4.155  13.373 -0.3655 -0.0663 -0.1622
 2801SOL    HW120036   1.313   4.134  13.281 -0.1172  3.0655 -0.9289
 2801SOL    HW220037   1.267   4.096  13.413 -0.5052 -0.7888 -1.4324
 2802SOL     OW20038   4.572   1.445   7.321 -0.7410  0.1436  0.2210
 2802SOL    HW120039   4.648   1.497   7.295 -0.5458 -1.0209 -1.4919
 2802SOL    HW220040   4.509   1.514   7.343  1.2220  1.5020  1.5782
 2803SOL     OW20041   1.123   1.238   3.331  0.0436 -0.2031  0.5204
 2803SOL    HW120042   1.104   1.145   3.344 -1.7103 -0.0509 -0.9401
 2803SOL    HW220043   1.188   1.251   3.400 -0.7852  0.3389  1.2030
 2804SOL     OW20044   0.667   1.943   2.944  0.5176 -0.2950  0.1229
 2804SOL    HW120045   0.698   1.959   3.034  0.6025 -0.6888  0.1627
 2804SOL    HW220046   0.752   1.922   2.907  0.1823 -1.8860  0.2618
 2805SOL     OW20047   1.541   2.419  17.090 -0.1902 -0.1046 -0.0857
 2805SOL    HW120048   1.487   2.358  17.141  1.8197 -1.9018 -0.1500
 2805SOL    HW220049   1.463   2.451  17.043  1.2547  2.6118 -0.6193
 2806SOL     OW20050   2.879   4.440   0.521  1.0699  0.1945 -0.7345
 2806SOL    HW120051   2.957   4.392   0.493  0.5883 -0.3848 -1.0913
 2806SOL    HW220052   2.902   4.530   0.497 -0.0652  1.1677  1.9531
 2807SOL     OW20053   3.766   0.085  10.895  0.1984  0.0918  0.4608
 2807SOL    HW120054   3.824   0.159  10.874  0.2184  0.7550  2.8794
 2807SOL    HW220055   3.834   0.017  10.899  0.5471  0.3606 -0.6424
 2808SOL     OW20056   3.027   1.478   8.205 -0.1640  0.8061  0.0559
 2808SOL    HW120057   2.976   1.544   8.252 -4.0245 -0.7230 -1.9325
 2808SOL    HW220058   2.956   1.438   8.154 -1.1586  1.5697  0.8405
 2809SOL     OW20059   4.112   1.301   3.032 -0.1738 -0.3956  0.7533
 2809SOL    HW120060   4.125   1.384   3.078  1.9252 -1.0953  1.4274
 2809SOL    HW220061   4.198   1.263   3.047  0.0856 -0.8873 -2.0759
 2810SOL     OW20062   2.003   4.017  16.032 -0.0791 -0.0576  0.1905
 2810SOL    HW120063   2.077   3.958  16.018 -0.4206 -0.6841  1.0027
 2810SOL    HW220064   2.023   4.074  16.106 -0.0669  0.9988 -0.6321
 2811SOL     OW20065   4.054   2.833   3.201  0.2463 -0.3489  0.4170
 2811SOL    HW120066   4.106   2.798   3.130  1.5694  2.5618 -0.0471
 2811SOL    HW220067   4.081   2.774   3.271  1.1594 -3.0102 -2.1914
 2812SOL     OW20068   3.391   3.694   8.955 -0.4299 -0.1084 -0.0513
 2812SOL    HW120069   3.485   3.715   8.958 -0.4100 -0.4672  2.4400
 2812SOL    HW220070   3.381   3.604   8.987 -2.1492  0.4535  0.9727
 2813SOL     OW20071   3.567   4.731   2.268 -0.6220  0.6600 -0.0887
 2813SOL    HW120072   3.550   4.643   2.234  0.2453  0.2214  0.5995
 2813SOL    HW220073   3.520   0.041   2.198  0.3483 -0.9567 -1.8291
 2814SOL     OW20074   1.698   1.947   9.839 -0.3961  0.0510  1.0230
 2814SOL    HW120075   1.708   1.943   9.934  0.3320  2.1039  1.0286
 2814SOL    HW220076   1.710   1.856   9.811 -1.1158  0.3362 -0.2239
 2815SOL     OW20077   0.920   0.564   9.593 -0.0914  0.1586 -0.4638
 2815SOL    HW120078   0.959   0.480   9.569 -1.1126 -0.5004  0.1726
 2815SOL    HW220079   0.939   0.568   9.687  2.1037  0.0530 -0.9209
 2816SOL     OW20080   4.051   0.664   5.506 -0.2112  0.3740 -0.7307
 2816SOL    HW120081   4.083   0.632   5.421 -1.4000 -1.8202 -0.3501
 2816SOL    HW220082   4.048   0.579   5.550  2.2661  0.6760  0.0004
 2817SOL     OW20083   2.869   1.907  11.252 -0.0719  0.0158 -0.1678
 2817SOL    HW120084   2.858   1.865  11.167  3.6119  0.0279 -0.6450
 2817SOL    HW220085   2.964   1.895  11.261 -0.0096  0.8499  0.2815
 2818SOL     OW20086   1.051   0.683   3.251  0.0117 -0.7791  0.3255
 2818SOL    HW120087   0.994   0.673   3.174  0.5860  1.6429 -0.4408
 2818SOL    HW220088   1.125   0.623   3.243  0.3498 -0.1447 -1.3728
 2819SOL     OW20089   3.868   4.639  14.699  0.9106 -0.3905 -0.6023
 2819SOL    HW120090   3.905   4.720  14.736  0.8790 -0.2173 -0.9420
 2819SOL    HW220091   3.827   4.604  14.778  0.6418  2.5548  0.5840
 2820SOL     OW20092   3.032   1.162  10.029  0.1122  0.4252 -0.1883
 2820SOL    HW120093   3.062   1.108  10.102 -0.0468 -0.0114 -0.4455
 2820SOL    HW220094   2.958   1.107  10.002  0.9901 -1.5210  1.3583
 2821SOL     OW20095   3.347   1.411   4.845  0.6612  0.4723  0.2405
 2821SOL    HW120096   3.437   1.389   4.871  0.7267  0.6798  0.1903
 2821SOL    HW220097   3.354   1.436   4.753 -1.6780 -1.6249 -0.4998
 2822SOL     OW20098   3.088   2.836   6.782  0.0202 -0.3050 -0.4960
 2822SOL    HW120099   3.055   2.925   6.772  0.5547  0.2873  3.0773
 2822SOL    HW220100   3.145   2.829   6.706  1.2637 -1.8339  0.5712
 2823SOL     OW20101   3.121   2.871   5.176 -0.1307  0.2143 -0.8102
 2823SOL    HW120102   3.203   2.829   5.201  1.7656  1.1992 -5.2834
 2823SOL    HW220103   3.074   2.791   5.149 -0.6173  0.1066  0.3710
 2824SOL     OW20104   0.951   0.479  11.986  0.6145 -0.2627 -0.3345
 2824SOL    HW120105   1.040   0.486  11.954  0.5972 -1.8856 -0.7703
 2824SOL    HW220106   0.910   0.421  11.921  2.3946 -1.0768 -0.7194
 2825SOL     OW20107   2.455   1.462   5.843  0.0057 -0.0215  0.4738
 2825SOL    HW120108   2.494   1.536   5.797  0.9198  0.8896  2.6715
 2825SOL    HW220109   2.444   1.503   5.929  1.5905  1.2453  0.0851
 2826SOL     OW20110   1.331   4.636   3.138 -0.0193 -0.0580  0.0672
 2826SOL    HW120111   1.401   4.638   3.204 -0.0154 -0.9558  0.0860
 2826SOL    HW220112   1.250   4.629   3.189 -0.8553 -1.2380 -1.4460
 2827SOL     OW20113   1.484   3.687   5.626 -0.5648 -0.9344 -0.0791
 2827SOL    HW120114   1.558   3.734   5.663 -1.9929  0.5822  0.8667
 2827SOL    HW220115   1.433   3.764   5.597  0.7888 -0.3414 -0.8923
 2828SOL     OW20116   1.561   4.306  13.349  0.2410  0.0981  0.6015
 2828SOL    HW120117   1.478   4.265  13.374  0.4886 -1.1612 -0.5650
 2828SOL    HW220118   1.550   4.378  13.410  2.4746  0.3772  0.6694
 2829SOL     OW20119   1.251   2.693   4.094 -0.4618 -0.4776  0.1682
 2829SOL    HW120120   1.175   2.654   4.050  0.1499  1.6484 -2.7908
 2829SOL    HW220121   1.285   2.751   4.025  1.9592 -1.3920  0.5895
 2830SOL     OW20122   0.995   3.766   8.783  0.1307  0.2483 -0.7849
 2830SOL    HW120123   1.046   3.688   8.759  2.5830  1.9265 -0.9757
 2830SOL    HW220124   0.907   3.739   8.807  0.3816  0.5197  0.4113
 2831SOL     OW20125   3.702   1.945   3.836 -0.0183 -1.1393  0.1316
 2831SOL    HW120126   3.617   1.934   3.792 -0.4070 -0.1535  0.6573
 2831SOL    HW220127   3.690   2.021   3.891  1.4612 -0.8687  0.0737
 2832SOL     OW20128   0.196   3.645   6.600 -0.4907 -0.1233  0.2963
 2832SOL    HW120129   0.189   3.688   6.515 -0.2984  2.9575  1.8350
 2832SOL    HW220130   0.103   3.627   6.614 -0.9196  0.2573 -2.0024
 2833SOL     OW20131   4.213   2.504  16.858  0.4301 -0.5591  0.3849
 2833SOL    HW120132   4.299   2.519  16.818  0.1605 -0.1609 -0.0421
 2833SOL    HW220133   4.151   2.480  16.790 -0.0265  1.5902  0.0442
 2834SOL     OW20134   1.630   3.227  11.364  0.4767  0.2042 -0.0166
 2834SOL    HW120135   1.629   3.138  11.328 -2.3938 -0.2952  1.3072
 2834SOL    HW220136   1.563   3.279  11.319 -0.3158 -1.3922 -0.7178
 2835SOL     OW20137   4.452   3.158  11.422 -0.3485 -0.5920  0.0084
 2835SOL    HW120138   4.515   3.193  11.486 -0.4287  2.0426 -1.3324
 2835SOL    HW220139   4.489   3.070  11.416  0.7120 -0.1998  0.7138
 2836SOL     OW20140   0.948   2.290   0.085  0.0015  0.0257 -0.5170
 2836SOL    HW120141   0.929   2.225   0.017  3.4015 -0.9791 -0.4899
 2836SOL    HW220142   1.016   2.335   0.035 -0.2935 -0.8674 -1.7352
 2837SOL     OW20143   4.204   2.261   1.373 -0.7329 -0.6919 -0.3459
 2837SOL    HW120144   4.153   2.183   1.394 -1.6282 -0.3876 -1.3765
 2837SOL    HW220145   4.149   2.333   1.405  0.5787  0.3593 -0.5017
 2838SOL     OW20146   2.090   0.568  12.518 -0.0714 -0.0009 -0.6454
 2838SOL    HW120147   2.087   0.580  12.423 -1.3771 -1.1339 -0.7559
 2838SOL    HW220148   2.100   0.473  12.528  2.0862  0.3195  0.2818
 2839SOL     OW20149   4.353   1.571   1.671 -0.2333 -0.5073  0.5061
 2839SOL    HW120150   4.287   1.604   1.732  2.4798  0.3026  3.0170
 2839SOL    HW220151   4.314   1.486   1.649 -3.1465  0.3880  2.1659
 2840SOL     OW20152   0.927   3.538  17.036  0.3282 -0.0475  0.2133
 2840SOL    HW120153   0.856   3.530  17.099 -0.5059  1.3138 -0.5582
 2840SOL    HW220154   0.919   3.458  16.984 -1.5027  0.0908  0.2993
 2841SOL     OW20155   1.165   2.018  15.129  0.2178  0.2973  0.1902
 2841SOL    HW120156   1.224   1.951  15.094 -0.2581 -0.8079  1.4955
 2841SOL    HW220157   1.151   1.985  15.218  0.4058 -2.7857 -0.9089
 2842SOL     OW20158   2.918   4.089   1.021  0.0615 -0.3637  0.1138
 2842SOL    HW120159   2.859   4.045   1.082  2.1526 -0.0778  2.3557
 2842SOL    HW220160   2.971   4.140   1.083 -1.6711  0.7359  0.6909
 2843SOL     OW20161   0.479   2.243   5.383 -0.2772  0.4038 -0.0454
 2843SOL    HW120162   0.421   2.273   5.313  0.7202 -2.4688 -2.0984
 2843SOL    HW220163   0.459   2.151   5.401  0.6336  0.6384  2.1379
 2844SOL     OW20164   3.487   4.062   6.619  0.4868 -0.4284  0.1724
 2844SOL    HW120165   3.581   4.058   6.637  0.1030 -1.2633  1.9377
 2844SOL    HW220166   3.482   4.088   6.526  1.1505  2.7355  1.0056
 2845SOL     OW20167   1.318   1.371   8.410 -0.0750 -0.4201  0.2813
 2845SOL    HW120168   1.260   1.415   8.347  0.2080 -2.6492 -1.5423
 2845SOL    HW220169   1.388   1.434   8.390  0.1602 -0.3381  1.3689
 2846SOL     OW20170   3.232   0.302   5.152  0.1360 -0.2904 -0.5789
 2846SOL    HW120171   3.302   0.250   5.191  0.0250  1.0601  1.4391
 2846SOL    HW220172   3.179   0.232   5.115  0.2772  1.2994 -3.8085
 2847SOL     OW20173   2.276   2.792   3.456  0.2440  0.2017 -0.3009
 2847SOL    HW120174   2.345   2.822   3.515 -1.1908 -2.1308  2.5925
 2847SOL    HW220175   2.240   2.872   3.418 -0.6713 -0.5399 -0.9855
 2848SOL     OW20176   1.940   3.851   6.105  0.2568  0.1649 -0.3603
 2848SOL    HW120177   1.900   3.865   6.191  1.4249  1.1176  0.0272
 2848SOL    HW220178   1.900   3.922   6.054 -2.9923 -0.8461  0.8103
 2849SOL     OW20179   2.836   1.932   2.254  0.0084 -0.5056 -0.3604
 2849SOL    HW120180   2.913   1.876   2.260  0.9285  0.8858  0.6049
 2849SOL    HW220181   2.835   1.965   2.343 -0.0247 -0.4715 -0.3737
 2850SOL     OW20182   3.029   4.550   5.145 -0.4590 -0.4901 -0.2413
 2850SOL    HW120183   2.934   4.548   5.130 -0.4143  2.1386 -1.0180
 2850SOL    HW220184   3.059   4.460   5.138 -2.3197 -1.0756 -0.8423
 2851SOL     OW20185   4.050   1.216   7.694  0.7664  0.1373  0.6994
 2851SOL    HW120186   4.035   1.286   7.630  0.4242 -0.8298 -0.2795
 2851SOL    HW220187   4.134   1.230   7.737 -0.4236 -0.5569  3.2408
 2852SOL     OW20188   4.003   0.097   3.709  0.0151 -0.2567  0.1171
 2852SOL    HW120189   3.925   0.090   3.764  0.6655 -1.4688  0.8795
 2852SOL    HW220190   3.968   0.071   3.623 -0.3513 -1.3863  0.6092
 2853SOL     OW20191   2.284   3.855  16.989 -0.1599  0.2085  0.4098
 2853SOL    HW120192   2.263   3.943  17.019 -0.8569 -0.5343  2.0579
 2853SOL    HW220193   2.315   3.816  17.071 -0.7420  2.2153  1.5849
 2854SOL     OW20194   3.548   4.692  12.805 -0.7671  0.5222  0.1029
 2854SOL    HW120195   3.642   4.677  12.798 -0.7610 -0.1463  1.5933
 2854SOL    HW220196   3.529   4.674  12.897  1.5274 -2.3621 -0.0081
 2855SOL     OW20197   3.621   2.209   3.852 -0.1639 -0.6692  0.0436
 2855SOL    HW120198   3.599   2.275   3.786  2.1609  1.0930  1.0179
 2855SOL    HW220199   3.539   2.215   3.900 -0.0152 -0.0828  0.2337
 2856SOL     OW20200   1.295   1.936  17.243  0.2739  0.0714  0.3923
 2856SOL    HW120201   1.210   1.950  17.200 -0.6220 -2.1442  1.4476
 2856SOL    HW220202   1.274   1.857  17.291 -0.1779 -1.2171 -1.8934
 2857SOL     OW20203   0.851   1.056  11.971 -0.8301  0.2957  0.4010
 2857SOL    HW120204   0.889   0.968  11.972 -1.4189  0.0403  0.3175
 2857SOL    HW220205   0.859   1.085  11.880 -1.2449 -1.5932 -0.2386
 2858SOL     OW20206   2.501   4.249   6.270  0.5650  0.0655  0.4610
 2858SOL    HW120207   2.476   4.337   6.298 -1.3645 -0.6690  1.1036
 2858SOL    HW220208   2.467   4.257   6.181 -1.2943  2.9350  1.4401
 2859SOL     OW20209   1.521   2.534   0.209  0.5036  0.0474  0.5637
 2859SOL    HW120210   1.497   2.589   0.135  1.3162 -0.9401 -0.4221
 2859SOL    HW220211   1.447   2.473   0.204 -0.0188  0.5567  2.0154
 2860SOL     OW20212   2.199   2.968   2.229  0.6834 -0.3973 -0.3313
 2860SOL    HW120213   2.137   2.934   2.165  0.5778  0.3095 -0.5998
 2860SOL    HW220214   2.214   3.061   2.212 -0.0117 -0.3134 -0.4864
 2861SOL     OW20215   0.294   2.465   1.787 -0.2531 -0.6170 -0.5383
 2861SOL    HW120216   0.233   2.415   1.841  0.0545  1.3112  1.5948
 2861SOL    HW220217   0.263   2.554   1.769 -2.6003 -0.6410  3.3764
 2862SOL     OW20218   0.739   3.488   7.409  0.4787 -0.3443  1.0706
 2862SOL    HW120219   0.720   3.502   7.502 -2.8970  0.0235  0.3055
 2862SOL    HW220220   0.730   3.572   7.365  0.0719 -1.6781 -1.3899
 2863SOL     OW20221   1.517   3.629   7.722  0.0684 -0.0133  0.1300
 2863SOL    HW120222   1.531   3.644   7.815  1.3494  1.1228 -0.2364
 2863SOL    HW220223   1.503   3.717   7.686 -0.3112 -0.6627 -1.2988
 2864SOL     OW20224   2.822   1.015   6.003  0.3952 -0.1388  0.5806
 2864SOL    HW120225   2.804   1.074   5.929 -0.1438  0.6416  1.3322
 2864SOL    HW220226   2.835   0.930   5.961  1.8207 -0.4041  1.5855
 2865SOL     OW20227   0.661   4.172   8.736  0.0528 -0.2455 -0.6379
 2865SOL    HW120228   0.680   4.101   8.798  1.2424  0.9843  0.3753
 2865SOL    HW220229   0.579   4.146   8.694  1.2503  0.6049 -3.4283
 2866SOL     OW20230   4.613   3.872   5.591  0.1972 -0.3918  0.6055
 2866SOL    HW120231   4.617   3.960   5.553 -0.5757 -0.1993  0.9609
 2866SOL    HW220232   4.696   3.833   5.565  0.5606  0.7261  0.1153
 2867SOL     OW20233   2.817   3.699  10.792  0.9624  0.1834 -0.4071
 2867SOL    HW120234   2.845   3.621  10.841 -1.1930 -0.1503  0.2986
 2867SOL    HW220235   2.884   3.768  10.795 -0.5215  1.5340  1.5717
 2868SOL     OW20236   0.463   0.072   5.145 -0.3829  0.1971  0.0408
 2868SOL    HW120237   0.518   0.098   5.071  0.1384 -0.3933  0.2208
 2868SOL    HW220238   0.455   0.159   5.184 -0.7362  0.5934 -0.9101
 2869SOL     OW20239   0.183   1.513  11.831 -0.0102 -0.0416 -0.7361
 2869SOL    HW120240   0.259   1.462  11.859 -0.6711  0.4488  1.8910
 2869SOL    HW220241   0.131   1.502  11.910  0.7814  0.0809 -0.1970
 2870SOL     OW20242   3.846   1.512   7.780  0.4106 -0.0615  0.5479
 2870SOL    HW120243   3.933   1.507   7.821  1.7646  1.1729 -2.2216
 2870SOL    HW220244   3.817   1.595   7.818  0.5233  0.7523 -1.1915
 2871SOL     OW20245   1.406   1.860   3.867 -0.1746  0.2130  0.5049
 2871SOL    HW120246   1.494   1.875   3.900  0.5803 -1.2717 -0.7868
 2871SOL    HW220247   1.354   1.904   3.934 -0.4334 -0.3323  0.6610
 2872SOL     OW20248   4.044   3.714   7.223 -0.0178  0.3063  0.0517
 2872SOL    HW120249   3.970   3.682   7.171 -0.2317  1.4127 -0.3284
 2872SOL    HW220250   4.121   3.711   7.166  0.5341 -1.7572  0.9057
 2873SOL     OW20251   3.437   4.446  17.007 -0.1574 -0.3412  0.5498
 2873SOL    HW120252   3.356   4.446  17.059 -0.0376  0.0454  0.7317
 2873SOL    HW220253   3.463   4.535  17.028 -1.3718  0.3658 -1.0027
 2874SOL     OW20254   1.963   0.634   8.922 -0.2211 -0.3041  0.6951
 2874SOL    HW120255   1.962   0.730   8.922  2.6376 -0.2838  0.0227
 2874SOL    HW220256   2.053   0.622   8.894 -0.7359 -0.9516 -0.6718
 2875SOL     OW20257   3.682   3.951   6.963  0.5049  0.0135 -0.4136
 2875SOL    HW120258   3.656   3.958   7.055 -0.1645  1.6230 -0.7286
 2875SOL    HW220259   3.625   4.018   6.925 -0.7366 -0.9398 -0.2227
 2876SOL     OW20260   3.010   3.481   7.248 -0.4295  1.0101 -0.7337
 2876SOL    HW120261   2.963   3.432   7.180 -0.8325  0.1255  0.1901
 2876SOL    HW220262   3.046   3.413   7.304 -0.6735  1.0912 -0.4749
 2877SOL     OW20263   3.400   2.940   6.843  0.2979 -0.0536 -0.0319
 2877SOL    HW120264   3.380   2.927   6.936 -1.6740  2.7382 -0.0686
 2877SOL    HW220265   3.349   2.869   6.803 -0.3563  0.5924 -0.3459
 2878SOL     OW20266   0.464   0.222  12.150 -0.6942 -0.1259 -0.5577
 2878SOL    HW120267   0.476   0.292  12.086  1.9691  0.1618  0.2494
 2878SOL    HW220268   0.407   0.269  12.210  1.3841  0.1649  1.1724
 2879SOL     OW20269   4.680   0.127   0.821 -0.7023  0.1973  0.5997
 2879SOL    HW120270   4.701   0.135   0.728  0.0764 -2.9967  0.4990
 2879SOL    HW220271   4.719   0.205   0.860 -0.9976  1.3248 -1.3216
 2880SOL     OW20272   2.735   3.958   1.164 -0.3422  0.2733 -0.4867
 2880SOL    HW120273   2.660   3.900   1.179 -1.2000  1.1105 -1.4772
 2880SOL    HW220274   2.701   4.035   1.212  0.1859  0.7442 -0.8752
 2881SOL     OW20275   3.843   1.540   3.021 -0.1318  0.2184 -0.5926
 2881SOL    HW120276   3.936   1.548   3.038 -0.2871 -1.5238  1.1413
 2881SOL    HW220277   3.823   1.633   3.030 -0.1884  0.0895  0.6187
 2882SOL     OW20278   3.082   1.778   7.022 -0.2107  0.0195 -0.3314
 2882SOL    HW120279   3.151   1.844   7.022  1.3605 -1.6260  0.7792
 2882SOL    HW220280   3.079   1.759   7.116 -0.4441  2.6120  0.2022
 2883SOL     OW20281   4.248   2.988   0.343  0.3838  0.6536 -0.7007
 2883SOL    HW120282   4.167   2.964   0.298  0.0658 -0.9344  0.7173
 2883SOL    HW220283   4.277   3.042   0.269 -0.7533  0.0662 -1.5800
 2884SOL     OW20284   2.159   0.627   6.624 -0.1093 -1.0725  0.0254
 2884SOL    HW120285   2.125   0.709   6.661 -1.1990  0.0826 -3.5670
 2884SOL    HW220286   2.155   0.573   6.703 -0.3029 -1.3688 -0.1873
 2885SOL     OW20287   3.422   2.830   3.655  0.5057  0.2791  0.3488
 2885SOL    HW120288   3.378   2.895   3.710  2.6601  0.6873  1.5604
 2885SOL    HW220289   3.406   2.857   3.564 -0.7276  1.3549  0.8918
 2886SOL     OW20290   2.897   3.301   5.460  0.3365  0.1997  0.3631
 2886SOL    HW120291   2.834   3.231   5.480 -0.7031  1.7451  2.4406
 2886SOL    HW220292   2.841   3.377   5.478  0.1410  0.2947 -0.6405
 2887SOL     OW20293   3.198   1.669   7.288 -0.1563 -0.1504 -0.2542
 2887SOL    HW120294   3.135   1.617   7.336  1.8661 -2.4656 -0.1134
 2887SOL    HW220295   3.183   1.753   7.333 -1.1161 -0.7782  0.5779
 2888SOL     OW20296   3.397   2.340   2.352  0.1013 -0.1990  0.4580
 2888SOL    HW120297   3.467   2.337   2.417  0.5503  0.5468  0.0057
 2888SOL    HW220298   3.446   2.355   2.271  0.0914 -1.8065  0.1513
 2889SOL     OW20299   0.778   2.958   4.825 -0.2363 -0.0487 -0.7144
 2889SOL    HW120300   0.811   2.914   4.747  1.7233 -3.8242  2.1820
 2889SOL    HW220301   0.782   3.049   4.797 -1.3256  0.4904  0.8855
 2890SOL     OW20302   0.355   3.295   0.934  0.0867 -0.3624 -0.2944
 2890SOL    HW120303   0.275   3.311   0.985  1.3991 -0.1000  1.7012
 2890SOL    HW220304   0.413   3.281   1.009 -0.6583  3.6005  1.0627
 2891SOL     OW20305   1.501   1.726   6.305 -0.4046  0.3306  0.3000
 2891SOL    HW120306   1.483   1.712   6.398 -0.3248 -2.0165 -0.0418
 2891SOL    HW220307   1.561   1.656   6.281  0.4555  0.7555  1.2237
 2892SOL     OW20308   1.604   3.524  17.037 -0.4558 -0.2483  0.3482
 2892SOL    HW120309   1.666   3.506  16.966  0.0910  2.4859  0.1281
 2892SOL    HW220310   1.571   3.434  17.043 -0.4652 -0.1462  1.6562
 2893SOL     OW20311   3.481   1.260  17.341  0.1340  0.1687 -0.4018
 2893SOL    HW120312   3.544   1.284  17.272 -1.9488  2.7688 -1.4293
 2893SOL    HW220313   3.469   1.344  17.386  0.1133 -0.4162  0.6659
 2894SOL     OW20314   2.031   2.693   3.513 -0.2446  0.1386 -0.7112
 2894SOL    HW120315   2.050   2.638   3.437 -1.2796 -1.0796 -0.0926
 2894SOL    HW220316   2.120   2.726   3.524 -0.6822  1.1560 -0.2368
 2895SOL     OW20317   2.713   3.358   5.218 -0.2605 -0.4213 -0.5699
 2895SOL    HW120318   2.781   3.349   5.284 -1.4531 -3.3426  0.2773
 2895SOL    HW220319   2.724   3.451   5.198 -0.8850  0.1530  1.8229
 2896SOL     OW20320   0.910   3.382   4.534 -0.7834 -0.7729  0.4944
 2896SOL    HW120321   0.838   3.426   4.489 -1.4007 -3.0962 -0.7802
 2896SOL    HW220322   0.960   3.335   4.467 -0.7257  0.3866 -0.2744
 2897SOL     OW20323   2.283   2.070   8.901  0.5210 -0.5471 -0.1542
 2897SOL    HW120324   2.213   2.020   8.859  0.5212 -1.1334  0.5366
 2897SOL    HW220325   2.266   2.042   8.991  0.7336 -1.0607 -0.2703
 2898SOL     OW20326   4.275   0.498   8.954 -0.4261  0.4658 -0.7258
 2898SOL    HW120327   4.246   0.431   9.016  0.9432  1.0431  0.5220
 2898SOL    HW220328   4.221   0.493   8.875  0.1474  0.6862 -1.1287
 2899SOL     OW20329   2.089   3.131  14.377  0.0693  0.7868 -0.1607
 2899SOL    HW120330   2.077   3.222  14.401  0.8909  0.7068  0.5422
 2899SOL    HW220331   2.159   3.101  14.436 -1.1785 -0.1027  0.8685
 2900SOL     OW20332   2.629   3.424   3.932 -0.2756  0.1891  0.0857
 2900SOL    HW120333   2.661   3.458   4.016  2.4549 -0.0568 -0.8506
 2900SOL    HW220334   2.551   3.371   3.951 -1.0026  1.8748  1.7955
 2901SOL     OW20335   0.576   2.771   3.021  0.1863 -0.1898  0.0432
 2901SOL    HW120336   0.528   2.818   2.953  1.5243  0.3534 -0.5157
 2901SOL    HW220337   0.664   2.803   3.004  0.2715  0.9021  2.4527
 2902SOL     OW20338   3.980   0.715   3.622  0.4131  0.0273  0.2889
 2902SOL    HW120339   3.988   0.636   3.674  1.0009  0.6572  1.1565
 2902SOL    HW220340   4.005   0.697   3.531  1.0873 -0.9543  0.6822
 2903SOL     OW20341   0.218   1.657   6.582 -0.5020 -0.2782 -1.0493
 2903SOL    HW120342   0.295   1.605   6.608 -0.4845 -0.9049 -2.3756
 2903SOL    HW220343   0.156   1.590   6.555  0.5055 -1.4227 -0.5364
 2904SOL     OW20344   4.300   2.803   6.665  0.0435 -0.1624 -0.2624
 2904SOL    HW120345   4.254   2.720   6.670  0.0062 -0.0247  1.7771
 2904SOL    HW220346   4.315   2.822   6.758  1.1265 -0.8574 -0.3016
 2905SOL     OW20347   3.716   3.092   2.459 -0.6743  0.1402  0.0446
 2905SOL    HW120348   3.739   3.112   2.549  0.5377 -1.8615  0.1857
 2905SOL    HW220349   3.733   2.998   2.457  3.1374  0.8212  1.0345
 2906SOL     OW20350   3.679   3.909   3.424  0.4909 -0.2010  0.0781
 2906SOL    HW120351   3.590   3.922   3.391  1.5191  0.2356 -2.5281
 2906SOL    HW220352   3.710   3.993   3.390  1.8476 -0.3519  0.9551
 2907SOL     OW20353   1.785   4.228  14.219 -0.1392 -0.0917 -0.2531
 2907SOL    HW120354   1.693   4.213  14.201 -0.4835  1.4325  0.2473
 2907SOL    HW220355   1.791   4.324  14.216  1.0444 -0.1836 -0.9446
 2908SOL     OW20356   2.752   0.243   6.370 -0.0416 -0.4684 -0.1230
 2908SOL    HW120357   2.711   0.329   6.383  0.7802  0.3242 -2.8156
 2908SOL    HW220358   2.771   0.226   6.462  1.5131 -0.8042 -0.5083
 2909SOL     OW20359   0.827   3.450   0.356 -0.0434 -0.0854  0.3428
 2909SOL    HW120360   0.772   3.393   0.302 -0.5775  1.1425 -0.4295
 2909SOL    HW220361   0.777   3.452   0.437  1.4797 -1.6813  1.2940
 2910SOL     OW20362   1.358   4.168   6.035 -0.4026  0.4079  0.2646
 2910SOL    HW120363   1.381   4.238   5.974  0.4951 -0.1365 -0.0174
 2910SOL    HW220364   1.285   4.207   6.084 -1.0054  2.5552 -2.3536
 2911SOL     OW20365   3.326   1.800  11.889 -0.8059  0.2615 -0.9572
 2911SOL    HW120366   3.393   1.868  11.898  1.5204 -2.2361  0.4131
 2911SOL    HW220367   3.245   1.845  11.863  0.8701  3.2450 -1.0059
 2912SOL     OW20368   0.378   0.469   7.645  0.2501 -0.5431  0.0151
 2912SOL    HW120369   0.409   0.532   7.711  0.6703 -1.8956  1.1052
 2912SOL    HW220370   0.382   0.387   7.695 -0.3198 -0.9792 -0.6677
 2913SOL     OW20371   3.472   0.647   1.881  0.1006  0.0144 -0.0275
 2913SOL    HW120372   3.445   0.586   1.812 -2.7453 -0.6292  1.6498
 2913SOL    HW220373   3.560   0.671   1.853 -0.1091  0.0193 -0.6919
 2914SOL     OW20374   0.220   0.986  12.961  0.1268  0.0795 -0.0472
 2914SOL    HW120375   0.303   1.003  13.006 -0.9822 -1.2821  2.4985
 2914SOL    HW220376   0.224   0.890  12.961 -2.8309 -0.0566  0.2941
 2915SOL     OW20377   4.240   4.298   0.452  0.1036  0.0912 -0.0118
 2915SOL    HW120378   4.315   4.262   0.501  0.4122  1.0577  0.2292
 2915SOL    HW220379   4.277   4.382   0.427 -0.1500 -0.4586 -2.2133
 2916SOL     OW20380   4.732   0.766   4.686  0.8431 -0.0783  0.0453
 2916SOL    HW120381   4.723   0.852   4.645 -2.8028 -0.3835  0.1674
 2916SOL    HW220382   4.692   0.786   4.771 -1.3534 -0.2800 -0.9408
 2917SOL     OW20383   3.742   4.238  15.362 -0.0301  0.1735  0.0373
 2917SOL    HW120384   3.667   4.179  15.351 -0.2886  0.8078 -1.5249
 2917SOL    HW220385   3.718   4.282  15.443  2.2926 -0.4134  1.0579
 2918SOL     OW20386   0.343   3.116   6.342 -0.0904 -0.0925  0.2893
 2918SOL    HW120387   0.311   3.115   6.433  0.3209  2.4242  0.4581
 2918SOL    HW220388   0.257   3.125   6.302 -0.3441 -5.7342 -0.4105
 2919SOL     OW20389   2.531   2.543   5.584 -0.0227 -0.3187 -0.2286
 2919SOL    HW120390   2.545   2.629   5.625 -1.3761 -1.1639  1.9662
 2919SOL    HW220391   2.556   2.478   5.649  0.5247  0.4608  0.3358
 2920SOL     OW20392   4.195   2.353   8.298 -0.2996  0.5465  0.4907
 2920SOL    HW120393   4.147   2.273   8.317 -2.1552  1.9429  1.6370
 2920SOL    HW220394   4.153   2.382   8.217  1.2797 -2.6116 -1.4757
 2921SOL     OW20395   0.105   1.760   2.386  0.3024  0.3280 -0.4864
 2921SOL    HW120396   0.186   1.712   2.403 -1.4101 -1.4523  2.6948
 2921SOL    HW220397   0.070   1.701   2.319 -1.8168  0.0773  0.8620
 2922SOL     OW20398   1.155   4.637   3.634 -0.1903 -1.0804  0.0392
 2922SOL    HW120399   1.128   4.691   3.708  1.7432 -1.0003  0.6822
 2922SOL    HW220400   1.185   4.557   3.676  3.9308 -0.1989 -1.1516
 2923SOL     OW20401   1.832   0.308  11.654  0.0633 -0.0462  0.4689
 2923SOL    HW120402   1.913   0.318  11.703  1.1000  0.8049 -1.4249
 2923SOL    HW220403   1.858   0.238  11.594  0.1109 -0.8045  1.3777
 2924SOL     OW20404   1.254   4.151   7.650 -0.0321  0.2274  0.4902
 2924SOL    HW120405   1.341   4.112   7.651 -0.2952 -0.3601  0.6649
 2924SOL    HW220406   1.251   4.183   7.560  0.3105 -2.1116 -0.3545
 2925SOL     OW20407   3.133   3.299   8.845  0.2111  0.0589 -0.3771
 2925SOL    HW120408   3.170   3.211   8.841 -0.0123 -0.0628  0.2316
 2925SOL    HW220409   3.081   3.284   8.924 -0.6548 -0.1778 -0.9943
 2926SOL     OW20410   3.491   0.026   6.439  0.4827  0.0650  0.3941
 2926SOL    HW120411   3.502   0.121   6.447  1.9778 -0.2441  2.2367
 2926SOL    HW220412   3.475   0.015   6.346 -1.9122 -0.5760  0.8818
 2927SOL     OW20413   4.130   3.345   2.850  0.6111 -0.5219  0.1289
 2927SOL    HW120414   4.175   3.274   2.805  4.7806  0.8652  2.0938
 2927SOL    HW220415   4.198   3.393   2.899  0.5726  1.1367 -1.4571
 2928SOL     OW20416   2.600   1.435   7.953 -0.0657 -0.6138  0.0316
 2928SOL    HW120417   2.602   1.415   8.047  0.6232  1.0499  0.3872
 2928SOL    HW220418   2.626   1.528   7.953 -3.3066  0.2801  0.3487
 2929SOL     OW20419   1.218   3.968   2.530  0.6207 -0.0218  0.1185
 2929SOL    HW120420   1.300   3.947   2.485  0.0997  2.6656 -2.0438
 2929SOL    HW220421   1.150   3.910   2.495 -0.1988  1.8156 -1.2654
 2930SOL     OW20422   1.392   0.090   7.132 -0.3637 -0.2144 -0.1824
 2930SOL    HW120423   1.472   0.038   7.135 -1.0296 -1.1706  0.8895
 2930SOL    HW220424   1.390   0.122   7.042  2.4728  0.2026 -0.0916
 2931SOL     OW20425   3.687   4.061   5.106  0.1210  0.0362 -0.2649
 2931SOL    HW120426   3.608   4.058   5.052  0.9142 -2.0401 -1.3200
 2931SOL    HW220427   3.717   4.150   5.087  0.2891 -0.1429 -0.8462
 2932SOL     OW20428   1.247   4.138   5.275 -0.0858 -0.3016  0.4221
 2932SOL    HW120429   1.188   4.063   5.266 -1.7582  1.0659  0.1724
 2932SOL    HW220430   1.176   4.201   5.284  0.3125 -0.0455  1.7456
 2933SOL     OW20431   1.379   2.386   8.297  0.4166  0.3311  0.4892
 2933SOL    HW120432   1.300   2.438   8.282  0.5092  0.4803  0.5137
 2933SOL    HW220433   1.345   2.318   8.354 -1.2528  0.0513 -0.8668
 2934SOL     OW20434   4.166   3.581  13.606 -0.0016 -0.3765 -0.0062
 2934SOL    HW120435   4.106   3.630  13.662  2.2100  0.0080  2.0657
 2934SOL    HW220436   4.148   3.491  13.633 -2.3370 -0.0281 -0.4772
 2935SOL     OW20437   1.806   0.119  14.518  0.6728  0.4823  0.0368
 2935SOL    HW120438   1.811   0.024  14.518 -1.3697  0.3966  1.3986
 2935SOL    HW220439   1.854   0.126  14.435  0.1665 -0.2124 -0.3069
 2936SOL     OW20440   3.224   3.121   5.163  0.3954  0.5918 -0.4027
 2936SOL    HW120441   3.203   3.174   5.086  0.8120  0.0612 -0.8865
 2936SOL    HW220442   3.162   3.048   5.158  1.0131  0.2386 -2.9991
 2937SOL     OW20443   3.820   1.529  14.968 -0.0568 -0.0383 -0.0739
 2937SOL    HW120444   3.759   1.475  14.918 -0.2859 -0.4036  0.6056
 2937SOL    HW220445   3.761   1.586  15.017  0.8336  0.7910  0.0371
 2938SOL     OW20446   1.353   0.542   3.939 -0.3137 -0.1615 -0.4844
 2938SOL    HW120447   1.277   0.590   3.973 -0.9711 -0.7916 -1.0409
 2938SOL    HW220448   1.301   0.479   3.889 -3.4657  0.9518  1.3696
 2939SOL     OW20449   4.589   1.542   9.000 -0.5167  0.0427  0.5091
 2939SOL    HW120450   4.546   1.626   9.016  1.5551  1.3450 -0.7236
 2939SOL    HW220451   4.581   1.506   9.088  1.9647 -1.6237  0.0280
 2940SOL     OW20452   0.712   2.137   5.698  1.3431  0.0082  0.0182
 2940SOL    HW120453   0.651   2.096   5.760  0.0351  0.2212 -1.1373
 2940SOL    HW220454   0.790   2.083   5.708  1.4374 -0.0932 -1.3454
 2941SOL     OW20455   0.884   3.190   2.018 -0.2724 -0.1925 -0.0901
 2941SOL    HW120456   0.877   3.284   2.032 -0.3607 -0.1644 -0.3179
 2941SOL    HW220457   0.898   3.187   1.923  1.5735 -0.2778  0.1869
 2942SOL     OW20458   4.102   3.893   6.401  0.1955 -0.3195 -0.3381
 2942SOL    HW120459   4.149   3.963   6.446  1.2118 -0.9915 -0.3707
 2942SOL    HW220460   4.120   3.904   6.308 -0.0025  0.1291 -0.3264
 2943SOL     OW20461   0.022   2.105  11.608  0.3053 -0.4899  0.5781
 2943SOL    HW120462   4.697   2.081  11.538  1.0190 -0.3377 -0.1054
 2943SOL    HW220463   0.089   2.155  11.561 -1.5092 -1.4494 -3.0069
 2944SOL     OW20464   0.551   0.244   3.260  0.1285 -0.5305 -0.0129
 2944SOL    HW120465   0.555   0.309   3.189 -0.2832 -2.4788 -1.8191
 2944SOL    HW220466   0.639   0.260   3.294 -0.2235 -0.7645  0.9794
 2945SOL     OW20467   4.196   2.263  15.205  0.3420 -0.2745  0.4252
 2945SOL    HW120468   4.262   2.329  15.228  1.8063 -1.2226 -1.1086
 2945SOL    HW220469   4.230   2.252  15.117 -2.3998  4.2667 -1.2280
 2946SOL     OW20470   1.482   2.684   0.010 -0.0303  0.1232 -0.1888
 2946SOL    HW120471   1.488   2.609  17.694  1.4038 -0.3959  0.6176
 2946SOL    HW220472   1.563   2.736   0.004  1.1419 -1.5578  1.2154
 2947SOL     OW20473   0.872   4.221   3.417  1.3804  0.2150  0.4128
 2947SOL    HW120474   0.797   4.225   3.358  0.3853 -0.0197  1.6581
 2947SOL    HW220475   0.866   4.312   3.447 -0.2995  0.3683 -0.4001
 2948SOL     OW20476   3.358   3.244   1.212  0.5368 -0.2397  0.3764
 2948SOL    HW120477   3.395   3.326   1.178  0.0172 -1.0784 -2.2129
 2948SOL    HW220478   3.393   3.238   1.301 -0.2873  0.8153  0.7623
 2949SOL     OW20479   0.759   3.438   6.712  0.4821  0.0351  0.2827
 2949SOL    HW120480   0.829   3.475   6.658 -0.2414  1.4404  0.3029
 2949SOL    HW220481   0.798   3.351   6.721  0.4814  0.0461  0.3853
 2950SOL     OW20482   4.692   1.051  12.915 -0.2538  0.3587  0.0979
 2950SOL    HW120483   0.048   1.070  12.933  0.1977 -0.3835 -1.4286
 2950SOL    HW220484   4.714   0.963  12.883 -0.0250  1.2884 -2.2831
 2951SOL     OW20485   0.874   4.034   6.924  0.0963  0.4541  0.1085
 2951SOL    HW120486   0.850   3.944   6.947 -0.3418  0.7168  0.6849
 2951SOL    HW220487   0.939   4.011   6.859  0.1348 -1.7931  0.9310
 2952SOL     OW20488   3.279   1.428  14.970  0.1240 -0.4890  0.4348
 2952SOL    HW120489   3.265   1.520  14.992 -0.4762 -0.5782  0.4171
 2952SOL    HW220490   3.364   1.420  15.013 -0.1429  2.9151  1.6218
 2953SOL     OW20491   4.532   2.565   3.915  0.2545  0.2576 -0.0888
 2953SOL    HW120492   4.540   2.473   3.892  2.7680  0.4373  0.0377
 2953SOL    HW220493   4.524   2.600   3.826 -1.8480 -2.4506 -0.9653
 2954SOL     OW20494   0.328   2.982   2.966  0.3996  0.2390 -0.0492
 2954SOL    HW120495   0.410   3.028   2.950 -0.1236  1.3236  0.4162
 2954SOL    HW220496   0.310   2.956   2.875 -0.3172  0.5198  0.0065
 2955SOL     OW20497   0.624   2.155  17.513 -0.0479  0.6963 -0.4825
 2955SOL    HW120498   0.667   2.109  17.442  2.8030  1.4122  0.7660
 2955SOL    HW220499   0.551   2.093  17.515  1.0688 -0.5542  1.0198
 2956SOL     OW20500   3.740   2.535   8.221 -0.0524 -0.4005  0.1580
 2956SOL    HW120501   3.719   2.484   8.299 -0.6432 -3.5395 -2.0321
 2956SOL    HW220502   3.727   2.629   8.236  0.1032  0.0029 -2.2166
 2957SOL     OW20503   0.138   1.785   5.265  0.2317  0.3870 -0.3841
 2957SOL    HW120504   0.058   1.769   5.216 -0.2949  1.5598  0.0832
 2957SOL    HW220505   0.132   1.737   5.347  1.3886  0.1363 -0.4351
 2958SOL     OW20506   2.325   3.073  12.312 -0.4208 -0.2317 -0.6808
 2958SOL    HW120507   2.267   3.053  12.385  0.6684 -1.6977 -0.2114
 2958SOL    HW220508   2.409   3.052  12.353 -0.6157 -1.7302 -1.0540
 2959SOL     OW20509   4.107   2.199   2.550  0.1960  0.0763  0.9239
 2959SOL    HW120510   4.190   2.248   2.557  1.1301 -1.4004  0.1002
 2959SOL    HW220511   4.050   2.248   2.609 -0.9767 -0.4541  0.2130
 2960SOL     OW20512   3.294   2.362  16.080 -0.3164  0.0823 -0.5012
 2960SOL    HW120513   3.348   2.439  16.098  0.0862  0.1594 -2.0231
 2960SOL    HW220514   3.359   2.291  16.090  1.9702  2.3129  0.3579
 2961SOL     OW20515   0.476   4.564   7.325  0.2964  0.4545 -0.0780
 2961SOL    HW120516   0.485   4.556   7.420 -1.5067  1.1450  0.1544
 2961SOL    HW220517   0.553   4.518   7.293 -0.3007 -1.4009  1.1512
 2962SOL     OW20518   1.012   1.408   9.566  0.1557 -0.1197  0.0406
 2962SOL    HW120519   1.013   1.313   9.574  0.4319 -0.0778  0.4978
 2962SOL    HW220520   0.961   1.443   9.640 -0.6940  0.2201 -0.6981
 2963SOL     OW20521   0.636   3.948   1.780 -0.7220 -0.4199  0.6725
 2963SOL    HW120522   0.557   3.973   1.732 -0.5200 -0.0050  0.5532
 2963SOL    HW220523   0.635   4.023   1.840 -2.7009 -0.9479  1.3201
 2964SOL     OW20524   3.014   1.989  15.405 -0.1474 -0.2569 -0.0908
 2964SOL    HW120525   3.046   2.018  15.320  0.4769 -0.4603  0.0769
 2964SOL    HW220526   3.058   1.905  15.405  0.7441  0.2118  0.6451
 2965SOL     OW20527   3.201   3.429   3.920  0.0064  0.0272  0.2185
 2965SOL    HW120528   3.269   3.419   3.854  0.5600  0.2085  0.7658
 2965SOL    HW220529   3.116   3.425   3.875  0.2819 -1.5588 -0.1425
 2966SOL     OW20530   0.284   0.940  10.106 -0.0372  0.0819  0.5276
 2966SOL    HW120531   0.208   0.916  10.052 -0.3688 -0.8527  1.4184
 2966SOL    HW220532   0.350   0.960  10.039  0.1782 -1.3868  0.3019
 2967SOL     OW20533   4.623   2.742   2.147 -0.2389 -0.6081 -0.9197
 2967SOL    HW120534   4.617   2.648   2.134 -0.2625 -0.8731  0.9762
 2967SOL    HW220535   4.571   2.769   2.071 -2.2530 -1.2894  0.2158
 2968SOL     OW20536   2.639   1.007   3.284 -0.2400 -0.0801  0.8986
 2968SOL    HW120537   2.606   1.089   3.247 -0.0751  0.4300  1.8839
 2968SOL    HW220538   2.665   0.951   3.211  0.3187 -1.4486  2.1448
 2969SOL     OW20539   2.297   1.887   7.192  0.1786 -0.4135 -0.2239
 2969SOL    HW120540   2.260   1.960   7.242 -0.4011  0.2358 -1.6049
 2969SOL    HW220541   2.225   1.882   7.128  1.5848 -2.1370 -1.6732
 2970SOL     OW20542   0.519   3.564   6.820 -0.2131 -0.7454  0.2366
 2970SOL    HW120543   0.598   3.512   6.805  1.6645  1.8507  1.0032
 2970SOL    HW220544   0.521   3.576   6.915 -1.6854  0.6922  0.0828
 2971SOL     OW20545   0.078   3.859   9.200  0.0945  0.1778  0.9981
 2971SOL    HW120546   0.020   3.822   9.267  1.5221  1.1362  2.7509
 2971SOL    HW220547   0.148   3.795   9.207 -0.1450 -0.3959 -1.7774
 2972SOL     OW20548   1.199   2.722  13.622 -0.3263  0.4707 -0.7126
 2972SOL    HW120549   1.274   2.738  13.680  0.5829  1.4908 -2.1779
 2972SOL    HW220550   1.184   2.628  13.629  2.8903 -0.1636 -2.3687
 2973SOL     OW20551   3.015   1.778   6.580  0.5119 -0.1228  0.6805
 2973SOL    HW120552   3.092   1.833   6.568  0.9501 -0.7042  0.8599
 2973SOL    HW220553   3.051   1.734   6.657  0.8498  0.4752  0.8592
 2974SOL     OW20554   3.195   2.575   2.965 -0.0645  0.1110 -0.3259
 2974SOL    HW120555   3.152   2.602   3.047  1.2527 -0.0596  0.4083
 2974SOL    HW220556   3.226   2.487   2.984  0.2897  0.5753  1.3043
 2975SOL     OW20557   4.719   4.235   7.026  0.5558 -0.2445 -0.0965
 2975SOL    HW120558   4.655   4.303   7.004 -0.9452 -2.6605 -3.3125
 2975SOL    HW220559   0.058   4.286   7.055  0.2491  1.2549 -1.9010
 2976SOL     OW20560   3.723   3.841   8.654  0.1997  0.1411 -0.2078
 2976SOL    HW120561   3.687   3.914   8.704 -0.0249 -0.9703  1.2524
 2976SOL    HW220562   3.697   3.867   8.566  0.1397 -1.1045 -0.5577
 2977SOL     OW20563   2.341   0.626   4.754  0.0360 -0.2193  0.0096
 2977SOL    HW120564   2.349   0.621   4.849  1.2828  0.3163 -0.0665
 2977SOL    HW220565   2.425   0.600   4.716  0.1968  1.7043 -0.9597
 2978SOL     OW20566   3.928   0.974   8.627 -0.2655 -0.5266  0.1992
 2978SOL    HW120567   3.852   1.032   8.634  0.9788  1.1943 -0.5239
 2978SOL    HW220568   3.902   0.888   8.659 -3.5884  0.2187 -0.5523
 2979SOL     OW20569   3.939   2.014  16.434 -0.5118 -0.1067 -0.2919
 2979SOL    HW120570   4.030   1.999  16.459 -0.7886 -0.5443  0.4438
 2979SOL    HW220571   3.949   2.003  16.339  3.4837 -0.6599  0.1869
 2980SOL     OW20572   4.081   3.840   2.429  0.6450  0.3793  0.5566
 2980SOL    HW120573   4.123   3.905   2.373  1.8116 -0.7333  0.1409
 2980SOL    HW220574   4.056   3.777   2.361  2.6614  0.5272 -0.3430
 2981SOL     OW20575   3.146   4.726  17.334 -0.2165  0.2338 -0.7242
 2981SOL    HW120576   3.225   0.021  17.379 -1.2074  1.4856  0.1403
 2981SOL    HW220577   3.104   0.062  17.288  0.6644  0.8877 -0.5142
 2982SOL     OW20578   1.342   4.077   0.157  0.2706  0.1939 -0.6330
 2982SOL    HW120579   1.324   4.127   0.237 -1.6172  0.6399 -1.3510
 2982SOL    HW220580   1.319   3.989   0.186 -1.2179 -0.0589 -2.6238
 2983SOL     OW20581   3.397   2.990   4.010  0.0797 -0.5027  0.1778
 2983SOL    HW120582   3.359   3.012   3.925  2.0755  2.6752  0.0953
 2983SOL    HW220583   3.349   3.039   4.077  0.0760 -1.9920  1.2664
 2984SOL     OW20584   2.571   1.624   6.993 -0.4675 -0.0984 -0.2179
 2984SOL    HW120585   2.480   1.600   7.013 -0.6296  0.9002  0.2580
 2984SOL    HW220586   2.611   1.599   7.077  3.6133  1.1815 -1.7968
 2985SOL     OW20587   3.516   4.250   5.704 -0.0019 -0.2599  0.1429
 2985SOL    HW120588   3.611   4.252   5.711 -0.0730  0.6370  0.8295
 2985SOL    HW220589   3.490   4.339   5.727  1.5090  0.4327 -0.8130
 2986SOL     OW20590   1.285   3.226   4.495 -0.0901  0.0965  0.2017
 2986SOL    HW120591   1.267   3.181   4.577 -2.2333 -0.8375 -0.7711
 2986SOL    HW220592   1.198   3.253   4.465 -0.2239  0.5719  1.0377
 2987SOL     OW20593   1.308   0.960   7.074 -0.2154  0.1651 -0.5799
 2987SOL    HW120594   1.241   0.894   7.092  1.2336 -0.8169  1.1453
 2987SOL    HW220595   1.253   1.026   7.030 -2.2608 -0.7987  0.5448
 2988SOL     OW20596   4.632   0.676  10.444 -0.2786 -0.0667  0.0179
 2988SOL    HW120597   4.591   0.751  10.401 -1.3884 -0.5206  0.2702
 2988SOL    HW220598   4.720   0.691  10.410  0.1173 -0.2911  0.9295
 2989SOL     OW20599   1.679   1.426   8.751  0.5619 -0.4284 -0.4961
 2989SOL    HW120600   1.682   1.331   8.762 -1.1405 -0.1697  2.4430
 2989SOL    HW220601   1.591   1.435   8.713  0.2387 -1.1153  0.0896
 2990SOL     OW20602   0.250   1.712   3.057  0.5388  0.1801  0.0400
 2990SOL    HW120603   0.218   1.747   2.973 -1.1600 -3.5426 -0.9015
 2990SOL    HW220604   0.188   1.737   3.126  0.7045  0.5519  0.0520
 2991SOL     OW20605   1.547   3.807  16.966 -0.3403  0.2172 -0.3815
 2991SOL    HW120606   1.592   3.881  17.007 -3.1762  1.2937  0.8305
 2991SOL    HW220607   1.581   3.730  17.012 -0.1896  1.2313  1.1957
 2992SOL     OW20608   3.688   1.592   3.951 -0.2959  0.2536  0.0916
 2992SOL    HW120609   3.692   1.551   4.037 -2.8240 -0.6783 -0.2191
 2992SOL    HW220610   3.640   1.530   3.896 -0.0968 -0.0823  0.3051
 2993SOL     OW20611   1.629   0.706   8.631 -0.0104  0.2456  0.3587
 2993SOL    HW120612   1.602   0.787   8.674  0.5693 -0.5113  2.1390
 2993SOL    HW220613   1.626   0.648   8.707 -0.5605 -0.0422  0.1258
 2994SOL     OW20614   0.485   2.368  16.176  0.4436  0.3696 -0.0978
 2994SOL    HW120615   0.475   2.372  16.271  0.2019  0.4559 -0.1277
 2994SOL    HW220616   0.418   2.429  16.147 -0.6147 -1.4855 -1.5500
 2995SOL     OW20617   2.888   3.868   1.841  0.0376 -0.1508  0.2744
 2995SOL    HW120618   2.855   3.939   1.895 -0.8820 -0.6359  0.3427
 2995SOL    HW220619   2.968   3.901   1.798  0.5479  0.4602  1.6753
 2996SOL     OW20620   1.125   2.990   6.910  0.4230  0.5957  0.8711
 2996SOL    HW120621   1.182   3.059   6.877  0.9017 -0.9558 -1.5423
 2996SOL    HW220622   1.069   2.967   6.835  1.1671 -1.4615  0.9440
 2997SOL     OW20623   2.185   4.056   6.780  0.3837 -0.2425 -0.0783
 2997SOL    HW120624   2.177   4.137   6.830  0.6663  0.0543 -0.5165
 2997SOL    HW220625   2.099   4.046   6.739  0.4107  0.0571 -0.2057
 2998SOL     OW20626   3.357   4.177   3.096 -0.8194 -0.4696 -0.1138
 2998SOL    HW120627   3.438   4.205   3.138 -1.7998  1.9927  0.0923
 2998SOL    HW220628   3.363   4.082   3.105  0.0066 -0.4107 -0.0592
 2999SOL     OW20629   2.370   1.811   8.459  0.1244  0.7794  0.1937
 2999SOL    HW120630   2.369   1.905   8.442 -1.9415  0.8194  0.6169
 2999SOL    HW220631   2.303   1.781   8.397  0.1240 -0.7843  0.9464
 3000SOL     OW20632   0.310   4.448  17.059 -0.4603  0.2085 -0.5096
 3000SOL    HW120633   0.357   4.366  17.043 -1.8560 -0.9252  1.2427
 3000SOL    HW220634   0.326   4.462  17.152 -2.4282  0.2283 -0.1814
 3001SOL     OW20635   3.165   2.208   2.484 -0.1109 -0.6756 -0.0108
 3001SOL    HW120636   3.240   2.265   2.495  0.4483 -1.5506  0.6808
 3001SOL    HW220637   3.090   2.266   2.497 -0.1800 -0.8228  0.2538
 3002SOL     OW20638   0.763   3.877   9.348 -0.1875  0.0979  0.1542
 3002SOL    HW120639   0.743   3.818   9.276  2.0698 -2.4637  1.6289
 3002SOL    HW220640   0.857   3.859   9.355  0.3580  2.2334 -1.8648
 3003SOL     OW20641   1.909   0.748   4.961  0.4349  0.0438 -0.4300
 3003SOL    HW120642   1.997   0.722   4.988  0.6849  0.9737 -0.3380
 3003SOL    HW220643   1.927   0.772   4.870  0.7250  0.1162 -0.3547
 3004SOL     OW20644   1.248   3.358  12.078 -0.4340 -0.3517  0.0728
 3004SOL    HW120645   1.158   3.326  12.076 -0.3766 -0.5802  1.0689
 3004SOL    HW220646   1.266   3.387  11.989 -0.6014  1.1843  0.5375
 3005SOL     OW20647   1.165   2.258   8.657  0.3804  0.2387 -0.7102
 3005SOL    HW120648   1.087   2.217   8.620 -0.3426 -0.3512  1.4499
 3005SOL    HW220649   1.130   2.303   8.735  0.4130 -0.9229 -0.0295
 3006SOL     OW20650   4.279   0.038   8.757 -0.6518  0.3486  0.5201
 3006SOL    HW120651   4.244   0.107   8.701 -0.4008 -1.4082 -1.8088
 3006SOL    HW220652   4.348   4.733   8.704  1.1118  3.2715  0.5630
 3007SOL     OW20653   1.481   0.348  10.220 -0.0203  0.3083 -0.7392
 3007SOL    HW120654   1.385   0.346  10.210 -0.0668 -2.7662  0.5187
 3007SOL    HW220655   1.508   0.269  10.173 -0.2020  0.7557 -1.6115
 3008SOL     OW20656   1.630   4.368   6.049  0.7296  0.0201  0.5726
 3008SOL    HW120657   1.547   4.415   6.040  1.0576  0.3007 -0.9696
 3008SOL    HW220658   1.615   4.294   6.108  0.0415  0.7757  1.3432
 3009SOL     OW20659   1.815   1.902   6.376  0.5745 -0.2220  0.4336
 3009SOL    HW120660   1.759   1.979   6.371 -1.4282 -1.6913  0.3240
 3009SOL    HW220661   1.800   1.882   6.469  1.4315 -0.2894  0.5641
 3010SOL     OW20662   2.667   2.322  15.752  0.2157 -0.0186  0.2448
 3010SOL    HW120663   2.735   2.329  15.685 -0.2866 -1.1995 -0.4017
 3010SOL    HW220664   2.599   2.269  15.710  0.0700  1.2776 -1.1338
 3011SOL     OW20665   0.723   1.496   9.203 -0.3740  0.3441  0.0715
 3011SOL    HW120666   0.803   1.541   9.231 -0.4015  0.0233  0.6627
 3011SOL    HW220667   0.756   1.407   9.196 -0.6108  0.3312 -0.8292
 3012SOL     OW20668   2.646   0.796  17.540 -0.1469  0.2885 -0.2150
 3012SOL    HW120669   2.633   0.807  17.446 -0.2068 -2.9967 -0.5746
 3012SOL    HW220670   2.723   0.851  17.556  0.0840 -0.8568  2.6444
 3013SOL     OW20671   1.238   0.766  13.727  0.7560  0.4660 -0.4486
 3013SOL    HW120672   1.196   0.709  13.792 -0.5417  0.1815 -1.5511
 3013SOL    HW220673   1.274   0.829  13.790  1.7837 -0.9281  0.3862
 3014SOL     OW20674   0.136   1.814   5.882  0.6918  0.4084  0.4715
 3014SOL    HW120675   0.199   1.769   5.826 -0.4883  1.5860 -1.8056
 3014SOL    HW220676   0.187   1.886   5.920  1.6239  0.9351 -1.7821
 3015SOL     OW20677   0.445   2.536   5.926 -1.1638  0.0719  0.5664
 3015SOL    HW120678   0.413   2.626   5.914 -3.1828 -1.0984 -2.8416
 3015SOL    HW220679   0.402   2.492   5.853 -0.9684  0.0414  0.4699
 3016SOL     OW20680   1.258   2.377   0.722  1.0716  0.0219 -0.1005
 3016SOL    HW120681   1.309   2.448   0.761 -1.2469  0.6651  1.7437
 3016SOL    HW220682   1.251   2.413   0.633 -0.6114  0.0372  0.0533
 3017SOL     OW20683   2.664   3.238   4.992 -0.2139 -0.4077  0.0186
 3017SOL    HW120684   2.685   3.286   5.072  1.2355 -1.2887  0.1797
 3017SOL    HW220685   2.740   3.268   4.942 -1.9869  0.0764 -2.3863
 3018SOL     OW20686   2.692   2.620   3.050 -1.0092  0.0438  0.2661
 3018SOL    HW120687   2.683   2.539   3.101  3.7284 -0.9938 -0.5608
 3018SOL    HW220688   2.660   2.672   3.124 -2.7364  1.7658 -1.6762
 3019SOL     OW20689   4.168   4.661   4.860  0.3242 -0.0609  0.1586
 3019SOL    HW120690   4.256   4.692   4.882  0.5721  0.7078 -1.8882
 3019SOL    HW220691   4.158   4.706   4.776  0.9305 -1.2547 -0.5506
 3020SOL     OW20692   0.753   2.629   1.365 -0.2992 -0.0848  0.3623
 3020SOL    HW120693   0.743   2.701   1.427 -2.2359 -2.7183  3.0400
 3020SOL    HW220694   0.723   2.670   1.284 -0.0252  0.2513  0.4278
 3021SOL     OW20695   3.712   2.579   5.536  0.1234 -0.3690 -0.1538
 3021SOL    HW120696   3.733   2.653   5.479 -1.2588 -0.7447 -1.1595
 3021SOL    HW220697   3.796   2.576   5.580  0.7186  1.6697 -1.1305
 3022SOL     OW20698   0.712   3.473  17.197 -0.7505  0.4856 -0.0150
 3022SOL    HW120699   0.746   3.404  17.255  0.5533  0.6314 -0.6021
 3022SOL    HW220700   0.662   3.529  17.256 -1.4440 -1.6642  1.4578
 3023SOL     OW20701   3.689   3.257   1.253  0.0478  0.1744 -0.1523
 3023SOL    HW120702   3.686   3.339   1.203  1.0322  0.5265  0.3676
 3023SOL    HW220703   3.690   3.300   1.339 -0.1221 -0.5897  0.2308
 3024SOL     OW20704   2.775   1.759   6.896 -0.1135 -0.0200  0.2194
 3024SOL    HW120705   2.715   1.700   6.941  0.6872 -1.1959 -0.2518
 3024SOL    HW220706   2.816   1.696   6.837  1.6162  1.6778 -0.3872
 3025SOL     OW20707   4.225   2.190   4.368  0.2188 -0.0137 -0.3347
 3025SOL    HW120708   4.314   2.223   4.378  0.2186  0.4106 -1.7157
 3025SOL    HW220709   4.255   2.102   4.391 -1.8576 -0.4262  0.7874
 3026SOL     OW20710   3.621   1.966   5.368 -0.4323  0.0348  0.1793
 3026SOL    HW120711   3.626   1.912   5.446 -1.0905 -0.1739  0.0737
 3026SOL    HW220712   3.530   1.994   5.360  0.0110  1.3993 -0.1401
 3027SOL     OW20713   2.251   0.812   2.990 -0.1955 -0.0107  0.1943
 3027SOL    HW120714   2.235   0.741   3.051  1.2678 -0.2972  0.2252
 3027SOL    HW220715   2.161   0.832   2.964  0.3472  1.4815 -0.5539
 3028SOL     OW20716   2.116   0.228   8.992 -0.8003 -0.2470 -0.2198
 3028SOL    HW120717   2.164   0.150   9.022  0.4244 -0.0744 -1.7440
 3028SOL    HW220718   2.112   0.278   9.074  1.6047 -1.7147  0.8158
 3029SOL     OW20719   2.508   1.500   5.319 -0.0115 -0.4669 -0.9393
 3029SOL    HW120720   2.440   1.437   5.343  1.3132 -1.4166  0.3621
 3029SOL    HW220721   2.590   1.474   5.361  0.4919 -0.1454 -1.7183
 3030SOL     OW20722   2.947   4.403   9.596 -0.3043 -0.2418 -0.2307
 3030SOL    HW120723   3.006   4.365   9.531 -1.3768  2.2266 -2.6467
 3030SOL    HW220724   2.974   4.356   9.675  1.8543  0.4641 -0.5614
 3031SOL     OW20725   0.929   1.964   5.819  0.6643 -0.0837 -0.4750
 3031SOL    HW120726   0.960   1.877   5.794  0.2839  0.3727 -2.5666
 3031SOL    HW220727   0.994   2.025   5.784  0.3916  0.3569 -0.2065
 3032SOL     OW20728   0.135   0.201  14.620 -0.0355 -0.2409  0.8890
 3032SOL    HW120729   0.186   0.205  14.540  0.6480 -2.2421  1.2217
 3032SOL    HW220730   0.046   0.186  14.588 -0.1944 -0.6129  1.4900
 3033SOL     OW20731   1.894   1.501   7.286 -0.1784  0.4583  0.3797
 3033SOL    HW120732   1.808   1.542   7.292  0.9105  2.8714 -0.6161
 3033SOL    HW220733   1.867   1.416   7.250 -0.7532  1.2703 -1.0911
 3034SOL     OW20734   4.099   3.955   4.251  0.2361 -0.0911  0.1481
 3034SOL    HW120735   4.038   4.009   4.202 -0.9608 -1.6071 -0.0443
 3034SOL    HW220736   4.042   3.898   4.303 -1.5204  1.6180  0.0849
 3035SOL     OW20737   4.653   2.068   9.084  0.3395 -0.0125  0.0012
 3035SOL    HW120738   4.689   1.994   9.034 -0.3251 -1.5068  1.7401
 3035SOL    HW220739   4.663   2.024   9.168 -1.0389  0.8812  0.6161
 3036SOL     OW20740   3.860   2.773   6.155 -0.2300 -0.5821  0.5298
 3036SOL    HW120741   3.865   2.782   6.060 -0.1719 -0.3352  0.5547
 3036SOL    HW220742   3.847   2.860   6.194 -0.3619 -0.8489  1.0765
 3037SOL     OW20743   1.916   1.047   6.059 -0.0392  0.2785  0.0583
 3037SOL    HW120744   1.837   0.993   6.054  0.0924  0.0469  0.4515
 3037SOL    HW220745   1.955   1.037   6.146 -0.3724 -1.8603 -0.0367
 3038SOL     OW20746   0.807   2.458   8.723 -0.1424  0.4423 -0.5247
 3038SOL    HW120747   0.718   2.483   8.749 -0.2390 -0.2753 -0.1740
 3038SOL    HW220748   0.788   2.399   8.650  3.4300 -0.4515 -0.7022
 3039SOL     OW20749   1.474   0.523   4.827  0.0833  0.4637  0.2199
 3039SOL    HW120750   1.414   0.549   4.757 -1.1630  0.2248  1.1933
 3039SOL    HW220751   1.555   0.520   4.776 -0.6122  1.0121 -0.9106
 3040SOL     OW20752   2.748   2.036  15.399 -0.5329 -0.2450  0.2573
 3040SOL    HW120753   2.841   2.023  15.415 -0.2851 -1.3727 -2.2179
 3040SOL    HW220754   2.725   2.003  15.313  0.3422 -0.2682  0.0332
 3041SOL     OW20755   1.405   3.518  15.475  0.7814 -0.1471 -0.0281
 3041SOL    HW120756   1.493   3.524  15.511  0.3417 -0.7512  1.1722
 3041SOL    HW220757   1.365   3.593  15.519 -0.0349 -0.4452 -0.2636
 3042SOL     OW20758   2.402   4.435  16.872 -0.5013 -0.1384  0.0491
 3042SOL    HW120759   2.328   4.494  16.879 -0.2802  0.1421  0.0227
 3042SOL    HW220760   2.447   4.465  16.794 -1.9566  0.7855 -0.4292
 3043SOL     OW20761   2.394   2.899   4.945 -0.1753 -0.5086 -0.6567
 3043SOL    HW120762   2.447   2.906   5.025 -2.0446 -1.6242  0.6668
 3043SOL    HW220763   2.373   2.808   4.964  1.3769 -0.3215  1.9759
 3044SOL     OW20764   1.525   0.100  14.534  0.1548 -0.4429  0.2342
 3044SOL    HW120765   1.514   0.021  14.587  1.4840 -1.7435 -1.3991
 3044SOL    HW220766   1.620   0.107  14.548  0.4519 -0.0619 -1.9182
 3045SOL     OW20767   1.936   2.251   9.064  0.7489  0.4750  0.4582
 3045SOL    HW120768   1.987   2.299   9.129 -0.0894  0.1421  1.3645
 3045SOL    HW220769   1.855   2.300   9.076 -0.1942 -1.0700  0.3619
 3046SOL     OW20770   0.780   4.716   4.138  0.2818  0.9395  0.1058
 3046SOL    HW120771   0.847   0.020   4.084 -0.6455  0.3897 -1.4440
 3046SOL    HW220772   0.744   0.056   4.183  1.4581  1.0346  0.8692
 3047SOL     OW20773   0.036   3.217  12.908 -0.1499 -0.2813 -0.4654
 3047SOL    HW120774   0.059   3.125  12.895  1.6066  0.4228 -2.1846
 3047SOL    HW220775   0.015   3.217  13.002  0.2413  0.3695 -0.3769
 3048SOL     OW20776   1.186   0.563   4.326 -0.4120  0.7061  0.0486
 3048SOL    HW120777   1.170   0.485   4.273  0.3902  1.0300 -0.6658
 3048SOL    HW220778   1.134   0.633   4.287 -1.9950  0.1766  1.2172
 3049SOL     OW20779   3.406   4.159  12.329 -0.0327  0.0446  0.0087
 3049SOL    HW120780   3.466   4.117  12.391 -0.3384 -1.8959 -0.9935
 3049SOL    HW220781   3.425   4.249  12.352 -1.0121  0.2881 -0.1387
 3050SOL     OW20782   1.287   3.811   1.483  0.2676 -0.0085  0.1451
 3050SOL    HW120783   1.208   3.831   1.533  0.9581  0.4509  1.0469
 3050SOL    HW220784   1.276   3.717   1.473 -0.5965  0.1650 -0.5647
 3051SOL     OW20785   3.700   3.979   3.862  0.6738 -0.6579  0.3469
 3051SOL    HW120786   3.755   3.986   3.783 -0.8487  1.6165 -0.5285
 3051SOL    HW220787   3.652   4.061   3.850 -1.2486 -1.6945  0.9714
 3052SOL     OW20788   0.506   0.446   7.023  0.4798 -0.6425  0.1002
 3052SOL    HW120789   0.511   0.491   6.938 -1.5336  2.0228  1.4259
 3052SOL    HW220790   0.542   0.363   6.992 -0.1645 -1.1070  0.6001
 3053SOL     OW20791   1.461   2.403   1.193 -0.1128  0.1266  0.2030
 3053SOL    HW120792   1.405   2.391   1.269 -0.6271  1.2910  0.0065
 3053SOL    HW220793   1.451   2.497   1.181  2.6768  0.3402 -0.3624
 3054SOL     OW20794   0.738   3.830   6.728 -0.2853  0.7344 -0.0272
 3054SOL    HW120795   0.656   3.821   6.680 -1.4508  0.3601  2.0587
 3054SOL    HW220796   0.794   3.791   6.660 -0.7253 -1.1232  0.6857
 3055SOL     OW20797   4.602   1.595   3.155 -0.0603  0.1660  0.2082
 3055SOL    HW120798   4.536   1.587   3.086  2.0049 -1.9852 -1.5165
 3055SOL    HW220799   4.629   1.686   3.144 -0.7844  0.2970 -0.5036
 3056SOL     OW20800   2.456   2.458   8.298 -0.5700 -0.3831  0.0617
 3056SOL    HW120801   2.445   2.539   8.248  0.3038  0.2366  0.8657
 3056SOL    HW220802   2.422   2.484   8.384  0.3398 -0.8317  0.5617
 3057SOL     OW20803   2.364   1.526   8.972  0.1707 -0.3007  0.0954
 3057SOL    HW120804   2.328   1.613   8.990 -0.8816 -0.3113 -2.0541
 3057SOL    HW220805   2.350   1.523   8.878  0.2567 -2.8146  0.1656
 3058SOL     OW20806   0.210   4.362   4.240  0.0392  0.2396 -0.1477
 3058SOL    HW120807   0.121   4.391   4.260 -0.0193 -0.6525  0.8862
 3058SOL    HW220808   0.176   4.291   4.187 -2.9985  1.2834  0.3927
 3059SOL     OW20809   0.099   3.688   5.539  0.2981  0.2861 -0.6815
 3059SOL    HW120810   0.125   3.596   5.544  0.4620  0.3917  0.2592
 3059SOL    HW220811   0.165   3.723   5.599  0.1343  0.1898 -0.4487
 3060SOL     OW20812   4.652   2.986  16.521 -0.2156 -0.8090  0.1299
 3060SOL    HW120813   4.699   3.028  16.593  1.4878 -1.9839 -0.2852
 3060SOL    HW220814   4.726   2.955  16.468  1.0032  1.3964  0.5447
 3061SOL     OW20815   0.222   0.850  16.399  0.5229  0.0159  0.2285
 3061SOL    HW120816   0.171   0.931  16.396 -2.2908 -1.6872  1.2313
 3061SOL    HW220817   0.177   0.799  16.467 -1.4788 -1.1073 -1.9379
 3062SOL     OW20818   1.176   1.764   4.283  0.1655  0.2092  0.1337
 3062SOL    HW120819   1.164   1.807   4.367 -1.7905  0.7693 -0.4284
 3062SOL    HW220820   1.095   1.718   4.258  1.2520 -0.2706 -2.5583
 3063SOL     OW20821   0.806   2.905   1.602 -0.0266 -0.0856 -0.4233
 3063SOL    HW120822   0.754   2.984   1.617  1.2962  0.8282 -0.6612
 3063SOL    HW220823   0.878   2.934   1.546 -1.6270  0.1007 -2.3689
 3064SOL     OW20824   2.715   4.459   4.353  0.5605  0.5562  0.2914
 3064SOL    HW120825   2.789   4.456   4.293  0.3810 -3.0347  0.2346
 3064SOL    HW220826   2.707   4.365   4.367  0.6358  0.6213  0.7653
 3065SOL     OW20827   0.354   1.984   3.230  0.1567  0.3172 -0.0874
 3065SOL    HW120828   0.298   1.913   3.196  1.1742  0.5740 -2.3147
 3065SOL    HW220829   0.284   2.043   3.257 -2.3591 -1.7739 -2.0363
 3066SOL     OW20830   3.543   1.644   0.858 -0.1748 -0.1181 -0.2114
 3066SOL    HW120831   3.571   1.719   0.806  0.6564  1.4629  2.5218
 3066SOL    HW220832   3.519   1.581   0.790 -1.6871 -0.8087  0.9491
 3067SOL     OW20833   1.974   2.039  11.095 -0.0644  0.6175 -0.4885
 3067SOL    HW120834   1.926   2.045  11.177 -2.3421  0.9878 -1.8354
 3067SOL    HW220835   1.904   2.033  11.030  1.0556  1.2418 -1.7652
 3068SOL     OW20836   2.509   3.342   7.402 -1.0851  0.0872  0.1305
 3068SOL    HW120837   2.468   3.256   7.396  1.2526 -0.8741 -2.2622
 3068SOL    HW220838   2.578   3.330   7.467 -1.4275  0.4183  0.5524
 3069SOL     OW20839   3.482   0.839   8.064 -0.2836  0.4076 -0.1461
 3069SOL    HW120840   3.388   0.834   8.078  0.0669  0.7117  2.3630
 3069SOL    HW220841   3.493   0.757   8.016 -0.1288  0.2415  0.1706
 3070SOL     OW20842   0.889   0.120   8.262  0.3033 -0.3579 -0.4009
 3070SOL    HW120843   0.795   0.113   8.249  0.3456  1.1433 -1.3788
 3070SOL    HW220844   0.916   0.174   8.188  1.2225  2.2578  1.8539
 3071SOL     OW20845   2.903   3.088   7.217  0.0250  0.0988  0.2960
 3071SOL    HW120846   2.868   3.034   7.289 -0.1042  0.2312  0.3325
 3071SOL    HW220847   2.928   3.032   7.144  2.7395  1.2817  0.3203
 3072SOL     OW20848   0.083   3.805   2.022 -0.1118 -0.1162  0.0666
 3072SOL    HW120849   0.079   3.735   2.088 -1.1349 -0.5123 -0.4150
 3072SOL    HW220850   0.177   3.807   2.004 -0.0223 -1.2342  0.4176
 3073SOL     OW20851   4.511   0.957   6.655  0.0165  0.3248  0.1904
 3073SOL    HW120852   4.498   0.873   6.611  2.3841 -0.8772  1.7895
 3073SOL    HW220853   4.503   0.944   6.749  2.3401  0.2558  0.3785
 3074SOL     OW20854   4.054   3.514   8.872 -0.4833  0.3126 -0.1017
 3074SOL    HW120855   3.961   3.516   8.891 -0.6564 -0.3773 -0.8994
 3074SOL    HW220856   4.069   3.608   8.859  2.2741 -0.0257  0.6771
 3075SOL     OW20857   2.919   4.696  13.665  0.9672 -0.2982 -0.4575
 3075SOL    HW120858   2.948   0.004  13.585 -1.8944  2.6011  0.1229
 3075SOL    HW220859   2.913   4.603  13.642  2.9767 -0.2132 -1.3615
 3076SOL     OW20860   3.199   3.590  10.605  0.1367 -0.0070 -0.1320
 3076SOL    HW120861   3.167   3.614  10.691  0.4849 -2.0587  0.5853
 3076SOL    HW220862   3.168   3.499  10.605  2.2979 -0.7384  0.7701
 3077SOL     OW20863   1.489   2.538  10.943 -0.2719  0.0164 -0.5025
 3077SOL    HW120864   1.498   2.460  10.997  0.4405 -0.2018 -0.9348
 3077SOL    HW220865   1.395   2.531  10.929 -0.3386  0.8497 -0.5041
 3078SOL     OW20866   2.417   4.444   4.691  0.1431  0.1150 -0.4365
 3078SOL    HW120867   2.466   4.517   4.730  0.4979 -0.6364  0.5386
 3078SOL    HW220868   2.331   4.483   4.702  0.5948  1.6786 -2.7037
 3079SOL     OW20869   2.540   1.066   7.775 -0.1240 -0.1502 -0.5634
 3079SOL    HW120870   2.497   0.983   7.796  0.6705  0.0664  1.9152
 3079SOL    HW220871   2.470   1.132   7.774  0.2129  0.2271  1.9298
 3080SOL     OW20872   2.402   2.120   4.206  0.2811  0.0102 -0.7195
 3080SOL    HW120873   2.454   2.066   4.148 -1.7671 -2.6062 -0.1179
 3080SOL    HW220874   2.436   2.100   4.293  0.0904 -2.2840 -1.1707
 3081SOL     OW20875   1.162   3.888   7.593 -0.0397 -0.2982 -0.0990
 3081SOL    HW120876   1.149   3.975   7.630  0.1043  0.2914 -1.4092
 3081SOL    HW220877   1.243   3.893   7.541  0.9864 -0.4703  1.4797
 3082SOL     OW20878   0.040   2.183  11.870  0.3698  0.1095  0.3036
 3082SOL    HW120879   0.002   2.174  11.783 -0.3294 -1.8861  0.8103
 3082SOL    HW220880   0.068   2.092  11.881  1.1279 -0.0452 -2.8368
 3083SOL     OW20881   4.625   2.063   2.264 -0.3796 -0.7164 -0.0640
 3083SOL    HW120882   4.554   2.045   2.202  1.0521  1.2425 -2.2791
 3083SOL    HW220883   4.692   2.019   2.212 -0.6351  0.6552 -1.5600
 3084SOL     OW20884   2.763   4.625  17.715  0.5069  0.5153 -0.1421
 3084SOL    HW120885   2.834   4.580  17.669  0.4939 -1.0107  1.3175
 3084SOL    HW220886   2.681   4.577  17.703  0.6166  0.7920 -1.9641
 3085SOL     OW20887   4.155   4.297   4.819  0.0614 -0.2678 -0.0106
 3085SOL    HW120888   4.165   4.235   4.891 -0.3962  0.2363  0.4933
 3085SOL    HW220889   4.095   4.361   4.857  0.1649 -1.1558  1.6616
 3086SOL     OW20890   3.447   3.197   7.469  0.5098  0.0743  0.4033
 3086SOL    HW120891   3.411   3.109   7.469 -0.5284  0.5034 -3.0385
 3086SOL    HW220892   3.401   3.243   7.539 -0.1571 -1.2857  0.8616
 3087SOL     OW20893   1.817   4.513   2.183 -0.1298 -0.5941 -0.2984
 3087SOL    HW120894   1.748   4.487   2.122 -0.2326  0.9019 -0.8103
 3087SOL    HW220895   1.812   4.607   2.168 -0.7978 -0.6377 -0.3234
 3088SOL     OW20896   1.615   1.986   7.829 -0.7028  0.0341 -0.3261
 3088SOL    HW120897   1.555   2.058   7.809  0.5731  0.0466 -4.0901
 3088SOL    HW220898   1.638   1.956   7.741 -0.4747  1.8723 -0.8841
 3089SOL     OW20899   4.583   0.458   6.427  0.3345 -0.5756  0.4607
 3089SOL    HW120900   4.664   0.487   6.384 -0.2764 -1.3547 -1.2119
 3089SOL    HW220901   4.620   0.380   6.469 -1.3025 -1.3494  0.4489
 3090SOL     OW20902   2.889   2.035   1.443 -0.3680 -0.9621 -0.0491
 3090SOL    HW120903   2.958   2.100   1.459 -3.6746  2.8291 -1.3679
 3090SOL    HW220904   2.877   1.984   1.523  2.3705 -0.3150  0.7650
 3091SOL     OW20905   1.126   2.236  16.003 -0.0202  0.2094  0.2528
 3091SOL    HW120906   1.177   2.260  16.081 -2.1508 -1.5142  2.1666
 3091SOL    HW220907   1.042   2.219  16.045 -0.4144 -0.7677 -0.9472
 3092SOL     OW20908   4.234   0.993  11.170 -0.4473  0.2039  0.2704
 3092SOL    HW120909   4.294   1.011  11.241  0.3381 -1.7518  0.0914
 3092SOL    HW220910   4.296   1.003  11.098 -0.0022 -0.7154  0.5362
 3093SOL     OW20911   2.185   2.838   8.312 -0.3831  0.4884  0.4520
 3093SOL    HW120912   2.125   2.767   8.288 -0.1843  0.5644 -0.2735
 3093SOL    HW220913   2.128   2.909   8.283 -0.3664  0.1159 -0.4832
 3094SOL     OW20914   1.836   3.445   9.182  0.1228  0.2714 -0.3548
 3094SOL    HW120915   1.883   3.456   9.099 -2.1851 -0.9975 -1.8665
 3094SOL    HW220916   1.782   3.369   9.160  0.3179  0.2192 -0.6550
 3095SOL     OW20917   2.395   0.073   3.660  0.3338  0.1111  0.0793
 3095SOL    HW120918   2.405   0.054   3.753 -4.0599 -0.5728  0.4105
 3095SOL    HW220919   2.408   0.167   3.660 -2.3551  0.4860 -2.3529
 3096SOL     OW20920   0.538   2.808  15.899  0.2044 -0.0172 -0.0385
 3096SOL    HW120921   0.493   2.887  15.868 -1.2658 -1.4013 -1.4315
 3096SOL    HW220922   0.622   2.845  15.927  0.3553 -0.2800 -0.1402
 3097SOL     OW20923   3.261   0.712   3.930 -0.4544 -0.0193 -0.5552
 3097SOL    HW120924   3.277   0.770   4.004 -2.3374 -1.0104  0.6485
 3097SOL    HW220925   3.349   0.684   3.906  0.7560  2.9432  0.4081
 3098SOL     OW20926   1.384   4.507  13.838  0.3240  0.1154  0.4584
 3098SOL    HW120927   1.415   4.444  13.903 -1.7152  0.5329  1.8310
 3098SOL    HW220928   1.309   4.545  13.883 -1.4735 -2.6605 -0.2055
 3099SOL     OW20929   1.355   1.307  17.711 -0.2152 -0.1435  0.7602
 3099SOL    HW120930   1.349   1.231   0.025 -0.0385 -0.5177  0.2772
 3099SOL    HW220931   1.422   1.283  17.648 -0.1947 -1.0591  1.1292
 3100SOL     OW20932   2.164   0.028   5.921  0.1579 -0.6334 -0.5078
 3100SOL    HW120933   2.259   0.041   5.912  0.3429 -3.4093 -2.3513
 3100SOL    HW220934   2.131   0.036   5.831 -1.1333 -2.3801 -0.1806
 3101SOL     OW20935   4.204   0.167   2.666  0.1954 -0.2745  0.0007
 3101SOL    HW120936   4.145   0.092   2.657 -0.9238  0.7540 -1.2018
 3101SOL    HW220937   4.191   0.224   2.591  2.1648 -0.7347 -0.6741
 3102SOL     OW20938   4.173   1.903   2.999  0.2521  0.9535  0.2859
 3102SOL    HW120939   4.213   1.973   2.947  3.0331 -0.8009  0.0694
 3102SOL    HW220940   4.083   1.905   2.968 -0.3213 -1.6035  1.8388
 3103SOL     OW20941   2.517   1.538   7.455  0.1694 -0.4294 -0.8403
 3103SOL    HW120942   2.451   1.607   7.448  0.6443  0.2236  0.9293
 3103SOL    HW220943   2.475   1.456   7.429 -0.9720  0.7102 -2.5704
 3104SOL     OW20944   3.773   4.667  13.388 -0.1157  0.1156 -0.0239
 3104SOL    HW120945   3.818   4.645  13.307  2.6062 -1.2700  1.8546
 3104SOL    HW220946   3.856   4.665  13.436 -0.8072 -0.1061  1.1587
 3105SOL     OW20947   1.527   4.460   3.955 -0.5408 -0.2089 -0.1296
 3105SOL    HW120948   1.568   4.547   3.954 -0.6573 -0.1459  0.6335
 3105SOL    HW220949   1.579   4.432   3.879 -1.7382  0.5999 -1.2463
 3106SOL     OW20950   4.351   1.141  15.330  0.0212  0.3440 -0.5971
 3106SOL    HW120951   4.286   1.113  15.266  0.2804 -0.5116 -0.4844
 3106SOL    HW220952   4.305   1.216  15.369 -2.9081  0.0418 -3.4517
 3107SOL     OW20953   0.224   4.552   9.397  0.6982  0.0956  0.0684
 3107SOL    HW120954   0.151   4.570   9.337 -1.6545  0.6238  3.0569
 3107SOL    HW220955   0.299   4.566   9.339  0.4492 -0.7929 -0.4764
 3108SOL     OW20956   3.627   3.285   3.963  0.6161  0.6088  0.0637
 3108SOL    HW120957   3.674   3.312   4.043  3.1154 -1.0847 -0.8220
 3108SOL    HW220958   3.541   3.326   3.971 -0.5120 -1.7119 -0.0979
 3109SOL     OW20959   3.041   0.478   6.043  0.0937 -0.9089 -0.2547
 3109SOL    HW120960   3.128   0.504   6.013 -1.3416  3.2685 -0.7071
 3109SOL    HW220961   3.072   0.401   6.092  0.0118 -0.8287 -0.0773
 3110SOL     OW20962   2.148   2.376   2.854  0.2665  0.0328  0.3150
 3110SOL    HW120963   2.152   2.385   2.949 -2.3943 -1.3657  0.5558
 3110SOL    HW220964   2.052   2.380   2.855  0.3243  2.7315 -1.6667
 3111SOL     OW20965   2.961   4.450   1.449 -0.3895  0.0966 -0.3944
 3111SOL    HW120966   3.011   4.526   1.480  1.4962 -1.4705  0.4035
 3111SOL    HW220967   2.871   4.479   1.433 -0.2960  0.1851 -0.7744
 3112SOL     OW20968   0.641   1.284   2.378 -0.2751 -0.0128  0.1844
 3112SOL    HW120969   0.669   1.202   2.339 -1.4045  0.2364 -1.1710
 3112SOL    HW220970   0.626   1.239   2.461 -2.3845  1.0785  0.4135
 3113SOL     OW20971   3.953   3.440   9.778  0.3437 -0.2056 -0.6789
 3113SOL    HW120972   4.017   3.439   9.849 -0.3813  0.9583 -0.0183
 3113SOL    HW220973   4.009   3.463   9.704 -0.1752 -1.2696 -1.4033
 3114SOL     OW20974   2.737   2.383   3.215 -0.0990  0.4486 -0.7246
 3114SOL    HW120975   2.665   2.322   3.233  0.1970 -0.6215 -3.1784
 3114SOL    HW220976   2.792   2.328   3.160  0.8978  1.2325 -0.5148
 3115SOL     OW20977   1.887   4.170  11.911  0.1060  0.1932 -0.0015
 3115SOL    HW120978   1.978   4.155  11.939  0.2695 -0.9736 -1.1547
 3115SOL    HW220979   1.856   4.080  11.903 -1.0124  0.4270  1.7157
 3116SOL     OW20980   3.909   2.467   2.332 -0.6070  0.0999 -0.1293
 3116SOL    HW120981   4.000   2.496   2.320  0.3200 -3.0732 -0.8148
 3116SOL    HW220982   3.879   2.476   2.242 -1.3554  3.1622  0.4531
 3117SOL     OW20983   2.953   0.769  17.058  0.4074 -0.4444 -0.5518
 3117SOL    HW120984   2.945   0.678  17.088  0.3830 -0.1253  0.4191
 3117SOL    HW220985   2.897   0.759  16.981  2.3015 -2.2379 -1.6950
 3118SOL     OW20986   1.503   4.375   0.894 -0.1431 -0.2697 -0.5848
 3118SOL    HW120987   1.503   4.280   0.891  0.6110 -0.2651 -0.7048
 3118SOL    HW220988   1.592   4.388   0.863 -0.5099 -0.9764 -1.9245
 3119SOL     OW20989   3.616   2.817   4.391  0.0429 -0.2812  0.5290
 3119SOL    HW120990   3.573   2.813   4.476 -1.0037  1.3107  0.0793
 3119SOL    HW220991   3.546   2.837   4.327 -0.5700 -0.4904  1.1368
 3120SOL     OW20992   2.312   0.260   8.001 -0.2095 -0.4070 -0.2398
 3120SOL    HW120993   2.268   0.248   8.086  0.5896  1.6870  0.4820
 3120SOL    HW220994   2.234   0.288   7.952 -0.6131  0.2507  0.7701
 3121SOL     OW20995   3.592   0.377  10.224  0.1956 -0.3767 -0.1086
 3121SOL    HW120996   3.538   0.454  10.207 -0.3874 -1.0371 -1.2410
 3121SOL    HW220997   3.673   0.419  10.252 -0.8154  0.5177  1.5052
 3122SOL     OW20998   4.169   1.772   4.484 -0.4475  0.0997  0.3197
 3122SOL    HW120999   4.090   1.812   4.521 -0.2424  1.0753 -0.2870
 3122SOL    HW221000   4.216   1.856   4.481 -0.4654  0.0455 -1.2310
 3123SOL     OW21001   4.532   1.204   4.014  0.4498 -0.4874 -1.2780
 3123SOL    HW121002   4.487   1.120   4.008 -1.7987  0.8381 -2.7370
 3123SOL    HW221003   4.583   1.195   3.934  0.7892 -1.5902 -0.9368
 3124SOL     OW21004   4.444   2.577   6.419  0.4359  0.4887  0.4543
 3124SOL    HW121005   4.351   2.585   6.400  0.3095  0.1475  0.9279
 3124SOL    HW221006   4.470   2.669   6.430 -0.5038  0.7563  0.4627
 3125SOL     OW21007   0.738   0.597   5.450 -0.1022  0.0040 -0.1464
 3125SOL    HW121008   0.791   0.569   5.525 -0.5099 -1.3397 -0.3483
 3125SOL    HW221009   0.723   0.508   5.417 -2.7336  1.0374 -1.6578
 3126SOL     OW21010   4.026   1.861   3.777 -0.4344 -0.0002  0.1308
 3126SOL    HW121011   4.102   1.883   3.831  0.0716 -1.6732  0.1193
 3126SOL    HW221012   4.054   1.828   3.692 -1.9576  1.4885 -0.9362
 3127SOL     OW21013   0.628   4.602  14.779 -0.1610 -0.2100  0.1529
 3127SOL    HW121014   0.708   4.552  14.792 -0.4123 -0.7846 -0.5173
 3127SOL    HW221015   0.592   4.541  14.715 -1.8611 -0.6428  1.5186
 3128SOL     OW21016   3.609   3.437   4.635  0.1021  0.1042 -0.0485
 3128SOL    HW121017   3.656   3.509   4.593  1.9876 -0.8861  0.4036
 3128SOL    HW221018   3.589   3.482   4.718  0.7700  1.7213 -0.7567
 3129SOL     OW21019   1.965   2.911  13.210 -0.8051 -0.3161 -0.4599
 3129SOL    HW121020   1.947   2.988  13.264  1.8704 -0.0226  0.0351
 3129SOL    HW221021   2.044   2.878  13.253 -1.0598  1.8243  1.6539
 3130SOL     OW21022   3.573   2.593   5.862 -0.0989 -0.1543 -0.5682
 3130SOL    HW121023   3.647   2.654   5.872  1.0445 -1.8421  1.2268
 3130SOL    HW221024   3.516   2.617   5.936  0.0351 -1.1066 -0.1591
 3131SOL     OW21025   2.035   1.535   8.025  0.3662  0.4315 -0.3630
 3131SOL    HW121026   2.125   1.515   8.002  0.2360  0.8687 -1.2447
 3131SOL    HW221027   2.037   1.625   8.057 -0.9605  0.4778 -0.3919
 3132SOL     OW21028   4.100   1.196  11.034 -0.4506  0.1564  0.0863
 3132SOL    HW121029   4.103   1.109  11.073  0.1864 -0.4165 -1.2705
 3132SOL    HW221030   4.116   1.249  11.113  1.9303 -1.9541  1.0190
 3133SOL     OW21031   0.445   0.338   5.284 -0.1575 -0.3287 -0.4125
 3133SOL    HW121032   0.419   0.409   5.227 -1.5048 -0.5640 -0.0833
 3133SOL    HW221033   0.366   0.320   5.335 -1.0530  0.8939 -1.3957
 3134SOL     OW21034   3.777   2.219   9.033  0.4265 -0.0264 -0.1723
 3134SOL    HW121035   3.864   2.256   9.044  0.3056  0.5510 -1.1108
 3134SOL    HW221036   3.790   2.124   9.036  1.1570  0.0271 -1.5976
 3135SOL     OW21037   4.020   0.447   9.192  0.1289  0.3833  0.0161
 3135SOL    HW121038   4.011   0.420   9.283  0.1001 -0.3606 -0.2074
 3135SOL    HW221039   4.093   0.392   9.164 -0.4563 -1.1708  1.5751
 3136SOL     OW21040   4.326   4.672   2.442  0.3632 -0.1023  0.2250
 3136SOL    HW121041   4.338   4.623   2.361  0.4811  1.2966 -0.5935
 3136SOL    HW221042   4.404   4.727   2.448  1.3539 -1.6576  1.8071
 3137SOL     OW21043   0.515   3.279   5.919  0.5752 -0.0118  0.4179
 3137SOL    HW121044   0.538   3.256   6.009  1.4328  0.0835  0.2248
 3137SOL    HW221045   0.500   3.195   5.877  0.3884  0.0735  0.3159
 3138SOL     OW21046   3.919   3.391   3.976  0.5054 -0.2492  0.4643
 3138SOL    HW121047   3.992   3.421   3.922  0.8363  1.6420  1.9514
 3138SOL    HW221048   3.931   3.302   4.010  1.1161 -0.5287 -0.4957
 3139SOL     OW21049   3.939   2.255   7.916 -0.0513  0.1502  0.3848
 3139SOL    HW121050   4.023   2.253   7.961 -0.6402 -0.2748  1.4729
 3139SOL    HW221051   3.952   2.339   7.873  1.3266  0.2986  1.0961
 3140SOL     OW21052   3.397   3.937   7.137 -0.6451 -0.3855  0.2977
 3140SOL    HW121053   3.394   3.997   7.062 -0.8128 -0.7496  0.0165
 3140SOL    HW221054   3.450   3.988   7.199  1.9867 -0.1445 -2.1489
 3141SOL     OW21055   2.265   1.812  13.441  0.3711 -0.4203  0.0062
 3141SOL    HW121056   2.356   1.807  13.470 -0.0007  2.9775  1.7892
 3141SOL    HW221057   2.275   1.866  13.363  0.8324 -0.2661  0.1729
 3142SOL     OW21058   4.626   3.914  17.379 -0.1529 -0.1080 -0.5746
 3142SOL    HW121059   4.608   3.931  17.287  0.6073  2.2174 -0.2780
 3142SOL    HW221060   4.709   3.960  17.394 -0.9445  1.1291  0.0291
 3143SOL     OW21061   3.545   1.814   8.472  0.6908  0.9726  0.0890
 3143SOL    HW121062   3.541   1.816   8.376  3.2285 -1.2477 -0.0724
 3143SOL    HW221063   3.619   1.874   8.482  1.0954  0.7693 -1.5462
 3144SOL     OW21064   0.132   1.964   8.306 -0.4445 -0.3535 -0.1629
 3144SOL    HW121065   0.209   1.982   8.252 -0.9894 -1.2172 -1.2201
 3144SOL    HW221066   0.138   1.871   8.327  1.2099  0.0855  1.3462
 3145SOL     OW21067   0.470   4.126   8.275  0.2552  0.0384 -0.1960
 3145SOL    HW121068   0.479   4.129   8.370 -0.1951  2.0716 -0.2260
 3145SOL    HW221069   0.533   4.190   8.242 -0.4817  1.2240  0.7310
 3146SOL     OW21070   2.647   2.804   3.237  0.1063 -0.6364 -0.4501
 3146SOL    HW121071   2.712   2.780   3.303  0.2760 -0.7095 -0.6430
 3146SOL    HW221072   2.558   2.782   3.266  0.5137 -2.2774 -0.4692
 3147SOL     OW21073   1.973   1.660  15.763 -0.9865 -0.3956  0.1990
 3147SOL    HW121074   2.045   1.608  15.798  1.0956  0.0195 -3.5443
 3147SOL    HW221075   2.005   1.688  15.678 -1.0201  1.6969  0.8894
 3148SOL     OW21076   4.713   3.912  13.548 -0.0747  0.1978  0.5957
 3148SOL    HW121077   4.658   3.986  13.521  0.9193  1.0104  0.7821
 3148SOL    HW221078   4.713   3.869  13.463 -1.7558 -1.3794  1.3942
 3149SOL     OW21079   0.006   0.550  12.266 -0.0623  0.1833  0.3565
 3149SOL    HW121080   4.689   0.516  12.194 -1.0549 -0.2873  1.3067
 3149SOL    HW221081   4.733   0.645  12.257  0.3079  0.2406  0.5676
 3150SOL     OW21082   0.875   1.141  17.097  0.1275  0.0235  0.4585
 3150SOL    HW121083   0.884   1.128  17.192 -1.6553 -1.9328  0.3614
 3150SOL    HW221084   0.782   1.119  17.100  0.0161  0.3486 -0.5726
 3151SOL     OW21085   1.582   0.817   0.709  0.1546  0.2681  0.7304
 3151SOL    HW121086   1.622   0.738   0.747 -2.2717 -1.0162  0.6309
 3151SOL    HW221087   1.499   0.818   0.758 -0.1789 -0.6074  0.1859
 3152SOL     OW21088   0.258   4.350  11.775 -0.2689  0.1495 -0.3932
 3152SOL    HW121089   0.309   4.287  11.725  2.8365  3.7493 -1.7744
 3152SOL    HW221090   0.320   4.357  11.847 -2.2226 -2.8625  1.6020
 3153SOL     OW21091   4.065   3.333   5.963  0.0110  0.1595  0.6576
 3153SOL    HW121092   4.117   3.386   5.902  0.0851 -0.6284  0.0495
 3153SOL    HW221093   3.978   3.371   5.952 -0.1119 -0.3310 -0.0097
 3154SOL     OW21094   4.730   0.898   8.099 -0.3982 -0.3657  0.2113
 3154SOL    HW121095   4.652   0.912   8.153  1.2580  3.6359  1.6192
 3154SOL    HW221096   4.700   0.881   8.010  2.8392  0.9258 -1.1310
 3155SOL     OW21097   3.973   0.484   6.767 -0.1223  0.6026 -0.3054
 3155SOL    HW121098   3.924   0.444   6.839  0.7701 -1.0611 -0.5999
 3155SOL    HW221099   4.005   0.403   6.727 -1.4929 -0.3480  0.5164
 3156SOL     OW21100   0.569   3.943  12.038  0.2072  0.7432  0.5196
 3156SOL    HW121101   0.511   3.977  11.970 -0.1492 -0.7090  0.0933
 3156SOL    HW221102   0.652   3.991  12.036 -0.6435  2.2088  0.2226
 3157SOL     OW21103   4.492   3.521   1.470 -0.6800  0.1470 -0.0578
 3157SOL    HW121104   4.409   3.526   1.518 -0.6913  1.4698 -0.2358
 3157SOL    HW221105   4.553   3.542   1.541 -0.6729  0.0408 -0.0322
 3158SOL     OW21106   3.709   1.015   1.280  0.5627  0.5392 -0.0009
 3158SOL    HW121107   3.699   0.933   1.231  0.3782 -0.0663  1.0538
 3158SOL    HW221108   3.668   0.993   1.364 -0.6192  1.0293 -0.4491
 3159SOL     OW21109   2.362   1.274  13.250  0.1495  0.7735 -0.0962
 3159SOL    HW121110   2.448   1.290  13.290  1.1221 -1.0139 -1.4777
 3159SOL    HW221111   2.359   1.178  13.254 -3.0973  0.7363 -3.4205
 3160SOL     OW21112   1.405   0.127   3.890 -0.0548  0.3167  0.0841
 3160SOL    HW121113   1.481   0.069   3.895  0.8131  1.6949  2.9396
 3160SOL    HW221114   1.402   0.181   3.969 -0.2769  0.3070  0.0824
 3161SOL     OW21115   0.367   1.244  10.856 -0.4627 -0.5439  0.6663
 3161SOL    HW121116   0.454   1.283  10.864 -1.4979  2.3469 -2.2913
 3161SOL    HW221117   0.349   1.250  10.762  0.4173  1.6508  0.6588
 3162SOL     OW21118   4.573   1.207   6.000  0.5764  0.4081  0.5946
 3162SOL    HW121119   4.478   1.219   5.998  0.5001 -0.0052  2.0162
 3162SOL    HW221120   4.575   1.125   6.049  0.6026  0.9110  1.4423
 3163SOL     OW21121   3.315   0.780   5.606 -0.0812 -0.2714  0.1469
 3163SOL    HW121122   3.336   0.873   5.598 -3.0825  0.5804  2.1244
 3163SOL    HW221123   3.223   0.795   5.626 -0.0154 -1.2569  1.1791
 3164SOL     OW21124   2.826   0.170   6.637  0.5441  0.1314 -0.4710
 3164SOL    HW121125   2.846   0.113   6.711 -0.4547  2.1502  1.3462
 3164SOL    HW221126   2.741   0.201   6.669 -0.3121 -2.0313 -0.6545
 3165SOL     OW21127   2.452   0.364   2.399  0.1377 -0.1808  0.2671
 3165SOL    HW121128   2.544   0.376   2.425  0.3065 -2.7294  0.8441
 3165SOL    HW221129   2.437   0.429   2.330  1.4366  1.2586  1.3205
 3166SOL     OW21130   0.356   1.191   2.782 -0.5167  0.3416  0.2012
 3166SOL    HW121131   0.327   1.190   2.873 -1.1596 -0.9699 -0.0246
 3166SOL    HW221132   0.304   1.262   2.745 -0.8210 -0.1667 -0.3427
 3167SOL     OW21133   1.838   2.474   6.269 -0.3535  0.2696  0.2048
 3167SOL    HW121134   1.932   2.492   6.276 -0.5624  1.5245 -0.2885
 3167SOL    HW221135   1.809   2.548   6.216 -1.5991  1.2262  2.2676
 3168SOL     OW21136   2.745   3.212   6.658  0.3413  0.0877 -0.1173
 3168SOL    HW121137   2.667   3.250   6.698  1.1664  1.7852 -0.1159
 3168SOL    HW221138   2.734   3.240   6.567  3.1637 -0.2005 -0.5499
 3169SOL     OW21139   4.232   4.059   2.823 -0.3867 -0.5475  0.6348
 3169SOL    HW121140   4.192   3.979   2.791 -1.0593  0.7110 -1.6739
 3169SOL    HW221141   4.218   4.102   2.738  2.5862 -0.3346  0.2609
 3170SOL     OW21142   1.980   0.753  17.498 -0.3714 -0.3671 -0.5081
 3170SOL    HW121143   1.978   0.739  17.403  1.5574  0.1955 -0.6431
 3170SOL    HW221144   2.067   0.720  17.521 -0.6283 -1.7566 -1.5181
 3171SOL     OW21145   1.638   3.606   7.253  0.0451  0.1560 -0.1952
 3171SOL    HW121146   1.596   3.690   7.272  0.7225  0.4149  0.1642
 3171SOL    HW221147   1.576   3.559   7.198  2.0060 -2.1558 -0.4124
 3172SOL     OW21148   0.336   4.379   7.947  0.7456  0.1476  0.5790
 3172SOL    HW121149   0.291   4.413   7.870 -1.5796  2.7540  3.0945
 3172SOL    HW221150   0.402   4.447   7.943  0.2698  0.5586 -0.2499
 3173SOL     OW21151   4.472   0.553   1.704  0.0708 -0.2906 -0.1831
 3173SOL    HW121152   4.442   0.485   1.764 -0.4171 -1.8610 -2.2125
 3173SOL    HW221153   4.439   0.633   1.744 -1.0406 -0.9731  0.2753
 3174SOL     OW21154   0.543   1.911   0.928  0.1638  0.0509  0.0089
 3174SOL    HW121155   0.605   1.913   0.856 -0.5935 -0.3314 -0.6551
 3174SOL    HW221156   0.467   1.870   0.887 -0.4798  0.9636  0.2806
 3175SOL     OW21157   2.126   0.217   0.062  0.4506 -0.6076  0.8557
 3175SOL    HW121158   2.144   0.212  17.710  1.7676 -0.0238  1.0773
 3175SOL    HW221159   2.112   0.312   0.064 -0.9947 -0.7893 -0.4033
 3176SOL     OW21160   3.343   0.268  16.683 -0.1919  0.1739  0.6436
 3176SOL    HW121161   3.325   0.350  16.636  4.0400  1.0099  0.4197
 3176SOL    HW221162   3.273   0.206  16.667  1.3029 -1.3675  0.0351
 3177SOL     OW21163   1.377   3.911   8.880  0.9262  0.2048 -0.1884
 3177SOL    HW121164   1.425   3.896   8.961  0.0725  0.3577  0.3375
 3177SOL    HW221165   1.385   4.006   8.875  1.1408  0.2608  1.1547
 3178SOL     OW21166   2.746   0.961   9.243  0.0832 -0.4932  0.4367
 3178SOL    HW121167   2.829   0.969   9.289  0.3953  1.7720 -0.5273
 3178SOL    HW221168   2.731   1.053   9.222  1.9300 -0.2145  0.3578
 3179SOL     OW21169   4.709   3.127   5.821 -0.4804 -0.2987  0.1402
 3179SOL    HW121170   4.700   3.191   5.750 -1.8788 -0.4901  0.1419
 3179SOL    HW221171   0.037   3.172   5.877 -0.5918  1.8122 -1.4354
 3180SOL     OW21172   4.493   2.039  14.505 -0.3146  0.0789 -0.6069
 3180SOL    HW121173   4.559   1.973  14.483  2.0925  2.1500  0.3791
 3180SOL    HW221174   4.495   2.101  14.432  3.0459 -0.7296 -1.2250
 3181SOL     OW21175   1.686   4.376   3.107  0.4022  0.0809 -0.1645
 3181SOL    HW121176   1.735   4.294   3.105  0.9639  0.4264 -0.7235
 3181SOL    HW221177   1.621   4.356   3.039  0.3433  1.5820 -0.5536
 3182SOL     OW21178   1.838   2.017   8.861 -0.0417 -0.2410  0.1793
 3182SOL    HW121179   1.758   2.066   8.879 -0.0893 -0.5796  0.9376
 3182SOL    HW221180   1.850   1.951   8.930  1.4731  0.1218  0.2803
 3183SOL     OW21181   4.491   3.251  14.985 -0.3275 -0.2591 -0.1129
 3183SOL    HW121182   4.448   3.336  14.977  0.3716  0.1016 -0.0627
 3183SOL    HW221183   4.572   3.278  15.028 -0.3639  0.2397 -0.3449
 3184SOL     OW21184   0.886   0.607   9.922 -0.0052  0.0082  0.2205
 3184SOL    HW121185   0.806   0.557   9.936 -0.8554  0.8376 -1.7456
 3184SOL    HW221186   0.875   0.674   9.989  1.3677 -0.1347  0.5973
 3185SOL     OW21187   3.873   0.741   5.207  1.1673 -0.1408  0.5176
 3185SOL    HW121188   3.807   0.698   5.261  0.0478 -0.3477 -1.0123
 3185SOL    HW221189   3.953   0.702   5.242  0.8759 -2.1019 -0.9569
 3186SOL     OW21190   1.042   2.593  13.330 -0.2064  0.3825  0.2312
 3186SOL    HW121191   0.985   2.648  13.383 -1.7142  0.7169 -1.7592
 3186SOL    HW221192   0.977   2.526  13.307 -0.1814  0.7029 -0.7608
 3187SOL     OW21193   3.248   1.419   7.561  0.2694  0.2972 -1.2720
 3187SOL    HW121194   3.211   1.331   7.569  2.0286 -0.5544 -2.5048
 3187SOL    HW221195   3.168   1.471   7.567 -0.1237 -0.5247  0.3778
 3188SOL     OW21196   3.293   3.210   2.165  0.3144 -0.4728  0.0707
 3188SOL    HW121197   3.356   3.216   2.237 -2.6485  0.6790  2.5800
 3188SOL    HW221198   3.263   3.120   2.176 -1.2341  0.1839  1.1016
 3189SOL     OW21199   1.460   3.239   8.449  0.0732 -0.1919  0.2255
 3189SOL    HW121200   1.433   3.240   8.357 -1.3215 -0.6965  0.6277
 3189SOL    HW221201   1.433   3.329   8.470 -0.1606 -0.1146 -0.3970
 3190SOL     OW21202   3.108   0.896   2.320 -0.7249  0.6574  0.1433
 3190SOL    HW121203   3.181   0.952   2.291 -0.3953  1.0935  1.8018
 3190SOL    HW221204   3.039   0.960   2.336 -0.1593  1.7215 -1.6029
 3191SOL     OW21205   3.546   1.696   8.213 -0.5299 -0.0294 -0.1359
 3191SOL    HW121206   3.638   1.671   8.211 -0.2289  1.1014 -0.3176
 3191SOL    HW221207   3.517   1.653   8.133  2.0053  0.0820 -1.0810
 3192SOL     OW21208   0.211   4.360   9.595 -0.0553 -0.1318  0.6544
 3192SOL    HW121209   0.213   4.413   9.516 -1.3016 -0.0748  0.6533
 3192SOL    HW221210   0.278   4.397   9.652 -0.3523  0.8973  0.3415
 3193SOL     OW21211   0.252   1.686  15.648  0.2591  0.6866  0.1220
 3193SOL    HW121212   0.269   1.624  15.578  0.0176  1.1021 -0.3063
 3193SOL    HW221213   0.284   1.769  15.614  2.5986 -1.3654 -2.6602
 3194SOL     OW21214   0.526   0.119  10.052 -0.1458  0.5585  0.1395
 3194SOL    HW121215   0.463   0.180  10.090  0.2449  0.8808  0.2675
 3194SOL    HW221216   0.488   0.038  10.086 -0.0565  0.0785 -0.9088
 3195SOL     OW21217   1.616   0.327   9.371  0.7359 -0.4479 -0.0087
 3195SOL    HW121218   1.537   0.365   9.411  1.9202  1.1378  0.8247
 3195SOL    HW221219   1.635   0.268   9.443 -0.8132 -0.3709  0.4727
 3196SOL     OW21220   0.873   3.826  10.922 -0.0573 -0.1596 -0.1470
 3196SOL    HW121221   0.895   3.805  11.013 -0.1951  0.3959  0.0138
 3196SOL    HW221222   0.806   3.760  10.905  0.5304 -0.7169 -0.2926
 3197SOL     OW21223   3.870   0.495   4.226 -0.0205 -0.0400 -0.3530
 3197SOL    HW121224   3.821   0.470   4.303 -1.3071 -0.3329 -1.2732
 3197SOL    HW221225   3.877   0.591   4.231  1.8988 -0.2808  1.5219
 3198SOL     OW21226   1.729   3.254  17.495  0.0665  0.6409 -0.3334
 3198SOL    HW121227   1.824   3.247  17.506  0.4075  3.1571 -1.5080
 3198SOL    HW221228   1.710   3.166  17.464  0.9202  0.6197 -0.7842
 3199SOL     OW21229   1.048   3.424   6.497  0.0359  0.5027 -0.0074
 3199SOL    HW121230   1.123   3.410   6.555  0.4573  1.3339 -0.3626
 3199SOL    HW221231   1.093   3.430   6.413 -0.0175 -1.6107 -0.1885
 3200SOL     OW21232   0.612   1.807   5.283 -0.0562  0.0533 -0.7017
 3200SOL    HW121233   0.615   1.853   5.199  0.9468  2.5644  0.7120
 3200SOL    HW221234   0.607   1.716   5.253  0.4942 -0.3883  0.5208
 3201SOL     OW21235   3.489   1.443   4.605 -0.7367 -0.2594  0.1065
 3201SOL    HW121236   3.553   1.374   4.586 -0.6019 -0.0610 -0.1558
 3201SOL    HW221237   3.546   1.516   4.631  0.9883 -1.7176  0.4386
 3202SOL     OW21238   3.423   1.927   8.052 -0.5104 -0.0024 -0.0578
 3202SOL    HW121239   3.439   1.842   8.091 -1.3519 -1.3727 -2.7190
 3202SOL    HW221240   3.398   1.979   8.129 -0.7678 -1.8975  1.1226
 3203SOL     OW21241   1.316   3.116   2.048  0.0772  0.2094  0.1009
 3203SOL    HW121242   1.366   3.077   2.120 -2.8449 -1.7180  1.1108
 3203SOL    HW221243   1.232   3.070   2.045 -0.0141  0.4627 -1.1594
 3204SOL     OW21244   4.465   3.249   2.836  0.0404  0.4393 -0.1178
 3204SOL    HW121245   4.448   3.336   2.801  0.8793  0.3825 -0.6608
 3204SOL    HW221246   4.454   3.253   2.931 -0.4777  2.4905 -0.2692
 3205SOL     OW21247   4.619   3.927  10.655  0.1005  0.1715  0.3962
 3205SOL    HW121248   4.606   3.832  10.646 -1.8207  0.3945  0.9923
 3205SOL    HW221249   4.714   3.931  10.639 -0.1474 -0.2355 -1.2384
 3206SOL     OW21250   3.746   0.228   2.218  0.0460 -0.2786  0.3667
 3206SOL    HW121251   3.656   0.207   2.243 -0.2367  0.6149  0.1001
 3206SOL    HW221252   3.787   0.200   2.301 -0.9975 -2.3522  0.1761
 3207SOL     OW21253   2.750   2.616   5.171 -0.0540  0.0146  0.4332
 3207SOL    HW121254   2.667   2.588   5.209 -0.2316  3.9244  2.8785
 3207SOL    HW221255   2.780   2.653   5.254  0.8671  0.7676 -0.2334
 3208SOL     OW21256   0.013   2.311   8.055 -0.3458  0.3096 -0.1231
 3208SOL    HW121257   0.085   2.348   8.106 -1.6437 -0.1583  2.0523
 3208SOL    HW221258   4.728   2.228   8.097  2.0894  0.2611  0.9969
 3209SOL     OW21259   2.080   1.885   4.369  0.2871 -0.4315 -0.2451
 3209SOL    HW121260   2.113   1.862   4.456  0.3896  0.1938 -0.1168
 3209SOL    HW221261   2.171   1.889   4.337 -0.7936  2.5443 -3.0409
 3210SOL     OW21262   1.477   3.195   0.165 -0.0390 -0.0710 -0.9708
 3210SOL    HW121263   1.521   3.275   0.136  0.6486  0.1880  0.8047
 3210SOL    HW221264   1.458   3.222   0.255 -0.1562  1.1494 -1.3592
 3211SOL     OW21265   1.899   4.252   2.242 -0.3305 -0.1661  0.3707
 3211SOL    HW121266   1.894   4.248   2.338  1.4119  0.1633  0.4796
 3211SOL    HW221267   1.879   4.344   2.226 -1.7952 -0.7809 -1.3777
 3212SOL     OW21268   2.200   3.399  11.014 -0.7946  0.4267 -0.1490
 3212SOL    HW121269   2.220   3.461  10.943 -2.3053  1.5344  0.4173
 3212SOL    HW221270   2.204   3.452  11.093 -0.4727  0.0653  0.0787
 3213SOL     OW21271   2.272   2.782   9.319 -0.2717  0.0458 -0.1014
 3213SOL    HW121272   2.221   2.772   9.239  2.6727 -2.0749 -1.7203
 3213SOL    HW221273   2.199   2.748   9.370 -2.1905  1.4069 -1.9170
 3214SOL     OW21274   0.896   0.930   8.580  0.3427 -0.2667 -0.3238
 3214SOL    HW121275   0.878   0.867   8.650 -2.8148 -1.0963 -1.9047
 3214SOL    HW221276   0.956   0.992   8.623 -1.0767  0.4334  0.6292
 3215SOL     OW21277   3.746   4.481   2.983  0.1197 -0.2113 -0.5375
 3215SOL    HW121278   3.726   4.553   2.924 -0.8049  0.6954  0.8784
 3215SOL    HW221279   3.741   4.532   3.064  4.3640  1.3533 -1.2812
 3216SOL     OW21280   0.805   0.528   6.790 -0.1859 -0.3526  0.4695
 3216SOL    HW121281   0.820   0.493   6.877  0.5904 -1.1679  0.0031
 3216SOL    HW221282   0.777   0.618   6.809 -2.3915 -0.8030 -0.6469
 3217SOL     OW21283   1.441   2.224  17.252  0.2762 -0.6483  0.6265
 3217SOL    HW121284   1.447   2.134  17.222 -0.0464  0.0948 -1.6723
 3217SOL    HW221285   1.528   2.237  17.289  0.3064  2.0744 -0.3318
 3218SOL     OW21286   2.978   3.678   8.260 -0.2482  0.0856  0.3360
 3218SOL    HW121287   3.057   3.728   8.284 -2.2060  2.7889  1.1432
 3218SOL    HW221288   2.999   3.650   8.171  1.3394  2.2599  0.0234
 3219SOL     OW21289   1.751   3.827   2.450 -0.0238 -0.0984 -0.8110
 3219SOL    HW121290   1.749   3.914   2.489 -1.2738 -0.0951 -0.8934
 3219SOL    HW221291   1.796   3.854   2.370  0.4243 -1.6279 -1.0644
 3220SOL     OW21292   0.809   0.365   4.315 -0.0665  0.2669 -0.0125
 3220SOL    HW121293   0.814   0.459   4.333  1.5370  0.0712  0.5706
 3220SOL    HW221294   0.858   0.334   4.392  1.2080  1.4061 -0.3704
 3221SOL     OW21295   4.152   1.588   6.676 -0.0046 -0.3042  0.9128
 3221SOL    HW121296   4.164   1.538   6.757  1.1195 -0.4996  0.6289
 3221SOL    HW221297   4.093   1.540   6.618  0.6536  0.2154 -0.1964
 3222SOL     OW21298   3.303   0.608   8.055  0.2378  0.0313  0.2235
 3222SOL    HW121299   3.282   0.533   7.999  1.7438 -1.0085  1.0709
 3222SOL    HW221300   3.299   0.572   8.143  1.5638 -0.0297  0.2563
 3223SOL     OW21301   2.420   0.633   6.496  0.5011  0.3326  0.7370
 3223SOL    HW121302   2.437   0.671   6.582  0.6973  2.3134 -0.1960
 3223SOL    HW221303   2.328   0.618   6.519  0.4535 -0.8232 -0.1774
 3224SOL     OW21304   4.301   2.536   0.233  0.0456  0.0441  0.2720
 3224SOL    HW121305   4.286   2.467   0.297  3.0713 -2.1742 -1.4033
 3224SOL    HW221306   4.370   2.584   0.279  1.1163 -1.8376  0.6072
 3225SOL     OW21307   1.495   3.434   4.213  0.2091 -0.3649  0.2016
 3225SOL    HW121308   1.434   3.370   4.175  0.8742  0.2742 -1.9288
 3225SOL    HW221309   1.504   3.397   4.301 -1.3944 -1.2121  0.0153
 3226SOL     OW21310   4.364   2.479   3.269 -0.2286  0.0505  0.0501
 3226SOL    HW121311   4.292   2.453   3.326 -0.3053 -1.2229 -0.6225
 3226SOL    HW221312   4.367   2.410   3.202 -1.4827  1.6133 -1.6352
 3227SOL     OW21313   3.835   3.582   7.113 -0.1099  0.4329 -0.3680
 3227SOL    HW121314   3.857   3.510   7.053  0.6119  0.2258  0.1395
 3227SOL    HW221315   3.745   3.563   7.138 -0.3612  0.6615 -1.0824
 3228SOL     OW21316   4.051   1.576   6.345  0.1073  0.0073 -0.3545
 3228SOL    HW121317   4.072   1.668   6.354 -0.5938  0.1908 -0.6132
 3228SOL    HW221318   3.986   1.577   6.275  0.5036  1.6900 -0.6872
 3229SOL     OW21319   1.976   1.921  10.321 -0.0351 -0.0343  0.7205
 3229SOL    HW121320   2.031   2.000  10.321  0.0927 -0.1234  0.6528
 3229SOL    HW221321   2.029   1.875  10.256 -1.3124 -0.4520 -0.0085
 3230SOL     OW21322   0.392   4.718   4.434  0.6144 -0.2998 -0.3565
 3230SOL    HW121323   0.313   4.678   4.399 -1.7621  0.9794  3.5864
 3230SOL    HW221324   0.430   0.027   4.357  1.4442  1.1818  0.9187
 3231SOL     OW21325   0.094   2.853   0.997 -0.2249  0.5517 -0.5496
 3231SOL    HW121326   4.734   2.845   0.994 -0.2151 -0.0175  0.5912
 3231SOL    HW221327   0.091   2.933   0.945  1.4373  1.0162  0.0667
 3232SOL     OW21328   3.077   4.640  11.322 -0.0895  0.0243  0.5108
 3232SOL    HW121329   3.077   4.569  11.387  0.1312 -1.4921 -1.1486
 3232SOL    HW221330   3.022   4.703  11.368 -3.2268 -0.7818 -2.1502
 3233SOL     OW21331   2.015   4.583   4.316 -0.3116 -0.3980 -0.2135
 3233SOL    HW121332   2.069   4.552   4.243 -0.8875 -1.5774 -0.1426
 3233SOL    HW221333   2.089   4.572   4.376  0.1284  0.6687 -0.5729
 3234SOL     OW21334   2.501   1.739   5.154 -0.8495 -0.1323 -0.6792
 3234SOL    HW121335   2.521   1.670   5.091 -1.7640 -0.6195 -0.4334
 3234SOL    HW221336   2.512   1.693   5.237 -1.2656  1.6754  0.3847
 3235SOL     OW21337   0.162   3.605   4.654  0.6205 -0.6035  0.2486
 3235SOL    HW121338   0.223   3.647   4.593  0.9038 -2.1759 -0.5671
 3235SOL    HW221339   0.143   3.525   4.605 -0.4833 -0.6554  0.7672
 3236SOL     OW21340   1.068   1.549   7.557 -0.1701  0.1227 -0.0375
 3236SOL    HW121341   1.151   1.595   7.570  1.1921 -1.9145 -1.3516
 3236SOL    HW221342   1.049   1.536   7.650 -1.7220  0.4702 -0.3056
 3237SOL     OW21343   0.299   3.538   8.638 -0.6182  0.4403  0.0900
 3237SOL    HW121344   0.226   3.599   8.644 -2.1207 -1.5629  2.3265
 3237SOL    HW221345   0.260   3.453   8.661 -0.1925 -0.0852 -1.1086
 3238SOL     OW21346   0.649   0.745   3.351 -0.1027 -0.0160 -0.0204
 3238SOL    HW121347   0.612   0.689   3.282 -0.8418  1.3404 -0.7279
 3238SOL    HW221348   0.628   0.834   3.323 -1.5836 -0.6262 -0.8888
 3239SOL     OW21349   1.094   4.531   9.308  0.8532 -0.1340  0.4906
 3239SOL    HW121350   1.165   4.547   9.247 -0.3826  0.9326 -0.6611
 3239SOL    HW221351   1.023   4.519   9.244  0.2003  0.9429  1.0079
 3240SOL     OW21352   3.002   0.951   7.960  0.3545 -0.1412 -0.1582
 3240SOL    HW121353   2.973   0.903   7.882  2.1938 -0.9856 -0.3459
 3240SOL    HW221354   3.075   1.003   7.927  0.4992 -1.4007 -1.7821
 3241SOL     OW21355   0.580   4.719   1.900 -0.2420 -0.1847  0.3930
 3241SOL    HW121356   0.649   0.048   1.891 -1.0519  0.2510 -2.6059
 3241SOL    HW221357   0.526   0.035   1.959  0.1640  2.7538 -1.8309
 3242SOL     OW21358   1.658   4.541  16.075  0.3781 -0.2319  0.3563
 3242SOL    HW121359   1.721   4.579  16.136  0.4552  1.0810 -0.5518
 3242SOL    HW221360   1.717   4.517  16.004  1.6335  2.7521  0.3984
 3243SOL     OW21361   0.667   2.367  14.959 -0.2942 -0.4826  0.0221
 3243SOL    HW121362   0.688   2.367  15.053 -1.6723  0.4077  0.3266
 3243SOL    HW221363   0.586   2.319  14.979 -0.7472  0.2056 -0.1923
 3244SOL     OW21364   2.679   3.424  13.139  0.0717 -0.1207  0.3470
 3244SOL    HW121365   2.744   3.374  13.088 -0.9109 -1.7669  0.6935
 3244SOL    HW221366   2.596   3.389  13.108  0.0248 -1.3510  1.8933
 3245SOL     OW21367   1.883   0.458   4.895 -0.5790  0.0768  0.4820
 3245SOL    HW121368   1.886   0.540   4.945 -0.7992  0.7443 -0.5937
 3245SOL    HW221369   1.840   0.480   4.812 -0.3966  0.2231  0.4256
 3246SOL     OW21370   1.855   2.987  14.303  0.3261 -0.1667 -0.4357
 3246SOL    HW121371   1.888   2.935  14.230  2.6278  0.6097  0.0757
 3246SOL    HW221372   1.932   3.036  14.331  0.5289 -0.8965  0.3031
 3247SOL     OW21373   4.706   0.601   5.081 -0.0493  0.5977  0.3043
 3247SOL    HW121374   0.012   0.549   5.149  0.1013  0.5956  0.2094
 3247SOL    HW221375   4.685   0.682   5.127  0.1981  1.1883 -0.6154
 3248SOL     OW21376   4.646   0.997   2.955  0.1789  0.3162  0.1127
 3248SOL    HW121377   4.645   1.084   2.916 -3.2007 -1.0859 -2.9625
 3248SOL    HW221378   0.002   0.991   2.981  0.1294 -3.0253 -0.4902
 3249SOL     OW21379   2.098   0.304  13.246  0.4686 -0.4966  0.1801
 3249SOL    HW121380   2.146   0.376  13.205  0.0378 -1.3152 -1.7977
 3249SOL    HW221381   2.086   0.348  13.330  1.6696 -0.3583  0.2760
 3250SOL     OW21382   0.984   2.093  16.628 -0.0777 -0.1300 -0.2042
 3250SOL    HW121383   0.945   2.044  16.557  0.0104  1.2565 -1.1978
 3250SOL    HW221384   0.902   2.134  16.656  0.1142  1.5592 -2.1260
 3251SOL     OW21385   4.196   0.381  10.430  0.2726 -0.3873  0.3524
 3251SOL    HW121386   4.290   0.373  10.414  0.1360  0.0693 -0.6233
 3251SOL    HW221387   4.168   0.289  10.425 -1.2230  0.0285  1.1770
 3252SOL     OW21388   1.764   1.434   9.055  0.1070 -0.4228  0.4163
 3252SOL    HW121389   1.771   1.387   8.972  0.5628 -0.4910  0.4955
 3252SOL    HW221390   1.840   1.492   9.050 -0.4876  0.1607 -1.6901
 3253SOL     OW21391   2.089   0.616   0.806  0.0865 -0.4809  0.6448
 3253SOL    HW121392   2.116   0.552   0.741  0.6157  1.9422 -1.5376
 3253SOL    HW221393   2.113   0.693   0.754 -0.8248 -0.5416  0.1398
 3254SOL     OW21394   3.699   1.709   4.938 -0.3040 -0.8069  0.3855
 3254SOL    HW121395   3.648   1.643   4.984 -1.8831  0.7970  0.9403
 3254SOL    HW221396   3.647   1.785   4.966 -2.8647 -1.9208 -1.3551
 3255SOL     OW21397   4.431   3.437   5.841  0.5003  0.3595  0.1964
 3255SOL    HW121398   4.414   3.495   5.767  0.2760  0.2981  0.2012
 3255SOL    HW221399   4.437   3.501   5.912 -0.8942 -0.2936  0.9181
 3256SOL     OW21400   3.337   2.642   8.518  0.7051  0.6485  0.3436
 3256SOL    HW121401   3.293   2.590   8.450  0.2728  0.0480  1.0785
 3256SOL    HW221402   3.361   2.579   8.587  0.2758 -0.7441 -0.7704
 3257SOL     OW21403   3.779   3.431   1.452 -0.6304 -0.0835 -0.3888
 3257SOL    HW121404   3.817   3.516   1.431 -1.1552  0.9842  2.8798
 3257SOL    HW221405   3.840   3.386   1.510 -0.6573  1.2018  0.6368
 3258SOL     OW21406   4.681   2.108   6.572  0.2724 -0.4053  0.0543
 3258SOL    HW121407   4.635   2.187   6.546  0.7050 -0.2921 -0.3478
 3258SOL    HW221408   4.652   2.044   6.507 -1.9904  0.0445  0.6324
 3259SOL     OW21409   1.944   3.882  10.687  0.3246  0.0991  0.3625
 3259SOL    HW121410   1.978   3.970  10.704 -0.2744  0.2234  0.8989
 3259SOL    HW221411   2.017   3.830  10.721  0.6846  1.0969  1.1069
 3260SOL     OW21412   3.067   3.851  14.741  0.0451  0.4252  0.3730
 3260SOL    HW121413   3.031   3.929  14.699  0.6565 -0.4011 -1.6749
 3260SOL    HW221414   3.001   3.783  14.723  1.2671 -1.0943  1.6070
 3261SOL     OW21415   1.332   0.799   5.423  0.4606 -0.0691  0.0138
 3261SOL    HW121416   1.409   0.768   5.471 -0.1547 -0.1349  0.9658
 3261SOL    HW221417   1.309   0.882   5.465 -1.4080 -1.4948  1.8261
 3262SOL     OW21418   0.684   0.812   7.464 -0.5918 -0.5421  0.3060
 3262SOL    HW121419   0.694   0.717   7.465 -3.9204 -0.8845 -0.8767
 3262SOL    HW221420   0.669   0.840   7.554 -1.8563  1.4257 -0.5172
 3263SOL     OW21421   3.256   4.109  10.792 -0.1010  0.0542  0.6048
 3263SOL    HW121422   3.264   4.204  10.804  0.6026  0.3572 -2.4900
 3263SOL    HW221423   3.296   4.095  10.707 -0.5100  1.1297  0.2307
 3264SOL     OW21424   1.132   2.941  17.620  0.4407 -0.0602 -0.3463
 3264SOL    HW121425   1.160   3.003  17.687  1.8195 -0.1208 -0.8591
 3264SOL    HW221426   1.167   2.967  17.535  1.3252 -0.6790 -0.1586
 3265SOL     OW21427   4.190   2.261   8.021 -0.1782  0.1266  1.0755
 3265SOL    HW121428   4.260   2.195   8.023 -1.1387 -0.9305  0.1282
 3265SOL    HW221429   4.230   2.341   7.988 -1.5862  1.0661  1.6320
 3266SOL     OW21430   4.543   3.967  16.888  0.2518  0.0197 -0.7642
 3266SOL    HW121431   4.557   4.026  16.814 -2.2193  1.2355 -0.2700
 3266SOL    HW221432   4.452   3.941  16.877 -0.0518  0.6639  0.1985
 3267SOL     OW21433   3.884   0.741  11.101  0.5987  0.2186 -0.1686
 3267SOL    HW121434   3.901   0.736  11.195  0.0955 -1.7766 -0.1891
 3267SOL    HW221435   3.967   0.769  11.063  1.3098 -0.0675  1.1955
 3268SOL     OW21436   0.815   2.267  17.197 -0.2904 -0.7135  0.3647
 3268SOL    HW121437   0.883   2.300  17.137 -0.4160  1.7894  1.5795
 3268SOL    HW221438   0.781   2.196  17.142  1.0790 -2.0316  1.2501
 3269SOL     OW21439   1.603   0.412   8.288 -0.5171 -0.1933  0.3366
 3269SOL    HW121440   1.600   0.494   8.335  0.7089 -1.7662  3.1495
 3269SOL    HW221441   1.696   0.389   8.299 -0.4320  0.3969  0.7939
 3270SOL     OW21442   2.547   1.328   3.138  0.4443  0.4161 -0.5837
 3270SOL    HW121443   2.484   1.400   3.141 -0.6384 -0.5107 -0.9697
 3270SOL    HW221444   2.577   1.337   3.228  0.3382  0.6259 -0.5688
 3271SOL     OW21445   3.542   2.970  15.899  0.1544 -0.5322  0.1401
 3271SOL    HW121446   3.519   2.881  15.924  1.3119 -0.4073  1.6658
 3271SOL    HW221447   3.484   3.019  15.958 -0.2018 -1.2288  0.3622
 3272SOL     OW21448   2.623   0.323   2.869 -0.9097  0.2747  0.4206
 3272SOL    HW121449   2.566   0.301   2.796 -1.2148 -0.8941  1.0069
 3272SOL    HW221450   2.583   0.403   2.905  0.1302  0.6962  0.6341
 3273SOL     OW21451   3.321   3.614  13.899  0.1952 -0.6785  0.4817
 3273SOL    HW121452   3.363   3.685  13.850  0.4787 -1.7577 -0.8241
 3273SOL    HW221453   3.381   3.540  13.891  0.5504 -0.4601  1.1610
 3274SOL     OW21454   3.319   4.317  17.430 -0.4278  0.0824  0.4133
 3274SOL    HW121455   3.312   4.239  17.484  1.7244 -0.5964 -0.2910
 3274SOL    HW221456   3.397   4.298  17.377 -1.1461 -0.8327 -0.3206
 3275SOL     OW21457   0.351   1.242   9.490  0.1349 -0.0703 -0.2974
 3275SOL    HW121458   0.261   1.275   9.492  0.0799 -0.2403 -0.0658
 3275SOL    HW221459   0.401   1.313   9.530 -1.1210 -0.5936  2.1728
 3276SOL     OW21460   3.709   4.470   7.530  0.8230 -0.1517 -0.7129
 3276SOL    HW121461   3.623   4.429   7.518  0.2501  0.3174  1.9004
 3276SOL    HW221462   3.699   4.466   7.625  0.6518  0.1361 -0.7182
 3277SOL     OW21463   3.470   3.414   3.102 -0.5197  0.0148 -0.1131
 3277SOL    HW121464   3.405   3.393   3.034 -1.0454 -1.5858  0.8918
 3277SOL    HW221465   3.519   3.333   3.112  1.3349  1.3547  1.3966
 3278SOL     OW21466   0.449   2.218   3.446  0.1708 -0.0209  0.2133
 3278SOL    HW121467   0.539   2.186   3.435 -0.0382  0.5003 -2.9010
 3278SOL    HW221468   0.469   2.307   3.416  0.6564  0.5672  2.2714
 3279SOL     OW21469   0.688   4.622   4.909  0.4618 -0.1005  0.4043
 3279SOL    HW121470   0.605   4.659   4.877  0.9425 -1.4592 -2.3672
 3279SOL    HW221471   0.692   4.534   4.873 -0.9894  0.4478 -1.0951
 3280SOL     OW21472   3.315   3.217  16.955 -0.3619 -0.0369 -0.0936
 3280SOL    HW121473   3.229   3.180  16.973  0.3688 -1.7494 -0.1435
 3280SOL    HW221474   3.355   3.209  17.042  1.2279 -0.6567 -0.8918
 3281SOL     OW21475   0.132   2.737   7.358 -0.0209 -0.0429 -0.1029
 3281SOL    HW121476   0.211   2.769   7.401  1.1439 -4.6457  1.2178
 3281SOL    HW221477   0.098   2.818   7.320 -0.4206  0.6680  1.7752
 3282SOL     OW21478   4.119   1.159  16.210 -0.1884  0.3591 -0.0610
 3282SOL    HW121479   4.118   1.130  16.301 -2.7001  1.3200  0.2174
 3282SOL    HW221480   4.048   1.107  16.171 -1.7649  2.1790  0.4168
 3283SOL     OW21481   1.905   2.869  14.048 -0.0766 -0.4484 -0.2520
 3283SOL    HW121482   1.844   2.935  14.017 -1.3298 -0.9490  1.1230
 3283SOL    HW221483   1.979   2.877  13.989 -0.5783  0.5804 -0.7375
 3284SOL     OW21484   0.441   1.832   2.008 -0.5734 -0.0681  0.0098
 3284SOL    HW121485   0.352   1.797   2.005 -1.1006  1.1653  1.7704
 3284SOL    HW221486   0.489   1.810   1.928 -1.2467 -0.4027 -0.2974
 3285SOL     OW21487   1.362   2.387   9.116 -0.3782  0.0346 -0.5070
 3285SOL    HW121488   1.374   2.455   9.182 -0.9404  1.1070 -1.5122
 3285SOL    HW221489   1.270   2.367   9.137 -0.8547  2.0949 -0.6549
 3286SOL     OW21490   1.668   3.026   5.567 -0.0302  0.1837 -0.2646
 3286SOL    HW121491   1.585   3.073   5.558  0.1378  0.1072 -2.2178
 3286SOL    HW221492   1.634   2.955   5.622 -0.4399  0.3258 -0.3339
 3287SOL     OW21493   0.592   4.578  11.593  0.4132  0.4923  0.2810
 3287SOL    HW121494   0.679   4.582  11.634  0.7568  1.4765 -0.5503
 3287SOL    HW221495   0.542   4.586  11.674  0.2648 -2.5970  0.4902
 3288SOL     OW21496   3.156   2.728  12.714 -0.3143  0.1082 -0.4090
 3288SOL    HW121497   3.229   2.788  12.696 -0.3263  0.1985 -0.1581
 3288SOL    HW221498   3.080   2.781  12.689 -0.0971  1.0055  0.8168
 3289SOL     OW21499   3.003   3.785   7.906  0.2429 -0.0544 -0.4336
 3289SOL    HW121500   3.019   3.802   7.813 -0.9596  1.5281 -0.3423
 3289SOL    HW221501   3.030   3.865   7.950  0.2131 -0.5290  0.4361
 3290SOL     OW21502   2.522   1.096   8.389  0.1001  0.4867 -0.7146
 3290SOL    HW121503   2.490   1.112   8.477 -1.0914  2.2933 -1.4792
 3290SOL    HW221504   2.609   1.058   8.406  1.1642  2.7761 -1.0167
 3291SOL     OW21505   3.117   4.367   4.884 -0.0808 -0.0773  0.1788
 3291SOL    HW121506   3.080   4.280   4.898  1.4389 -0.6014  0.9561
 3291SOL    HW221507   3.155   4.392   4.969  0.5945  0.6647 -0.3359
 3292SOL     OW21508   3.546   0.338  12.210 -0.1651  0.0544  0.1723
 3292SOL    HW121509   3.534   0.308  12.300 -2.8658  0.0126 -0.1928
 3292SOL    HW221510   3.609   0.273  12.178 -0.7776 -0.7133  0.5373
 3293SOL     OW21511   3.396   2.722   6.077 -0.0963  0.0390 -0.1814
 3293SOL    HW121512   3.449   2.789   6.032 -0.6047  0.1604 -0.5876
 3293SOL    HW221513   3.325   2.709   6.015 -0.7904 -0.1087  0.6480
 3294SOL     OW21514   3.328   2.118   5.611 -0.2582  0.4979 -0.5719
 3294SOL    HW121515   3.355   2.180   5.543  0.3515  1.0788  0.1968
 3294SOL    HW221516   3.353   2.159   5.694  0.0764  2.0755 -1.4491
 3295SOL     OW21517   2.966   1.281   0.740  0.3322  0.2966  0.0392
 3295SOL    HW121518   2.910   1.306   0.814  1.4174  2.2415  0.2136
 3295SOL    HW221519   2.935   1.335   0.668 -1.2885 -1.8462 -0.8648
 3296SOL     OW21520   0.679   4.253  16.609 -0.1731 -0.4605 -0.2688
 3296SOL    HW121521   0.645   4.341  16.591  3.0024  0.9006  0.5110
 3296SOL    HW221522   0.772   4.274  16.606 -0.3543  0.5344  1.2903
 3297SOL     OW21523   0.753   2.606   7.916  0.2769 -0.7004 -0.4706
 3297SOL    HW121524   0.784   2.586   7.827 -1.5074  0.7546 -1.4151
 3297SOL    HW221525   0.663   2.632   7.896  1.2140  2.5944 -0.2757
 3298SOL     OW21526   3.440   2.543  16.198  0.2739 -0.0578 -0.3395
 3298SOL    HW121527   3.445   2.626  16.246  1.1261  0.2537 -0.9703
 3298SOL    HW221528   3.473   2.482  16.264 -1.6370 -1.5295 -0.7400
 3299SOL     OW21529   4.111   4.153   7.500  0.4306  0.1006 -0.1699
 3299SOL    HW121530   4.127   4.232   7.449 -0.4264  0.8638  0.7303
 3299SOL    HW221531   4.117   4.085   7.434  1.0028  0.0709 -0.0834
 3300SOL     OW21532   3.882   2.057   3.648 -0.6388 -0.3481 -0.0358
 3300SOL    HW121533   3.947   2.009   3.698  0.0248  1.6495  1.0324
 3300SOL    HW221534   3.820   1.987   3.629 -1.3036 -0.1300  1.3528
 3301SOL     OW21535   3.349   0.087  12.257 -0.0944 -0.2930  0.2929
 3301SOL    HW121536   3.389   0.025  12.317  0.1568  1.4187  1.8991
 3301SOL    HW221537   3.260   0.051  12.258 -0.5368  0.7952 -0.4817
 3302SOL     OW21538   1.880   2.524   5.137  0.0400 -0.4182  1.3097
 3302SOL    HW121539   1.896   2.603   5.188 -0.3082  0.7362 -0.3472
 3302SOL    HW221540   1.971   2.506   5.110 -0.0580  0.1064  0.6329
 3303SOL     OW21541   2.584   4.129   6.927  0.3722 -0.3187  0.4486
 3303SOL    HW121542   2.539   4.211   6.949 -3.0203 -1.9732 -0.4093
 3303SOL    HW221543   2.652   4.162   6.868  1.0384 -0.1792  1.2836
 3304SOL     OW21544   3.670   3.965  16.961  0.1274  0.1536  0.3117
 3304SOL    HW121545   3.700   3.997  17.046 -2.9627 -0.2128  1.5207
 3304SOL    HW221546   3.646   4.049  16.922 -0.4503 -0.5249 -0.7929
 3305SOL     OW21547   2.456   3.618   7.393 -0.4452  0.6226 -0.6891
 3305SOL    HW121548   2.471   3.525   7.409  0.0403  0.8720  0.3732
 3305SOL    HW221549   2.548   3.644   7.389 -1.0058  2.6246 -0.5608
 3306SOL     OW21550   2.558   0.875   7.199  0.5302  0.3556 -0.7880
 3306SOL    HW121551   2.637   0.829   7.171  1.2259  1.0460  0.0294
 3306SOL    HW221552   2.509   0.800   7.231  0.6944  1.4999  2.1406
 3307SOL     OW21553   0.004   4.568   8.008 -0.5919 -0.2947  0.0970
 3307SOL    HW121554   4.703   4.499   7.953 -1.1099 -0.5491  0.7646
 3307SOL    HW221555   0.093   4.570   7.975 -0.4978 -0.4242  0.3424
 3308SOL     OW21556   3.817   3.462   4.298  0.6390  0.2281 -0.0698
 3308SOL    HW121557   3.725   3.485   4.296  0.7203  0.6188  0.7297
 3308SOL    HW221558   3.828   3.394   4.233 -0.6509  0.7784 -0.8608
 3309SOL     OW21559   1.720   2.239  17.313  0.1677  0.2509 -0.3830
 3309SOL    HW121560   1.812   2.227  17.336  0.0398  0.1591  0.0795
 3309SOL    HW221561   1.726   2.323  17.267  1.2424  0.0461 -0.6227
 3310SOL     OW21562   2.765   0.459   6.022  0.1001 -0.4258 -0.0023
 3310SOL    HW121563   2.722   0.544   6.022  1.1751  0.1065  1.3086
 3310SOL    HW221564   2.858   0.478   6.035  0.0982  0.7939 -1.7356
 3311SOL     OW21565   3.689   2.946   3.499  0.3087 -0.4684  0.0775
 3311SOL    HW121566   3.730   2.991   3.572  1.4592 -0.6941 -0.4307
 3311SOL    HW221567   3.608   2.998   3.507  1.4157  1.3100 -0.2104
 3312SOL     OW21568   1.842   1.767   5.027  0.1633 -0.4356 -0.1046
 3312SOL    HW121569   1.829   1.858   5.000  1.8069 -0.9463 -2.5910
 3312SOL    HW221570   1.795   1.765   5.111  1.8000 -0.2947  0.8065
 3313SOL     OW21571   4.035   4.315  12.771 -0.3762  0.1698  0.2064
 3313SOL    HW121572   4.044   4.366  12.852  1.7916  0.9859 -0.5466
 3313SOL    HW221573   4.106   4.355  12.720 -0.5929 -0.8811 -0.9083
 3314SOL     OW21574   1.327   4.215   1.634  0.1649 -0.0771 -0.1109
 3314SOL    HW121575   1.298   4.225   1.543  0.3980  1.0625 -0.0663
 3314SOL    HW221576   1.246   4.195   1.680  0.3788  0.8477  0.6828
 3315SOL     OW21577   3.284   4.492   1.597  0.1331 -0.1511 -0.4463
 3315SOL    HW121578   3.211   4.552   1.613  0.7502  1.0464 -2.1033
 3315SOL    HW221579   3.345   4.538   1.654 -0.0582  1.1428 -1.2773
 3316SOL     OW21580   1.485   2.743   6.420 -0.5150  0.1189  0.3566
 3316SOL    HW121581   1.397   2.713   6.444 -0.2289 -0.7519  0.3199
 3316SOL    HW221582   1.517   2.659   6.388 -0.6514  0.3992 -0.5268
 3317SOL     OW21583   0.996   4.065   4.648  0.1608  0.2809 -0.3390
 3317SOL    HW121584   1.032   4.127   4.585 -1.3984  0.8844 -0.6265
 3317SOL    HW221585   1.061   4.069   4.719 -0.4666  0.6967  0.2105
 3318SOL     OW21586   2.220   4.466   5.458 -0.1918 -0.1051 -0.6377
 3318SOL    HW121587   2.211   4.372   5.449  0.2702 -0.1175 -0.9983
 3318SOL    HW221588   2.169   4.480   5.538  1.7938 -0.3785  0.6783
 3319SOL     OW21589   1.674   1.233   6.742 -0.0417 -0.0105  0.3402
 3319SOL    HW121590   1.757   1.248   6.697  0.2549 -0.4731  0.7229
 3319SOL    HW221591   1.709   1.199   6.824 -1.4004  1.1401  1.3814
 3320SOL     OW21592   0.239   3.236   1.828 -0.2612  0.9290 -0.1081
 3320SOL    HW121593   0.245   3.183   1.907  1.0701 -0.8450 -1.4121
 3320SOL    HW221594   0.302   3.307   1.841  0.1949  0.6516 -0.8150
 3321SOL     OW21595   0.284   1.957   0.307 -0.0767 -0.4520  0.1030
 3321SOL    HW121596   0.240   1.952   0.222 -2.0369 -0.7426  1.1353
 3321SOL    HW221597   0.352   2.024   0.293 -0.6246 -0.0467 -0.6265
 3322SOL     OW21598   0.376   1.651   6.212 -0.0813  0.0083  0.2270
 3322SOL    HW121599   0.455   1.601   6.234  1.8090  2.3581 -1.0989
 3322SOL    HW221600   0.394   1.739   6.244 -0.7566  0.5471 -0.8681
 3323SOL     OW21601   0.431   3.962  12.374  0.0459 -0.1882 -0.5744
 3323SOL    HW121602   0.438   4.057  12.384  0.1535 -0.4431  1.6654
 3323SOL    HW221603   0.427   3.940  12.467 -2.3725  1.0294 -0.3939
 3324SOL     OW21604   2.346   1.714   6.708  0.2233 -0.2606 -0.6836
 3324SOL    HW121605   2.272   1.752   6.755  0.5403  1.9566 -1.9281
 3324SOL    HW221606   2.296   1.656   6.650 -1.8743 -0.7687  1.6497
 3325SOL     OW21607   2.186   2.067  13.740 -0.1948 -0.1245  0.4413
 3325SOL    HW121608   2.268   2.072  13.691  0.3159 -1.0189  1.1910
 3325SOL    HW221609   2.201   1.997  13.804  1.7294 -0.5511 -0.4750
 3326SOL     OW21610   1.949   4.163   9.307  0.0916  0.3341  0.3244
 3326SOL    HW121611   1.999   4.171   9.225  0.9917 -0.2968  0.8188
 3326SOL    HW221612   1.925   4.071   9.300  0.1051  0.2831  0.9763
 3327SOL     OW21613   2.138   2.985   3.666  0.1991  0.1389 -0.1103
 3327SOL    HW121614   2.174   3.060   3.713 -1.0299  1.4118 -1.2049
 3327SOL    HW221615   2.193   2.918   3.707  0.3084 -0.6675 -1.5630
 3328SOL     OW21616   3.812   4.719  12.778  0.5945  0.1516 -0.1662
 3328SOL    HW121617   3.804   0.078  12.769 -2.5168 -0.0686  0.4706
 3328SOL    HW221618   3.860   4.695  12.698  3.8523  1.8163  1.2602
 3329SOL     OW21619   2.092   1.550   4.109  0.1732  0.2012  0.4735
 3329SOL    HW121620   1.996   1.550   4.100  0.4230  0.0589 -2.0866
 3329SOL    HW221621   2.109   1.629   4.058 -1.1484  0.2645  0.1082
 3330SOL     OW21622   0.409   0.138   1.319 -0.3259  0.3740  0.2722
 3330SOL    HW121623   0.453   0.100   1.243  1.0139  2.3728  0.0545
 3330SOL    HW221624   0.476   0.190   1.364  0.4728  0.0844 -0.5669
 3331SOL     OW21625   4.231   0.746   8.856  0.6522  0.1388 -0.0564
 3331SOL    HW121626   4.252   0.653   8.872  0.6330  0.5723  2.4922
 3331SOL    HW221627   4.159   0.762   8.917 -0.3302 -1.9386 -0.6827
 3332SOL     OW21628   3.927   4.191   9.856  0.0109 -0.4732  0.4071
 3332SOL    HW121629   3.880   4.271   9.880 -1.0162 -0.4286 -1.7704
 3332SOL    HW221630   3.902   4.131   9.926 -0.3769  1.7053  2.1038
 3333SOL     OW21631   4.642   1.195   5.444  0.3912  0.3141  0.4215
 3333SOL    HW121632   4.714   1.164   5.390  0.4530  1.7794 -0.3303
 3333SOL    HW221633   4.576   1.212   5.377 -0.2181 -1.4453  0.5682
 3334SOL     OW21634   0.494   2.646   8.660 -0.1537 -0.0277 -0.3884
 3334SOL    HW121635   0.546   2.704   8.716 -0.8110  1.4039 -1.2430
 3334SOL    HW221636   0.452   2.585   8.720 -2.2591  1.9374  0.1428
 3335SOL     OW21637   4.525   2.728   3.214  0.1598  0.0780 -0.3265
 3335SOL    HW121638   4.580   2.752   3.288  1.2351 -4.0467  0.2228
 3335SOL    HW221639   4.482   2.647   3.242  0.2191  0.4171  0.7180
 3336SOL     OW21640   0.544   4.600   6.264 -0.1577  0.0917  0.1242
 3336SOL    HW121641   0.472   4.651   6.228 -0.5828 -0.4610  0.2039
 3336SOL    HW221642   0.548   4.617   6.358  1.2339  2.1634 -0.3223
 3337SOL     OW21643   3.354   3.156   5.784  0.3280 -0.3023  0.1671
 3337SOL    HW121644   3.376   3.200   5.703 -2.0736  2.3755  0.9436
 3337SOL    HW221645   3.370   3.064   5.764  0.7336 -0.3270  0.6113
 3338SOL     OW21646   3.310   4.507   1.177  0.1075 -0.6678  0.1285
 3338SOL    HW121647   3.327   4.564   1.252 -0.5512 -1.0609  0.5768
 3338SOL    HW221648   3.251   4.436   1.200  1.3224 -2.3058 -1.7973
 3339SOL     OW21649   3.034   3.824   7.644  0.0202 -0.6383  0.3185
 3339SOL    HW121650   2.959   3.872   7.610  1.5797  1.7842  0.3083
 3339SOL    HW221651   3.066   3.766   7.575  0.7924  1.2593 -0.9261
 3340SOL     OW21652   1.892   1.314   7.586  0.0820  0.4460  0.0227
 3340SOL    HW121653   1.943   1.350   7.659  0.1309  0.2299  0.0945
 3340SOL    HW221654   1.943   1.235   7.567  1.8116  1.9080 -1.4722
 3341SOL     OW21655   0.696   3.861   2.373  0.4034  0.1623 -0.1722
 3341SOL    HW121656   0.738   3.870   2.459 -1.6489  2.1802  0.6200
 3341SOL    HW221657   0.626   3.803   2.403 -0.4560  0.5090 -1.5482
 3342SOL     OW21658   1.430   1.913  11.012 -0.6866 -0.1981 -0.4551
 3342SOL    HW121659   1.390   1.969  10.945  1.1909 -0.0519 -1.4505
 3342SOL    HW221660   1.429   1.831  10.962  0.9818 -0.2502 -0.4008
 3343SOL     OW21661   1.084   4.334   2.801 -0.1821  0.0996  0.7956
 3343SOL    HW121662   1.092   4.397   2.873  0.5946 -1.1275  1.7765
 3343SOL    HW221663   1.048   4.381   2.727 -1.2291  0.1040  1.3169
 3344SOL     OW21664   2.391   1.155   5.215 -0.6771 -0.2313  0.0875
 3344SOL    HW121665   2.441   1.229   5.183  1.9488 -2.6130 -1.3449
 3344SOL    HW221666   2.307   1.167   5.170 -1.6666  1.1077  2.3347
 3345SOL     OW21667   0.933   1.172   4.996  0.1813 -0.4408  0.7041
 3345SOL    HW121668   0.897   1.097   4.950  2.5863 -1.2519  0.1265
 3345SOL    HW221669   0.927   1.139   5.086  2.7836 -2.5655  0.0698
 3346SOL     OW21670   1.653   3.440  12.958 -0.3245 -0.2839  0.7597
 3346SOL    HW121671   1.613   3.353  12.955  1.6715 -1.1707  0.2481
 3346SOL    HW221672   1.737   3.398  12.972  0.9208  0.6992 -3.6912
 3347SOL     OW21673   0.653   0.887   1.905  0.2334  0.1962  0.3277
 3347SOL    HW121674   0.683   0.934   1.827  1.1983  2.6883  2.1882
 3347SOL    HW221675   0.645   0.958   1.969 -0.0345  1.1234 -0.7198
 3348SOL     OW21676   2.440   1.853   8.900 -0.2447  0.0936  0.3205
 3348SOL    HW121677   2.366   1.822   8.953 -0.0141  0.1769  0.6898
 3348SOL    HW221678   2.399   1.918   8.843  0.8778  1.2420  0.8217
 3349SOL     OW21679   3.452   4.096   4.385  0.2569  0.4508 -0.4597
 3349SOL    HW121680   3.461   4.146   4.304 -1.2144 -0.2770 -1.0674
 3349SOL    HW221681   3.369   4.050   4.372 -0.9123  2.1135  1.3096
 3350SOL     OW21682   0.143   3.399   4.469  0.1893 -0.2034 -0.0316
 3350SOL    HW121683   0.220   3.344   4.459 -0.0509 -0.2149 -1.7987
 3350SOL    HW221684   0.159   3.456   4.393  1.8989  1.0252  1.2445
 3351SOL     OW21685   2.748   1.119  13.878  0.1727 -0.0517  0.1460
 3351SOL    HW121686   2.732   1.134  13.971  0.4452  3.1453 -0.3195
 3351SOL    HW221687   2.697   1.038  13.868  0.7766 -0.6316  1.8052
 3352SOL     OW21688   1.510   1.035   6.156  0.1607  0.3121  0.1355
 3352SOL    HW121689   1.591   0.986   6.143  0.6395  1.0949  0.1570
 3352SOL    HW221690   1.466   0.991   6.229 -0.9938  0.6343 -0.3536
 3353SOL     OW21691   2.670   2.071  12.789  0.2666  0.7235 -0.5458
 3353SOL    HW121692   2.694   2.021  12.866 -2.0346  1.2112  0.4686
 3353SOL    HW221693   2.687   1.997  12.730 -2.1890 -0.6614  0.5114
 3354SOL     OW21694   0.374   1.616   9.565 -0.0006 -0.1595 -0.2261
 3354SOL    HW121695   0.411   1.548   9.622  1.4756 -1.1232 -2.3435
 3354SOL    HW221696   0.322   1.664   9.629 -1.8285 -0.3644 -1.5302
 3355SOL     OW21697   0.738   2.789   0.383  0.1702 -0.0827  0.4473
 3355SOL    HW121698   0.702   2.840   0.456 -1.7518 -0.6456 -0.1045
 3355SOL    HW221699   0.832   2.796   0.399 -0.2733  3.3067  1.5044
 3356SOL     OW21700   4.241   1.304  17.683 -0.5153 -0.1898 -0.3150
 3356SOL    HW121701   4.256   1.210  17.677 -1.0087 -0.3599  1.0208
 3356SOL    HW221702   4.316   1.327  17.738 -0.1414 -0.2445 -0.8108
 3357SOL     OW21703   3.712   1.025   5.782 -0.3194 -0.1289 -0.0314
 3357SOL    HW121704   3.634   0.992   5.827 -0.8813  1.5104  0.2082
 3357SOL    HW221705   3.705   0.972   5.703  1.0876 -1.8646  0.9957
 3358SOL     OW21706   2.004   3.350   4.396 -0.2107 -0.1236 -0.3854
 3358SOL    HW121707   2.042   3.295   4.464  0.7085  0.2132 -0.6354
 3358SOL    HW221708   2.014   3.435   4.440 -0.6970 -0.7442  0.9462
 3359SOL     OW21709   1.462   0.710   8.006 -0.1709 -0.1505  0.3670
 3359SOL    HW121710   1.463   0.723   7.911 -0.3595 -0.2603  0.3502
 3359SOL    HW221711   1.484   0.617   8.013  2.5480  0.6176  2.1171
 3360SOL     OW21712   2.394   2.812  15.365  0.5320  0.2995  0.1354
 3360SOL    HW121713   2.314   2.782  15.323 -0.5733  1.0028  1.7666
 3360SOL    HW221714   2.361   2.886  15.416 -2.2833 -0.1531 -1.0211
 3361SOL     OW21715   0.675   1.942  17.288  0.4585 -0.8563 -0.3645
 3361SOL    HW121716   0.668   1.954  17.193 -1.1625  1.3118  0.0175
 3361SOL    HW221717   0.769   1.948  17.307  0.3281 -1.3905  0.4261
 3362SOL     OW21718   2.960   2.414   7.186  0.1131 -0.0820 -0.0225
 3362SOL    HW121719   2.991   2.497   7.148 -1.6937  0.5085 -0.2028
 3362SOL    HW221720   3.006   2.348   7.134 -0.6098 -0.3964 -0.2664
 3363SOL     OW21721   0.359   2.025   8.167 -0.1759 -0.3376  0.5365
 3363SOL    HW121722   0.369   2.110   8.123 -2.6024 -0.1933  0.2606
 3363SOL    HW221723   0.447   1.996   8.191 -0.5119 -2.5848 -0.9925
 3364SOL     OW21724   4.610   0.858  10.233 -0.2845 -0.5682 -0.1329
 3364SOL    HW121725   4.549   0.932  10.230  0.2980 -0.0941 -0.3034
 3364SOL    HW221726   4.603   0.815  10.148  0.4200 -0.3654 -0.2974
 3365SOL     OW21727   4.108   3.458   7.586 -0.3720 -0.0771 -0.2989
 3365SOL    HW121728   4.107   3.553   7.577 -1.1684 -0.1922 -1.4317
 3365SOL    HW221729   4.090   3.429   7.496  0.6527 -1.6149 -0.0216
 3366SOL     OW21730   1.608   1.015   0.163 -0.2433  0.7903  0.5707
 3366SOL    HW121731   1.534   1.009   0.223 -0.8378  0.3620 -0.1972
 3366SOL    HW221732   1.640   1.100   0.193  0.9734  1.3141 -2.1903
 3367SOL     OW21733   3.734   1.372   4.465  0.0219  0.4321  0.8896
 3367SOL    HW121734   3.733   1.278   4.481 -0.4066  0.4306  0.8755
 3367SOL    HW221735   3.826   1.392   4.479  0.5924 -0.4401 -1.5989
 3368SOL     OW21736   3.720   4.577   4.727  0.6938 -0.0430 -0.3125
 3368SOL    HW121737   3.668   4.537   4.797  1.2202 -2.2703 -1.1992
 3368SOL    HW221738   3.713   4.511   4.658  0.9182 -0.8886  0.4731
 3369SOL     OW21739   2.986   0.454  13.724 -0.0273 -0.1867 -0.2154
 3369SOL    HW121740   2.899   0.431  13.755  0.2963 -0.0070  0.8454
 3369SOL    HW221741   3.011   0.371  13.682  0.0498  0.9865 -2.4585
 3370SOL     OW21742   0.597   1.851  11.026  0.3839 -0.6024  0.2267
 3370SOL    HW121743   0.645   1.851  11.109 -0.1635 -0.7015  0.5471
 3370SOL    HW221744   0.572   1.760  11.010 -0.9755 -0.4429  1.3980
 3371SOL     OW21745   3.095   1.146   9.158  0.5160 -0.1095  0.5957
 3371SOL    HW121746   3.078   1.237   9.184 -1.6434 -0.5196  0.6552
 3371SOL    HW221747   3.022   1.131   9.098  0.5535 -0.2787  0.5947
 3372SOL     OW21748   1.194   2.240   7.417  0.0509  0.5066  0.6025
 3372SOL    HW121749   1.109   2.279   7.398 -0.1909 -0.9345 -1.2446
 3372SOL    HW221750   1.241   2.323   7.428 -0.2957  0.3166  3.4716
 3373SOL     OW21751   1.784   4.537  14.234  0.1072  0.2738  0.2449
 3373SOL    HW121752   1.698   4.579  14.238 -0.7784 -1.7453  2.0842
 3373SOL    HW221753   1.835   4.608  14.194 -1.0127  0.0071 -1.6521
 3374SOL     OW21754   3.149   0.888   9.512 -0.1236 -0.0539 -0.1108
 3374SOL    HW121755   3.134   0.892   9.607 -0.0144  0.7466 -0.1355
 3374SOL    HW221756   3.241   0.915   9.507  0.2490 -1.3872 -0.4673
 3375SOL     OW21757   3.496   2.469   2.114  0.1394  0.0311 -0.4501
 3375SOL    HW121758   3.470   2.476   2.023 -1.0594  3.6376  0.1500
 3375SOL    HW221759   3.586   2.440   2.097 -0.5136  0.0662 -3.9291
 3376SOL     OW21760   4.714   3.008   6.872 -0.0157 -0.0032 -0.0832
 3376SOL    HW121761   4.703   3.064   6.949 -0.4571 -0.8016  0.4378
 3376SOL    HW221762   0.010   2.925   6.908  0.3298 -0.2427 -0.9475
 3377SOL     OW21763   4.620   2.038  17.478  0.1434 -0.2488 -0.2487
 3377SOL    HW121764   4.646   2.089  17.555 -1.5196 -1.5882  1.2138
 3377SOL    HW221765   4.633   2.103  17.410  1.3937  1.7597  1.8859
 3378SOL     OW21766   3.036   3.154   7.612  0.5253 -0.3350 -0.0229
 3378SOL    HW121767   3.026   3.069   7.653  2.3672 -0.1763  0.7656
 3378SOL    HW221768   3.114   3.175   7.663  0.0169 -0.8333  0.9594
 3379SOL     OW21769   0.342   3.120   5.485  0.0464  0.5531  0.0696
 3379SOL    HW121770   0.395   3.146   5.409  2.0005  2.6662  2.1275
 3379SOL    HW221771   0.254   3.118   5.448 -0.4965 -2.7660  1.5845
 3380SOL     OW21772   4.695   3.807   0.051 -0.1103  1.1539  0.0942
 3380SOL    HW121773   0.002   3.879   0.006  2.3250 -1.5463 -1.9233
 3380SOL    HW221774   4.623   3.798  17.730  0.3812  0.9576 -0.4295
 3381SOL     OW21775   1.402   4.604   4.194 -0.1429 -0.3549 -0.0907
 3381SOL    HW121776   1.472   4.563   4.143 -1.3274 -0.1160 -1.8879
 3381SOL    HW221777   1.394   4.541   4.266 -0.8812  1.0917  1.0792
 3382SOL     OW21778   1.245   3.853   8.303  0.0530 -0.2523 -0.1671
 3382SOL    HW121779   1.194   3.889   8.376 -0.9425 -0.5389 -0.7161
 3382SOL    HW221780   1.321   3.911   8.299  0.6537 -1.1653 -1.6060
 3383SOL     OW21781   3.170   0.701   4.312 -0.2850  0.3106 -0.2666
 3383SOL    HW121782   3.239   0.648   4.352  0.1567  1.5206  0.5783
 3383SOL    HW221783   3.121   0.643   4.253 -0.2014 -1.7586  1.6874
 3384SOL     OW21784   3.417   0.942   7.319  0.2089 -0.0112  0.0019
 3384SOL    HW121785   3.489   0.931   7.381  1.4490  1.7748 -1.1065
 3384SOL    HW221786   3.392   1.027   7.354 -1.2478 -1.0247  1.3975
 3385SOL     OW21787   3.100   4.019  13.136  0.3402 -0.3068  0.7740
 3385SOL    HW121788   3.052   3.938  13.121  0.9462 -0.6600  0.7117
 3385SOL    HW221789   3.106   4.024  13.231  2.1901 -3.9622  0.8324
 3386SOL     OW21790   3.063   3.408   1.557 -0.8848 -0.2197  0.4700
 3386SOL    HW121791   2.969   3.421   1.549 -0.7963 -1.0106 -1.6646
 3386SOL    HW221792   3.094   3.493   1.590  1.1819 -1.2256  1.1538
 3387SOL     OW21793   2.465   4.006   8.756 -0.2611 -0.6073 -0.2535
 3387SOL    HW121794   2.520   4.081   8.732  0.5189 -1.1387 -0.1307
 3387SOL    HW221795   2.508   3.962   8.829 -0.9376 -0.9230 -0.0448
 3388SOL     OW21796   1.598   2.193   4.030  0.3226  0.1785  0.6634
 3388SOL    HW121797   1.606   2.288   4.030 -0.5998  0.2561  0.6024
 3388SOL    HW221798   1.511   2.184   4.070  0.3769  1.9119  1.1652
 3389SOL     OW21799   1.893   2.666   7.523  0.0804  0.7892  0.1997
 3389SOL    HW121800   1.820   2.648   7.582  0.2314 -0.3667  0.0373
 3389SOL    HW221801   1.915   2.751   7.561  0.0920  1.4752 -1.3370
 3390SOL     OW21802   0.868   0.435   8.909 -0.8502  0.5042  0.2521
 3390SOL    HW121803   0.939   0.481   8.865 -0.5784 -0.4741 -0.3459
 3390SOL    HW221804   0.888   0.341   8.908 -0.5474  0.6194 -2.4890
 3391SOL     OW21805   2.003   1.509  15.445  1.0004 -0.3603 -0.5729
 3391SOL    HW121806   2.065   1.523  15.517 -1.1758  1.6981  0.8757
 3391SOL    HW221807   1.997   1.598  15.411  0.8999  0.5195  1.7349
 3392SOL     OW21808   2.803   0.071  13.902 -0.0723  0.1897  0.9239
 3392SOL    HW121809   2.846   0.025  13.974  0.8741 -1.0615 -0.4374
 3392SOL    HW221810   2.827   0.033  13.817 -1.9122 -1.1029  0.9748
 3393SOL     OW21811   2.894   1.072   8.657  0.1219  0.4681 -0.5266
 3393SOL    HW121812   2.959   1.007   8.682  2.3128  3.0296  0.3787
 3393SOL    HW221813   2.868   1.039   8.571  1.4056  0.8236 -1.0486
 3394SOL     OW21814   4.234   1.167   5.354  0.2207  0.4488 -0.1065
 3394SOL    HW121815   4.239   1.125   5.440 -0.3098 -0.9417 -0.7596
 3394SOL    HW221816   4.143   1.197   5.354  1.0318  2.9027  1.3418
 3395SOL     OW21817   3.765   3.063   3.719  0.2960  0.2737 -0.1311
 3395SOL    HW121818   3.762   3.028   3.809 -2.2913 -0.0076 -0.3299
 3395SOL    HW221819   3.752   3.155   3.742  0.9644 -0.0374  1.4906
 3396SOL     OW21820   1.503   1.847  15.997  0.0474  0.2496  0.4944
 3396SOL    HW121821   1.471   1.841  16.087 -2.4663 -1.6937 -0.5311
 3396SOL    HW221822   1.479   1.936  15.973  0.4081  0.3179  0.3850
 3397SOL     OW21823   3.938   1.117   4.151 -0.0829 -0.3241  0.1347
 3397SOL    HW121824   3.864   1.158   4.105  0.3973  0.2490 -0.1296
 3397SOL    HW221825   3.925   1.023   4.146 -4.0929  0.2539 -0.1960
 3398SOL     OW21826   4.409   3.101   3.413 -0.2076  0.3289 -0.4420
 3398SOL    HW121827   4.376   3.035   3.474 -1.5486  2.2307  0.8780
 3398SOL    HW221828   4.384   3.184   3.455 -0.6401  1.1075 -2.2328
 3399SOL     OW21829   1.930   4.442  17.213 -0.1474  0.5312  0.3269
 3399SOL    HW121830   1.995   4.397  17.160 -0.2643 -1.2538  1.6966
 3399SOL    HW221831   1.939   4.380  17.286 -0.1431 -0.6958 -0.7118
 3400SOL     OW21832   0.197   4.711   4.950 -0.5705 -0.1618  0.2591
 3400SOL    HW121833   0.281   4.701   4.905 -0.5879  1.6760 -0.2036
 3400SOL    HW221834   0.144   0.005   4.876  0.2706 -0.5103 -0.4882
 3401SOL     OW21835   2.747   3.519  11.424  0.5353  0.3666  0.1159
 3401SOL    HW121836   2.652   3.510  11.429  0.8228 -1.3620  2.6879
 3401SOL    HW221837   2.779   3.485  11.508 -1.0090  1.8067  1.2727
 3402SOL     OW21838   4.282   1.403   6.311 -0.6408  0.9708 -0.0737
 3402SOL    HW121839   4.315   1.492   6.311 -2.6522  1.7124 -0.4535
 3402SOL    HW221840   4.193   1.430   6.336 -1.4367 -0.0124 -1.7971
 3403SOL     OW21841   3.411   1.726   7.667  0.0659  0.0839 -0.0630
 3403SOL    HW121842   3.400   1.645   7.718 -0.0419  0.8455  1.1130
 3403SOL    HW221843   3.430   1.692   7.579  0.9842 -0.2222  0.2536
 3404SOL     OW21844   4.103   4.568  14.965 -0.4911 -0.0021  0.5826
 3404SOL    HW121845   4.185   4.557  14.917  0.2437  3.1442  1.1706
 3404SOL    HW221846   4.121   4.515  15.043 -1.9956  0.8539  1.5148
 3405SOL     OW21847   2.586   2.446   2.047  0.1451  0.2909  0.8496
 3405SOL    HW121848   2.546   2.381   1.988 -0.8396  1.6962 -0.0467
 3405SOL    HW221849   2.513   2.507   2.061 -0.4770 -0.2642  0.0716
 3406SOL     OW21850   4.492   2.721   7.032 -0.2559  0.3323  0.0040
 3406SOL    HW121851   4.459   2.768   7.109 -0.7346 -1.3385  0.8078
 3406SOL    HW221852   4.433   2.764   6.970  1.5242  0.8172 -1.3327
 3407SOL     OW21853   4.425   1.276   4.263 -0.0287 -0.0262 -0.1285
 3407SOL    HW121854   4.385   1.190   4.251  2.4757 -0.6828 -3.7286
 3407SOL    HW221855   4.466   1.280   4.176  0.0867  0.1326 -0.0686
 3408SOL     OW21856   1.079   4.563  11.200  0.1244  0.2623 -0.2139
 3408SOL    HW121857   1.161   4.607  11.178 -0.6078  1.6790 -0.0901
 3408SOL    HW221858   1.074   4.587  11.292 -0.3024  0.0378 -0.1787
 3409SOL     OW21859   1.561   2.465   4.750 -0.2510 -0.4850 -0.1689
 3409SOL    HW121860   1.474   2.504   4.739  0.7692  1.3119 -1.7681
 3409SOL    HW221861   1.571   2.475   4.845  0.9260 -0.7597 -0.2624
 3410SOL     OW21862   1.282   3.103   7.249  0.1424  0.1337  0.3656
 3410SOL    HW121863   1.319   3.050   7.179 -1.8259  0.8163 -1.2007
 3410SOL    HW221864   1.356   3.124   7.306  2.1244 -3.1595 -1.0096
 3411SOL     OW21865   1.464   4.514  11.528 -0.4211  0.5820 -0.4479
 3411SOL    HW121866   1.427   4.568  11.597  0.0439 -0.0513  0.2988
 3411SOL    HW221867   1.554   4.546  11.535 -0.2364  0.0527 -0.3670
 3412SOL     OW21868   2.772   4.262   2.241  0.1472 -0.4507  0.3676
 3412SOL    HW121869   2.816   4.286   2.323 -1.5199  2.8431  0.3192
 3412SOL    HW221870   2.782   4.346   2.196 -0.5126 -0.6750 -0.1912
 3413SOL     OW21871   4.242   2.969   6.032  0.0657  0.4572 -0.2022
 3413SOL    HW121872   4.163   3.004   5.991  0.5822  2.7506  0.7597
 3413SOL    HW221873   4.307   3.026   5.992 -1.1993  1.6562 -0.5350
 3414SOL     OW21874   1.084   2.858   2.496  0.0455  0.1194  0.1398
 3414SOL    HW121875   1.132   2.825   2.420  0.0805 -0.9808  0.6421
 3414SOL    HW221876   1.121   2.801   2.563 -2.4900 -2.6876 -0.8438
 3415SOL     OW21877   2.568   3.020   7.752 -0.1050  0.7010  0.2893
 3415SOL    HW121878   2.659   2.999   7.730  0.3180  2.8286  0.0459
 3415SOL    HW221879   2.543   2.949   7.811 -0.9569  2.2240  1.7363
 3416SOL     OW21880   0.600   4.419  14.583 -0.1585 -0.0428 -0.5299
 3416SOL    HW121881   0.513   4.416  14.543 -0.1579  1.1912 -0.6275
 3416SOL    HW221882   0.622   4.328  14.605 -0.7794 -0.2481 -0.7523
 3417SOL     OW21883   0.374   0.441   6.517 -0.4269  0.1421 -0.0847
 3417SOL    HW121884   0.393   0.527   6.480 -0.8525  0.0428 -0.5444
 3417SOL    HW221885   0.458   0.426   6.560 -1.1477 -1.9603  0.6338
 3418SOL     OW21886   3.589   1.262   0.858 -0.1021 -0.2271 -0.5874
 3418SOL    HW121887   3.498   1.279   0.833 -0.1899  1.8776  1.1241
 3418SOL    HW221888   3.622   1.290   0.772 -0.4662 -2.8453 -1.5868
 3419SOL     OW21889   2.746   1.083  12.772 -0.5811 -0.2468 -0.7997
 3419SOL    HW121890   2.841   1.088  12.767 -0.4598 -1.3134  0.3242
 3419SOL    HW221891   2.719   1.058  12.683 -1.0632 -0.5428 -0.5714
 3420SOL     OW21892   1.140   0.933   3.631  0.0735  0.3743  0.1748
 3420SOL    HW121893   1.191   0.953   3.553 -1.0244 -0.2797 -0.7200
 3420SOL    HW221894   1.145   0.837   3.629  0.7029  0.4081  0.1767
 3421SOL     OW21895   4.278   3.597   1.784  0.2206 -0.1010 -0.0310
 3421SOL    HW121896   4.240   3.575   1.700 -0.5565  0.2371  0.2311
 3421SOL    HW221897   4.224   3.667   1.821  0.5382  1.8141 -3.1874
 3422SOL     OW21898   3.760   0.787   1.900  0.4141  0.1894  0.4770
 3422SOL    HW121899   3.826   0.787   1.830 -0.5105 -0.2339 -0.3986
 3422SOL    HW221900   3.717   0.872   1.898 -0.4411 -0.2174  2.0981
 3423SOL     OW21901   0.853   4.265  17.603  0.1588 -0.2232  0.5196
 3423SOL    HW121902   0.852   4.335  17.538 -0.2299 -0.2857  0.4584
 3423SOL    HW221903   0.824   4.190  17.551 -2.7057  2.0335 -1.1719
 3424SOL     OW21904   4.118   2.369  16.430 -0.2456 -0.1557 -0.2735
 3424SOL    HW121905   4.176   2.304  16.468  1.2401  1.6793  0.5839
 3424SOL    HW221906   4.171   2.439  16.392  1.3702 -2.2187 -1.7811
 3425SOL     OW21907   0.825   4.491   9.664  0.2347 -0.2137  0.6885
 3425SOL    HW121908   0.744   4.533   9.637  0.0377 -0.1719  1.3485
 3425SOL    HW221909   0.857   4.456   9.580  2.1425 -1.5744  1.9855
 3426SOL     OW21910   3.204   2.161  13.321  0.2691  0.6050  0.2498
 3426SOL    HW121911   3.233   2.149  13.412  1.4231 -0.5384 -0.2677
 3426SOL    HW221912   3.272   2.222  13.292  0.7867 -0.6320 -1.1340
 3427SOL     OW21913   2.167   3.170   4.646  0.5646 -0.0987 -0.9857
 3427SOL    HW121914   2.206   3.202   4.728 -0.9030 -1.7999  0.3886
 3427SOL    HW221915   2.225   3.093   4.645  0.5890 -0.1383  1.2871
 3428SOL     OW21916   4.465   4.126   6.869  0.0496 -0.1604 -0.0970
 3428SOL    HW121917   4.512   4.195   6.822 -1.5542  1.1907  0.2605
 3428SOL    HW221918   4.502   4.038   6.859  0.8395  0.0217  1.2389
 3429SOL     OW21919   3.562   1.398   8.476  0.3213  0.2913 -0.0807
 3429SOL    HW121920   3.628   1.450   8.429  0.2955 -0.4683 -0.9432
 3429SOL    HW221921   3.570   1.315   8.430  2.4719  0.3375  0.2234
 3430SOL     OW21922   0.263   2.828   6.429 -0.8152 -0.3849 -0.1431
 3430SOL    HW121923   0.234   2.792   6.512 -0.9793 -0.7277 -0.3509
 3430SOL    HW221924   0.256   2.921   6.450  2.3144  0.2644 -1.8539
 3431SOL     OW21925   0.284   2.589   8.461  0.3823  0.0703  0.0873
 3431SOL    HW121926   0.212   2.649   8.483 -0.2253 -0.7106  0.2267
 3431SOL    HW221927   0.358   2.614   8.517  0.1740 -0.3532  0.5513
 3432SOL     OW21928   3.133   2.338  10.784 -0.5790 -0.3379 -0.1971
 3432SOL    HW121929   3.193   2.278  10.828 -0.0321 -1.3248 -2.2848
 3432SOL    HW221930   3.060   2.356  10.844  0.8675 -2.2778  2.1325
 3433SOL     OW21931   1.682   1.697   8.810 -0.3790  0.0329 -0.1933
 3433SOL    HW121932   1.681   1.605   8.785  1.0999  0.8459 -3.3737
 3433SOL    HW221933   1.671   1.743   8.726 -0.5653  0.7341  0.2184
 3434SOL     OW21934   0.832   4.531   8.056 -0.2848 -1.2357 -0.1072
 3434SOL    HW121935   0.899   4.530   7.987  1.0980  2.8686  1.2208
 3434SOL    HW221936   0.867   4.580   8.130 -0.8928 -0.1431 -0.5434
 3435SOL     OW21937   3.805   2.840   7.613  0.1397 -0.1392  0.0745
 3435SOL    HW121938   3.891   2.797   7.618 -0.0842 -0.8277 -1.7522
 3435SOL    HW221939   3.830   2.925   7.577 -1.7490 -0.1997 -1.3740
 3436SOL     OW21940   2.199   4.141   3.971 -0.1319  0.0987 -0.3551
 3436SOL    HW121941   2.147   4.065   3.999  0.0273  0.1244  0.0040
 3436SOL    HW221942   2.288   4.107   3.978 -0.4650 -0.1495  2.7081
 3437SOL     OW21943   3.678   4.028   8.323 -0.0735  0.7295  0.1289
 3437SOL    HW121944   3.650   4.082   8.249  1.6713 -1.8101 -2.4258
 3437SOL    HW221945   3.737   3.965   8.280 -2.0936  0.4330 -2.1684
 3438SOL     OW21946   2.551   2.300  11.459 -0.0659  0.2507 -0.0937
 3438SOL    HW121947   2.583   2.388  11.438  0.7632 -0.2206 -0.8246
 3438SOL    HW221948   2.629   2.245  11.464 -0.2969  0.0270  0.9656
 3439SOL     OW21949   4.706   1.413   4.857  0.1843 -0.0113 -0.4605
 3439SOL    HW121950   0.057   1.375   4.847  0.5548  0.7750 -0.1477
 3439SOL    HW221951   4.652   1.340   4.825 -0.8750  0.3115  0.5658
 3440SOL     OW21952   1.119   1.977   7.425  0.0709 -0.1183  0.3529
 3440SOL    HW121953   1.154   2.066   7.422 -1.2570  0.3253 -2.2200
 3440SOL    HW221954   1.033   1.992   7.462 -0.8205  1.4302 -2.3229
 3441SOL     OW21955   0.880   0.071   5.364  0.3521  0.4123  0.0946
 3441SOL    HW121956   0.961   0.069   5.416  1.7206 -4.2347 -2.1832
 3441SOL    HW221957   0.900   0.001   5.301  0.5739 -0.3005  0.9464
 3442SOL     OW21958   3.489   4.427  12.388 -0.0433  0.4261 -0.5276
 3442SOL    HW121959   3.562   4.462  12.438  1.3494 -2.4494 -0.5380
 3442SOL    HW221960   3.520   4.463  12.305  0.2425  0.9390 -0.2014
 3443SOL     OW21961   2.044   0.644   8.488 -0.2058  0.0979  0.1312
 3443SOL    HW121962   2.006   0.558   8.505  0.3220 -0.7584 -3.0365
 3443SOL    HW221963   1.989   0.664   8.413 -0.4630 -1.9484 -0.2305
 3444SOL     OW21964   0.298   4.608   8.713  0.4079 -0.5719  0.1554
 3444SOL    HW121965   0.348   4.614   8.795  0.9495 -0.3767 -0.1894
 3444SOL    HW221966   0.233   4.666   8.751  0.2839 -1.1227  0.7806
 3445SOL     OW21967   3.931   1.435  12.769  0.1296 -0.0672 -0.6929
 3445SOL    HW121968   3.941   1.504  12.705 -0.6098  0.1647 -0.5635
 3445SOL    HW221969   4.012   1.440  12.819  0.8563  1.5902 -2.0676
 3446SOL     OW21970   2.336   1.024   6.417 -0.1887 -0.1819 -0.5880
 3446SOL    HW121971   2.427   1.006   6.444  0.4481  2.0678 -1.2322
 3446SOL    HW221972   2.302   1.087   6.481  1.5561  0.4205 -0.2481
 3447SOL     OW21973   3.015   3.568   4.113 -0.0563  0.1607 -0.4496
 3447SOL    HW121974   3.005   3.599   4.203  0.8557  0.3114 -0.3978
 3447SOL    HW221975   3.010   3.475   4.136  0.1455 -0.1851 -1.8129
 3448SOL     OW21976   3.825   2.112  16.661  0.1635  0.1941  0.0438
 3448SOL    HW121977   3.881   2.075  16.729  0.2585 -0.3916 -0.3538
 3448SOL    HW221978   3.863   2.075  16.580  0.3662 -0.5744  0.4852
 3449SOL     OW21979   1.365   3.030  17.415  0.1699 -0.3112 -0.8937
 3449SOL    HW121980   1.307   3.031  17.339  1.0114  2.6777 -1.4707
 3449SOL    HW221981   1.382   3.124  17.417  1.8720 -0.6492  0.6102
 3450SOL     OW21982   2.562   1.886   4.561 -0.6456 -0.0314  0.1177
 3450SOL    HW121983   2.640   1.832   4.572 -0.4005  0.2341 -0.2964
 3450SOL    HW221984   2.534   1.878   4.652  1.6575 -2.6549  0.5695
 3451SOL     OW21985   2.128   2.452   3.166 -0.3142  0.1474 -0.2600
 3451SOL    HW121986   2.074   2.504   3.226  0.0702  0.4877 -0.2072
 3451SOL    HW221987   2.092   2.364   3.177  0.6157  0.0193  1.7343
 3452SOL     OW21988   2.164   2.847   7.679  0.0959  0.3285 -0.5000
 3452SOL    HW121989   2.233   2.900   7.639  1.7649  0.7230  2.8511
 3452SOL    HW221990   2.087   2.881   7.634 -0.1711  0.0845 -0.2307
 3453SOL     OW21991   0.371   4.317   7.553 -0.3610  0.0577 -0.3380
 3453SOL    HW121992   0.431   4.392   7.558 -1.2708  0.5951  3.1162
 3453SOL    HW221993   0.400   4.275   7.634  0.5432 -0.8198 -1.1347
 3454SOL     OW21994   1.379   1.808   2.216  0.2230 -0.3146  0.4023
 3454SOL    HW121995   1.458   1.862   2.207 -0.0939 -0.0376 -0.6298
 3454SOL    HW221996   1.407   1.744   2.281  0.3932  0.7030  1.3457
 3455SOL     OW21997   0.420   4.611   8.209  0.1329 -0.3688  0.1427
 3455SOL    HW121998   0.338   4.657   8.191  0.5603 -0.8409 -3.0290
 3455SOL    HW221999   0.435   4.645   8.297  0.5183  0.3395 -0.1992
 3456SOL     OW22000   2.621   4.164   5.973 -0.0186  0.0192  0.5286
 3456SOL    HW122001   2.552   4.176   5.908  1.0639  0.4508 -0.5528
 3456SOL    HW222002   2.604   4.246   6.020  1.4475 -0.5772  2.1002
 3457SOL     OW22003   1.204   4.311   6.248  0.1320  0.3138  0.0785
 3457SOL    HW122004   1.131   4.312   6.186 -1.2743 -1.6176  1.7018
 3457SOL    HW222005   1.187   4.229   6.295  1.9251 -0.0157  0.1404
 3458SOL     OW22006   1.360   4.455   5.433  0.4052  0.5357 -0.5835
 3458SOL    HW122007   1.302   4.462   5.357 -0.1871  2.5936  0.0538
 3458SOL    HW222008   1.430   4.416   5.381  0.9147  0.6257  0.0436
 3459SOL     OW22009   0.552   3.465  14.944  0.0422 -0.2903 -0.5855
 3459SOL    HW122010   0.490   3.498  15.009 -1.2050  0.3659 -2.1268
 3459SOL    HW222011   0.571   3.379  14.981  4.1673  0.6023 -0.5822
 3460SOL     OW22012   1.817   1.458   6.023 -0.6868 -0.3741 -0.0513
 3460SOL    HW122013   1.900   1.479   6.066 -0.1781  1.4190 -1.8953
 3460SOL    HW222014   1.843   1.467   5.931  0.5403  1.7447  0.4802
 3461SOL     OW22015   1.043   3.741   7.949 -0.1595 -0.1903  0.3820
 3461SOL    HW122016   0.954   3.754   7.917  0.7135 -0.4980 -2.1860
 3461SOL    HW222017   1.066   3.832   7.967  1.3072 -0.0795 -2.0805
 3462SOL     OW22018   1.197   0.184   4.487 -0.0609  0.5803  0.1145
 3462SOL    HW122019   1.156   0.138   4.414 -3.1204  0.0742  2.1433
 3462SOL    HW222020   1.177   0.128   4.562  4.4398  0.0764  0.9172
 3463SOL     OW22021   2.945   1.071   8.244 -0.1224  0.5545 -0.8096
 3463SOL    HW122022   2.928   0.997   8.186  0.3633  1.2034 -1.7670
 3463SOL    HW222023   2.960   1.144   8.184 -1.9505  0.7919 -0.9750
 3464SOL     OW22024   2.218   2.258   4.612 -0.0613  0.1417 -0.0808
 3464SOL    HW122025   2.145   2.312   4.641  0.1470  0.6070 -0.4322
 3464SOL    HW222026   2.288   2.298   4.663 -0.0824  2.3132 -1.7468
 3465SOL     OW22027   3.475   3.672   2.543 -0.3700 -0.0412 -0.0918
 3465SOL    HW122028   3.492   3.670   2.637 -0.1501 -0.1060 -0.1339
 3465SOL    HW222029   3.557   3.714   2.517 -1.5359  2.1781 -0.2174
 3466SOL     OW22030   1.585   0.055  13.543  0.2882 -0.2565  0.6077
 3466SOL    HW122031   1.652   0.117  13.573  1.2610 -0.7535 -0.5763
 3466SOL    HW222032   1.550   0.105  13.470 -0.4539 -0.4848  0.8014
 3467SOL     OW22033   4.116   4.456   1.258 -0.3127  0.4778 -0.0514
 3467SOL    HW122034   4.188   4.439   1.318 -0.7900 -0.9631  0.1069
 3467SOL    HW222035   4.099   4.365   1.235  2.7949 -0.7702  2.6682
 3468SOL     OW22036   3.215   4.659   3.347  0.0762 -0.0728 -0.2869
 3468SOL    HW122037   3.211   4.638   3.440 -1.3620 -2.4133 -0.8956
 3468SOL    HW222038   3.132   4.631   3.308 -0.2822  0.4745  0.0728
 3469SOL     OW22039   4.207   4.605   3.478  0.5456  0.2519  0.2167
 3469SOL    HW122040   4.273   4.669   3.503  3.9251 -3.1991  0.1548
 3469SOL    HW222041   4.250   4.573   3.399 -1.0138 -0.0995 -0.5018
 3470SOL     OW22042   4.600   4.589   5.056 -0.9972  0.0600  0.4128
 3470SOL    HW122043   4.632   4.581   5.146 -0.1126 -0.0111  0.0954
 3470SOL    HW222044   4.657   4.546   4.992 -0.0697  0.7297  0.7839
 3471SOL     OW22045   4.499   0.888   7.363 -0.3519 -0.4673  0.5856
 3471SOL    HW122046   4.524   0.972   7.402 -2.0322 -0.2603  1.2474
 3471SOL    HW222047   4.549   0.836   7.425 -0.3193 -1.4778 -0.3042
 3472SOL     OW22048   3.785   0.683  13.586 -0.4565  0.0434  0.0193
 3472SOL    HW122049   3.821   0.771  13.592 -1.4090  0.4725 -0.6121
 3472SOL    HW222050   3.772   0.675  13.492  1.0335 -0.2437 -0.1697
 3473SOL     OW22051   0.495   3.204   1.170 -0.2789 -0.9448 -0.2747
 3473SOL    HW122052   0.576   3.174   1.211 -0.3358 -0.5785  0.0975
 3473SOL    HW222053   0.460   3.268   1.231  1.1864  0.3858 -0.8164
 3474SOL     OW22054   1.085   4.594   2.963 -0.2280  0.2095 -0.4751
 3474SOL    HW122055   1.091   4.534   3.037  2.6321  1.2025  0.1059
 3474SOL    HW222056   0.994   4.621   2.959  0.1106  0.6061 -5.3724
 3475SOL     OW22057   3.172   3.929   8.098 -0.6897  0.0712 -0.5262
 3475SOL    HW122058   3.216   3.970   8.173  0.3117 -0.4898 -0.8031
 3475SOL    HW222059   3.237   3.861   8.082  0.2191  0.6008  0.8650
 3476SOL     OW22060   0.365   0.351   7.992 -0.2356 -0.1081 -0.4141
 3476SOL    HW122061   0.460   0.360   7.996  0.0154 -2.5180 -0.8299
 3476SOL    HW222062   0.342   0.435   7.954  0.1948  0.0563 -0.3130
 3477SOL     OW22063   1.735   4.611   2.976 -0.4035  0.0786  0.2841
 3477SOL    HW122064   1.708   4.671   3.046  1.5871  0.6960  0.5342
 3477SOL    HW222065   1.731   4.533   3.031 -0.5215 -0.3219 -0.3061
 3478SOL     OW22066   1.784   4.697  10.680  0.5117  0.0068 -0.5440
 3478SOL    HW122067   1.734   4.701  10.598 -1.4585  0.4890  0.6795
 3478SOL    HW222068   1.738   4.634  10.735  1.3766  0.2905  0.5067
 3479SOL     OW22069   2.343   3.605   7.073  0.1175 -0.0175  0.2549
 3479SOL    HW122070   2.423   3.558   7.097 -0.0350 -0.1400  0.5187
 3479SOL    HW222071   2.291   3.537   7.030 -0.5951  0.4717  0.3635
 3480SOL     OW22072   0.591   2.510   6.178 -0.1603  0.3335  0.1473
 3480SOL    HW122073   0.590   2.417   6.159  0.8828  0.7540 -1.9789
 3480SOL    HW222074   0.547   2.545   6.100 -1.8033  0.3507  1.0910
 3481SOL     OW22075   0.939   0.761   0.920 -0.3630 -0.8208  0.2714
 3481SOL    HW122076   1.008   0.704   0.886  0.0679  0.6525 -1.3371
 3481SOL    HW222077   0.979   0.846   0.902 -0.7188 -0.8217 -0.5307
 3482SOL     OW22078   3.602   2.222   1.521 -0.0577  0.0962 -0.0855
 3482SOL    HW122079   3.617   2.185   1.434  1.6932  0.7440 -0.0483
 3482SOL    HW222080   3.515   2.187   1.542  0.4899 -0.6576  0.9330
 3483SOL     OW22081   1.126   3.990  13.467 -0.0491 -0.4967 -0.0832
 3483SOL    HW122082   1.088   3.931  13.401 -0.7781 -0.0893 -0.0263
 3483SOL    HW222083   1.145   3.932  13.540  0.5876 -2.5154 -1.8369
 3484SOL     OW22084   4.236   4.542   6.793 -0.1059  0.1669  0.1749
 3484SOL    HW122085   4.222   4.598   6.717  0.4339  3.0388  2.2003
 3484SOL    HW222086   4.323   4.574   6.817  0.0837  1.2661 -2.0127
 3485SOL     OW22087   0.843   4.617  13.685 -0.2559 -0.4842  0.3958
 3485SOL    HW122088   0.835   4.533  13.640 -2.3580 -0.1626  0.1442
 3485SOL    HW222089   0.759   4.656  13.660 -0.4817  0.4555  2.6487
 3486SOL     OW22090   3.234   1.225   3.133  0.0679  0.3645 -0.1992
 3486SOL    HW122091   3.209   1.257   3.220  1.3441 -3.6101  1.6410
 3486SOL    HW222092   3.186   1.143   3.126  0.4139 -0.0011  1.6093
 3487SOL     OW22093   4.159   4.698  12.222 -0.7767 -0.0539 -0.4544
 3487SOL    HW122094   4.090   4.670  12.162 -0.8139 -1.8421  0.4025
 3487SOL    HW222095   4.164   4.610  12.262  2.3487 -0.1220 -0.9698
 3488SOL     OW22096   3.855   1.795   3.424 -0.1593 -0.3982  0.1434
 3488SOL    HW122097   3.934   1.785   3.370 -1.0606 -0.1194 -1.2330
 3488SOL    HW222098   3.794   1.748   3.367 -0.7148  3.2284 -2.2056
 3489SOL     OW22099   0.761   1.636   2.723  0.5272  0.3998  0.4449
 3489SOL    HW122100   0.677   1.679   2.740 -1.1283 -1.8375 -1.8575
 3489SOL    HW222101   0.740   1.543   2.710  2.4807  0.3692 -2.3783
 3490SOL     OW22102   1.091   3.492   7.855  0.2592  0.5323  0.0662
 3490SOL    HW122103   1.045   3.493   7.771  0.4033 -0.6616 -0.0385
 3490SOL    HW222104   1.066   3.578   7.887 -1.5585  0.1233 -0.2569
 3491SOL     OW22105   0.566   3.223   3.774 -0.0314 -0.0456 -0.5879
 3491SOL    HW122106   0.545   3.143   3.823  1.9190  0.4435  1.0515
 3491SOL    HW222107   0.480   3.247   3.741  0.1701  0.4937 -0.7109
 3492SOL     OW22108   1.346   2.211   2.762 -0.6304  0.0049  0.1400
 3492SOL    HW122109   1.352   2.147   2.833 -1.1042 -2.3028 -1.9326
 3492SOL    HW222110   1.267   2.248   2.801 -0.7604 -1.4853  1.2779
 3493SOL     OW22111   2.453   3.212   5.583 -0.3793  0.1063  0.4928
 3493SOL    HW122112   2.357   3.216   5.585 -0.4214  0.1639 -1.1319
 3493SOL    HW222113   2.477   3.286   5.639  1.0863 -0.6225  0.8008
 3494SOL     OW22114   0.916   0.028   7.450 -0.6161  0.3636  0.0949
 3494SOL    HW122115   0.878   0.052   7.365 -0.3856  4.1229  1.0269
 3494SOL    HW222116   1.005   0.004   7.424 -0.5549  2.0357 -1.2397
 3495SOL     OW22117   1.785   2.346  10.341  0.2623 -0.4368  0.3255
 3495SOL    HW122118   1.733   2.301  10.275  0.5299 -2.9744  1.8352
 3495SOL    HW222119   1.746   2.316  10.423  2.5891 -1.0945  1.1756
 3496SOL     OW22120   1.014   2.404  17.008  0.0692  1.1308  0.2438
 3496SOL    HW122121   1.061   2.459  17.070  1.1446  2.4117 -1.7044
 3496SOL    HW222122   0.998   2.465  16.935  0.7043  1.7473  0.6219
 3497SOL     OW22123   2.260   1.929   1.902  0.2628  0.6774 -0.1411
 3497SOL    HW122124   2.193   1.952   1.836 -1.2211 -1.0450  0.7587
 3497SOL    HW222125   2.334   1.924   1.842 -1.0430  0.6421 -1.7533
 3498SOL     OW22126   2.471   0.339   4.901  0.3166 -0.1614 -0.0853
 3498SOL    HW122127   2.379   0.365   4.907  0.2139 -0.7580  0.8927
 3498SOL    HW222128   2.495   0.352   4.993  2.9809  0.9558 -0.9588
 3499SOL     OW22129   2.762   3.267   7.080 -0.4177  0.1671 -0.3077
 3499SOL    HW122130   2.811   3.212   7.141 -1.5762 -2.2478 -1.5651
 3499SOL    HW222131   2.825   3.317   7.029 -0.2840 -1.2868 -1.5717
 3500SOL     OW22132   0.134   4.473  13.694 -0.5429  0.1971 -0.1469
 3500SOL    HW122133   0.042   4.464  13.670 -0.7162  0.6329  0.3354
 3500SOL    HW222134   0.136   4.563  13.728 -0.1165  0.3489 -0.5724
 3501SOL     OW22135   1.611   3.089   0.647  0.6328  0.9365  0.5568
 3501SOL    HW122136   1.664   3.012   0.670  0.9970  1.1027  0.2793
 3501SOL    HW222137   1.527   3.070   0.689  1.3025 -2.3870  0.3854
 3502SOL     OW22138   2.279   1.948  10.035  0.6828  0.3500 -0.0117
 3502SOL    HW122139   2.207   1.888  10.019 -0.9328  2.5456 -0.9022
 3502SOL    HW222140   2.341   1.910   9.973 -1.8243 -2.0303 -1.0425
 3503SOL     OW22141   3.082   4.685   1.585  0.7155 -0.6355 -0.1318
 3503SOL    HW122142   3.002   4.702   1.634 -0.0817  0.8609 -1.9203
 3503SOL    HW222143   3.117   0.035   1.558  1.0634 -0.3480  1.2424
 3504SOL     OW22144   3.737   4.731   5.122 -0.1383  0.4435 -0.3863
 3504SOL    HW122145   3.711   4.640   5.105 -0.1731  0.5125 -0.6912
 3504SOL    HW222146   3.818   0.019   5.078  0.8471 -1.2297  0.5183
 3505SOL     OW22147   2.036   3.477   5.167 -0.1425 -0.4750 -0.7429
 3505SOL    HW122148   2.042   3.557   5.219 -0.3864 -0.5359 -0.6213
 3505SOL    HW222149   1.945   3.480   5.139 -0.7566 -0.4049  1.2878
 3506SOL     OW22150   0.367   3.972  16.582 -0.2089 -0.6652 -0.0242
 3506SOL    HW122151   0.286   3.986  16.632 -0.2593 -0.1126 -0.2599
 3506SOL    HW222152   0.329   3.919  16.512  1.2052 -0.3365 -1.0411
 3507SOL     OW22153   0.071   3.485   1.949 -0.3962  0.0922  0.1316
 3507SOL    HW122154   4.726   3.516   1.989 -1.8456 -0.3860 -2.4811
 3507SOL    HW222155   0.095   3.415   2.011 -4.1543  0.8447  2.4350
 3508SOL     OW22156   0.529   0.721  10.162 -0.1657  0.3998 -0.1507
 3508SOL    HW122157   0.501   0.630  10.169 -0.3091  0.4544 -0.0044
 3508SOL    HW222158   0.529   0.746  10.254  0.3124 -1.8408  0.4486
 3509SOL     OW22159   2.332   0.827   0.555 -0.3906 -0.6503 -0.0830
 3509SOL    HW122160   2.359   0.776   0.631 -0.5632  0.8252  0.9527
 3509SOL    HW222161   2.245   0.860   0.573 -0.7827 -0.6423 -1.9177
 3510SOL     OW22162   3.680   1.124   7.331  0.5641 -0.3483 -0.3614
 3510SOL    HW122163   3.751   1.081   7.284  0.6475 -0.7565  0.1467
 3510SOL    HW222164   3.727   1.173   7.398  1.3508 -1.1586 -0.3189
 3511SOL     OW22165   1.423   3.840  10.752  0.1553 -0.5138 -0.0320
 3511SOL    HW122166   1.518   3.842  10.754  0.1169  1.7697 -0.6762
 3511SOL    HW222167   1.406   3.934  10.756  0.3902 -0.4201 -1.2081
 3512SOL     OW22168   4.508   3.481   0.891  0.2048  0.9608 -0.8129
 3512SOL    HW122169   4.434   3.436   0.851  1.0132 -0.9005 -0.1862
 3512SOL    HW222170   4.459   3.547   0.940 -0.0272  0.6441 -0.6242
 3513SOL     OW22171   2.298   2.754  13.569  0.1658 -0.0825 -0.1436
 3513SOL    HW122172   2.310   2.705  13.650 -0.3191  0.5010  0.2699
 3513SOL    HW222173   2.358   2.828  13.581 -0.6004  0.5921 -0.4942
 3514SOL     OW22174   1.373   0.445   9.477  0.3527  0.2647 -0.3283
 3514SOL    HW122175   1.340   0.516   9.532  1.4246  0.4593  0.0548
 3514SOL    HW222176   1.345   0.369   9.528 -1.2916  1.8227  1.0996
 3515SOL     OW22177   3.170   4.157   7.956 -0.2504 -0.1885  0.0233
 3515SOL    HW122178   3.159   4.126   7.866  2.1385 -0.4150 -0.1937
 3515SOL    HW222179   3.162   4.082   8.015  2.6493  0.4009  1.1749
 3516SOL     OW22180   1.507   3.990   4.980  0.0767  0.2331  0.2127
 3516SOL    HW122181   1.452   4.064   5.006 -0.2327 -0.0638  0.4069
 3516SOL    HW222182   1.503   3.983   4.885  1.6379  0.8311  0.0946
 3517SOL     OW22183   1.087   4.250   5.969 -0.1077  0.1708  0.5910
 3517SOL    HW122184   1.111   4.202   5.890 -1.3403 -0.1286  0.3943
 3517SOL    HW222185   1.066   4.331   5.923 -1.5687 -0.8961 -0.6560
 3518SOL     OW22186   0.439   3.586  12.562 -0.3641  0.1604 -0.1524
 3518SOL    HW122187   0.497   3.572  12.488  0.3326 -0.3251  0.4804
 3518SOL    HW222188   0.452   3.681  12.569 -2.2157  0.4028 -0.1325
 3519SOL     OW22189   0.643   1.101  12.697  0.2731  0.1726  0.4428
 3519SOL    HW122190   0.617   1.178  12.746 -0.6857 -0.6028  1.1629
 3519SOL    HW222191   0.626   1.032  12.762 -0.2415  0.1208  0.2528
 3520SOL     OW22192   1.911   2.545   1.985 -0.5581  0.6126  0.1073
 3520SOL    HW122193   1.910   2.568   1.892  2.3664 -1.4409 -0.4485
 3520SOL    HW222194   2.007   2.549   1.982 -0.5253 -0.9281 -0.7836
 3521SOL     OW22195   3.046   0.628   7.826  0.3380 -0.0062  0.1922
 3521SOL    HW122196   2.964   0.593   7.861 -0.3922  1.5680  0.0763
 3521SOL    HW222197   3.109   0.560   7.847  0.0499 -0.0356  0.9573
 3522SOL     OW22198   3.644   3.618   7.983 -0.4215  0.0407 -0.8944
 3522SOL    HW122199   3.679   3.554   8.044  1.8222  1.3509 -0.7919
 3522SOL    HW222200   3.713   3.615   7.917  0.5597 -0.6609  0.1657
 3523SOL     OW22201   2.462   1.215  13.830 -0.0314  0.9702 -0.0080
 3523SOL    HW122202   2.472   1.285  13.766  0.2791 -0.2446 -1.2918
 3523SOL    HW222203   2.506   1.138  13.793  1.1976  1.7809 -0.2631
 3524SOL     OW22204   0.781   2.358   1.303  0.1325 -0.3991 -0.1021
 3524SOL    HW122205   0.763   2.452   1.297 -2.4875 -1.0317 -1.8086
 3524SOL    HW222206   0.875   2.343   1.312  0.4317  2.1558  1.3415
 3525SOL     OW22207   0.510   1.562  11.029  0.4111  0.1993  0.7290
 3525SOL    HW122208   0.555   1.549  11.112 -0.7128 -2.6353  0.8867
 3525SOL    HW222209   0.547   1.498  10.968  1.6676 -0.3595  2.0959
 3526SOL     OW22210   0.084   4.594  14.672  0.3149 -0.3338  0.1248
 3526SOL    HW122211   0.173   4.621  14.654 -0.4721  1.1542 -1.4602
 3526SOL    HW222212   0.093   4.542  14.753 -0.2275 -3.4503 -1.8074
 3527SOL     OW22213   1.391   1.367   9.531 -0.0649  0.7772  0.1903
 3527SOL    HW122214   1.403   1.447   9.583 -0.6520  1.0272 -0.0608
 3527SOL    HW222215   1.297   1.355   9.548 -0.6878  2.7950 -1.9089
 3528SOL     OW22216   0.875   0.965   6.850  0.0017 -0.3176 -0.0907
 3528SOL    HW122217   0.954   0.933   6.808 -0.6752  0.3941 -1.8834
 3528SOL    HW222218   0.837   1.014   6.778 -0.5479 -1.0078 -0.2751
 3529SOL     OW22219   4.597   0.644   2.078 -0.1640  0.0725 -0.5402
 3529SOL    HW122220   4.586   0.632   1.983  1.1992 -2.3051 -0.3943
 3529SOL    HW222221   4.516   0.688   2.104  0.4471  0.9900 -0.2205
 3530SOL     OW22222   4.422   4.413   3.253 -0.3753  0.4378  0.2682
 3530SOL    HW122223   4.507   4.386   3.286 -1.0791 -0.8741  1.0269
 3530SOL    HW222224   4.355   4.355   3.290 -2.7650  0.8379 -3.4069
 3531SOL     OW22225   0.143   4.480   8.371 -0.3452  0.1463  0.1828
 3531SOL    HW122226   0.153   4.567   8.333 -2.4825  0.1262 -0.4513
 3531SOL    HW222227   0.153   4.419   8.298  1.5538  0.6167  0.0599
 3532SOL     OW22228   3.978   0.164   2.047 -0.0308 -0.4722 -0.1640
 3532SOL    HW122229   3.899   0.208   2.078  0.0955  1.8662 -3.1738
 3532SOL    HW222230   4.018   0.133   2.128 -0.3176 -0.1254  0.1114
 3533SOL     OW22231   0.286   1.036   7.560  0.1936 -0.2054  0.7457
 3533SOL    HW122232   0.243   0.963   7.516 -0.4025  0.3818  0.3723
 3533SOL    HW222233   0.208   1.071   7.603 -0.7157 -0.1111 -0.9807
 3534SOL     OW22234   2.188   0.726   4.352 -0.4808 -0.1922 -0.3811
 3534SOL    HW122235   2.100   0.724   4.316  0.3035 -2.7816 -2.1186
 3534SOL    HW222236   2.166   0.749   4.442 -0.1445  0.8186 -0.5483
 3535SOL     OW22237   0.349   1.049   6.114  0.1231 -0.3756  0.0582
 3535SOL    HW122238   0.280   1.008   6.062 -2.2068 -0.2519  3.0153
 3535SOL    HW222239   0.415   0.992   6.075  2.3049  0.7567  2.1050
 3536SOL     OW22240   3.167   3.262   8.134  0.2782 -0.5273  0.0409
 3536SOL    HW122241   3.121   3.275   8.051  2.2716  1.2839 -0.7674
 3536SOL    HW222242   3.142   3.170   8.137  0.6482 -0.5604  2.2877
 3537SOL     OW22243   3.497   1.742   1.130 -0.6599  0.2231  1.3188
 3537SOL    HW122244   3.517   1.711   1.042 -1.8121 -0.1649  1.1944
 3537SOL    HW222245   3.435   1.810   1.101  1.0175  0.5230 -1.5028
 3538SOL     OW22246   0.032   2.748  12.386  0.7303 -0.3664  0.0503
 3538SOL    HW122247   4.677   2.721  12.394  0.7740 -0.7255 -0.6422
 3538SOL    HW222248   0.083   2.672  12.416 -1.8513 -1.8329  0.6999
 3539SOL     OW22249   3.655   1.378   6.640  0.4910 -0.7504 -0.1438
 3539SOL    HW122250   3.588   1.434   6.678  1.6303  0.2211  0.4289
 3539SOL    HW222251   3.606   1.303   6.608 -0.6118  0.5167 -1.3813
 3540SOL     OW22252   4.291   0.040   1.354 -0.3855  0.2027 -0.7751
 3540SOL    HW122253   4.346   4.711   1.396 -2.3936 -0.6538  0.5395
 3540SOL    HW222254   4.347   0.065   1.281 -0.1758  2.2704  0.0767
 3541SOL     OW22255   2.601   2.953   2.359 -0.1661 -0.0773 -0.4656
 3541SOL    HW122256   2.688   2.951   2.398 -0.7965  0.0735  0.9644
 3541SOL    HW222257   2.568   2.865   2.345  1.8635 -0.8278 -0.4746
 3542SOL     OW22258   3.690   4.375   4.570  0.5314  0.6357  0.2398
 3542SOL    HW122259   3.618   4.411   4.517  0.8846 -0.4293 -0.9750
 3542SOL    HW222260   3.705   4.296   4.518  0.5435 -0.5256  2.0217
 3543SOL     OW22261   1.855   4.345   4.394  0.1899 -0.6995  0.1400
 3543SOL    HW122262   1.884   4.436   4.383 -1.7318 -0.0229  0.7051
 3543SOL    HW222263   1.929   4.301   4.353 -1.0928 -1.2684 -1.5728
 3544SOL     OW22264   2.098   4.212   4.282 -0.3605 -0.3360  0.8494
 3544SOL    HW122265   2.167   4.231   4.345  1.3258  0.2887 -1.1861
 3544SOL    HW222266   2.129   4.262   4.207 -0.6279  1.5481  1.9880
 3545SOL     OW22267   2.584   0.502   4.687  0.4117  0.1715 -0.5531
 3545SOL    HW122268   2.563   0.444   4.760  1.4920 -0.6371 -0.9076
 3545SOL    HW222269   2.671   0.541   4.696  0.3832  0.0262  0.3876
 3546SOL     OW22270   0.274   4.623   4.195 -0.7094  0.0507 -0.1978
 3546SOL    HW122271   0.318   4.634   4.111 -1.8289 -0.4588 -0.8516
 3546SOL    HW222272   0.289   4.534   4.228 -0.3789  0.8815  1.8953
 3547SOL     OW22273   2.719   2.998   1.862 -0.3417  0.1729 -0.7872
 3547SOL    HW122274   2.719   3.086   1.826 -0.8938  1.1331  1.5494
 3547SOL    HW222275   2.720   2.949   1.779  3.6207 -1.6460  0.3203
 3548SOL     OW22276   3.775   1.514   6.086  0.3985  0.2294  0.5895
 3548SOL    HW122277   3.823   1.433   6.069  2.2100  1.5329 -0.5435
 3548SOL    HW222278   3.840   1.577   6.116  1.0672  0.2060 -0.8114
 3549SOL     OW22279   0.666   0.459  10.029  0.3930  0.7443  0.2525
 3549SOL    HW122280   0.586   0.454  10.080  1.1509  0.0105  1.3552
 3549SOL    HW222281   0.662   0.375   9.983 -0.2284  0.2707  1.1615
 3550SOL     OW22282   0.548   2.429  15.350  0.0818 -0.6748  0.0665
 3550SOL    HW122283   0.598   2.448  15.430  0.2159  1.4812 -0.5116
 3550SOL    HW222284   0.625   2.414  15.294  1.4558 -1.4784  2.1740
 3551SOL     OW22285   1.821   2.323   6.542 -0.0990  0.3489 -0.0105
 3551SOL    HW122286   1.898   2.307   6.596 -0.4400  0.1909  0.4290
 3551SOL    HW222287   1.854   2.366   6.463  0.4271  1.5750  0.8803
 3552SOL     OW22288   3.470   1.773   1.398 -0.3218  0.2515  0.1432
 3552SOL    HW122289   3.505   1.769   1.309 -0.7168 -0.9202  0.0339
 3552SOL    HW222290   3.449   1.681   1.415  2.4627 -0.5252 -0.7385
 3553SOL     OW22291   4.672   1.594   1.218 -0.3342 -0.2203  0.1724
 3553SOL    HW122292   4.615   1.573   1.144  1.9712 -1.0314 -1.3481
 3553SOL    HW222293   4.613   1.630   1.285 -0.9722  0.3852 -0.7076
 3554SOL     OW22294   2.996   2.237   9.000 -0.1497 -0.5919 -0.0788
 3554SOL    HW122295   2.922   2.190   8.961  0.8802  0.6241 -3.4656
 3554SOL    HW222296   2.981   2.225   9.094 -0.3769  1.0202  0.0796
 3555SOL     OW22297   1.258   2.781   4.593  0.4067  0.1122  0.0396
 3555SOL    HW122298   1.196   2.809   4.526  0.0811 -3.3098 -1.0948
 3555SOL    HW222299   1.320   2.853   4.587  0.0270  0.2948 -1.5417
 3556SOL     OW22300   1.152   2.108   5.746 -0.0335 -0.4202  0.0174
 3556SOL    HW122301   1.093   2.183   5.739  1.4204  0.4931 -2.3330
 3556SOL    HW222302   1.217   2.135   5.810 -1.6753 -0.1113  1.5577
 3557SOL     OW22303   1.206   4.445   3.788  0.4051 -0.2554  0.4059
 3557SOL    HW122304   1.227   4.352   3.782 -1.0814 -0.6374  1.1880
 3557SOL    HW222305   1.292   4.472   3.820  1.1146 -0.9193 -0.9413
 3558SOL     OW22306   2.661   1.830  13.262  0.1900  0.3472 -0.3297
 3558SOL    HW122307   2.609   1.824  13.342  1.8827 -0.5659  0.6765
 3558SOL    HW222308   2.615   1.904  13.221 -1.3221 -0.6279 -0.3991
 3559SOL     OW22309   2.894   2.184   9.252 -0.2075 -0.4419  0.0698
 3559SOL    HW122310   2.926   2.110   9.304 -1.9094 -2.3967 -1.6658
 3559SOL    HW222311   2.855   2.246   9.313  1.1492  0.8361 -0.3675
 3560SOL     OW22312   1.932   0.823  14.780  0.0166 -0.0633 -0.2081
 3560SOL    HW122313   1.971   0.891  14.835 -2.3145  0.8084  0.3372
 3560SOL    HW222314   1.841   0.830  14.806  0.4449 -1.9202  1.8051
 3561SOL     OW22315   2.332   2.803   6.367 -0.0178 -0.7271 -0.4023
 3561SOL    HW122316   2.341   2.778   6.275 -2.5751 -0.5472 -0.6818
 3561SOL    HW222317   2.307   2.722   6.412 -0.3510 -1.4991 -1.9462
 3562SOL     OW22318   2.398   0.618   8.000 -0.3198  0.4114  0.0723
 3562SOL    HW122319   2.318   0.670   8.008 -0.4707 -0.1275  1.8958
 3562SOL    HW222320   2.450   0.688   7.960 -0.2876 -0.8319 -2.0606
 3563SOL     OW22321   1.947   3.969  13.528  0.3379 -0.7166  0.1461
 3563SOL    HW122322   1.872   4.003  13.479  0.3732  0.0744  0.6422
 3563SOL    HW222323   1.953   4.051  13.577 -1.5896  0.0086 -0.8618
 3564SOL     OW22324   3.938   0.758   5.751  0.4209 -0.1065 -0.5274
 3564SOL    HW122325   3.900   0.832   5.704  1.0159  2.0249  2.3795
 3564SOL    HW222326   3.998   0.724   5.685  1.4103  1.8078 -0.5783
 3565SOL     OW22327   2.789   0.419   9.141 -0.4558  0.5175 -0.3149
 3565SOL    HW122328   2.847   0.377   9.078 -1.3153 -0.9201 -0.1587
 3565SOL    HW222329   2.842   0.410   9.220 -0.6304 -2.0212 -0.4896
 3566SOL     OW22330   0.871   1.776   9.027 -0.2810 -0.0605  1.0054
 3566SOL    HW122331   0.866   1.784   9.122 -0.0270 -1.0881  1.1015
 3566SOL    HW222332   0.913   1.859   9.004 -3.4422  1.2690  0.1257
 3567SOL     OW22333   0.531   1.345  13.209  0.3241 -0.6289 -0.2067
 3567SOL    HW122334   0.522   1.405  13.135  2.4066 -2.0557 -1.6184
 3567SOL    HW222335   0.626   1.342  13.203  0.2399  4.6508 -4.0130
 3568SOL     OW22336   1.369   3.263   1.467  0.1621  0.4515  0.0082
 3568SOL    HW122337   1.420   3.254   1.387 -0.4869 -4.5141  0.1774
 3568SOL    HW222338   1.427   3.299   1.534  1.4619 -0.0790 -0.8553
 3569SOL     OW22339   2.689   0.448   2.472  0.4252 -0.6524 -0.4206
 3569SOL    HW122340   2.778   0.456   2.439  0.5689 -1.9163 -0.3477
 3569SOL    HW222341   2.699   0.464   2.566 -0.1676 -1.4285 -0.2239
 3570SOL     OW22342   3.639   2.481   4.186 -0.3181  0.3002  0.2677
 3570SOL    HW122343   3.665   2.572   4.198 -1.7885  0.5176  1.8544
 3570SOL    HW222344   3.712   2.434   4.226 -1.2095 -0.8802  0.5124
 3571SOL     OW22345   3.084   3.451  16.313  0.1149 -0.2369  0.2683
 3571SOL    HW122346   3.109   3.463  16.222  0.1536  1.9694  0.5860
 3571SOL    HW222347   3.108   3.538  16.345  0.0872 -0.0790 -0.1436
 3572SOL     OW22348   0.116   0.266   5.043 -0.5980 -0.1297  0.1770
 3572SOL    HW122349   0.122   0.171   5.048  0.7955 -0.1737 -2.3376
 3572SOL    HW222350   0.165   0.284   4.962 -1.4275  0.7721 -0.1263
 3573SOL     OW22351   1.854   3.220   2.749  0.3302 -0.6584  0.0559
 3573SOL    HW122352   1.910   3.191   2.821 -1.3339 -2.6622  0.5331
 3573SOL    HW222353   1.895   3.307   2.747  0.9139 -1.0021 -3.0941
 3574SOL     OW22354   1.848   0.427   3.351 -0.1177  0.0083 -0.1462
 3574SOL    HW122355   1.825   0.440   3.259  0.1888  0.2247 -0.1933
 3574SOL    HW222356   1.759   0.440   3.384  0.0041  1.0650 -0.2415
 3575SOL     OW22357   3.041   3.038   5.729 -0.0375  0.4264 -0.4444
 3575SOL    HW122358   3.062   3.072   5.642  0.8392  1.7956  0.2976
 3575SOL    HW222359   3.114   2.977   5.737  2.0710  2.9253 -0.5603
 3576SOL     OW22360   1.320   0.589   9.219 -0.9987 -0.1028 -0.6696
 3576SOL    HW122361   1.329   0.541   9.301  1.8895  0.1981 -0.7892
 3576SOL    HW222362   1.252   0.652   9.241 -2.0545 -0.4608 -2.8534
 3577SOL     OW22363   2.011   0.699  17.240  0.2045 -0.1618 -0.4392
 3577SOL    HW122364   1.971   0.714  17.154 -1.7740  2.6128  0.9852
 3577SOL    HW222365   2.081   0.765  17.244 -0.2606  0.1497  2.3535
 3578SOL     OW22366   0.325   0.885   7.195  0.6646 -0.1431 -0.8119
 3578SOL    HW122367   0.355   0.883   7.105 -0.4390 -0.4399 -1.1791
 3578SOL    HW222368   0.290   0.973   7.210  3.9011  0.8275  1.1150
 3579SOL     OW22369   3.347   0.155  10.214 -0.6023  0.2318  0.3834
 3579SOL    HW122370   3.375   0.153  10.305  0.6979 -1.0387 -0.0408
 3579SOL    HW222371   3.420   0.195  10.165 -0.3944 -0.1175  0.4092
 3580SOL     OW22372   2.693   2.986   1.011 -0.0902  0.1193  0.0116
 3580SOL    HW122373   2.720   3.035   0.933 -0.9950  1.7786  0.7476
 3580SOL    HW222374   2.777   2.977   1.056  0.1576 -0.0038 -0.4726
 3581SOL     OW22375   0.920   1.757   1.095 -0.0732  0.2136 -0.5473
 3581SOL    HW122376   0.944   1.840   1.054  1.7220  0.3975  0.8895
 3581SOL    HW222377   0.830   1.779   1.117  0.1569  1.3705 -0.8120
 3582SOL     OW22378   1.562   2.775  15.605  0.0507 -0.2952 -0.1402
 3582SOL    HW122379   1.587   2.837  15.673  1.9332  0.9107 -1.9176
 3582SOL    HW222380   1.544   2.839  15.537 -1.3060 -0.7654 -0.2230
 3583SOL     OW22381   2.010   0.666   6.383 -0.3868 -0.2748  0.3156
 3583SOL    HW122382   1.981   0.748   6.423  0.7501  1.2149 -1.9112
 3583SOL    HW222383   2.066   0.628   6.451  0.5322 -1.1480 -0.9331
 3584SOL     OW22384   2.215   0.746   7.180 -0.0801 -0.2480  0.5509
 3584SOL    HW122385   2.147   0.735   7.247  0.4035  1.6108  1.3369
 3584SOL    HW222386   2.267   0.667   7.196  0.2790 -0.2424 -0.6073
 3585SOL     OW22387   1.177   3.431   3.279  0.3278 -0.6991 -0.4525
 3585SOL    HW122388   1.130   3.347   3.282  2.4569 -1.8349  1.0322
 3585SOL    HW222389   1.228   3.430   3.198  1.0928  0.6394  0.0191
 3586SOL     OW22390   3.300   3.149   7.148 -0.2977 -0.3937 -0.2589
 3586SOL    HW122391   3.234   3.187   7.206  0.4602  1.1387 -0.3965
 3586SOL    HW222392   3.269   3.137   7.058  2.4561  1.7813 -1.4732
 3587SOL     OW22393   0.916   3.428   8.697 -0.2717  0.2797 -0.0817
 3587SOL    HW122394   1.001   3.385   8.686  0.7129  2.4707 -0.9314
 3587SOL    HW222395   0.850   3.358   8.698  0.2875 -0.2240  1.1317
 3588SOL     OW22396   1.989   4.054   3.321  0.2546 -0.1342 -0.0196
 3588SOL    HW122397   2.079   4.075   3.296 -0.2151  2.0989  0.1394
 3588SOL    HW222398   1.982   3.959   3.315  0.1483 -0.1628  0.6549
 3589SOL     OW22399   4.048   4.423   3.833 -0.0334  0.4788  0.2256
 3589SOL    HW122400   4.029   4.506   3.875  0.6530 -0.1134  1.7323
 3589SOL    HW222401   4.144   4.423   3.822 -0.1095 -0.0154 -0.5067
 3590SOL     OW22402   0.539   0.007   7.779  0.3227 -0.6289 -0.2622
 3590SOL    HW122403   0.634   0.018   7.782  0.2609 -0.1169 -0.2170
 3590SOL    HW222404   0.544   4.684   7.853  1.1447  0.4219  0.5164
 3591SOL     OW22405   2.726   0.816   0.644  0.0868 -0.0177  0.6736
 3591SOL    HW122406   2.805   0.808   0.697 -0.4336  0.0393  1.4496
 3591SOL    HW222407   2.664   0.851   0.708  2.8462 -1.3060  4.0690
 3592SOL     OW22408   4.347   4.097   5.051  0.2586 -0.2444 -0.0021
 3592SOL    HW122409   4.410   4.028   5.073  0.5428 -0.2842 -0.9445
 3592SOL    HW222410   4.343   4.095   4.956 -0.4925 -1.1627  0.0452
 3593SOL     OW22411   3.253   1.986   7.010  0.2530  0.3185 -0.0958
 3593SOL    HW122412   3.236   2.032   6.927 -1.5962  1.1260  0.7295
 3593SOL    HW222413   3.287   2.059   7.062  2.8846 -0.8010 -0.2787
 3594SOL     OW22414   0.917   4.101   3.847  0.1065  0.6556 -0.2367
 3594SOL    HW122415   0.917   4.195   3.862 -1.4914  1.0818 -3.0081
 3594SOL    HW222416   0.952   4.100   3.758  0.0329  0.1334 -0.2632
 3595SOL     OW22417   3.275   0.582   7.107 -0.1547  0.2169  0.2102
 3595SOL    HW122418   3.185   0.553   7.122  0.2796 -0.5836  1.3134
 3595SOL    HW222419   3.317   0.545   7.185 -1.2173 -1.3527  0.0502
 3596SOL     OW22420   1.261   1.116   3.807  0.4310  0.0975 -0.0329
 3596SOL    HW122421   1.226   1.112   3.896  0.0397 -3.3304 -0.3364
 3596SOL    HW222422   1.208   1.048   3.766  0.3908  1.6123 -2.5193
 3597SOL     OW22423   2.802   1.875   7.918 -0.1622  0.4322 -0.3684
 3597SOL    HW122424   2.781   1.885   7.825 -1.7915  0.4578  0.0038
 3597SOL    HW222425   2.739   1.810   7.949  0.2095  0.6556  0.8557
 3598SOL     OW22426   0.629   4.103   1.402 -0.1061 -0.4897 -0.1162
 3598SOL    HW122427   0.590   4.189   1.390  2.0091  0.5289  0.2915
 3598SOL    HW222428   0.619   4.066   1.315 -3.5463 -0.9497  0.4899
 3599SOL     OW22429   0.289   2.961   7.507  0.5269 -0.0762  0.1544
 3599SOL    HW122430   0.375   2.924   7.487  0.4568  0.0593 -0.4180
 3599SOL    HW222431   0.288   3.037   7.448  1.8171  0.0556  0.2957
 3600SOL     OW22432   4.202   4.479   5.648 -0.5218 -0.3740 -0.0189
 3600SOL    HW122433   4.239   4.420   5.714 -2.5066  0.0121  1.4327
 3600SOL    HW222434   4.211   4.566   5.688 -0.1422  0.2219 -1.3782
 3601SOL     OW22435   0.892   4.632  10.463  0.1027  0.4248 -0.2361
 3601SOL    HW122436   0.864   4.638  10.371  1.1972  2.7042 -0.4091
 3601SOL    HW222437   0.808   4.641  10.509 -0.1222 -0.8117 -0.3899
 3602SOL     OW22438   1.222   4.427   4.565  0.0982 -0.0877  0.0826
 3602SOL    HW122439   1.158   4.473   4.619  2.8553  2.8427  0.9042
 3602SOL    HW222440   1.297   4.424   4.625 -1.0429  1.7268  1.6208
 3603SOL     OW22441   4.033   3.547   1.008  0.0629  0.3740 -0.1846
 3603SOL    HW122442   4.006   3.594   1.086 -0.7715 -1.7343  0.8018
 3603SOL    HW222443   4.031   3.456   1.039  1.4961  0.9852  1.6791
 3604SOL     OW22444   1.178   3.359  17.649  0.1622 -0.0127 -0.3649
 3604SOL    HW122445   1.162   3.270  17.681  0.7867 -0.5507 -1.5531
 3604SOL    HW222446   1.201   3.347  17.557  1.6847  2.4481 -0.3238
 3605SOL     OW22447   3.089   1.945   2.631 -0.6485  0.1301  0.2798
 3605SOL    HW122448   3.114   1.855   2.653 -3.1249 -0.7976 -0.7255
 3605SOL    HW222449   3.147   1.945   2.555 -1.6092 -1.3811 -0.4503
 3606SOL     OW22450   4.414   4.458  12.157  0.5402  0.2548 -0.3069
 3606SOL    HW122451   4.430   4.423  12.069  0.0629 -1.5978  0.3431
 3606SOL    HW222452   4.491   4.514  12.167  0.4425  0.8527 -2.8969
 3607SOL     OW22453   2.916   0.904   4.447  0.3996  0.2670 -0.3545
 3607SOL    HW122454   2.989   0.857   4.489 -2.2984 -2.3592  1.3561
 3607SOL    HW222455   2.923   0.891   4.353 -0.1998  0.0738 -0.3721
 3608SOL     OW22456   2.342   3.312  13.701 -0.6021  0.0046 -0.6281
 3608SOL    HW122457   2.389   3.396  13.696  2.1803 -1.5744 -0.7576
 3608SOL    HW222458   2.411   3.249  13.681 -3.0219 -1.9315 -2.9818
 3609SOL     OW22459   4.590   2.988  14.979  0.0434  0.2673 -0.2547
 3609SOL    HW122460   4.532   3.063  14.985  0.6708  0.7764 -0.5509
 3609SOL    HW222461   4.604   2.963  15.071 -0.3143  3.1748  0.5838
 3610SOL     OW22462   3.442   2.268   3.409 -0.3981 -0.1083 -0.0805
 3610SOL    HW122463   3.358   2.222   3.406 -1.2856  1.4967  0.3847
 3610SOL    HW222464   3.494   2.229   3.338 -0.7460 -0.5442 -0.0986
 3611SOL     OW22465   3.095   1.790  12.098  0.2979 -1.1960  0.0045
 3611SOL    HW122466   3.136   1.819  12.180 -1.1362 -0.0827  0.3199
 3611SOL    HW222467   3.096   1.860  12.033  0.4399  0.6587  1.9949
 3612SOL     OW22468   0.481   3.197   2.531 -0.1513 -0.2257  0.2100
 3612SOL    HW122469   0.481   3.260   2.604 -0.1982 -0.0129  0.0287
 3612SOL    HW222470   0.434   3.234   2.456  0.3488  0.8693  0.4295
 3613SOL     OW22471   2.444   0.731   2.274  0.7074  0.1264  0.2458
 3613SOL    HW122472   2.438   0.693   2.362 -0.1797  2.4395  1.1658
 3613SOL    HW222473   2.361   0.778   2.271  1.1738  0.9086 -0.3555
 3614SOL     OW22474   1.294   0.173   9.501 -0.6108  0.0283 -0.9416
 3614SOL    HW122475   1.231   0.106   9.476 -1.2144 -1.0726  3.4210
 3614SOL    HW222476   1.372   0.126   9.473  0.6503  0.4139  1.9165
 3615SOL     OW22477   2.600   2.158   7.436  0.1018  0.5288 -0.3146
 3615SOL    HW122478   2.538   2.191   7.371 -0.6499 -1.8565 -0.8249
 3615SOL    HW222479   2.675   2.156   7.377 -0.4433  1.2657 -1.0304
 3616SOL     OW22480   3.144   1.119   4.324  0.3775 -0.5070  0.3489
 3616SOL    HW122481   3.234   1.134   4.355 -0.1268  1.3895  0.8964
 3616SOL    HW222482   3.092   1.090   4.399  1.0980  0.4822  1.2323
 3617SOL     OW22483   3.025   2.632   6.954 -0.7660  0.2331 -0.0657
 3617SOL    HW122484   3.056   2.671   6.872 -1.2622  1.4424  0.3250
 3617SOL    HW222485   3.007   2.540   6.933 -0.0536  0.9245 -3.6494
 3618SOL     OW22486   3.172   0.011   2.309 -0.3012  0.4526 -0.4112
 3618SOL    HW122487   3.083   0.040   2.288 -1.2748  0.0678  3.1342
 3618SOL    HW222488   3.222   0.088   2.284  0.0628 -0.0134 -1.1564
 3619SOL     OW22489   2.126   1.830   6.840  0.4556 -0.3860  0.4492
 3619SOL    HW122490   2.126   1.906   6.782  1.1651 -0.0813  0.8385
 3619SOL    HW222491   2.099   1.881   6.917 -0.3470 -0.7740  0.4188
 3620SOL     OW22492   4.047   0.963   7.195  0.4098 -0.2005 -0.1474
 3620SOL    HW122493   4.088   1.048   7.212 -1.4341 -0.0033  3.1581
 3620SOL    HW222494   3.972   0.990   7.142 -0.6660 -1.2563  0.8414
 3621SOL     OW22495   0.952   2.652   4.729 -0.2894  0.2744 -0.1573
 3621SOL    HW122496   0.869   2.609   4.748 -1.3021  0.8815 -3.2382
 3621SOL    HW222497   0.929   2.718   4.664  1.8442  0.1594 -1.0456
 3622SOL     OW22498   2.583   2.308   9.767 -0.0302 -0.5380 -0.0181
 3622SOL    HW122499   2.589   2.394   9.808  0.1600  0.4547 -2.1514
 3622SOL    HW222500   2.603   2.250   9.841  0.9398  0.0398  0.1679
 3623SOL     OW22501   3.577   1.026  16.629 -0.2871  0.2318 -0.1556
 3623SOL    HW122502   3.551   1.055  16.542 -1.2408  0.2591  0.1440
 3623SOL    HW222503   3.642   1.091  16.658  0.9302 -0.9069 -0.3319
 3624SOL     OW22504   2.448   1.558   9.256  0.1838 -0.5044 -0.4469
 3624SOL    HW122505   2.361   1.529   9.284  1.2454 -1.2465  2.1202
 3624SOL    HW222506   2.450   1.537   9.163 -1.1354  2.3451 -1.1181
 3625SOL     OW22507   0.766   2.277   3.167 -0.2016 -0.2492  0.1633
 3625SOL    HW122508   0.695   2.341   3.155  0.7885  1.6425  4.2362
 3625SOL    HW222509   0.834   2.340   3.192  0.6362 -1.4365  0.8571
 3626SOL     OW22510   4.293   1.187   6.143  0.2745 -0.1448  0.0481
 3626SOL    HW122511   4.297   1.108   6.198  1.5081 -1.1400 -1.4645
 3626SOL    HW222512   4.303   1.262   6.201  3.0233 -1.9202  1.8704
 3627SOL     OW22513   3.975   2.156  15.334 -0.4670 -0.5383  0.7755
 3627SOL    HW122514   3.986   2.063  15.352 -3.7683 -0.7671  1.6844
 3627SOL    HW222515   4.064   2.185  15.353 -0.2485  0.7842 -2.2374
 3628SOL     OW22516   3.188   0.817   7.444 -0.0167  0.0825 -0.0029
 3628SOL    HW122517   3.264   0.854   7.398  0.1218 -1.0375 -0.6942
 3628SOL    HW222518   3.228   0.733   7.467  2.6863  1.4426  0.2259
 3629SOL     OW22519   4.187   4.254  10.909 -0.1615  0.4069  0.2016
 3629SOL    HW122520   4.110   4.259  10.966 -0.1076  0.6583  0.2534
 3629SOL    HW222521   4.243   4.302  10.970 -0.4816 -0.8438  1.4904
 3630SOL     OW22522   0.503   2.422   4.055  0.2812  0.6281  0.2490
 3630SOL    HW122523   0.458   2.363   4.116 -2.9846  2.8880  0.0216
 3630SOL    HW222524   0.543   2.363   3.992  0.4829 -0.3090  1.2449
 3631SOL     OW22525   1.732   2.442   9.083 -0.0647  0.0224 -0.2411
 3631SOL    HW122526   1.727   2.460   8.989 -0.7793  1.7759  0.1314
 3631SOL    HW222527   1.718   2.532   9.114 -0.4076 -0.3699  0.7518
 3632SOL     OW22528   1.080   3.601  15.312 -0.3986 -0.6278 -0.0186
 3632SOL    HW122529   1.043   3.643  15.391 -2.7216 -3.4576  0.3832
 3632SOL    HW222530   1.008   3.550  15.275 -1.3167  1.6259 -1.3134
 3633SOL     OW22531   0.893   3.663   6.293 -0.8439 -0.4331  0.3747
 3633SOL    HW122532   0.964   3.658   6.229 -1.3688  1.2293 -0.3286
 3633SOL    HW222533   0.938   3.615   6.362 -2.1789  1.5672  2.6353
 3634SOL     OW22534   2.597   1.465   4.636  0.6731 -0.3876 -0.1128
 3634SOL    HW122535   2.572   1.378   4.607  1.4191 -0.9488  0.9136
 3634SOL    HW222536   2.684   1.475   4.598  0.7089 -1.1739 -0.2382
 3635SOL     OW22537   1.789   3.722   0.312 -0.2415  0.3492 -0.5594
 3635SOL    HW122538   1.716   3.764   0.265  1.7984  2.2724 -1.9864
 3635SOL    HW222539   1.748   3.660   0.373  0.5142  0.9777  0.5674
 3636SOL     OW22540   4.281   3.594   5.398 -0.2134 -0.0231 -0.7330
 3636SOL    HW122541   4.256   3.680   5.364  0.0205  0.5309  0.4864
 3636SOL    HW222542   4.321   3.561   5.318  1.4815 -0.6628  0.3821
 3637SOL     OW22543   4.400   1.181   8.546  0.6987 -0.5631 -0.0234
 3637SOL    HW122544   4.318   1.132   8.538  0.7531 -0.9886  2.1599
 3637SOL    HW222545   4.446   1.132   8.613 -1.3271 -1.0324  1.0416
 3638SOL     OW22546   3.366   1.384  11.860  0.4838 -0.0975  0.4439
 3638SOL    HW122547   3.301   1.446  11.892 -0.1002 -0.1839 -0.5520
 3638SOL    HW222548   3.383   1.437  11.782  1.8472 -0.9668  0.1453
 3639SOL     OW22549   0.787   1.513   7.015 -0.7019  0.7192 -0.6123
 3639SOL    HW122550   0.857   1.570   7.047 -0.0382  0.6213 -1.9010
 3639SOL    HW222551   0.721   1.536   7.080  0.3729  0.8203  0.4442
 3640SOL     OW22552   1.417   2.123   1.555 -0.0169 -0.3741 -0.2285
 3640SOL    HW122553   1.497   2.158   1.516  0.4579 -0.7605  0.3967
 3640SOL    HW222554   1.368   2.105   1.475  0.4043  2.2862 -1.1155
 3641SOL     OW22555   3.159   2.290   4.818 -0.1861  0.4227  0.0160
 3641SOL    HW122556   3.100   2.228   4.860 -0.4135  1.3823  1.1107
 3641SOL    HW222557   3.133   2.288   4.725 -0.5062  0.5368  0.1026
 3642SOL     OW22558   4.115   2.278  11.692 -0.0690 -0.0389 -0.2278
 3642SOL    HW122559   4.181   2.291  11.760 -0.0186 -1.6895  0.0404
 3642SOL    HW222560   4.045   2.326  11.735 -0.5182 -1.2246  0.3442
 3643SOL     OW22561   2.385   1.545   3.223  0.5120  0.9413 -0.1392
 3643SOL    HW122562   2.419   1.631   3.248 -2.8451  1.9402  0.9966
 3643SOL    HW222563   2.312   1.536   3.284  0.1459  1.1594 -0.5439
 3644SOL     OW22564   4.472   0.957  11.684  0.7961 -0.5507  0.2699
 3644SOL    HW122565   4.547   0.981  11.629  0.3261  1.5818  0.5545
 3644SOL    HW222566   4.410   1.028  11.666  2.2192  0.5004 -0.4764
 3645SOL     OW22567   4.507   4.002   7.624  0.0668 -0.4602  0.0155
 3645SOL    HW122568   4.480   4.059   7.695 -0.3599  2.2049 -2.2996
 3645SOL    HW222569   4.527   4.065   7.555  0.8229  1.4972  2.0215
 3646SOL     OW22570   0.314   2.886   8.265  0.1884 -0.0730 -0.0536
 3646SOL    HW122571   0.219   2.890   8.253  0.0324 -0.8925  0.8461
 3646SOL    HW222572   0.324   2.942   8.342  1.1478 -0.0453 -0.1966
 3647SOL     OW22573   1.840   2.028  10.849 -0.1865 -0.0309  0.2254
 3647SOL    HW122574   1.873   2.029  10.759 -0.1801 -1.5832  0.2023
 3647SOL    HW222575   1.783   2.105  10.850 -1.0163 -0.6108 -1.9313
 3648SOL     OW22576   4.121   4.407   9.811  0.2308  0.9225  0.0726
 3648SOL    HW122577   4.054   4.354   9.856  3.0655 -1.4216  1.5237
 3648SOL    HW222578   4.092   4.496   9.828  1.8869  1.3492  0.6958
 3649SOL     OW22579   4.457   0.266   7.487  0.4971  0.3346 -0.3851
 3649SOL    HW122580   4.441   0.300   7.575  1.6540  1.2277 -0.5225
 3649SOL    HW222581   4.538   0.301   7.452  0.3314  1.1146  0.0094
 3650SOL     OW22582   0.474   2.977  11.101  0.1132  0.1140 -0.3008
 3650SOL    HW122583   0.483   2.952  11.009 -3.6060  0.4495 -0.7804
 3650SOL    HW222584   0.508   2.901  11.148 -0.5933 -0.1600 -0.2425
 3651SOL     OW22585   2.406   1.471   8.397 -0.2347 -0.6841 -0.0174
 3651SOL    HW122586   2.413   1.485   8.491 -0.6597 -0.8769  0.0446
 3651SOL    HW222587   2.356   1.389   8.399  0.6749 -1.1756  1.6890
 3652SOL     OW22588   1.517   3.814   3.178  0.3028  0.4028 -0.3613
 3652SOL    HW122589   1.522   3.822   3.273  0.0708 -3.6390 -0.0042
 3652SOL    HW222590   1.575   3.881   3.141  2.0049 -0.5485  0.5937
 3653SOL     OW22591   2.346   0.358  16.409  0.0776  0.0961 -0.2178
 3653SOL    HW122592   2.428   0.383  16.367  0.8367 -1.8824  0.0700
 3653SOL    HW222593   2.299   0.300  16.348 -1.6022  0.2332  0.9535
 3654SOL     OW22594   2.866   4.025   3.591 -0.0160 -0.4807 -0.0592
 3654SOL    HW122595   2.777   4.050   3.565 -0.7628 -0.5328  2.4377
 3654SOL    HW222596   2.912   4.099   3.551  0.9605 -2.0768 -1.9596
 3655SOL     OW22597   0.589   0.211   6.087 -0.4173  0.3778 -0.2488
 3655SOL    HW122598   0.555   0.154   6.018 -1.3103 -2.5820  2.6458
 3655SOL    HW222599   0.501   0.230   6.120  0.6301  0.1461  2.6723
 3656SOL     OW22600   4.194   3.080  11.972 -0.1271 -0.0718  0.4292
 3656SOL    HW122601   4.166   3.138  11.901 -0.2148  1.6944  1.9069
 3656SOL    HW222602   4.243   3.144  12.023  1.9796  0.9109 -2.8075
 3657SOL     OW22603   4.046   0.043   7.756 -0.5365 -0.2521 -0.1287
 3657SOL    HW122604   4.086   0.106   7.817 -2.1011 -0.9469  1.6134
 3657SOL    HW222605   3.981   0.002   7.813  0.8682 -1.9700  0.2589
 3658SOL     OW22606   1.483   4.052   5.421 -0.2833  0.1423 -0.3479
 3658SOL    HW122607   1.430   4.041   5.500  1.9904  0.4337  1.2167
 3658SOL    HW222608   1.416   4.051   5.353 -0.5927 -0.2975 -0.0403
 3659SOL     OW22609   3.838   0.878  12.045 -0.2143 -0.5095  0.1196
 3659SOL    HW122610   3.805   0.890  12.134  3.3689 -1.6646  1.5850
 3659SOL    HW222611   3.914   0.935  12.043 -0.8108  0.3510  1.5953
 3660SOL     OW22612   4.023   4.467   9.486  0.1327  0.2626  0.4286
 3660SOL    HW122613   4.072   4.411   9.545  0.0381  0.4096  0.6449
 3660SOL    HW222614   4.085   4.462   9.413 -0.4498 -2.6707  0.1227
 3661SOL     OW22615   4.593   2.799  15.616 -0.2745  0.1534  0.0096
 3661SOL    HW122616   4.678   2.800  15.572 -0.3977 -0.8374 -0.2544
 3661SOL    HW222617   4.602   2.879  15.667  3.0629  0.3733 -0.9484
 3662SOL     OW22618   1.110   0.395   0.049 -0.3450 -0.3183  0.7529
 3662SOL    HW122619   1.134   0.388   0.142  0.4950 -1.3931  0.4563
 3662SOL    HW222620   1.021   0.429   0.053 -0.4763 -0.8275  2.0820
 3663SOL     OW22621   4.007   2.655   4.107 -0.5376  0.3333 -0.1038
 3663SOL    HW122622   4.067   2.607   4.164  0.4670  2.7637  0.9041
 3663SOL    HW222623   3.968   2.703   4.180  1.7445  5.5906 -2.3111
 3664SOL     OW22624   0.168   3.607   3.672 -0.3034  0.1815  0.3161
 3664SOL    HW122625   0.137   3.582   3.585  0.9402  4.0314 -1.2706
 3664SOL    HW222626   0.107   3.555   3.723 -0.1682 -0.0940  0.1951
 3665SOL     OW22627   1.763   3.107   6.338  0.4305  0.4807 -0.0196
 3665SOL    HW122628   1.848   3.126   6.377  0.1984  0.0541  0.7028
 3665SOL    HW222629   1.711   3.153   6.404  2.3825  0.4282  1.5324
 3666SOL     OW22630   1.728   3.330   4.595  0.1830 -0.1654  0.3460
 3666SOL    HW122631   1.773   3.246   4.602  0.8864  0.4648  3.6066
 3666SOL    HW222632   1.650   3.307   4.543 -1.6736  0.9174  2.6199
 3667SOL     OW22633   0.906   2.386  13.239  0.6825 -0.1974  0.1791
 3667SOL    HW122634   0.861   2.402  13.157 -0.0196  1.1223  0.8071
 3667SOL    HW222635   0.901   2.291  13.245  0.9858 -0.2842 -1.1046
 3668SOL     OW22636   3.707   1.554  12.042 -0.1197 -0.0021 -0.0228
 3668SOL    HW122637   3.702   1.649  12.037 -0.5588  0.1244  3.1323
 3668SOL    HW222638   3.618   1.521  12.050  0.3258 -1.0738  0.5022
 3669SOL     OW22639   1.523   3.811   6.153 -0.4449 -0.5265  0.2816
 3669SOL    HW122640   1.452   3.866   6.187 -1.7488 -1.8173 -0.3210
 3669SOL    HW222641   1.487   3.723   6.162  1.9928 -1.4267  0.9551
 3670SOL     OW22642   3.170   1.293   6.164  0.4724 -0.1133 -0.1824
 3670SOL    HW122643   3.210   1.234   6.227 -0.1411 -0.8613 -0.4833
 3670SOL    HW222644   3.213   1.374   6.189 -0.7707 -0.1406  2.0101
 3671SOL     OW22645   0.871   1.820   4.473  0.0082 -0.3253 -0.4929
 3671SOL    HW122646   0.817   1.892   4.502 -1.0824 -0.8900 -1.1295
 3671SOL    HW222647   0.962   1.849   4.460 -0.5743  1.5918 -0.2067
 3672SOL     OW22648   3.705   1.571   6.424  0.0053  0.3264  0.0916
 3672SOL    HW122649   3.715   1.654   6.471 -0.8931  0.9847 -0.8652
 3672SOL    HW222650   3.714   1.508   6.496 -0.5599 -0.2829 -0.3656
 3673SOL     OW22651   4.708   1.864   6.147  0.1518 -0.3326  0.0657
 3673SOL    HW122652   0.029   1.848   6.072 -3.7679 -0.4321 -2.8812
 3673SOL    HW222653   0.026   1.854   6.225  0.6557  0.0178 -0.2332
 3674SOL     OW22654   3.316   4.186   1.587 -0.5487  0.7755  0.3981
 3674SOL    HW122655   3.223   4.175   1.603 -0.6929 -0.1919 -1.1335
 3674SOL    HW222656   3.331   4.279   1.607  0.3638  0.8935 -0.8597
 3675SOL     OW22657   4.251   2.358  11.911 -0.2007  0.0427  0.6357
 3675SOL    HW122658   4.259   2.446  11.948 -3.1446  0.0807  1.1794
 3675SOL    HW222659   4.330   2.324  11.953  1.1791  0.1794 -1.8403
 3676SOL     OW22660   3.234   1.129   2.290  0.1075  0.0928  0.0701
 3676SOL    HW122661   3.257   1.160   2.202 -2.4642 -0.1515 -0.7063
 3676SOL    HW222662   3.217   1.212   2.335  0.2297  0.2760 -0.2192
 3677SOL     OW22663   1.955   0.872   5.213  0.1947 -0.2236  0.3572
 3677SOL    HW122664   1.947   0.831   5.127 -0.5072 -0.3590  0.4893
 3677SOL    HW222665   1.888   0.938   5.199 -0.7286 -1.1027  0.6870
 3678SOL     OW22666   1.886   2.449   2.239  0.5629  0.0458  0.1593
 3678SOL    HW122667   1.966   2.422   2.284  0.4839 -2.1617 -1.0211
 3678SOL    HW222668   1.910   2.467   2.148  0.7318 -2.2291 -0.2592
 3679SOL     OW22669   0.646   3.385   1.399  0.2429  0.2592  0.2588
 3679SOL    HW122670   0.564   3.338   1.382 -1.7967  3.3017  1.6433
 3679SOL    HW222671   0.641   3.467   1.351  2.4205 -0.0681 -0.5281
 3680SOL     OW22672   2.974   1.255   7.990 -0.0904  0.0501 -0.0337
 3680SOL    HW122673   2.890   1.241   7.946 -0.3669  1.8372 -0.0777
 3680SOL    HW222674   3.000   1.333   7.941  2.5630 -1.9425 -1.7963
 3681SOL     OW22675   1.708   1.674   9.769  0.6216 -0.3032  0.4433
 3681SOL    HW122676   1.792   1.673   9.724 -0.1575 -1.2764 -1.0401
 3681SOL    HW222677   1.708   1.601   9.831 -2.2679 -0.4915  0.2496
 3682SOL     OW22678   1.419   1.776   4.614 -0.0619  0.2738  0.0474
 3682SOL    HW122679   1.488   1.814   4.669 -2.3307  0.9448  2.4336
 3682SOL    HW222680   1.470   1.757   4.535 -0.0690 -0.5855  0.2530
 3683SOL     OW22681   1.474   3.297  17.416 -0.4028 -0.1101  0.4275
 3683SOL    HW122682   1.445   3.387  17.401  1.2525  0.6882  1.9291
 3683SOL    HW222683   1.566   3.307  17.441  0.0526 -1.3462 -0.7872
 3684SOL     OW22684   4.473   1.560   6.771 -0.0520 -0.1590  0.2978
 3684SOL    HW122685   4.533   1.627   6.739 -1.9754  0.8858 -1.0882
 3684SOL    HW222686   4.442   1.600   6.852 -0.0001 -2.0852  1.2768
 3685SOL     OW22687   1.203   3.768   4.630  0.6715 -0.7062 -0.3818
 3685SOL    HW122688   1.197   3.673   4.641 -2.1116 -0.5656 -0.7023
 3685SOL    HW222689   1.198   3.799   4.721  0.6045  1.1119 -1.0134
 3686SOL     OW22690   0.515   4.335   1.388  0.1628  0.2130 -0.0224
 3686SOL    HW122691   0.438   4.332   1.445  0.1232 -2.1263 -0.2187
 3686SOL    HW222692   0.571   4.399   1.432 -0.0317  0.8212 -0.6586
 3687SOL     OW22693   4.736   2.189   6.917 -0.0253 -0.1546 -0.3264
 3687SOL    HW122694   0.062   2.216   6.850 -0.7881  0.6191 -0.7271
 3687SOL    HW222695   4.649   2.187   6.878  0.1693 -0.6912 -0.7179
 3688SOL     OW22696   0.776   2.756  10.872 -0.1244  0.1868  0.4260
 3688SOL    HW122697   0.691   2.717  10.895  0.3904 -1.3516 -0.2725
 3688SOL    HW222698   0.776   2.767  10.777  0.1241 -1.3688  0.2487
 3689SOL     OW22699   1.739   2.720  10.908  0.0885  0.4518 -0.6822
 3689SOL    HW122700   1.654   2.755  10.935  0.6279 -0.9904  2.9992
 3689SOL    HW222701   1.737   2.638  10.958  0.6622  1.1252  0.4402
 3690SOL     OW22702   3.101   3.291   6.618  0.6856 -0.2379  0.0357
 3690SOL    HW122703   3.175   3.231   6.618 -0.0394 -1.1311 -1.5651
 3690SOL    HW222704   3.040   3.238   6.567 -0.9778 -1.2892  3.1472
 3691SOL     OW22705   0.109   3.416   5.532 -0.4844 -1.3073 -0.7998
 3691SOL    HW122706   0.187   3.393   5.583  0.7744  1.1830 -1.6289
 3691SOL    HW222707   0.128   3.368   5.451 -1.6676 -1.7675 -0.8076
 3692SOL     OW22708   4.474   4.593   1.931  0.4633 -0.4015 -0.3397
 3692SOL    HW122709   4.444   4.566   2.018  0.3601 -0.9031 -0.5310
 3692SOL    HW222710   4.400   4.570   1.874  0.0023 -1.5319  0.7095
 3693SOL     OW22711   1.643   3.260   5.011  0.2106  0.2934  0.3064
 3693SOL    HW122712   1.636   3.339   4.957 -1.1628  0.3490  0.5624
 3693SOL    HW222713   1.734   3.230   5.003 -0.1463 -0.0530 -2.3283
 3694SOL     OW22714   4.584   1.129   6.464  0.5011  0.3624  0.1331
 3694SOL    HW122715   4.545   1.092   6.544 -0.8415  0.6700 -0.3780
 3694SOL    HW222716   4.637   1.204   6.489  0.6158 -0.0344  1.1273
 3695SOL     OW22717   2.567   4.598   2.054  0.1167  0.1749  0.7609
 3695SOL    HW122718   2.512   4.606   2.132  0.0810  0.2168  0.7309
 3695SOL    HW222719   2.540   4.678   2.010  1.5060  0.1995 -0.0463
 3696SOL     OW22720   0.172   2.103   6.366  0.2628 -0.0794  0.5626
 3696SOL    HW122721   0.179   2.034   6.432  0.2153  1.2867  2.0125
 3696SOL    HW222722   0.211   2.169   6.423  2.3676 -0.1053 -0.8520
 3697SOL     OW22723   1.447   4.541  17.252 -0.0664 -0.0843  0.3596
 3697SOL    HW122724   1.420   4.622  17.295  2.4812  1.5226 -1.0725
 3697SOL    HW222725   1.519   4.518  17.312  0.3818  0.1521 -0.0915
 3698SOL     OW22726   0.151   0.207  13.532  0.1273  0.3501  0.4053
 3698SOL    HW122727   0.151   0.299  13.559  1.2479  0.6841 -0.7679
 3698SOL    HW222728   0.074   0.212  13.475  1.3048  1.9455 -1.0362
 3699SOL     OW22729   3.392   0.560   4.361 -0.0281  0.2914  0.2869
 3699SOL    HW122730   3.465   0.508   4.326 -0.9072  0.6825 -2.1049
 3699SOL    HW222731   3.394   0.506   4.441  0.8347 -0.6677 -0.3760
 3700SOL     OW22732   1.673   2.201   2.096  0.5104 -0.5355 -0.2522
 3700SOL    HW122733   1.668   2.295   2.079  0.1679 -0.5201 -0.0664
 3700SOL    HW222734   1.588   2.200   2.141  1.7064  0.9018  2.0217
 3701SOL     OW22735   1.100   4.532  13.395 -0.2848  0.0444  0.6612
 3701SOL    HW122736   1.143   4.613  13.371  1.0491 -1.1127 -0.8223
 3701SOL    HW222737   1.161   4.496  13.459  0.9416  1.0923  0.0650
 3702SOL     OW22738   2.306   4.522   6.274 -0.2751  0.0030 -0.0602
 3702SOL    HW122739   2.266   4.584   6.213 -1.3355 -1.1621 -0.5741
 3702SOL    HW222740   2.245   4.457   6.239  0.0883  1.0070 -2.5722
 3703SOL     OW22741   3.570   3.029  10.179 -0.2806  0.7616  0.0932
 3703SOL    HW122742   3.499   3.060  10.236 -1.1405  0.4896 -0.8317
 3703SOL    HW222743   3.568   3.092  10.107  0.3153  0.1946 -0.4182
 3704SOL     OW22744   0.184   1.727   1.935  0.1684 -0.4304 -0.8964
 3704SOL    HW122745   0.180   1.720   1.839 -1.7464  2.0553 -0.9837
 3704SOL    HW222746   0.217   1.637   1.946  0.7960 -0.0235  0.5456
 3705SOL     OW22747   4.131   1.509   4.226  0.2432  0.0377  0.9655
 3705SOL    HW122748   4.064   1.574   4.244  0.6482  0.2443  1.7195
 3705SOL    HW222749   4.186   1.520   4.304  1.1840  1.4484  0.1149
 3706SOL     OW22750   2.342   1.818   8.047 -0.2674 -0.3562 -0.1599
 3706SOL    HW122751   2.281   1.878   8.004 -0.3328 -1.0009 -0.9595
 3706SOL    HW222752   2.300   1.796   8.130 -1.2322 -0.6611 -0.7309
 3707SOL     OW22753   1.717   4.278  12.366 -0.2430 -0.5466 -0.4707
 3707SOL    HW122754   1.730   4.190  12.333  0.7485 -0.7094  0.3550
 3707SOL    HW222755   1.760   4.339  12.306  1.2892  0.2334  1.4306
 3708SOL     OW22756   4.260   2.779   4.331 -0.2333  0.4988 -0.2473
 3708SOL    HW122757   4.323   2.742   4.269 -1.0118 -1.0367 -0.1146
 3708SOL    HW222758   4.212   2.702   4.361 -0.8444  0.8248 -0.3757
 3709SOL     OW22759   0.380   4.347  11.426 -0.2574  0.3114 -0.4654
 3709SOL    HW122760   0.474   4.331  11.413 -0.2908 -0.1388 -0.1639
 3709SOL    HW222761   0.369   4.279  11.493  3.7963  0.0840  0.0085
 3710SOL     OW22762   4.604   4.547  13.846 -0.4252 -0.8269 -0.8942
 3710SOL    HW122763   4.676   4.608  13.865  0.2152 -1.1534 -2.3137
 3710SOL    HW222764   4.536   4.595  13.894  0.8691  0.7309 -0.5778
 3711SOL     OW22765   1.224   2.422   2.163  0.0651  0.2068  0.2018
 3711SOL    HW122766   1.201   2.507   2.127 -0.2485 -0.5925 -1.4799
 3711SOL    HW222767   1.253   2.445   2.251  0.9162  0.2389 -0.0926
 3712SOL     OW22768   4.411   2.689   5.918 -0.2723  0.4290  0.5208
 3712SOL    HW122769   4.424   2.731   5.833 -1.0642 -1.8605 -0.7560
 3712SOL    HW222770   4.454   2.603   5.911 -0.1976  0.4614  0.5890
 3713SOL     OW22771   0.286   3.882  14.700 -0.0826 -0.0511 -0.3478
 3713SOL    HW122772   0.275   3.977  14.705 -1.5877 -0.1621 -1.6094
 3713SOL    HW222773   0.199   3.860  14.667  1.4038 -4.4717 -1.3498
 3714SOL     OW22774   3.475   1.861  15.293 -0.0927  0.0395 -0.4978
 3714SOL    HW122775   3.428   1.892  15.370  0.0900 -0.3412 -0.2337
 3714SOL    HW222776   3.408   1.871  15.225 -0.9194 -1.2841  0.1366
 3715SOL     OW22777   0.809   4.363   8.358  0.3313  0.2041  0.6216
 3715SOL    HW122778   0.748   4.323   8.419 -0.3907  0.4524  0.0684
 3715SOL    HW222779   0.769   4.449   8.342  1.2435  1.0630  2.9272
 3716SOL     OW22780   2.856   3.511   9.097 -0.4077  0.1485 -0.0461
 3716SOL    HW122781   2.902   3.437   9.057  2.1414  1.5257  0.3468
 3716SOL    HW222782   2.903   3.587   9.063  1.5131 -0.3507  1.5557
 3717SOL     OW22783   1.366   0.010  17.409  0.6539  0.1489 -0.4591
 3717SOL    HW122784   1.388   0.052  17.492  1.2540  2.0510 -1.5497
 3717SOL    HW222785   1.299   0.071  17.377 -0.1729 -0.3409  0.3599
 3718SOL     OW22786   1.756   3.902  11.872  0.1262  0.8450 -0.2618
 3718SOL    HW122787   1.763   3.819  11.825 -0.4228  1.0651 -0.7411
 3718SOL    HW222788   1.674   3.938  11.838  0.1149 -0.5919 -1.7443
 3719SOL     OW22789   0.167   0.454   9.180 -0.9897  0.5585 -0.1266
 3719SOL    HW122790   0.168   0.393   9.106  1.5680 -0.0839  0.4410
 3719SOL    HW222791   0.159   0.402   9.259  1.9672  1.8733  1.0421
 3720SOL     OW22792   3.380   3.989   6.085 -0.4410  0.7065 -0.5598
 3720SOL    HW122793   3.361   3.896   6.078 -1.0800  0.8220 -0.3536
 3720SOL    HW222794   3.297   4.019   6.047 -0.3653 -0.3952 -1.5817
 3721SOL     OW22795   3.242   4.416   2.046 -0.0619  0.0668 -0.3844
 3721SOL    HW122796   3.175   4.485   2.043 -1.0173 -0.8058  0.7114
 3721SOL    HW222797   3.201   4.330   2.040 -0.4368  0.3068 -1.2714
 3722SOL     OW22798   2.145   3.957   8.373  0.3297 -0.2488  0.0078
 3722SOL    HW122799   2.122   3.879   8.423  1.2958 -0.5606 -0.0425
 3722SOL    HW222800   2.195   4.003   8.441 -2.1993  0.9666  1.0835
 3723SOL     OW22801   1.170   3.110  12.257 -0.0547 -0.5460  0.6722
 3723SOL    HW122802   1.104   3.063  12.307  0.5189  1.2421  3.0739
 3723SOL    HW222803   1.172   3.187  12.313 -1.0849  1.1483 -1.5985
 3724SOL     OW22804   1.230   3.425   2.822  0.1081  0.5112 -0.2596
 3724SOL    HW122805   1.171   3.498   2.842  0.2316  1.0244 -1.7845
 3724SOL    HW222806   1.179   3.346   2.843  2.0911 -0.8279 -0.5116
 3725SOL     OW22807   0.902   0.228   7.148  0.6257  0.1081  0.5194
 3725SOL    HW122808   0.947   0.145   7.135  0.1209 -0.4284  2.2012
 3725SOL    HW222809   0.974   0.280   7.185  1.3496 -0.2436 -0.3978
 3726SOL     OW22810   2.222   2.711   9.606 -0.2407  0.3098  0.2337
 3726SOL    HW122811   2.148   2.661   9.571  0.2568 -0.7739  0.7329
 3726SOL    HW222812   2.185   2.792   9.642  0.6242  0.4734  0.7442
 3727SOL     OW22813   1.249   1.240  16.150 -0.3483 -0.5106 -0.0691
 3727SOL    HW122814   1.222   1.215  16.061 -1.3330 -2.9029  0.8888
 3727SOL    HW222815   1.170   1.280  16.185 -0.3880  0.9353 -1.8016
 3728SOL     OW22816   2.096   0.280   9.254  0.2286 -0.3457  0.1243
 3728SOL    HW122817   2.105   0.212   9.321  2.5009  1.7393  1.9058
 3728SOL    HW222818   2.022   0.326   9.293  1.2050  1.0917  0.2318
 3729SOL     OW22819   1.715   1.595   7.876  0.5283 -0.2665 -0.2158
 3729SOL    HW122820   1.782   1.612   7.809  1.1975 -0.8778  0.2952
 3729SOL    HW222821   1.705   1.503   7.850 -0.3090  0.0516 -1.0376
 3730SOL     OW22822   4.546   2.192   4.346  0.0878 -0.2084 -0.3063
 3730SOL    HW122823   4.571   2.249   4.418 -1.6607 -1.3891  1.2282
 3730SOL    HW222824   4.634   2.180   4.311  0.9389 -2.7398  2.7634
 3731SOL     OW22825   1.335   0.493   3.062  0.1299  0.0682 -0.0680
 3731SOL    HW122826   1.273   0.562   3.039  0.9346  1.2546  1.2696
 3731SOL    HW222827   1.276   0.426   3.096  0.0174 -0.1846 -0.7698
 3732SOL     OW22828   4.582   3.082   1.893  0.1456 -0.4681  0.3008
 3732SOL    HW122829   4.550   3.068   1.804 -0.3666  3.3619 -0.1005
 3732SOL    HW222830   4.564   2.996   1.930 -1.6492 -0.2856 -0.1669
 3733SOL     OW22831   4.665   3.762   4.625 -0.1274  0.2012  0.1336
 3733SOL    HW122832   4.724   3.688   4.639 -1.2113 -0.6400  0.2192
 3733SOL    HW222833   4.719   3.807   4.560  0.6735  0.0720  0.7013
 3734SOL     OW22834   0.333   3.680   3.006  0.3774  0.4782 -0.1467
 3734SOL    HW122835   0.423   3.694   2.979  0.4063 -0.0457 -0.3142
 3734SOL    HW222836   0.299   3.639   2.927  1.8673 -2.0181  0.5070
 3735SOL     OW22837   3.871   0.312   0.196 -0.1793  0.2760  0.5297
 3735SOL    HW122838   3.779   0.298   0.218  0.0853 -2.2531  0.0296
 3735SOL    HW222839   3.903   0.231   0.156 -0.2031 -1.2203  3.5170
 3736SOL     OW22840   2.107   0.592   5.074 -0.8729 -0.0241 -0.0783
 3736SOL    HW122841   2.181   0.567   5.018 -0.2349  0.9625  0.3274
 3736SOL    HW222842   2.145   0.623   5.156  1.2048 -1.4285 -0.5297
 3737SOL     OW22843   0.618   4.308  11.712  0.1075 -0.8723  0.2425
 3737SOL    HW122844   0.524   4.291  11.706  0.0153  0.6037 -2.4791
 3737SOL    HW222845   0.633   4.329  11.620  0.4030 -1.0952  0.2406
 3738SOL     OW22846   1.582   2.962   6.542  0.2151  0.2847  0.2243
 3738SOL    HW122847   1.666   2.924   6.516 -1.3509 -2.1359 -1.3601
 3738SOL    HW222848   1.526   2.905   6.488  0.3102 -1.6848  2.2110
 3739SOL     OW22849   0.080   2.763   5.460 -0.1558  0.6245  0.1851
 3739SOL    HW122850   0.170   2.767   5.493 -0.1467  1.7917  0.0081
 3739SOL    HW222851   0.036   2.797   5.538 -1.7957 -1.2356  0.0727
 3740SOL     OW22852   0.243   2.733   6.682 -0.9697  0.4108  0.7289
 3740SOL    HW122853   0.315   2.705   6.739  0.1882 -0.6415 -1.2509
 3740SOL    HW222854   0.183   2.659   6.676  1.1798 -1.1734 -1.0738
 3741SOL     OW22855   0.398   1.033   4.113  0.4266  0.4955 -0.0914
 3741SOL    HW122856   0.402   1.115   4.162  0.2318  0.3987  0.0864
 3741SOL    HW222857   0.305   1.009   4.117  1.0025 -1.7072  0.2126
 3742SOL     OW22858   2.695   1.382   8.197  0.1850 -0.4313 -0.3842
 3742SOL    HW122859   2.655   1.303   8.234  0.1307 -1.2177 -2.0975
 3742SOL    HW222860   2.717   1.431   8.276  2.3526  1.3382 -2.0830
 3743SOL     OW22861   3.497   2.725  15.971  0.3208  0.4535 -0.2597
 3743SOL    HW122862   3.541   2.652  16.015  0.1794  0.6890  0.2735
 3743SOL    HW222863   3.409   2.726  16.009  0.4253 -0.9304  0.0047
 3744SOL     OW22864   3.696   3.202  17.108  0.1252 -0.6563  0.2756
 3744SOL    HW122865   3.646   3.198  17.026 -2.3041  2.5091  1.6123
 3744SOL    HW222866   3.623   3.169  17.161  0.2946  1.0523  1.5534
 3745SOL     OW22867   4.036   3.282   6.814 -0.1911  0.0570 -0.6294
 3745SOL    HW122868   4.055   3.368   6.778  1.0754  0.1697  0.3195
 3745SOL    HW222869   3.966   3.257   6.753 -0.8521  1.1238 -0.2920
 3746SOL     OW22870   4.107   1.136  16.521 -0.6018 -0.4369 -0.7746
 3746SOL    HW122871   4.181   1.195  16.505 -0.4310 -0.2166  0.7883
 3746SOL    HW222872   4.153   1.053  16.511  1.6845  0.9658 -1.8721
 3747SOL     OW22873   2.847   3.319   2.096  0.5374 -0.4445 -0.0018
 3747SOL    HW122874   2.781   3.253   2.078 -1.2771  1.2573  0.3191
 3747SOL    HW222875   2.802   3.392   2.139  2.7922  0.1236  1.4020
 3748SOL     OW22876   0.208   3.169  12.183 -0.2834 -0.0836 -0.8542
 3748SOL    HW122877   0.216   3.247  12.129  2.3554 -1.1617 -1.9617
 3748SOL    HW222878   0.176   3.203  12.267  0.6261 -1.4389  0.0461
 3749SOL     OW22879   2.611   3.570   3.169 -0.0103  0.1231  0.2484
 3749SOL    HW122880   2.673   3.545   3.101  1.4982  1.1370  1.2440
 3749SOL    HW222881   2.664   3.605   3.241 -1.1020 -2.6859  2.4445
 3750SOL     OW22882   3.482   4.415   6.789  0.4837  0.6158 -0.1322
 3750SOL    HW122883   3.387   4.416   6.801  0.4858  2.5057 -0.2388
 3750SOL    HW222884   3.485   4.485   6.724  1.4072  0.1156 -0.6139
 3751SOL     OW22885   2.492   1.187   1.367  0.0384 -0.0147  0.7096
 3751SOL    HW122886   2.412   1.217   1.323 -0.1963 -0.9332  0.5113
 3751SOL    HW222887   2.469   1.115   1.425  0.3016  0.2583  1.1549
 3752SOL     OW22888   0.375   4.165   9.418  0.0067 -0.3888  0.5291
 3752SOL    HW122889   0.355   4.186   9.509 -0.4151 -0.2454  0.4005
 3752SOL    HW222890   0.451   4.221   9.399  1.8848 -3.1872 -0.3210
 3753SOL     OW22891   0.319   2.698  11.220  0.4807 -0.1032  0.1492
 3753SOL    HW122892   0.293   2.702  11.312 -3.4217 -0.5061 -0.9314
 3753SOL    HW222893   0.412   2.705  11.237  0.4134  0.0434  0.4436
 3754SOL     OW22894   3.335   1.783   3.101  0.6984 -0.1818 -0.5142
 3754SOL    HW122895   3.340   1.748   3.012  1.9554  0.8540 -0.8485
 3754SOL    HW222896   3.334   1.696   3.141  0.1864 -0.2101 -0.5944
 3755SOL     OW22897   2.367   3.702   5.340 -0.0464 -0.9429  0.4676
 3755SOL    HW122898   2.398   3.675   5.426 -2.6033 -1.1610  1.3054
 3755SOL    HW222899   2.275   3.676   5.344  1.0312 -5.0226 -1.8547
 3756SOL     OW22900   2.759   2.903   5.335 -0.4232 -0.3935  0.0415
 3756SOL    HW122901   2.752   2.962   5.410  0.4633 -0.4614  0.1757
 3756SOL    HW222902   2.801   2.832   5.384  1.8319  0.3695 -0.8065
 3757SOL     OW22903   2.176   3.038   3.382 -0.0306  0.0014 -0.0010
 3757SOL    HW122904   2.231   3.116   3.385 -0.3294  0.2753 -1.4006
 3757SOL    HW222905   2.133   3.039   3.467  0.1105 -2.4257  0.0802
 3758SOL     OW22906   0.687   2.495   7.377  0.2207 -1.1767  0.3566
 3758SOL    HW122907   0.649   2.541   7.301  1.4025 -0.4962  0.1729
 3758SOL    HW222908   0.626   2.422   7.381 -2.9715  1.4431  0.1762
 3759SOL     OW22909   3.024   0.389  13.098 -1.0629  0.5500  0.0053
 3759SOL    HW122910   3.108   0.420  13.131 -1.2866  0.2631  0.8528
 3759SOL    HW222911   3.053   0.362  13.011 -1.0745 -0.6016  0.3621
 3760SOL     OW22912   1.777   4.563   8.221 -0.1881 -0.3221  0.5711
 3760SOL    HW122913   1.802   4.596   8.307 -0.7892  2.4917 -0.3600
 3760SOL    HW222914   1.682   4.574   8.221 -0.2022 -0.4583 -2.1577
 3761SOL     OW22915   2.607   3.055   8.608 -0.1633 -0.4070 -0.5156
 3761SOL    HW122916   2.626   2.986   8.672 -0.6826  0.8868  1.0639
 3761SOL    HW222917   2.528   3.021   8.567  0.3397 -0.6001 -1.3175
 3762SOL     OW22918   4.565   2.333   5.100  0.5649 -0.4708  0.1422
 3762SOL    HW122919   4.548   2.414   5.148  0.4430  0.9693 -2.3388
 3762SOL    HW222920   4.503   2.332   5.027 -0.0195 -0.0907  0.6406
 3763SOL     OW22921   2.256   4.221   8.015  0.7222  0.8177 -0.8112
 3763SOL    HW122922   2.285   4.227   8.106 -0.6307 -0.0662 -0.3288
 3763SOL    HW222923   2.225   4.311   8.003  0.4254  0.7233 -0.7426
 3764SOL     OW22924   2.566   1.952   2.595 -0.1263  0.0464  0.0578
 3764SOL    HW122925   2.503   1.884   2.621 -1.8440  1.2330 -0.9606
 3764SOL    HW222926   2.656   1.925   2.613 -0.2534 -0.7937 -0.5584
 3765SOL     OW22927   1.671   4.231   6.972  0.6102  0.1770 -0.5017
 3765SOL    HW122928   1.649   4.138   6.960 -0.9779  0.6422 -1.1988
 3765SOL    HW222929   1.706   4.232   7.061 -2.0215  0.4614  0.5289
 3766SOL     OW22930   2.280   3.017  12.045  0.5550 -0.2332  0.1069
 3766SOL    HW122931   2.297   3.022  12.140  0.6107  0.5686  0.0612
 3766SOL    HW222932   2.261   3.108  12.020 -2.9512 -1.5059 -1.8178
 3767SOL     OW22933   1.111   0.693   4.694  0.2683  0.3111 -0.0742
 3767SOL    HW122934   1.140   0.781   4.668  0.9369  0.5445  1.4836
 3767SOL    HW222935   1.187   0.640   4.669 -0.7103 -0.2818 -1.8131
 3768SOL     OW22936   3.206   2.686   5.885  0.2407  0.2347  0.2683
 3768SOL    HW122937   3.171   2.622   5.823 -0.3657 -0.4305  1.2957
 3768SOL    HW222938   3.200   2.770   5.839  0.8038  0.5253  0.7211
 3769SOL     OW22939   0.176   0.677   4.349  0.7374 -0.2836  0.4355
 3769SOL    HW122940   0.094   0.717   4.377  0.4353  0.1059 -1.0021
 3769SOL    HW222941   0.166   0.607   4.413  0.5456 -0.0232  0.6910
 3770SOL     OW22942   3.321   4.512   2.316 -0.4107  0.1158  0.5609
 3770SOL    HW122943   3.293   4.472   2.234 -0.0459  0.7819  0.1137
 3770SOL    HW222944   3.267   4.589   2.332  1.8028  1.6649  0.4867
 3771SOL     OW22945   3.541   4.614  13.078 -0.1860  0.1064  0.0230
 3771SOL    HW122946   3.516   4.532  13.034  0.2023 -0.8426  1.5777
 3771SOL    HW222947   3.454   4.639  13.109 -1.0577 -3.7211  0.6559
 3772SOL     OW22948   0.101   0.240  10.548  0.4837  0.7025  0.0665
 3772SOL    HW122949   0.104   0.155  10.593  2.1173  0.4216 -0.5640
 3772SOL    HW222950   0.039   0.283  10.606  0.6916 -0.2588  1.0004
 3773SOL     OW22951   3.311   1.136   6.388  0.3481  0.1538 -0.0048
 3773SOL    HW122952   3.261   1.076   6.443  2.4168 -1.3465  0.2648
 3773SOL    HW222953   3.379   1.154   6.454 -0.1549 -0.2060  0.6153
 3774SOL     OW22954   1.404   1.104   8.937 -0.3427  0.1362 -0.2371
 3774SOL    HW122955   1.451   1.159   9.000  0.3710  1.8546 -2.2438
 3774SOL    HW222956   1.336   1.165   8.908 -2.0073 -1.4223  0.4218
 3775SOL     OW22957   2.731   4.398   5.726 -0.0116  0.6314 -0.0444
 3775SOL    HW122958   2.779   4.316   5.732 -2.5651 -0.7454  1.9476
 3775SOL    HW222959   2.662   4.378   5.662  0.5116  1.4906 -0.8705
 3776SOL     OW22960   2.894   3.547   4.664  0.4787 -0.2173 -0.2481
 3776SOL    HW122961   2.798   3.550   4.664  0.4506 -1.2672  1.0161
 3776SOL    HW222962   2.906   3.484   4.593  0.1050  0.4028 -0.8601
 3777SOL     OW22963   0.675   0.786   6.882  0.2041 -0.3269  0.2520
 3777SOL    HW122964   0.612   0.855   6.902  1.1601  0.8941 -0.9570
 3777SOL    HW222965   0.750   0.845   6.881  0.6878 -0.9629 -0.5742
 3778SOL     OW22966   3.837   1.996   7.583  0.4314  0.0797  0.1898
 3778SOL    HW122967   3.878   2.007   7.669  0.5987 -2.8078  0.4475
 3778SOL    HW222968   3.906   1.969   7.524 -0.8312 -0.7596 -0.8990
 3779SOL     OW22969   4.602   3.801   7.791 -0.0309 -0.3567  0.4642
 3779SOL    HW122970   4.593   3.866   7.860 -0.1253 -0.2124  0.3160
 3779SOL    HW222971   4.577   3.855   7.716 -0.1710  0.0137  0.7766
 3780SOL     OW22972   4.037   3.898   3.818  0.2918  0.1197  0.2804
 3780SOL    HW122973   4.092   3.966   3.779 -0.5304  1.8319  2.1715
 3780SOL    HW222974   3.952   3.918   3.778 -0.1214 -0.9795  0.5918
 3781SOL     OW22975   3.972   2.591  10.019  0.4060 -0.1590 -0.5621
 3781SOL    HW122976   4.013   2.677  10.017 -2.0958  1.0374 -0.4616
 3781SOL    HW222977   4.043   2.527  10.028  1.1878  1.0951  2.1213
 3782SOL     OW22978   0.629   0.541  16.984  0.2364  0.3999 -0.1220
 3782SOL    HW122979   0.565   0.499  16.926  2.1608 -1.7844 -0.6447
 3782SOL    HW222980   0.579   0.619  17.008 -0.1526  0.5713 -1.4522
 3783SOL     OW22981   3.837   1.717   6.908 -0.6585 -0.0455  0.4124
 3783SOL    HW122982   3.782   1.686   6.980 -0.4169  0.0870  0.6580
 3783SOL    HW222983   3.854   1.634   6.865  0.7893  0.3314  0.2549
 3784SOL     OW22984   4.560   2.430   4.484 -0.2654  0.0135  0.1562
 3784SOL    HW122985   4.648   2.466   4.488 -0.0330 -0.5101 -0.1710
 3784SOL    HW222986   4.520   2.479   4.413 -2.3191 -0.5473  0.9249
 3785SOL     OW22987   2.436   2.811   7.913  0.2649 -0.2067 -0.2300
 3785SOL    HW122988   2.374   2.788   7.844 -0.7088  0.4165  0.4392
 3785SOL    HW222989   2.500   2.740   7.915  0.3146 -0.1209  1.1835
 3786SOL     OW22990   0.346   0.195   8.232  0.7296 -0.1352 -0.5185
 3786SOL    HW122991   0.332   0.230   8.144  0.8777 -0.9908 -0.8786
 3786SOL    HW222992   0.364   0.279   8.274 -0.7835 -0.9921  1.8307
 3787SOL     OW22993   1.453   1.025   3.356 -0.1918  0.3618  0.1720
 3787SOL    HW122994   1.461   1.104   3.303  3.5471  0.7747  1.3904
 3787SOL    HW222995   1.411   0.966   3.293 -1.9261  0.9011  0.8081
 3788SOL     OW22996   4.305   1.973   1.655  1.0176 -0.6635 -0.4443
 3788SOL    HW122997   4.347   2.054   1.682 -2.7150  0.7665  1.0082
 3788SOL    HW222998   4.377   1.910   1.661  2.0482  0.5473 -0.2694
 3789SOL     OW22999   4.270   4.646   3.165  0.2397 -0.0102 -0.1885
 3789SOL    HW123000   4.329   4.662   3.091 -0.7816  1.1941 -0.7398
 3789SOL    HW223001   4.285   4.556   3.192 -0.3777  0.6792  2.4437
 3790SOL     OW23002   4.554   2.831   8.270  0.1783  0.0800 -0.5293
 3790SOL    HW123003   4.572   2.738   8.259  0.5061  0.0763  0.0759
 3790SOL    HW223004   4.461   2.816   8.290  0.2823  0.0698 -0.0612
 3791SOL     OW23005   0.812   1.308   7.922 -0.3163  0.2221  0.1934
 3791SOL    HW123006   0.765   1.282   8.001  1.8002 -0.7957  1.1161
 3791SOL    HW223007   0.869   1.376   7.956  1.2806 -1.8117  1.5373
 3792SOL     OW23008   4.105   0.935   9.173 -0.5295 -0.1954  0.1935
 3792SOL    HW123009   4.070   0.927   9.262  0.4276 -0.6198  0.5262
 3792SOL    HW223010   4.128   0.843   9.161 -0.9412 -0.9205  4.9368
 3793SOL     OW23011   4.080   1.906  15.429  0.0083  0.2350  0.1336
 3793SOL    HW123012   4.073   1.812  15.413  0.4302  0.0271  1.1764
 3793SOL    HW223013   4.050   1.907  15.520  0.5862 -0.0089  0.3241
 3794SOL     OW23014   3.915   1.791   4.811  0.3710  0.2319 -0.5529
 3794SOL    HW123015   3.826   1.785   4.844  1.4499  0.1398  2.3042
 3794SOL    HW223016   3.963   1.803   4.893 -0.0143  0.3707 -0.3472
 3795SOL     OW23017   4.162   0.745  11.034 -0.3303 -0.1424 -0.4960
 3795SOL    HW123018   4.172   0.825  11.086  0.3568 -0.1716 -0.5925
 3795SOL    HW223019   4.232   0.693  11.073 -0.7815 -0.1960  0.2365
 3796SOL     OW23020   2.968   1.720   9.814 -0.3394  0.2401  0.3094
 3796SOL    HW123021   2.961   1.639   9.866  1.3101  0.6326  1.1321
 3796SOL    HW223022   2.923   1.767   9.884 -1.0124  2.1665 -1.4445
 3797SOL     OW23023   3.098   0.491   5.711  0.6230  0.0429  0.1579
 3797SOL    HW123024   3.089   0.586   5.710  0.4008  0.0477  1.9196
 3797SOL    HW223025   3.140   0.473   5.627 -3.2929 -1.8006 -1.3980
 3798SOL     OW23026   1.446   2.760  17.389  1.0836 -0.5260  0.8472
 3798SOL    HW123027   1.373   2.800  17.437  2.1314  0.4096  1.6650
 3798SOL    HW223028   1.425   2.769  17.296  1.2260  1.8202  1.0418
 3799SOL     OW23029   2.816   2.299   6.462  0.2063  0.3496 -0.4159
 3799SOL    HW123030   2.820   2.225   6.402 -3.6466 -0.5836  0.4825
 3799SOL    HW223031   2.869   2.360   6.412  1.8034  0.9904  2.0575
 3800SOL     OW23032   3.566   4.536   8.504 -0.1684 -0.4463 -0.7229
 3800SOL    HW123033   3.654   4.565   8.478  0.2804 -1.7998 -0.7373
 3800SOL    HW223034   3.561   4.555   8.597 -0.3409 -1.1663 -0.5885
 3801SOL     OW23035   0.666   3.863   5.821  0.8615  0.2027 -0.2965
 3801SOL    HW123036   0.607   3.864   5.746  0.7425  1.3847 -0.1974
 3801SOL    HW223037   0.629   3.935   5.872  0.0263 -0.4992  0.0838
 3802SOL     OW23038   0.654   2.049  10.059 -0.2914  0.2508 -0.1941
 3802SOL    HW123039   0.719   1.989  10.020 -2.6037 -2.5674  0.2612
 3802SOL    HW223040   0.677   2.056  10.152  0.2499 -0.3265 -0.2874
 3803SOL     OW23041   1.878   3.066   3.738 -0.2587  0.1760  0.1470
 3803SOL    HW123042   1.851   2.989   3.687  2.0687 -1.1897  0.9388
 3803SOL    HW223043   1.971   3.042   3.743 -0.1653  0.7228  1.1059
 3804SOL     OW23044   0.030   4.691  14.394 -0.0169 -0.0725  0.1560
 3804SOL    HW123045   0.022   4.634  14.470  1.9477 -0.6570 -0.0719
 3804SOL    HW223046   4.736   4.635  14.323 -0.5060 -1.0401  1.1312
 3805SOL     OW23047   2.757   2.702   4.830  0.5472 -0.4515  0.2292
 3805SOL    HW123048   2.850   2.711   4.809  0.2931 -0.4068 -0.8948
 3805SOL    HW223049   2.749   2.681   4.923  0.0286  0.3237  0.3627
 3806SOL     OW23050   3.795   2.067   1.747  0.0777 -0.1885 -0.3021
 3806SOL    HW123051   3.705   2.100   1.739  0.7422  1.0502 -2.6718
 3806SOL    HW223052   3.790   1.981   1.705 -1.1379  0.0267 -0.6123
 3807SOL     OW23053   1.314   4.456   5.107  0.2642  0.0867 -0.4565
 3807SOL    HW123054   1.386   4.503   5.065  1.2788  0.7657  2.0622
 3807SOL    HW223055   1.237   4.512   5.101 -0.8405 -1.4984 -1.0397
 3808SOL     OW23056   2.237   1.927  15.119  0.0565  0.2666 -0.4855
 3808SOL    HW123057   2.183   1.855  15.150  1.9930 -0.5336  1.0192
 3808SOL    HW223058   2.258   1.952  15.209  1.4667 -2.4241 -0.0736
 3809SOL     OW23059   4.362   4.427   7.060 -0.4192 -0.2626  0.6048
 3809SOL    HW123060   4.427   4.485   7.020  0.4887  1.1241  4.0730
 3809SOL    HW223061   4.301   4.490   7.097 -0.7567 -1.1467  1.5925
 3810SOL     OW23062   3.677   3.382  12.726 -0.3032 -0.8121 -0.3023
 3810SOL    HW123063   3.762   3.424  12.713  0.1758 -0.9567  2.4555
 3810SOL    HW223064   3.671   3.387  12.821 -2.9545 -1.8781 -0.4236
 3811SOL     OW23065   4.283   2.173  12.159  0.2437  0.6011 -0.3571
 3811SOL    HW123066   4.327   2.257  12.168  0.7748  0.4185 -1.2587
 3811SOL    HW223067   4.348   2.125  12.108  0.3482  0.0052  0.3199
 3812SOL     OW23068   0.815   4.188   6.524  0.1436 -0.5588  0.2689
 3812SOL    HW123069   0.824   4.093   6.522  0.8286 -0.5176  1.5324
 3812SOL    HW223070   0.903   4.209   6.554  0.7316 -1.7841 -0.6056
 3813SOL     OW23071   0.674   0.845   7.198  0.1412 -0.0703 -0.0658
 3813SOL    HW123072   0.591   0.799   7.207 -0.7376  1.5039 -0.2425
 3813SOL    HW223073   0.693   0.848   7.292 -0.3405  3.4147 -0.1063
 3814SOL     OW23074   3.278   1.151   7.469  0.6038  0.5068 -0.3971
 3814SOL    HW123075   3.234   1.149   7.554 -1.6990 -0.2999 -1.5811
 3814SOL    HW223076   3.200   1.162   7.414  0.8178  2.0121 -0.3873
 3815SOL     OW23077   3.802   4.089   1.855  0.6908  0.5494 -0.5779
 3815SOL    HW123078   3.747   4.164   1.836 -0.6850 -0.2060  0.3575
 3815SOL    HW223079   3.788   4.048   1.770 -1.4502  0.4958 -0.1971
 3816SOL     OW23080   1.049   1.946  17.104  0.1976  0.4533 -0.6241
 3816SOL    HW123081   0.988   1.892  17.054 -0.4947  0.5889  0.0726
 3816SOL    HW223082   1.051   2.024  17.049  1.0466  2.2049  1.9181
 3817SOL     OW23083   0.818   1.564   4.421 -0.0738 -0.0325  0.1572
 3817SOL    HW123084   0.761   1.570   4.498  0.4285 -0.1375  0.5428
 3817SOL    HW223085   0.859   1.650   4.422  0.3061 -0.2226  1.0463
 3818SOL     OW23086   1.235   0.723   3.518 -0.2538  0.1686 -0.7757
 3818SOL    HW123087   1.269   0.693   3.434  0.9478 -0.3780 -0.1084
 3818SOL    HW223088   1.293   0.681   3.582 -1.4646 -0.2394  0.0459
 3819SOL     OW23089   2.600   0.276   7.386 -0.2781 -0.1134 -0.0801
 3819SOL    HW123090   2.665   0.346   7.373 -0.6580  0.1154 -0.7414
 3819SOL    HW223091   2.639   0.217   7.322  3.0657  0.3748  1.4605
 3820SOL     OW23092   4.660   4.495   2.130 -0.0587  0.1373  0.1282
 3820SOL    HW123093   4.683   4.482   2.222 -0.5381  2.3676  0.5604
 3820SOL    HW223094   4.572   4.531   2.134  0.2598  1.1224 -1.8985
 3821SOL     OW23095   4.312   0.489  15.350 -0.3820  0.4423 -0.1789
 3821SOL    HW123096   4.244   0.423  15.363 -0.6749  0.7747 -0.0316
 3821SOL    HW223097   4.336   0.499  15.443 -1.5168 -1.0491  0.2683
 3822SOL     OW23098   2.494   1.808   3.247 -0.6940 -0.0296 -0.4796
 3822SOL    HW123099   2.460   1.843   3.329  0.8501  1.0323 -0.2979
 3822SOL    HW223100   2.565   1.870   3.234 -1.1620  0.5436 -0.3141
 3823SOL     OW23101   3.859   4.491   0.225 -0.3120  0.5706 -0.1657
 3823SOL    HW123102   3.854   4.424   0.293  3.7019  1.2274  0.8062
 3823SOL    HW223103   3.854   4.436   0.147  0.7486 -2.1775  1.7308
 3824SOL     OW23104   1.195   3.646  11.856  0.6159  0.6507 -0.2633
 3824SOL    HW123105   1.275   3.678  11.816  1.8416  0.9795  2.4907
 3824SOL    HW223106   1.204   3.692  11.939 -0.8954  0.6712 -0.0973
 3825SOL     OW23107   1.242   1.309   2.982 -0.7210 -0.1035  0.7308
 3825SOL    HW123108   1.211   1.250   3.050  1.7101  0.5778  2.4084
 3825SOL    HW223109   1.319   1.266   2.946 -0.5581 -1.0263  2.2289
 3826SOL     OW23110   2.614   0.969   2.231  0.6537 -0.6634  0.0621
 3826SOL    HW123111   2.595   0.877   2.219  1.1751 -1.2533  3.5700
 3826SOL    HW223112   2.606   0.961   2.327 -3.4403  0.9166 -0.1484
 3827SOL     OW23113   1.526   2.253   7.873  0.1314 -0.6409 -0.0830
 3827SOL    HW123114   1.506   2.217   7.959  1.2571 -1.4160 -0.1393
 3827SOL    HW223115   1.447   2.298   7.845 -0.4952 -0.8821  1.3104
 3828SOL     OW23116   1.183   1.418   6.215  0.5311  0.0124  0.5903
 3828SOL    HW123117   1.217   1.341   6.169 -4.5458 -1.4202 -0.7906
 3828SOL    HW223118   1.267   1.458   6.236  0.7373  0.4968 -1.1871
 3829SOL     OW23119   1.513   2.954   2.170 -0.0713 -0.3993  0.5514
 3829SOL    HW123120   1.600   2.930   2.140  0.4901  2.8487 -0.4292
 3829SOL    HW223121   1.454   2.898   2.118  0.1381  0.8212 -1.0163
 3830SOL     OW23122   4.275   2.342   6.752 -0.4790  0.4766 -0.3483
 3830SOL    HW123123   4.255   2.325   6.844 -0.7130 -0.2136 -0.5295
 3830SOL    HW223124   4.321   2.262   6.727 -0.1205  0.6472 -0.2380
 3831SOL     OW23125   4.551   0.452  10.047 -0.4022  0.4119  0.2750
 3831SOL    HW123126   4.629   0.496  10.079  0.4863  0.2288 -1.6518
 3831SOL    HW223127   4.511   0.407  10.121  1.4753  0.1187  1.1024
 3832SOL     OW23128   2.723   1.253   9.229 -0.1056 -0.6293  0.6344
 3832SOL    HW123129   2.646   1.264   9.174  0.5610 -0.2410 -0.2191
 3832SOL    HW223130   2.791   1.250   9.162 -0.8768 -0.1538 -0.1743
 3833SOL     OW23131   2.093   3.849   9.730  0.6805  0.2742  0.4573
 3833SOL    HW123132   2.069   3.866   9.821  0.5031  3.0770 -0.1418
 3833SOL    HW223133   2.084   3.941   9.706  1.8113 -0.3205 -2.2204
 3834SOL     OW23134   3.346   2.052   8.291 -0.2299  0.5723  0.0937
 3834SOL    HW123135   3.293   2.095   8.358  0.6940  2.6683 -0.5388
 3834SOL    HW223136   3.432   2.071   8.327 -0.2608  0.0875  0.4278
 3835SOL     OW23137   2.246   0.329   6.889 -0.3859  0.2751 -0.3988
 3835SOL    HW123138   2.214   0.248   6.848  1.4114  0.5324 -2.3478
 3835SOL    HW223139   2.169   0.386   6.892 -0.0748  0.6866 -0.2186
 3836SOL     OW23140   3.848   4.479   4.100 -0.4960 -0.2131 -0.1668
 3836SOL    HW123141   3.835   4.418   4.172  0.1518 -0.4618 -0.2649
 3836SOL    HW223142   3.782   4.466   4.031 -0.5068 -0.2562 -0.1481
 3837SOL     OW23143   2.890   0.366   1.985 -0.4579  0.0413  0.0970
 3837SOL    HW123144   2.977   0.396   1.961  0.1218 -0.3827  1.6603
 3837SOL    HW223145   2.845   0.406   1.911 -1.4741 -2.7440 -0.8141
 3838SOL     OW23146   4.108   3.220   4.196  0.2606  0.1222  0.2151
 3838SOL    HW123147   4.116   3.128   4.171  0.5829  0.0045  0.7481
 3838SOL    HW223148   4.014   3.235   4.210  0.1800 -1.4844  1.3825
 3839SOL     OW23149   3.089   3.943  14.331  0.1192  0.0579  0.0744
 3839SOL    HW123150   3.078   4.017  14.390 -1.2920 -0.1550  0.0931
 3839SOL    HW223151   3.150   3.969  14.262  0.4076  0.4249  0.4725
 3840SOL     OW23152   0.764   4.170  14.627  0.6213 -0.3128 -0.5335
 3840SOL    HW123153   0.773   4.098  14.565  1.8699 -1.6828  1.2467
 3840SOL    HW223154   0.766   4.126  14.712  1.3620 -0.3622 -0.5769
 3841SOL     OW23155   3.983   1.366   8.385 -0.2568 -0.5449 -0.2706
 3841SOL    HW123156   3.906   1.310   8.394  0.3788 -1.8875 -3.1623
 3841SOL    HW223157   3.959   1.415   8.306 -0.1170  0.9316  0.6143
 3842SOL     OW23158   1.098   0.988   6.679  0.2969 -0.8884 -0.0473
 3842SOL    HW123159   1.145   0.916   6.719  0.6993 -0.3530  0.4472
 3842SOL    HW223160   1.131   1.063   6.729  0.5105 -0.1074 -1.3588
 3843SOL     OW23161   4.360   1.552   1.149 -0.0796  0.3377  0.3403
 3843SOL    HW123162   4.320   1.504   1.077 -0.8560  3.6138 -1.4498
 3843SOL    HW223163   4.391   1.634   1.111 -0.8096  0.6874  0.4805
 3844SOL     OW23164   2.132   3.289  13.210  0.0378  0.0082 -0.4150
 3844SOL    HW123165   2.082   3.253  13.282 -0.1246 -0.4842 -0.7738
 3844SOL    HW223166   2.120   3.383  13.223  1.7507  0.2663 -0.6460
 3845SOL     OW23167   4.265   0.017  17.457  0.6264  0.3350  0.3944
 3845SOL    HW123168   4.310   4.672  17.431 -0.7681  0.9344 -3.8718
 3845SOL    HW223169   4.179   4.727  17.490  0.9738  0.7330  1.5958
 3846SOL     OW23170   1.794   3.026  17.199  0.6791  0.3692 -0.4975
 3846SOL    HW123171   1.811   3.089  17.129 -1.0582  0.4983 -0.7917
 3846SOL    HW223172   1.817   2.940  17.165  2.1382  0.0251  1.3349
 3847SOL     OW23173   3.516   2.283   9.263  0.7335  0.4728 -0.3451
 3847SOL    HW123174   3.601   2.326   9.266  0.0880  1.7887 -1.1366
 3847SOL    HW223175   3.538   2.207   9.317 -3.2869 -1.0766 -0.9028
 3848SOL     OW23176   0.272   2.447   6.230  0.4753  0.0644 -0.0130
 3848SOL    HW123177   0.256   2.363   6.187 -1.3673 -0.8312  2.4168
 3848SOL    HW223178   0.365   2.438   6.250  0.7119  0.8273 -0.7710
 3849SOL     OW23179   3.292   3.121   2.606  0.4767 -0.1428 -0.2710
 3849SOL    HW123180   3.368   3.153   2.558 -0.9484  2.1259 -1.0254
 3849SOL    HW223181   3.283   3.034   2.568  0.6174  0.0114 -0.6560
 3850SOL     OW23182   1.363   1.323  12.027 -0.0915  0.1119  0.0707
 3850SOL    HW123183   1.365   1.411  11.989  0.1717  0.6517  1.3483
 3850SOL    HW223184   1.271   1.297  12.024  0.0165 -0.1091 -1.2966
 3851SOL     OW23185   1.011   2.670   1.558  0.4588  0.5488  0.1592
 3851SOL    HW123186   0.923   2.645   1.529 -0.1768  1.2382  1.5062
 3851SOL    HW223187   0.983   2.729   1.627 -1.2898 -0.4768  0.3142
 3852SOL     OW23188   3.496   3.148   5.326  0.1391  0.3922 -0.2932
 3852SOL    HW123189   3.409   3.167   5.292 -0.0876  0.2352  0.2106
 3852SOL    HW223190   3.515   3.062   5.290  2.2341  0.4810  0.5538
 3853SOL     OW23191   0.956   1.428   8.368  0.8362 -0.1112  0.1008
 3853SOL    HW123192   0.905   1.509   8.363  0.5952 -0.3079 -0.6581
 3853SOL    HW223193   0.988   1.428   8.458  0.5333  2.1749  0.2021
 3854SOL     OW23194   0.504   1.716   1.761 -0.2894  0.5186  0.5001
 3854SOL    HW123195   0.472   1.736   1.673  0.9858  0.4012  0.0209
 3854SOL    HW223196   0.594   1.745   1.749 -0.5486  1.0469 -0.1833
 3855SOL     OW23197   1.425   3.745   6.518 -0.3332 -0.2258  0.4305
 3855SOL    HW123198   1.415   3.694   6.438 -2.9598 -0.7037  1.0847
 3855SOL    HW223199   1.521   3.745   6.518 -0.3298 -1.5851  0.2649
 3856SOL     OW23200   2.047   4.588   9.512 -0.6318 -0.2402  0.6524
 3856SOL    HW123201   2.003   4.503   9.516  1.1024 -1.1650 -0.0679
 3856SOL    HW223202   2.130   4.559   9.549 -1.8004 -0.4380  3.0895
 3857SOL     OW23203   3.964   2.713  11.290 -0.5216  0.0315 -0.2443
 3857SOL    HW123204   4.027   2.785  11.297  1.4252 -1.8084  1.1622
 3857SOL    HW223205   3.958   2.695  11.384  1.3293  1.7133  0.2065
 3858SOL     OW23206   4.664   0.373  13.020 -0.2182 -0.1416 -0.2905
 3858SOL    HW123207   0.005   0.332  13.057  0.2816 -0.4094 -1.6212
 3858SOL    HW223208   4.701   0.391  12.934  1.7075 -0.2967  0.5141
 3859SOL     OW23209   1.887   3.988   4.612 -0.8989 -0.2584 -0.4218
 3859SOL    HW123210   1.826   4.057   4.587 -0.9044  0.0884  0.5230
 3859SOL    HW223211   1.957   3.990   4.547  0.6048  2.5312  1.2799
 3860SOL     OW23212   0.172   2.647   0.473 -0.1417  0.0457 -0.5477
 3860SOL    HW123213   0.219   2.566   0.492 -0.2540 -0.3888 -2.1296
 3860SOL    HW223214   0.092   2.636   0.525 -0.0127 -0.5801 -0.4905
 3861SOL     OW23215   1.155   1.261   5.253 -0.3095 -0.0687  0.0287
 3861SOL    HW123216   1.063   1.252   5.228  0.3206 -5.0089 -0.6800
 3861SOL    HW223217   1.167   1.173   5.289  1.4685 -0.8843 -2.5657
 3862SOL     OW23218   4.321   4.549  14.747 -0.0123 -0.2319  0.0216
 3862SOL    HW123219   4.398   4.533  14.691 -0.9395 -0.8710 -1.0873
 3862SOL    HW223220   4.354   4.565  14.835  0.2561  2.5302 -0.5881
 3863SOL     OW23221   4.446   3.626   0.105  0.3176  0.0985  0.3501
 3863SOL    HW123222   4.527   3.651   0.149  0.2582  0.2908  0.3519
 3863SOL    HW223223   4.468   3.610   0.013 -2.9745  1.4124 -0.6818
 3864SOL     OW23224   1.237   2.255  12.106 -0.5001 -0.3761 -0.0071
 3864SOL    HW123225   1.287   2.180  12.074  2.1359  1.1298  0.5792
 3864SOL    HW223226   1.296   2.328  12.085 -1.2778  0.3031  0.1771
 3865SOL     OW23227   3.644   1.036   1.833  0.3571 -0.0060  0.1046
 3865SOL    HW123228   3.548   1.042   1.831  0.1891 -2.2122  1.7342
 3865SOL    HW223229   3.673   1.092   1.904  1.6716  0.5878 -0.8896
 3866SOL     OW23230   4.364   3.024   7.655 -0.0651 -0.3132 -0.2041
 3866SOL    HW123231   4.409   2.975   7.724  1.4128 -1.8272 -2.2260
 3866SOL    HW223232   4.365   3.114   7.687 -0.0773 -0.2227 -0.4530
 3867SOL     OW23233   2.904   3.611   1.785 -0.0040 -0.3382  0.0162
 3867SOL    HW123234   2.945   3.560   1.855  0.1943 -1.2401 -0.7536
 3867SOL    HW223235   2.873   3.688   1.832 -0.7199 -0.6423  0.0474
 3868SOL     OW23236   3.472   3.071   6.410  0.0332 -0.1293  0.2121
 3868SOL    HW123237   3.558   3.111   6.418 -1.1646  2.3773  0.5590
 3868SOL    HW223238   3.506   2.984   6.391  0.8247  0.6661 -2.0437
 3869SOL     OW23239   3.186   4.457   5.565  0.8011  0.5485 -0.0630
 3869SOL    HW123240   3.110   4.456   5.623  0.1264 -1.0746 -0.9819
 3869SOL    HW223241   3.151   4.505   5.490  0.4860 -0.7787 -0.7629
 3870SOL     OW23242   2.512   2.956  12.487  0.0923 -0.0050 -0.5402
 3870SOL    HW123243   2.474   3.037  12.522  1.8522  0.8109 -0.5300
 3870SOL    HW223244   2.580   2.931  12.549  1.3782  3.6945 -0.4389
 3871SOL     OW23245   1.158   3.591  11.471  0.5781 -0.4586 -0.3283
 3871SOL    HW123246   1.225   3.527  11.451  1.2828  0.7838 -1.9577
 3871SOL    HW223247   1.094   3.542  11.522 -0.4325  0.3887 -0.7699
 3872SOL     OW23248   2.963   0.849  17.466 -0.0904  0.3360 -0.2133
 3872SOL    HW123249   2.939   0.757  17.467  0.3282  0.2249 -0.0929
 3872SOL    HW223250   2.951   0.873  17.558  1.3903  2.2228 -0.4962
 3873SOL     OW23251   0.426   0.378   8.450 -0.1845 -0.0254 -0.3039
 3873SOL    HW123252   0.440   0.321   8.526  1.2643 -1.5154 -1.6921
 3873SOL    HW223253   0.432   0.458   8.503 -0.1772 -1.0891  1.2793
 3874SOL     OW23254   1.074   4.261  14.888  0.0649 -0.3002  0.1409
 3874SOL    HW123255   1.053   4.311  14.809  1.6325 -0.0148 -0.1093
 3874SOL    HW223256   1.163   4.231  14.867  0.3097 -0.7146  1.7201
 3875SOL     OW23257   4.366   4.318  12.894 -0.1365  0.3897  0.3573
 3875SOL    HW123258   4.345   4.280  12.808 -1.0491  0.9207  0.3392
 3875SOL    HW223259   4.461   4.326  12.892 -0.3523  2.9004  1.0020
 3876SOL     OW23260   0.976   1.555   9.298 -1.0405 -0.1479  0.3314
 3876SOL    HW123261   1.068   1.555   9.272 -1.3354 -0.1141 -0.7222
 3876SOL    HW223262   0.985   1.502   9.377 -0.2192  0.7307  0.8250
 3877SOL     OW23263   2.671   0.068   4.387  0.3548  0.1994  0.3088
 3877SOL    HW123264   2.708   0.135   4.330  1.2386  0.1976  0.8940
 3877SOL    HW223265   2.663   4.729   4.327  0.7755  0.8666 -0.5866
 3878SOL     OW23266   3.937   4.665  12.064  0.1728  0.7090 -0.4135
 3878SOL    HW123267   3.880   4.609  12.013  0.1909 -0.2045  0.5716
 3878SOL    HW223268   3.887   4.673  12.145 -0.4011  1.6173 -0.8620
 3879SOL     OW23269   3.036   0.204  17.186 -0.4686  0.2612  0.4845
 3879SOL    HW123270   3.028   0.273  17.251  1.4174  0.4589  0.4981
 3879SOL    HW223271   3.086   0.245  17.115 -1.4231  1.1594  0.3374
 3880SOL     OW23272   1.191   1.221  12.296 -0.1675 -0.6725  0.9076
 3880SOL    HW123273   1.160   1.200  12.208 -0.9376 -0.9688  1.2484
 3880SOL    HW223274   1.105   1.249  12.328 -0.5956 -0.6685 -0.2503
 3881SOL     OW23275   1.102   4.501   8.168  0.2838  0.0538 -0.1949
 3881SOL    HW123276   1.103   4.424   8.112 -0.5918  0.8120 -1.2483
 3881SOL    HW223277   1.109   4.458   8.253 -1.2146 -0.3376 -0.2778
 3882SOL     OW23278   1.308   1.830   9.199  0.1475 -0.1154 -0.0880
 3882SOL    HW123279   1.288   1.737   9.192  1.1761 -0.2985 -0.5829
 3882SOL    HW223280   1.362   1.848   9.121 -0.9298  0.2775 -0.7510
 3883SOL     OW23281   2.970   0.805   7.272 -1.1031 -0.4901  0.3670
 3883SOL    HW123282   3.037   0.815   7.340 -1.6361  1.5322  0.5992
 3883SOL    HW223283   3.002   0.865   7.204  0.1046 -2.1255 -0.5142
 3884SOL     OW23284   0.193   2.032   2.396  0.1578 -0.1695  0.3437
 3884SOL    HW123285   0.208   2.032   2.491 -1.4172 -0.3420  0.5817
 3884SOL    HW223286   0.145   1.951   2.381 -0.3030 -0.2761  2.3654
 3885SOL     OW23287   3.334   0.230   4.869  0.7867  0.2433 -0.0050
 3885SOL    HW123288   3.412   0.223   4.925 -0.3856 -0.6285  1.5046
 3885SOL    HW223289   3.307   0.138   4.869 -0.5294  0.6303 -0.4375
 3886SOL     OW23290   4.190   2.094   9.455  0.3160  0.4093 -0.0722
 3886SOL    HW123291   4.134   2.023   9.424  0.7568 -0.9040  2.1504
 3886SOL    HW223292   4.122   2.151   9.493 -1.0334 -1.4360  0.2721
 3887SOL     OW23293   2.548   1.902   7.079 -0.0781  0.2571  0.0988
 3887SOL    HW123294   2.463   1.878   7.116 -0.4780  3.5197  1.3175
 3887SOL    HW223295   2.568   1.840   7.009 -2.5972 -2.4349  1.8185
 3888SOL     OW23296   2.121   3.714  14.982 -0.1812 -0.3564 -0.5832
 3888SOL    HW123297   2.070   3.793  15.003  0.2681  0.3649 -2.1894
 3888SOL    HW223298   2.202   3.758  14.956 -0.5256  1.2709  1.1201
 3889SOL     OW23299   2.320   0.984  13.245 -0.2743  0.5807  0.4022
 3889SOL    HW123300   2.251   0.959  13.305 -0.1392 -2.7785 -0.8336
 3889SOL    HW223301   2.295   0.933  13.168  0.0281  1.0580 -0.0184
 3890SOL     OW23302   0.065   4.257  17.114  0.2536 -1.0623  0.7037
 3890SOL    HW123303   0.144   4.285  17.161  0.2106  1.3125 -0.6560
 3890SOL    HW223304   0.002   4.327  17.130  1.7794  0.2228  1.0388
 3891SOL     OW23305   0.547   2.805   4.189  0.2478 -0.4516 -0.1814
 3891SOL    HW123306   0.623   2.765   4.232  1.8003  3.0414  0.3337
 3891SOL    HW223307   0.545   2.889   4.236 -0.7101  0.4477 -1.8220
 3892SOL     OW23308   2.121   0.490   2.222 -0.2159 -0.2989  0.2405
 3892SOL    HW123309   2.200   0.489   2.168  0.0768  2.0892  0.6180
 3892SOL    HW223310   2.157   0.529   2.302  0.7758  0.2591 -0.4736
 3893SOL     OW23311   2.002   4.446   7.010  0.4274 -0.4453 -0.4182
 3893SOL    HW123312   2.051   4.528   7.005 -0.9626  0.3760 -0.3175
 3893SOL    HW223313   1.993   4.433   7.104  6.5587  0.4657  0.2951
 3894SOL     OW23314   0.982   2.963  12.434  0.0766 -0.2661  0.3538
 3894SOL    HW123315   0.953   2.984  12.523  1.1824 -1.1081  0.9152
 3894SOL    HW223316   0.899   2.985  12.393  0.9602  0.6324 -0.9434
 3895SOL     OW23317   3.462   0.113   7.970 -0.2706  0.1910  0.0349
 3895SOL    HW123318   3.379   0.082   7.933 -0.4207 -1.0530  1.4499
 3895SOL    HW223319   3.449   0.128   8.063  0.5603  1.9475 -0.1286
 3896SOL     OW23320   4.420   4.283  17.255  0.6452 -0.0412 -0.2249
 3896SOL    HW123321   4.450   4.194  17.234  0.7437  0.2008 -1.1058
 3896SOL    HW223322   4.350   4.292  17.191 -0.0435  0.6488  0.6326
 3897SOL     OW23323   4.117   0.325  16.205 -0.2449  0.7713  0.0977
 3897SOL    HW123324   4.099   0.357  16.294 -0.3565  2.3786 -0.4941
 3897SOL    HW223325   4.209   0.309  16.228 -0.1894  0.7081 -0.1764
 3898SOL     OW23326   4.052   2.670  13.243  0.7011 -0.2372 -0.0666
 3898SOL    HW123327   3.991   2.602  13.272  0.5784  0.7295  1.9085
 3898SOL    HW223328   4.100   2.689  13.323 -1.4246 -1.1085  1.4070
 3899SOL     OW23329   3.206   4.417   4.459 -0.4845  0.0166 -0.0030
 3899SOL    HW123330   3.189   4.327   4.489 -0.4654  0.1208  0.3231
 3899SOL    HW223331   3.301   4.415   4.470 -0.5276  0.9928  0.5389
 3900SOL     OW23332   2.313   3.106   9.883  0.6174  0.1635  0.0158
 3900SOL    HW123333   2.403   3.080   9.862  0.5981  0.6748 -0.6986
 3900SOL    HW223334   2.308   3.187   9.833 -4.1344 -0.3487 -0.3554
 3901SOL     OW23335   4.634   4.532   0.490  0.2007 -0.1246  0.2411
 3901SOL    HW123336   4.689   4.555   0.415  0.8996  0.5199  0.9525
 3901SOL    HW223337   4.591   4.613   0.518  0.5504  0.7568 -1.7251
 3902SOL     OW23338   0.909   1.017  14.788 -0.1082 -0.5140 -0.3080
 3902SOL    HW123339   0.915   1.106  14.755  1.4698 -0.7917 -0.7880
 3902SOL    HW223340   0.827   0.985  14.750  0.0307  2.1383 -2.7800
 3903SOL     OW23341   1.956   3.463   2.725  0.1909 -0.3704  0.3385
 3903SOL    HW123342   1.895   3.530   2.695  0.4859  0.5627  1.8447
 3903SOL    HW223343   2.034   3.515   2.742 -0.4692  1.0067 -0.8721
 3904SOL     OW23344   4.310   2.123   4.062 -0.5100  0.6810  0.3210
 3904SOL    HW123345   4.382   2.150   4.119  0.4649 -1.1606 -0.0390
 3904SOL    HW223346   4.261   2.201   4.035  1.2787  0.8494 -2.4111
 3905SOL     OW23347   1.973   4.561   3.392  0.5173 -0.1035 -0.3298
 3905SOL    HW123348   1.890   4.543   3.347  0.3709  1.4105 -0.6649
 3905SOL    HW223349   1.948   4.556   3.484 -1.0765  0.2052 -0.7256
 3906SOL     OW23350   3.670   1.439   4.187  0.5457  0.2708 -0.3829
 3906SOL    HW123351   3.690   1.345   4.189  1.3086  0.4617  0.6161
 3906SOL    HW223352   3.671   1.453   4.282  1.4570 -1.8041 -0.0806
 3907SOL     OW23353   1.396   0.589   2.192  0.1673  0.9071 -0.0926
 3907SOL    HW123354   1.305   0.619   2.196 -0.6616 -1.6832  0.4451
 3907SOL    HW223355   1.411   0.577   2.098  1.9011 -2.4597  0.6413
 3908SOL     OW23356   0.894   0.822   5.378  0.1353  0.1476  0.0879
 3908SOL    HW123357   0.838   0.866   5.314  2.7255  2.5321 -0.5591
 3908SOL    HW223358   0.848   0.740   5.393  0.4963  0.1296  1.1466
 3909SOL     OW23359   4.359   2.410  12.263  0.2550  0.0523 -0.0416
 3909SOL    HW123360   4.323   2.488  12.305  0.2429  0.3133 -0.5389
 3909SOL    HW223361   4.441   2.446  12.232  0.9393 -2.1648 -0.7963
 3910SOL     OW23362   3.543   3.662  12.399 -0.3770 -0.0534  0.9434
 3910SOL    HW123363   3.632   3.687  12.421  0.3787 -1.0626 -0.9675
 3910SOL    HW223364   3.566   3.627  12.313  3.1013  1.0229  1.4591
 3911SOL     OW23365   4.631   3.539   7.835 -0.5026 -0.5451 -0.0990
 3911SOL    HW123366   4.644   3.634   7.834  2.6647 -0.9241  4.3878
 3911SOL    HW223367   4.717   3.507   7.808  0.0910 -1.5578  3.0437
 3912SOL     OW23368   3.643   2.678   7.453 -0.0263  0.6855  0.0804
 3912SOL    HW123369   3.648   2.734   7.375  0.4521 -1.3743 -1.3826
 3912SOL    HW223370   3.689   2.735   7.515 -0.9706 -0.7315  2.0782
 3913SOL     OW23371   4.592   1.830   2.481 -0.3044  0.0405 -0.4413
 3913SOL    HW123372   4.625   1.838   2.570 -3.7894 -0.6587  0.8689
 3913SOL    HW223373   4.672   1.810   2.431 -0.2609 -0.2875 -0.2448
 3914SOL     OW23374   4.122   2.944  11.318 -0.6380  0.0463 -0.1137
 3914SOL    HW123375   4.192   2.954  11.253 -0.7303  0.7506 -0.1129
 3914SOL    HW223376   4.116   3.029  11.363 -0.7506 -0.6977  1.2662
 3915SOL     OW23377   0.984   0.229  15.449 -0.2836 -0.6237  0.1738
 3915SOL    HW123378   0.917   0.183  15.499 -0.4043  0.6246  1.1580
 3915SOL    HW223379   0.982   0.165  15.378  2.5918  0.4994 -0.9200
 3916SOL     OW23380   1.656   3.394  14.297  0.2878 -0.1014  0.4386
 3916SOL    HW123381   1.639   3.475  14.249  1.0207 -0.4189 -0.3704
 3916SOL    HW223382   1.598   3.328  14.259 -1.1512  1.4595 -0.0206
 3917SOL     OW23383   4.429   1.603   2.933  0.2282 -0.1320 -0.4133
 3917SOL    HW123384   4.389   1.523   2.900  1.4246 -0.0952 -1.9553
 3917SOL    HW223385   4.411   1.658   2.857  1.3014  2.3539  1.1204
 3918SOL     OW23386   1.069   3.892   9.027  0.5209 -0.2441 -0.4570
 3918SOL    HW123387   1.043   3.841   8.950 -2.4709 -0.0947  0.4453
 3918SOL    HW223388   1.164   3.893   9.015  0.3944  3.5047 -0.9015
 3919SOL     OW23389   1.034   4.083   3.599  0.8268  0.6896  0.0383
 3919SOL    HW123390   0.978   4.103   3.524  2.2291  3.1619 -0.3395
 3919SOL    HW223391   1.110   4.031   3.572 -0.0997 -0.5211 -0.2731
 3920SOL     OW23392   3.236   4.491  17.181 -0.4089  0.1718 -0.1929
 3920SOL    HW123393   3.192   4.574  17.198 -1.3831 -0.1724 -1.1180
 3920SOL    HW223394   3.250   4.454  17.269  0.9078  0.9931 -0.0440
 3921SOL     OW23395   2.220   4.006   2.939  0.6227  0.0208  0.3883
 3921SOL    HW123396   2.210   4.016   2.845  0.3754  1.0285  0.5188
 3921SOL    HW223397   2.223   3.910   2.940  2.9486  0.0899 -1.2672
 3922SOL     OW23398   1.075   3.603  17.719 -0.2554  0.5546 -0.3770
 3922SOL    HW123399   1.095   3.512  17.695  1.8788  0.5333  1.4436
 3922SOL    HW223400   0.999   3.621  17.664 -0.2274 -0.5940 -0.7981
 3923SOL     OW23401   2.998   2.140   6.580 -0.4000 -0.7251  0.4098
 3923SOL    HW123402   2.997   2.076   6.510 -0.1271 -0.6938  0.3780
 3923SOL    HW223403   2.948   2.209   6.536 -1.3422 -2.3849 -1.1336
 3924SOL     OW23404   1.507   3.119   7.400  0.0127 -0.0455 -0.3898
 3924SOL    HW123405   1.541   3.208   7.389 -1.5594  0.6361  0.1859
 3924SOL    HW223406   1.524   3.106   7.493  0.0872  0.7073 -0.2951
 3925SOL     OW23407   3.788   4.107  12.355 -0.1217  0.8195  0.0502
 3925SOL    HW123408   3.740   4.027  12.377  0.5893  0.6806  1.0536
 3925SOL    HW223409   3.777   4.162  12.432  0.2909  0.6909  0.2017
 3926SOL     OW23410   0.510   3.081   5.721  0.4437  0.1313 -0.5386
 3926SOL    HW123411   0.604   3.078   5.708  0.6877 -0.2981  1.4067
 3926SOL    HW223412   0.467   3.076   5.636  0.3549  0.7161 -0.5259
 3927SOL     OW23413   2.232   3.707   5.672  0.6527 -0.3204  0.0746
 3927SOL    HW123414   2.194   3.620   5.681  0.0466 -0.2231 -1.5420
 3927SOL    HW223415   2.210   3.746   5.757 -3.0752 -1.4838 -0.3435
 3928SOL     OW23416   4.392   1.538   3.578 -0.3965  0.3736  0.6037
 3928SOL    HW123417   4.469   1.536   3.523  0.2588 -2.4768  1.6482
 3928SOL    HW223418   4.427   1.511   3.663  0.6381 -0.5001 -0.1174
 3929SOL     OW23419   2.633   1.511   8.806  0.2437 -0.4675  0.5675
 3929SOL    HW123420   2.670   1.438   8.756 -0.7095 -0.1945 -0.5202
 3929SOL    HW223421   2.696   1.523   8.877 -0.8073  1.4750  1.1733
 3930SOL     OW23422   0.403   0.829   2.033 -0.5216 -0.0484  0.2102
 3930SOL    HW123423   0.325   0.865   1.988  1.3232  1.9018 -1.4470
 3930SOL    HW223424   0.464   0.834   1.960 -0.5434 -0.3534  0.1704
 3931SOL     OW23425   0.669   1.101   7.124  0.3974 -0.3001  0.6789
 3931SOL    HW123426   0.704   1.014   7.139  1.6182  0.5699  2.9036
 3931SOL    HW223427   0.599   1.084   7.061 -0.3684 -0.4914  1.5828
 3932SOL     OW23428   0.149   3.183   1.128 -0.1117  0.2349  0.5602
 3932SOL    HW123429   0.154   3.141   1.214 -0.7134 -2.1240 -0.5697
 3932SOL    HW223430   0.116   3.119   1.065 -0.7301  0.6061  0.5164
 3933SOL     OW23431   0.895   1.366   9.981 -0.0233  0.4543 -0.2737
 3933SOL    HW123432   0.828   1.304   9.951 -0.8470  0.7503  0.9635
 3933SOL    HW223433   0.900   1.427   9.908 -0.4522  0.3192 -0.4147
 3934SOL     OW23434   1.701   1.892   1.428  0.3188 -0.0981  0.7848
 3934SOL    HW123435   1.629   1.846   1.472 -1.2335  0.6299 -0.9853
 3934SOL    HW223436   1.730   1.953   1.497  0.1995 -0.1987  0.9251
 3935SOL     OW23437   3.599   0.193  11.097 -0.6103 -0.7790 -0.0134
 3935SOL    HW123438   3.653   0.265  11.129 -1.5046 -0.8453  1.6665
 3935SOL    HW223439   3.666   0.142  11.052 -0.2306 -1.0926  0.9190
 3936SOL     OW23440   3.014   2.432   2.599  0.2528  0.1391 -0.8594
 3936SOL    HW123441   3.075   2.503   2.618 -0.9727  0.6433  1.2143
 3936SOL    HW223442   2.932   2.464   2.637  0.7725  0.0772  0.3086
 3937SOL     OW23443   0.279   4.725   2.449  0.2822  0.4501  0.1970
 3937SOL    HW123444   0.280   4.724   2.353 -1.1836  0.0091  0.1888
 3937SOL    HW223445   0.183   4.722   2.453  0.2891  1.2722  0.8517
 3938SOL     OW23446   0.739   1.077   5.514 -0.1703 -0.4426  0.5041
 3938SOL    HW123447   0.680   1.019   5.466 -0.2901 -1.9077  2.4147
 3938SOL    HW223448   0.809   1.015   5.532  0.8249  0.2795 -0.8904
 3939SOL     OW23449   0.254   3.264   3.591 -0.2447 -0.3317 -0.8307
 3939SOL    HW123450   0.274   3.186   3.539  4.5375  1.0206 -1.0015
 3939SOL    HW223451   0.173   3.239   3.636 -0.1245 -0.9483 -0.9577
 3940SOL     OW23452   1.362   3.000  15.510 -0.1169 -0.5781 -0.0558
 3940SOL    HW123453   1.382   3.066  15.443 -0.6762 -0.4547 -0.0988
 3940SOL    HW223454   1.267   2.992  15.518 -0.3188  2.0169  0.2498
 3941SOL     OW23455   1.248   1.295  10.102 -0.3155  0.1492 -0.2862
 3941SOL    HW123456   1.284   1.220  10.148 -0.0546  0.1057 -0.5563
 3941SOL    HW223457   1.184   1.256  10.042  0.0412 -0.9595  0.0625
 3942SOL     OW23458   2.348   1.577  10.023  0.0895 -0.5906 -0.0995
 3942SOL    HW123459   2.389   1.655   9.985 -1.7005  1.1385  1.5369
 3942SOL    HW223460   2.268   1.582   9.970  0.0766  0.8668  0.0560
 3943SOL     OW23461   3.158   0.052   6.115 -0.1570  0.2682 -0.2975
 3943SOL    HW123462   3.084   0.113   6.108  1.4174  2.2534  0.5828
 3943SOL    HW223463   3.116   4.701   6.118  1.7121 -0.6278 -0.1487
 3944SOL     OW23464   1.319   2.899  15.247 -0.1740 -0.3142 -0.0981
 3944SOL    HW123465   1.351   2.908  15.336  0.5225 -4.2511  0.0681
 3944SOL    HW223466   1.346   2.975  15.196  1.2767 -0.0470  1.0591
 3945SOL     OW23467   1.301   4.358   6.717  0.5212  0.2475 -0.5566
 3945SOL    HW123468   1.262   4.445   6.722  1.6055  0.6083  1.8280
 3945SOL    HW223469   1.350   4.349   6.799 -1.3006  0.3473  0.5442
 3946SOL     OW23470   4.404   3.887   1.128  0.3475  0.1606  0.1917
 3946SOL    HW123471   4.446   3.929   1.203 -1.2715 -1.9128  2.2633
 3946SOL    HW223472   4.476   3.841   1.085  2.6084  3.2566  0.6893
 3947SOL     OW23473   0.382   2.899  14.498 -0.2198  0.0895  0.2512
 3947SOL    HW123474   0.410   2.971  14.555 -0.1274 -0.7472  1.2498
 3947SOL    HW223475   0.372   2.828  14.561  2.5689 -0.8905 -0.4206
 3948SOL     OW23476   1.457   4.385  11.275 -0.4463  0.1483  0.0172
 3948SOL    HW123477   1.427   4.419  11.359 -1.6811 -0.5147 -0.1620
 3948SOL    HW223478   1.551   4.378  11.293 -0.2100  1.7755 -0.6008
 3949SOL     OW23479   0.294   1.085  10.494 -0.3397  0.1047 -0.4482
 3949SOL    HW123480   0.263   1.170  10.525 -2.0310 -0.6190 -0.1771
 3949SOL    HW223481   0.218   1.029  10.511 -0.6497  0.9344  0.8583
 3950SOL     OW23482   2.704   0.093   7.215 -0.2019  0.1679 -0.5259
 3950SOL    HW123483   2.737   0.004   7.222 -1.3961 -0.0895  1.9152
 3950SOL    HW223484   2.647   0.078   7.140 -0.5929 -0.0880 -0.1749
 3951SOL     OW23485   3.211   0.407   7.896 -0.0937  0.1151 -0.0446
 3951SOL    HW123486   3.191   0.313   7.898 -1.0248  0.3856  3.3127
 3951SOL    HW223487   3.247   0.412   7.807  1.0118 -2.1594  0.2515
 3952SOL     OW23488   1.588   1.849   5.176  0.0202 -0.0213  0.0906
 3952SOL    HW123489   1.501   1.811   5.172 -0.3500  0.7905  0.4528
 3952SOL    HW223490   1.558   1.938   5.196 -0.3926 -0.6363  2.1782
 3953SOL     OW23491   4.676   3.464   6.781  0.6835  0.3876 -0.0504
 3953SOL    HW123492   4.586   3.435   6.764  0.5451  0.4428  0.5685
 3953SOL    HW223493   4.721   3.380   6.775  0.2967  0.4953 -4.2529
 3954SOL     OW23494   3.477   0.211   3.983  0.0750 -0.3150 -0.0436
 3954SOL    HW123495   3.533   0.285   4.005 -1.0223  0.3652  0.4753
 3954SOL    HW223496   3.396   0.260   3.967  0.8895  1.0190 -0.0740
 3955SOL     OW23497   0.469   3.912   3.618  0.3579 -0.0264 -0.4398
 3955SOL    HW123498   0.545   3.949   3.661  0.1077 -0.9273  0.7915
 3955SOL    HW223499   0.457   3.833   3.671 -2.0080  0.7384  0.1573
 3956SOL     OW23500   0.263   0.609  13.987 -0.2755 -0.0148 -0.0236
 3956SOL    HW123501   0.178   0.641  13.957 -0.0397  0.1740 -0.4825
 3956SOL    HW223502   0.255   0.639  14.078 -0.5276  0.5453 -0.2330
 3957SOL     OW23503   4.471   3.462  16.686  0.1215  0.2071 -0.7290
 3957SOL    HW123504   4.400   3.524  16.705  0.6793  0.5758  0.1410
 3957SOL    HW223505   4.434   3.408  16.616 -0.0368 -0.7908  0.1259
 3958SOL     OW23506   2.209   4.508   6.545  0.0219  0.1537  0.9900
 3958SOL    HW123507   2.259   4.447   6.600  0.7164 -0.3326 -0.1745
 3958SOL    HW223508   2.238   4.482   6.458  1.1132  2.7033  0.5744
 3959SOL     OW23509   4.588   4.148   8.006 -0.2520 -0.1449  0.1261
 3959SOL    HW123510   4.574   4.167   8.099 -0.3060  0.0843  0.0721
 3959SOL    HW223511   4.683   4.142   7.999 -0.4171 -2.7302  0.0610
 3960SOL     OW23512   2.975   2.932   6.197  0.2382 -0.1149 -0.1015
 3960SOL    HW123513   2.938   2.974   6.274  0.6256 -1.7571  0.9698
 3960SOL    HW223514   3.068   2.948   6.214  0.1685 -0.8999  1.0006
 3961SOL     OW23515   1.904   1.141  12.058 -0.1843 -0.4295  0.5962
 3961SOL    HW123516   1.964   1.154  11.985  1.0233 -1.5667  1.3891
 3961SOL    HW223517   1.932   1.209  12.120 -1.6735  1.4361 -0.7434
 3962SOL     OW23518   3.407   2.185  11.707  0.2345  0.1478  0.1816
 3962SOL    HW123519   3.316   2.174  11.734  0.2331 -0.8485 -0.2422
 3962SOL    HW223520   3.444   2.161  11.793  0.5603 -0.6389 -0.1808
 3963SOL     OW23521   1.452   1.977   1.812  0.7913  0.1584  0.7104
 3963SOL    HW123522   1.422   2.025   1.735  0.7778 -1.4105 -0.2792
 3963SOL    HW223523   1.390   1.995   1.883  0.3102  1.7806 -0.1439
 3964SOL     OW23524   2.193   1.314   2.729 -0.4425 -0.2031  0.2487
 3964SOL    HW123525   2.116   1.264   2.758 -1.8270  0.8567 -1.6155
 3964SOL    HW223526   2.255   1.240   2.729 -0.1741  0.0254 -0.0302
 3965SOL     OW23527   4.083   0.957   6.233  0.7555  0.1801 -0.6710
 3965SOL    HW123528   4.055   0.891   6.170 -1.1167 -0.0449  0.3957
 3965SOL    HW223529   4.175   0.941   6.252  0.7595 -1.6279 -2.1913
 3966SOL     OW23530   1.317   3.837   2.257  0.2792 -0.2998  0.1326
 3966SOL    HW123531   1.360   3.917   2.287 -0.7933 -0.8827  3.2105
 3966SOL    HW223532   1.225   3.846   2.278  0.2943 -0.8968  0.4614
 3967SOL     OW23533   1.023   3.813  17.421  0.3884  0.2203 -0.1119
 3967SOL    HW123534   0.966   3.890  17.421  0.7321  0.4745  0.4919
 3967SOL    HW223535   1.087   3.842  17.486 -0.1997  2.3419 -0.4781
 3968SOL     OW23536   0.969   0.695   7.296  0.3192 -0.0497  0.0773
 3968SOL    HW123537   0.908   0.657   7.360  0.4947 -0.0692  0.2322
 3968SOL    HW223538   0.928   0.779   7.275 -2.1153 -2.0861 -3.3800
 3969SOL     OW23539   2.176   1.423   7.308 -0.0086 -0.0943 -0.1026
 3969SOL    HW123540   2.093   1.457   7.275  0.4208  1.3329  0.2944
 3969SOL    HW223541   2.161   1.329   7.295 -1.2707  0.0289  0.4022
 3970SOL     OW23542   4.450   4.034   2.390 -0.0500 -0.0894  0.2665
 3970SOL    HW123543   4.424   3.946   2.419 -0.6113 -0.3452 -0.9910
 3970SOL    HW223544   4.544   4.026   2.406 -0.0304  2.5401  1.4739
 3971SOL     OW23545   2.607   1.379   5.027 -0.2047 -0.1930  0.2955
 3971SOL    HW123546   2.571   1.339   4.947  0.7423  0.0514 -0.2471
 3971SOL    HW223547   2.700   1.385   5.004  0.0011  0.3706  1.2727
 3972SOL     OW23548   2.576   3.240  15.345 -0.0367  0.1053  0.6461
 3972SOL    HW123549   2.523   3.164  15.324 -1.0465  0.9713  0.0388
 3972SOL    HW223550   2.513   3.312  15.336 -0.1094 -0.0505 -0.0920
 3973SOL     OW23551   1.503   1.373  13.673  0.2913 -0.3371  0.4409
 3973SOL    HW123552   1.429   1.313  13.669 -0.2534  0.5176 -2.7974
 3973SOL    HW223553   1.491   1.397  13.765  0.8898  0.1792  0.3809
 3974SOL     OW23554   1.194   1.888   6.150 -0.5699 -0.3891  0.2554
 3974SOL    HW123555   1.174   1.871   6.058 -0.7944  1.6654 -0.0814
 3974SOL    HW223556   1.289   1.875   6.152 -0.2456  2.1241  1.3945
 3975SOL     OW23557   2.201   0.191   4.242 -0.0981  0.0687  0.0564
 3975SOL    HW123558   2.235   0.251   4.308 -0.9414  0.1859  0.3737
 3975SOL    HW223559   2.251   0.109   4.245 -2.5440 -1.3564  1.6294
 3976SOL     OW23560   4.031   4.234  10.294 -0.2174  0.5890  0.3243
 3976SOL    HW123561   4.087   4.157  10.301 -1.1631  0.0011  1.5985
 3976SOL    HW223562   4.076   4.282  10.225  0.9073 -0.2009  0.5131
 3977SOL     OW23563   2.012   1.610   3.074  0.3380  0.0991  0.2505
 3977SOL    HW123564   2.069   1.556   3.020 -0.1057  0.4090 -0.5274
 3977SOL    HW223565   1.926   1.615   3.032  0.7960  1.6084 -0.5012
 3978SOL     OW23566   2.316   1.656  14.959 -0.2824 -0.4272 -0.0078
 3978SOL    HW123567   2.398   1.644  14.910 -0.7331  1.9549 -1.3227
 3978SOL    HW223568   2.249   1.631  14.896  0.2840  1.1560 -1.2310
 3979SOL     OW23569   2.064   3.496   3.408  0.6506  0.0473  0.3347
 3979SOL    HW123570   2.098   3.555   3.475  1.7484 -1.7082  1.3319
 3979SOL    HW223571   2.092   3.414   3.450  0.8454  0.3899  0.8736
 3980SOL     OW23572   3.488   1.251  17.621 -0.2476  0.5613 -0.3845
 3980SOL    HW123573   3.569   1.301  17.626  0.3819 -0.5592  0.5618
 3980SOL    HW223574   3.494   1.199  17.540 -1.0528 -1.0702  0.5961
 3981SOL     OW23575   1.074   3.085   4.112 -0.2233  0.0891 -0.3887
 3981SOL    HW123576   1.048   2.994   4.096  0.4105  0.1363 -1.7409
 3981SOL    HW223577   1.012   3.122   4.049  0.2352 -0.6257 -1.2613
 3982SOL     OW23578   4.451   4.211   0.944  0.0617 -0.4222 -0.3585
 3982SOL    HW123579   4.383   4.151   0.976  0.4792 -1.4777 -1.4533
 3982SOL    HW223580   4.402   4.275   0.891 -0.4225  0.4161  1.1008
 3983SOL     OW23581   3.507   1.948   1.786  0.1243 -0.0566  0.0584
 3983SOL    HW123582   3.435   1.964   1.724 -0.0231 -1.9077 -0.2346
 3983SOL    HW223583   3.534   2.034   1.818  2.7639 -0.9045  0.1079
 3984SOL     OW23584   2.888   2.813  15.907  0.3143 -0.2250  0.1453
 3984SOL    HW123585   2.816   2.876  15.904  2.2146  1.9061 -0.8832
 3984SOL    HW223586   2.836   2.738  15.876 -2.3849  2.1745 -1.1101
 3985SOL     OW23587   2.119   2.733  11.801  0.1199  0.0431 -0.0805
 3985SOL    HW123588   2.110   2.703  11.891 -3.3996  2.5895  0.4075
 3985SOL    HW223589   2.134   2.655  11.747 -1.7089 -1.5176  1.6505
 3986SOL     OW23590   0.464   4.296  11.966  0.0871  0.1813 -0.2260
 3986SOL    HW123591   0.507   4.366  11.917  0.3967  0.7558  0.8673
 3986SOL    HW223592   0.484   4.223  11.907  0.3101 -1.7893  2.2863
 3987SOL     OW23593   4.286   2.743   6.157  0.1740  0.2630  0.0627
 3987SOL    HW123594   4.249   2.819   6.111 -2.6907 -1.5731 -0.6650
 3987SOL    HW223595   4.337   2.704   6.086 -1.8346 -1.0757 -0.6500
 3988SOL     OW23596   3.654   1.332   7.717 -0.2750 -0.1974 -0.3495
 3988SOL    HW123597   3.735   1.375   7.743 -1.2635  0.9967  0.7449
 3988SOL    HW223598   3.672   1.307   7.627 -1.1535  0.1185 -0.6104
 3989SOL     OW23599   1.487   1.456   6.825  0.0594  0.5591 -0.2565
 3989SOL    HW123600   1.451   1.473   6.738 -5.0351  0.0392  1.7163
 3989SOL    HW223601   1.533   1.379   6.793  1.7846  0.6102  2.1072
 3990SOL     OW23602   4.524   4.699  10.030  0.2095 -0.1668 -0.0425
 3990SOL    HW123603   4.470   4.644  10.086  0.8456  0.2028  0.9280
 3990SOL    HW223604   4.465   0.036  10.012 -0.6974 -1.1755 -1.1757
 3991SOL     OW23605   3.347   1.554   3.277 -0.1789 -0.3689  0.9474
 3991SOL    HW123606   3.348   1.578   3.370 -1.4091  0.5727  0.7223
 3991SOL    HW223607   3.253   1.537   3.271 -0.7969  2.8379  1.7761
 3992SOL     OW23608   1.512   0.452   8.028  0.8516 -0.1566  0.1181
 3992SOL    HW123609   1.552   0.378   7.982  0.2926  0.3072 -1.1176
 3992SOL    HW223610   1.566   0.442   8.106  1.4698 -2.4531 -0.6084
 3993SOL     OW23611   3.824   0.677   4.581  0.3242 -0.1992  0.2525
 3993SOL    HW123612   3.914   0.650   4.561  1.0350  2.1339  0.3680
 3993SOL    HW223613   3.837   0.701   4.672  1.7730  0.7909 -0.2108
 3994SOL     OW23614   0.356   3.483   7.171 -0.0789 -0.0651 -0.8343
 3994SOL    HW123615   0.404   3.400   7.180 -1.2730 -0.3918  2.7206
 3994SOL    HW223616   0.301   3.457   7.098  1.6477 -1.6218 -1.5917
 3995SOL     OW23617   0.196   0.611   8.030  0.3761 -0.2111 -0.3170
 3995SOL    HW123618   0.249   0.565   8.094  1.2745  2.0330  0.5609
 3995SOL    HW223619   0.223   0.702   8.043  0.1218 -0.5234  2.3655
 3996SOL     OW23620   3.360   1.651   3.524  0.1059  0.5125 -0.5359
 3996SOL    HW123621   3.307   1.676   3.600  0.7043  0.8883 -0.2461
 3996SOL    HW223622   3.404   1.735   3.510 -1.0080  1.1670 -0.1055
 3997SOL     OW23623   4.304   0.102   3.616  0.3291  0.3326  0.3014
 3997SOL    HW123624   4.287   0.088   3.709 -1.3130 -0.5441 -0.1282
 3997SOL    HW223625   4.217   0.134   3.592  0.1356  1.8387  3.0770
 3998SOL     OW23626   1.026   1.704   8.810  0.7734  0.1618  0.1462
 3998SOL    HW123627   1.005   1.768   8.742 -1.3139  1.1296  1.7231
 3998SOL    HW223628   0.952   1.714   8.870  0.9372  0.5031  0.2895
 3999SOL     OW23629   2.497   2.209   3.257  0.1316  0.2630  0.3681
 3999SOL    HW123630   2.441   2.166   3.322  0.4782 -0.5706  0.1259
 3999SOL    HW223631   2.446   2.202   3.176  1.3484 -1.3090 -0.2688
 4000SOL     OW23632   4.402   1.028  15.681 -0.0665  0.3907  0.1577
 4000SOL    HW123633   4.323   0.986  15.647  0.6613 -1.7572  1.1277
 4000SOL    HW223634   4.372   1.116  15.703 -2.7052 -0.5763  0.4211
 4001SOL     OW23635   1.009   4.460  17.135  0.5694 -0.8132  0.5132
 4001SOL    HW123636   0.960   4.525  17.185 -0.4545  0.7996 -2.5966
 4001SOL    HW223637   1.079   4.508  17.092 -0.4004 -0.3744 -0.5662
 4002SOL     OW23638   3.153   2.047   1.936 -0.1099  0.1380  0.4533
 4002SOL    HW123639   3.174   2.037   2.029 -3.5569 -0.8446  1.1335
 4002SOL    HW223640   3.133   2.140   1.944 -1.1300 -0.0789  0.4289
 4003SOL     OW23641   0.364   3.494   3.500 -0.5627  0.3311 -0.3035
 4003SOL    HW123642   0.311   3.559   3.545  0.4837 -0.1645  1.6505
 4003SOL    HW223643   0.330   3.413   3.538  0.8377 -0.1717 -0.1068
 4004SOL     OW23644   0.528   0.669   3.095  0.3699  0.4013 -0.2484
 4004SOL    HW123645   0.447   0.719   3.104 -0.1112 -0.5650  0.8069
 4004SOL    HW223646   0.553   0.713   3.013  0.3299  0.9168  0.0190
 4005SOL     OW23647   0.232   3.781  16.434 -0.1245  0.6433 -0.3814
 4005SOL    HW123648   0.240   3.686  16.443  1.7796  0.8499  0.0590
 4005SOL    HW223649   0.145   3.783  16.474 -0.3992  0.0916 -0.9474
 4006SOL     OW23650   3.530   2.331  15.572  0.2875  0.3468  0.3869
 4006SOL    HW123651   3.523   2.283  15.489 -0.2730  1.4076 -0.1744
 4006SOL    HW223652   3.622   2.357  15.564  1.0301 -1.1344  3.8507
 4007SOL     OW23653   0.790   0.069   6.455 -0.0236  0.0465 -0.0072
 4007SOL    HW123654   0.853   0.005   6.423  1.3239 -0.1446  3.0436
 4007SOL    HW223655   0.848   0.117   6.515 -2.6208  2.2478  0.7583
 4008SOL     OW23656   4.205   4.192   8.819 -0.4233  0.0649 -0.1557
 4008SOL    HW123657   4.158   4.163   8.741 -0.3009 -0.8754  0.1209
 4008SOL    HW223658   4.226   4.108   8.860  1.5483 -0.2266 -1.7818
 4009SOL     OW23659   2.945   0.015   7.817 -0.3108  0.3000 -0.0930
 4009SOL    HW123660   2.866   0.064   7.841  1.2867  0.8053  4.2291
 4009SOL    HW223661   2.954   4.681   7.881  0.3250  0.5300  0.0679
 4010SOL     OW23662   1.652   1.913   3.966  0.5129 -0.0566  0.0370
 4010SOL    HW123663   1.736   1.928   3.923 -0.0758 -0.3464 -1.1941
 4010SOL    HW223664   1.668   1.947   4.054  0.0777 -2.0282  0.8700
 4011SOL     OW23665   3.074   1.008   3.250 -0.4708  0.3109  0.4779
 4011SOL    HW123666   3.129   0.947   3.299 -0.7523 -1.5055 -1.4878
 4011SOL    HW223667   3.013   1.041   3.316 -0.2476 -1.4290  1.5470
 4012SOL     OW23668   2.073   2.978   2.696 -0.1895  0.5086  0.0778
 4012SOL    HW123669   2.060   2.885   2.677 -0.2423  0.6261 -0.4482
 4012SOL    HW223670   2.012   2.992   2.768  2.5302  1.9207  2.1028
 4013SOL     OW23671   4.334   1.221  16.841 -0.1859 -0.3466 -0.3242
 4013SOL    HW123672   4.359   1.134  16.813  0.3848 -0.0778 -0.6474
 4013SOL    HW223673   4.254   1.201  16.890 -0.1445 -2.1679 -1.0175
 4014SOL     OW23674   3.411   2.236   5.400  0.3159 -0.3124  0.0902
 4014SOL    HW123675   3.494   2.283   5.410 -0.3620  1.3062 -1.8766
 4014SOL    HW223676   3.409   2.224   5.305  2.8300  0.5688 -0.0873
 4015SOL     OW23677   3.174   3.808   6.803  0.0824  0.0338  0.2873
 4015SOL    HW123678   3.115   3.778   6.734 -1.7160 -0.0918  1.8861
 4015SOL    HW223679   3.208   3.726   6.837 -1.7571 -0.5432  0.7583
 4016SOL     OW23680   0.354   3.148   6.995 -0.0029  0.4853 -0.1313
 4016SOL    HW123681   0.445   3.150   6.965 -0.2757 -0.3747 -1.0201
 4016SOL    HW223682   0.345   3.069   7.048  0.8309  0.3042 -0.2631
 4017SOL     OW23683   3.605   4.526   8.842 -0.0177 -0.2637 -0.6116
 4017SOL    HW123684   3.673   4.477   8.890 -1.0985  0.7865  2.0018
 4017SOL    HW223685   3.615   4.612   8.882 -1.2101 -0.1349 -0.6151
 4018SOL     OW23686   0.347   4.614   3.945 -0.5830 -0.3325  0.0839
 4018SOL    HW123687   0.287   4.564   3.889  0.8994 -0.9225 -0.9890
 4018SOL    HW223688   0.423   4.637   3.893  0.2976 -0.5125  1.2911
 4019SOL     OW23689   1.026   3.029  15.141  0.3469 -0.2902 -0.3708
 4019SOL    HW123690   1.069   2.963  15.087  1.7624 -0.0067  0.4146
 4019SOL    HW223691   1.093   3.095  15.159 -0.4692  0.5298 -0.3398
 4020SOL     OW23692   0.159   3.257   5.946  0.7039 -0.5129  0.3728
 4020SOL    HW123693   0.133   3.329   6.003 -0.3353  1.0413 -2.0726
 4020SOL    HW223694   0.239   3.293   5.909  0.3489 -1.4228 -1.3006
 4021SOL     OW23695   3.821   2.448   2.646  0.3069  0.4022  0.0610
 4021SOL    HW123696   3.760   2.458   2.719  1.6604  0.6104  1.1683
 4021SOL    HW223697   3.863   2.363   2.664 -0.8223 -0.6196 -2.1457
 4022SOL     OW23698   3.432   3.749   4.553  0.4679 -0.0436 -0.0571
 4022SOL    HW123699   3.515   3.712   4.522  0.8220  1.8005 -1.2573
 4022SOL    HW223700   3.390   3.779   4.473 -0.8131 -1.0443  0.2359
 4023SOL     OW23701   3.219   0.342  17.038 -0.7189 -0.0834 -0.0268
 4023SOL    HW123702   3.176   0.401  16.977 -0.3197  0.8168  0.5582
 4023SOL    HW223703   3.230   0.403  17.111 -0.1231  0.4027 -0.5346
 4024SOL     OW23704   3.822   2.886   8.047  0.2103  0.6551  0.1620
 4024SOL    HW123705   3.786   2.839   7.972  0.5351  0.6435  0.0136
 4024SOL    HW223706   3.809   2.979   8.033  1.9705  0.7322 -1.0538
 4025SOL     OW23707   4.130   2.344   4.022 -0.1970 -0.9875 -0.1361
 4025SOL    HW123708   4.035   2.332   4.033 -0.1812 -0.4085  0.6699
 4025SOL    HW223709   4.127   2.363   3.929 -2.2572 -0.7807 -0.0295
 4026SOL     OW23710   0.836   4.394  11.506 -0.2559 -0.1094  0.6270
 4026SOL    HW123711   0.805   4.391  11.415 -0.8812  2.2352  0.7506
 4026SOL    HW223712   0.920   4.350  11.502  0.2294  0.7592  1.3348
 4027SOL     OW23713   0.385   1.689   4.144  0.4174  0.2807 -0.0951
 4027SOL    HW123714   0.305   1.640   4.163  1.7189 -1.2873  1.3895
 4027SOL    HW223715   0.350   1.773   4.117 -0.8465 -0.4507 -0.6986
 4028SOL     OW23716   2.375   1.950  16.067  0.3558  0.5526 -0.2444
 4028SOL    HW123717   2.294   1.992  16.097  0.0424 -0.1125 -0.1662
 4028SOL    HW223718   2.347   1.920  15.980  0.6754 -2.0646  0.5713
 4029SOL     OW23719   2.843   0.784  13.951  0.3665  0.4559  0.0231
 4029SOL    HW123720   2.784   0.749  13.885 -0.1266  0.1843  0.6044
 4029SOL    HW223721   2.896   0.849  13.906 -0.3793  0.7355 -0.4499
 4030SOL     OW23722   1.711   2.533   7.333  0.0982  0.0975 -0.1177
 4030SOL    HW123723   1.758   2.586   7.398  0.1044 -0.6593  0.4995
 4030SOL    HW223724   1.767   2.536   7.255  0.0122  0.8598 -0.1507
 4031SOL     OW23725   0.761   1.348   3.634 -0.1083  0.1665  0.3794
 4031SOL    HW123726   0.852   1.327   3.655  0.7974  2.1307 -1.5462
 4031SOL    HW223727   0.769   1.416   3.567 -1.8650  0.9150  0.9329
 4032SOL     OW23728   1.528   2.464   4.045 -0.2355 -0.0878  0.2828
 4032SOL    HW123729   1.448   2.514   4.031  0.4304  1.5238  2.2052
 4032SOL    HW223730   1.585   2.507   3.981 -1.4975  1.4559  0.2056
 4033SOL     OW23731   1.817   3.243   5.611 -0.1527 -0.3964  0.8079
 4033SOL    HW123732   1.895   3.216   5.563 -0.7661  0.4995 -0.6874
 4033SOL    HW223733   1.770   3.160   5.601  0.8949 -0.8522 -0.3444
 4034SOL     OW23734   3.681   2.322   5.368 -0.1856  0.0224 -0.0604
 4034SOL    HW123735   3.750   2.317   5.434 -0.8305 -2.1220  0.4361
 4034SOL    HW223736   3.685   2.416   5.348  0.6514  0.2457  1.1136
 4035SOL     OW23737   4.075   4.265   4.570 -0.0964 -0.2155 -0.5108
 4035SOL    HW123738   3.992   4.219   4.576 -0.5588  0.7935  0.8379
 4035SOL    HW223739   4.101   4.272   4.662 -0.3076  0.6257 -0.5221
 4036SOL     OW23740   2.089   3.282  13.782 -0.2922  0.4303  0.3709
 4036SOL    HW123741   2.096   3.231  13.863 -2.3178 -0.3929  0.0151
 4036SOL    HW223742   2.181   3.294  13.761  0.1154 -0.8226  1.4178
 4037SOL     OW23743   1.762   0.982   4.595  0.1083 -0.8200  0.0897
 4037SOL    HW123744   1.804   1.009   4.514  2.1474  0.8904  1.7126
 4037SOL    HW223745   1.667   0.982   4.579  0.1426  0.4655 -0.0949
 4038SOL     OW23746   0.492   1.763   2.800 -0.0144  0.1646  0.2115
 4038SOL    HW123747   0.532   1.805   2.876  1.6904 -0.9027 -0.0957
 4038SOL    HW223748   0.401   1.761   2.828 -0.5193 -1.5021 -1.5677
 4039SOL     OW23749   3.162   3.634   3.670 -0.5193 -0.3944 -0.2883
 4039SOL    HW123750   3.072   3.626   3.640 -0.4768 -2.2887  0.0751
 4039SOL    HW223751   3.148   3.635   3.765  1.2524  0.7557 -0.0398
 4040SOL     OW23752   1.869   0.184   4.386  0.3880  0.4141  0.4571
 4040SOL    HW123753   1.889   0.265   4.435  1.3079  0.0141  0.7435
 4040SOL    HW223754   1.844   0.122   4.454 -0.5367 -1.2253 -1.3913
 4041SOL     OW23755   3.926   0.036   8.963  0.0992  0.3932  0.6313
 4041SOL    HW123756   4.018   0.032   8.991  0.5019 -1.1943 -0.9045
 4041SOL    HW223757   3.935   0.027   8.868 -1.0101 -0.6958  0.6427
 4042SOL     OW23758   3.099   0.249  14.034 -0.3469  0.2158 -0.1978
 4042SOL    HW123759   3.067   0.160  14.017  1.2150 -0.5471  0.9416
 4042SOL    HW223760   3.173   0.245  13.973 -0.2549 -0.0567 -0.0649
 4043SOL     OW23761   1.882   4.310   6.779 -0.3560  0.5154 -0.6852
 4043SOL    HW123762   1.935   4.361   6.840 -0.1200  0.6778 -1.0311
 4043SOL    HW223763   1.812   4.276   6.835  0.4809  1.8167  1.1623
 4044SOL     OW23764   0.998   0.830   9.567 -0.3363  0.3643 -0.2162
 4044SOL    HW123765   0.963   0.742   9.558  1.1615 -0.4249  1.9792
 4044SOL    HW223766   1.038   0.828   9.654 -2.3022  1.0127  0.7097
 4045SOL     OW23767   1.727   1.123   8.405 -0.5916 -0.2265 -0.1468
 4045SOL    HW123768   1.819   1.094   8.405 -0.3331  0.6054  0.6757
 4045SOL    HW223769   1.719   1.177   8.484  0.1803 -0.0213 -0.2095
 4046SOL     OW23770   4.285   4.399   0.782 -0.0110 -0.0806 -0.0989
 4046SOL    HW123771   4.214   4.340   0.808  1.0697 -0.1850  2.6829
 4046SOL    HW223772   4.227   4.475   0.788  1.9775  1.4673 -0.3815
 4047SOL     OW23773   4.632   0.922   1.460  0.4708  0.5805  0.2769
 4047SOL    HW123774   4.594   0.835   1.470  0.5931  0.8151  2.6285
 4047SOL    HW223775   4.552   0.968   1.486 -0.7446 -1.9448  0.9314
 4048SOL     OW23776   1.777   4.128  12.685  0.3720 -0.2295 -0.6939
 4048SOL    HW123777   1.821   4.208  12.655 -0.8198  0.5879 -0.2330
 4048SOL    HW223778   1.820   4.067  12.625  0.6751 -1.8858  1.2110
 4049SOL     OW23779   3.727   3.148   8.037 -0.6799  0.0542  0.1815
 4049SOL    HW123780   3.804   3.204   8.023 -0.1074 -0.7722 -0.0184
 4049SOL    HW223781   3.709   3.168   8.129 -0.7399  1.5618 -0.1672
 4050SOL     OW23782   4.038   3.063   3.709  0.1143 -0.1085  0.9719
 4050SOL    HW123783   3.951   3.029   3.688 -0.7769  1.4029  2.1952
 4050SOL    HW223784   4.040   3.143   3.656  0.4773  0.1376  1.3570
 4051SOL     OW23785   3.656   2.920   2.824 -0.0325  1.0665  0.5934
 4051SOL    HW123786   3.596   2.855   2.787 -0.9333  2.4457 -0.3442
 4051SOL    HW223787   3.725   2.855   2.838 -0.5037  0.6322  0.8839
 4052SOL     OW23788   2.210   1.319   4.027 -0.1266 -0.2502  0.7078
 4052SOL    HW123789   2.190   1.409   4.053  0.3156  0.2257 -0.6414
 4052SOL    HW223790   2.288   1.291   4.075  1.0405 -0.6989 -1.4531
 4053SOL     OW23791   2.243   3.587  11.236 -0.2411  0.3191  0.2168
 4053SOL    HW123792   2.241   3.515  11.299  0.2958 -0.2121 -0.3761
 4053SOL    HW223793   2.330   3.563  11.204 -0.3130  0.3204  0.0210
 4054SOL     OW23794   0.620   3.081   1.672  0.0486 -0.3854 -0.1602
 4054SOL    HW123795   0.525   3.085   1.665 -0.0447 -0.1244  1.3861
 4054SOL    HW223796   0.630   3.174   1.649  0.7739 -0.8209 -1.6137
 4055SOL     OW23797   2.312   4.248   0.517 -0.0292 -0.2229 -0.6322
 4055SOL    HW123798   2.362   4.195   0.579  1.0334  1.0271 -0.4120
 4055SOL    HW223799   2.238   4.195   0.489 -1.0849  1.9888 -2.0533
 4056SOL     OW23800   1.635   4.363   7.283  0.4499 -0.1425 -0.2038
 4056SOL    HW123801   1.616   4.295   7.347 -0.5708  0.6671  0.3652
 4056SOL    HW223802   1.684   4.429   7.333 -2.9566 -0.2260  3.2489
 4057SOL     OW23803   0.162   0.731   6.380  0.8168 -0.1192  0.1514
 4057SOL    HW123804   0.232   0.796   6.368  1.7110 -1.0141  0.5796
 4057SOL    HW223805   0.133   0.758   6.467  2.6424  0.5423  0.5693
 4058SOL     OW23806   4.418   3.400   6.690  0.3675 -0.0160  0.5695
 4058SOL    HW123807   4.441   3.361   6.606 -1.4884  2.2637 -1.0060
 4058SOL    HW223808   4.344   3.459   6.673  1.8471  1.3276 -1.1908
 4059SOL     OW23809   1.940   4.714   5.435 -0.2544 -0.3687  0.1691
 4059SOL    HW123810   1.916   4.667   5.515  0.4439 -1.7942 -0.4656
 4059SOL    HW223811   1.895   0.057   5.464 -2.2643 -1.0669 -1.0342
 4060SOL     OW23812   3.105   3.678   7.108 -0.3712 -0.2522 -0.0697
 4060SOL    HW123813   3.040   3.747   7.110  0.6214  0.7001 -0.3825
 4060SOL    HW223814   3.072   3.618   7.175  0.6853 -0.4139  0.3109
 4061SOL     OW23815   2.597   3.110  15.023 -0.2986 -0.1050 -0.0677
 4061SOL    HW123816   2.656   3.072  15.089 -0.3342 -0.9204 -0.5061
 4061SOL    HW223817   2.517   3.104  15.075 -0.4493  0.5614 -0.2227
 4062SOL     OW23818   1.518   0.583  10.363 -0.4644  0.6806  0.3024
 4062SOL    HW123819   1.603   0.565  10.404 -0.5364 -0.6644 -0.1436
 4062SOL    HW223820   1.510   0.496  10.324  1.6911  0.1313  1.0855
 4063SOL     OW23821   0.664   0.673   3.856  0.5610  0.4993  0.3982
 4063SOL    HW123822   0.685   0.670   3.763  0.2632 -1.6360  0.4169
 4063SOL    HW223823   0.627   0.761   3.854  2.3624  1.2658  0.1956
 4064SOL     OW23824   1.065   1.459   7.245 -0.7793  0.2083 -0.7494
 4064SOL    HW123825   1.064   1.524   7.315 -0.2261 -1.1416  0.5187
 4064SOL    HW223826   0.974   1.430   7.247 -0.7958  0.3777  1.4699
 4065SOL     OW23827   4.237   2.688   3.043  0.1924 -0.6457  0.5157
 4065SOL    HW123828   4.300   2.759   3.028 -1.8033  1.0775  0.3013
 4065SOL    HW223829   4.293   2.610   3.040  0.4474 -0.4425  0.0177
 4066SOL     OW23830   3.413   3.461   7.601 -0.0594  0.1900  0.5664
 4066SOL    HW123831   3.505   3.463   7.577 -0.5012 -0.0730 -1.1973
 4066SOL    HW223832   3.374   3.485   7.516  1.2857  2.9652  0.7544
 4067SOL     OW23833   3.401   4.383  11.535  0.3288  0.2276  0.0129
 4067SOL    HW123834   3.402   4.477  11.518 -1.2964  0.3290  0.5064
 4067SOL    HW223835   3.478   4.346  11.490 -0.0550 -0.9732  0.3523
 4068SOL     OW23836   0.497   1.352   9.106  0.0172  0.3515  0.8526
 4068SOL    HW123837   0.499   1.262   9.138 -0.7241 -0.9901 -2.8847
 4068SOL    HW223838   0.549   1.396   9.173  1.3543 -1.3136  0.8918
 4069SOL     OW23839   0.716   0.238   9.882 -0.2683  0.1098 -0.3881
 4069SOL    HW123840   0.670   0.160   9.912 -0.7721  0.2058 -0.9182
 4069SOL    HW223841   0.736   0.213   9.792  2.1137  0.2946  0.0925
 4070SOL     OW23842   2.353   3.035  13.588  0.9069 -0.2431 -0.2383
 4070SOL    HW123843   2.426   3.034  13.650 -0.2116 -0.3969  1.0866
 4070SOL    HW223844   2.300   3.099  13.636 -2.6320 -1.2231 -2.8818
 4071SOL     OW23845   4.261   0.706   0.542  0.0584  0.9195  0.2236
 4071SOL    HW123846   4.321   0.734   0.474  1.4195  0.7450  1.3652
 4071SOL    HW223847   4.184   0.709   0.484  0.1799  4.3357  0.2653
 4072SOL     OW23848   4.450   2.925   6.865 -0.1618 -0.2712  0.1242
 4072SOL    HW123849   4.409   3.012   6.859  0.6074 -0.0049 -1.4382
 4072SOL    HW223850   4.542   2.952   6.859 -0.4524  0.6040 -0.3707
 4073SOL     OW23851   1.850   2.643  13.188  0.3398  0.2426 -0.0755
 4073SOL    HW123852   1.770   2.678  13.150 -0.4978 -0.3045  1.1635
 4073SOL    HW223853   1.892   2.729  13.196  4.2912 -1.7634  0.6067
 4074SOL     OW23854   1.461   3.843  14.061  0.3702 -0.1742  0.3610
 4074SOL    HW123855   1.397   3.828  13.992  1.5846 -1.4611 -0.4867
 4074SOL    HW223856   1.507   3.759  14.063  2.3530  0.8673 -1.8252
 4075SOL     OW23857   3.476   0.700   6.944 -0.2391  0.1453  0.2081
 4075SOL    HW123858   3.400   0.668   6.992 -0.5569  1.9319  0.8870
 4075SOL    HW223859   3.510   0.619   6.907  4.2616  1.3619  1.7336
 4076SOL     OW23860   0.585   3.090   6.851 -0.1589 -0.4305 -0.0352
 4076SOL    HW123861   0.667   3.048   6.825  0.7103  1.9733 -1.1564
 4076SOL    HW223862   0.574   3.167   6.795  1.6405  0.6180  1.0710
 4077SOL     OW23863   3.090   3.075  11.890  0.2607  0.4725 -0.3343
 4077SOL    HW123864   3.067   3.160  11.853 -0.5781  0.1262 -0.6037
 4077SOL    HW223865   3.063   3.091  11.980  1.1930 -1.0317  0.2107
 4078SOL     OW23866   4.373   1.109  16.120 -0.4912  0.1764 -0.6419
 4078SOL    HW123867   4.361   1.022  16.081  0.1756  0.3476 -1.2389
 4078SOL    HW223868   4.286   1.133  16.150 -1.0475  0.3062 -2.3306
 4079SOL     OW23869   0.900   1.943  15.937 -0.5460  0.0561 -0.3123
 4079SOL    HW123870   0.924   2.011  16.001 -1.4219 -0.1038  0.1895
 4079SOL    HW223871   0.817   1.975  15.904 -0.1780  0.6716 -0.6421
 4080SOL     OW23872   1.855   0.107   2.475  0.2436 -0.2867 -0.2481
 4080SOL    HW123873   1.865   0.202   2.480  1.7273 -0.6068  2.8397
 4080SOL    HW223874   1.812   0.092   2.391  0.0006  0.5108 -0.2675
 4081SOL     OW23875   4.538   4.232   3.565 -0.4520 -0.1978  0.1262
 4081SOL    HW123876   4.617   4.280   3.541  0.4587 -0.7451  2.0246
 4081SOL    HW223877   4.578   4.155   3.605  0.2746 -1.1357 -2.4080
 4082SOL     OW23878   3.903   0.827   1.604  0.6231  0.0834  0.4816
 4082SOL    HW123879   3.954   0.862   1.531 -1.4641  0.5139 -0.7624
 4082SOL    HW223880   3.949   0.744   1.611  0.0282 -0.0268  3.0928
 4083SOL     OW23881   3.269   4.293   6.493  0.1109  0.6075 -1.1413
 4083SOL    HW123882   3.308   4.303   6.580 -1.2487  3.2421 -0.8422
 4083SOL    HW223883   3.177   4.278   6.516  1.1595 -0.8625  2.0461
 4084SOL     OW23884   3.303   0.983   2.766  0.3807 -0.1829 -0.1625
 4084SOL    HW123885   3.354   0.941   2.697  0.2258  0.4558 -0.6607
 4084SOL    HW223886   3.242   0.916   2.796  1.3434 -1.1062 -0.2800
 4085SOL     OW23887   4.298   1.033   8.863 -0.5950 -0.8502 -0.4855
 4085SOL    HW123888   4.379   1.023   8.813 -0.9385 -1.8837 -0.8223
 4085SOL    HW223889   4.274   0.941   8.868  0.2262 -1.1876 -2.9001
 4086SOL     OW23890   1.224   0.366   2.029  0.5987  0.1234 -0.8691
 4086SOL    HW123891   1.210   0.431   1.960  0.5299 -0.4452 -1.3892
 4086SOL    HW223892   1.276   0.293   1.995 -0.9299 -0.5025 -1.8219
 4087SOL     OW23893   3.431   4.541   5.672 -0.3307  0.2889 -0.4188
 4087SOL    HW123894   3.418   4.628   5.711 -0.2711  0.4621 -0.7886
 4087SOL    HW223895   3.351   4.530   5.622 -0.3093  0.7584 -0.5577
 4088SOL     OW23896   3.472   2.098   2.157  0.4161  0.3630  0.0740
 4088SOL    HW123897   3.486   2.131   2.246 -1.3155 -0.2540  0.5691
 4088SOL    HW223898   3.385   2.063   2.173 -0.4240  1.6148 -1.7918
 4089SOL     OW23899   2.227   3.517   4.016  0.1571 -0.8186  0.5588
 4089SOL    HW123900   2.217   3.487   3.925  0.9389  2.5890 -0.6459
 4089SOL    HW223901   2.240   3.612   4.009 -0.6696 -0.7009  0.5343
 4090SOL     OW23902   1.434   0.544  15.108 -0.2776 -0.0513 -0.0124
 4090SOL    HW123903   1.433   0.456  15.069  1.6332  0.1656 -0.5592
 4090SOL    HW223904   1.343   0.544  15.138 -1.0232  2.0637 -2.3295
 4091SOL     OW23905   3.823   4.467  15.217 -0.3294 -0.3696  0.5033
 4091SOL    HW123906   3.785   4.384  15.244  1.1119 -1.0158  0.5670
 4091SOL    HW223907   3.905   4.449  15.263  0.3031 -1.7109 -1.1666
 4092SOL     OW23908   2.379   1.265  14.077  0.4032 -0.1731  0.4170
 4092SOL    HW123909   2.352   1.348  14.037  0.4398  0.4138  1.6173
 4092SOL    HW223910   2.393   1.213  13.998 -0.0414  2.1389 -1.1916
 4093SOL     OW23911   1.769   3.828  14.704 -0.3791 -0.1814 -0.1203
 4093SOL    HW123912   1.731   3.836  14.616  0.3319  4.0298 -0.0620
 4093SOL    HW223913   1.694   3.862  14.752 -0.3034  0.0038 -0.1307
 4094SOL     OW23914   1.197   2.621  11.974  0.3635  0.2138  0.1037
 4094SOL    HW123915   1.275   2.582  12.013  1.1293  1.4904 -0.1400
 4094SOL    HW223916   1.239   2.696  11.932  0.6477 -0.0902 -0.1440
 4095SOL     OW23917   0.247   1.247   3.024 -0.2415 -0.4847 -0.5571
 4095SOL    HW123918   0.290   1.307   3.086 -0.4816 -0.1985 -0.6715
 4095SOL    HW223919   0.159   1.282   3.040  0.3808  0.6999  0.3776
 4096SOL     OW23920   2.232   0.340   3.732  0.2959 -0.3144 -0.2341
 4096SOL    HW123921   2.227   0.332   3.827  0.8394  0.1528 -0.1656
 4096SOL    HW223922   2.325   0.319   3.730  0.2514 -0.2550 -2.5832
 4097SOL     OW23923   4.429   4.393  11.899 -0.1717 -0.2455 -0.3764
 4097SOL    HW123924   4.370   4.463  11.871 -0.2015  0.6519  1.9542
 4097SOL    HW223925   4.464   4.363  11.815 -0.7508 -0.5866 -0.4935
 4098SOL     OW23926   2.280   3.849   4.029  0.0313 -0.0043 -0.0749
 4098SOL    HW123927   2.319   3.865   4.114  1.2462 -0.0646 -0.6177
 4098SOL    HW223928   2.352   3.867   3.968  2.7331 -0.9269  2.8293
 4099SOL     OW23929   0.273   0.796   4.797 -0.4087 -0.1809 -0.0463
 4099SOL    HW123930   0.202   0.788   4.734 -1.2292  1.2378  0.6900
 4099SOL    HW223931   0.292   0.702   4.792 -0.3782 -0.1801  0.0394
 4100SOL     OW23932   2.542   1.284   3.424 -0.2401  0.7234  0.5159
 4100SOL    HW123933   2.491   1.203   3.432  1.9637 -0.6746  0.5271
 4100SOL    HW223934   2.479   1.345   3.462  0.4983  2.0211 -0.3574
 4101SOL     OW23935   3.165   1.405   1.328 -0.1468 -0.8106 -0.3935
 4101SOL    HW123936   3.233   1.381   1.265  1.0903 -2.1544  1.4764
 4101SOL    HW223937   3.155   1.499   1.311 -0.6906 -0.5958  1.0715
 4102SOL     OW23938   0.566   4.568   7.990 -0.1454  0.0029 -0.7920
 4102SOL    HW123939   0.653   4.562   8.028 -1.1534 -1.5784  1.2854
 4102SOL    HW223940   0.519   4.561   8.074 -0.9326  1.0723 -1.1456
 4103SOL     OW23941   2.005   2.026   0.279 -0.1935 -0.2999  0.2667
 4103SOL    HW123942   1.922   1.999   0.318 -1.0141  0.7063 -0.8021
 4103SOL    HW223943   1.998   2.119   0.301 -1.3288 -0.5602  1.0060
 4104SOL     OW23944   0.261   3.679   6.915 -0.1897 -0.1722  0.4977
 4104SOL    HW123945   0.214   3.602   6.948 -1.6913  0.9760  0.9997
 4104SOL    HW223946   0.327   3.639   6.858  0.5926 -1.1469  2.0897
 4105SOL     OW23947   3.105   0.795   8.368 -0.1343 -0.5711 -0.1869
 4105SOL    HW123948   3.125   0.804   8.275  1.9072 -0.3357  0.2634
 4105SOL    HW223949   3.026   0.742   8.381  1.0858 -1.3828  3.9826
 4106SOL     OW23950   4.390   0.207   3.374  0.3362 -0.2183  0.2034
 4106SOL    HW123951   4.483   0.186   3.366  0.3625  0.4373 -1.3060
 4106SOL    HW223952   4.359   0.161   3.452 -0.2197 -1.9725 -1.0616
 4107SOL     OW23953   1.668   0.172  11.838  0.1024 -0.0647  0.0430
 4107SOL    HW123954   1.697   0.223  11.763  0.7886 -1.8832 -0.9148
 4107SOL    HW223955   1.630   0.246  11.886 -2.1420 -0.1487 -1.5808
 4108SOL     OW23956   1.749   3.198   3.377 -0.1347 -0.1661  0.4462
 4108SOL    HW123957   1.773   3.224   3.466  0.2937 -1.4915  0.7155
 4108SOL    HW223958   1.713   3.278   3.339 -1.8870 -2.3120 -2.3919
 4109SOL     OW23959   0.395   3.899   5.037 -0.0053 -0.3883  0.1299
 4109SOL    HW123960   0.323   3.900   5.099 -0.9426 -0.7990 -0.9483
 4109SOL    HW223961   0.360   3.954   4.967 -1.7187 -0.6009  0.8309
 4110SOL     OW23962   4.114   1.159  16.968  0.4272 -0.2472  0.5284
 4110SOL    HW123963   4.152   1.094  17.027  0.4851 -0.1824  0.5612
 4110SOL    HW223964   4.105   1.235  17.026  1.5642  0.7453 -0.5947
 4111SOL     OW23965   2.346   3.724   5.072  0.2465 -0.1157  0.0948
 4111SOL    HW123966   2.372   3.715   5.164 -0.5624 -0.0170  0.3356
 4111SOL    HW223967   2.261   3.680   5.064 -0.9722  1.9468  1.5218
 4112SOL     OW23968   0.988   4.224  16.026  0.0396  0.4132  0.0443
 4112SOL    HW123969   0.905   4.271  16.031 -0.5312 -0.7227  1.3277
 4112SOL    HW223970   1.054   4.292  16.042 -0.7870  1.1439  0.3249
 4113SOL     OW23971   3.085   1.732  14.138 -0.0705  0.3392  0.0557
 4113SOL    HW123972   3.160   1.680  14.108  0.2441  1.8119 -1.7456
 4113SOL    HW223973   3.100   1.730  14.233 -2.0740 -0.1727  0.3564
 4114SOL     OW23974   4.280   1.111  10.049  0.4055  0.2714 -0.0168
 4114SOL    HW123975   4.357   1.143  10.096  1.4587 -0.4353 -1.2542
 4114SOL    HW223976   4.250   1.193  10.012  0.8150  0.2450 -0.4163
 4115SOL     OW23977   3.820   1.163   8.309 -0.0598  0.7503 -0.5055
 4115SOL    HW123978   3.865   1.079   8.304 -2.1531 -0.3688 -0.7281
 4115SOL    HW223979   3.728   1.137   8.319  0.6535 -2.3554 -1.9192
 4116SOL     OW23980   3.952   0.535   5.912  0.2205  0.0928  0.3473
 4116SOL    HW123981   3.928   0.609   5.855 -0.4602  0.7554  1.4930
 4116SOL    HW223982   4.044   0.526   5.889 -0.3940 -1.8742 -1.2688
 4117SOL     OW23983   4.298   2.991  15.812  0.3549 -0.9689 -0.1969
 4117SOL    HW123984   4.217   2.946  15.837  1.5508 -1.9425  1.8849
 4117SOL    HW223985   4.273   3.019  15.724 -0.8622  1.5183  0.9527
 4118SOL     OW23986   0.261   0.443   9.943 -0.4106  0.0104 -0.2716
 4118SOL    HW123987   0.255   0.349   9.955  2.1772  0.1716  2.1310
 4118SOL    HW223988   0.184   0.464   9.997  0.7973 -0.6718  1.6895
 4119SOL     OW23989   1.801   4.655  11.845 -0.0000  0.2981 -0.2696
 4119SOL    HW123990   1.888   4.682  11.873  0.1757  0.4121 -0.9281
 4119SOL    HW223991   1.745   4.719  11.888 -0.7214 -1.2481  1.1218
 4120SOL     OW23992   1.499   1.280  13.084 -0.0366  0.2033 -0.2680
 4120SOL    HW123993   1.553   1.203  13.105  0.2453  0.9365  1.7182
 4120SOL    HW223994   1.559   1.349  13.112  0.1581 -0.7348  1.6441
 4121SOL     OW23995   0.141   2.316   4.550 -0.4304 -0.3052 -0.3827
 4121SOL    HW123996   0.140   2.288   4.642  1.0587 -0.0978 -0.3174
 4121SOL    HW223997   0.128   2.410   4.559 -0.6338 -0.2410 -1.3864
 4122SOL     OW23998   3.857   3.870   8.184  0.3204 -0.1611 -0.3775
 4122SOL    HW123999   3.943   3.829   8.177  0.4364  0.1275 -0.6708
 4122SOL    HW224000   3.874   3.940   8.122  1.3730 -1.6031 -1.7334
 4123SOL     OW24001   2.419   0.180  14.700  0.1074 -0.2485 -0.1029
 4123SOL    HW124002   2.404   0.261  14.650  1.8840  0.0757 -0.0868
 4123SOL    HW224003   2.461   0.136  14.626 -0.1164 -1.8103  0.7193
 4124SOL     OW24004   2.022   2.504   9.732 -0.6292 -0.4823 -0.1862
 4124SOL    HW124005   1.962   2.557   9.784  2.0438  3.8899 -1.5248
 4124SOL    HW224006   2.027   2.424   9.784 -0.8910  0.0641  0.6729
 4125SOL     OW24007   0.152   0.296   8.575 -0.4388 -0.3134 -0.2350
 4125SOL    HW124008   0.127   0.334   8.658 -1.8415  0.9218 -1.2224
 4125SOL    HW224009   0.164   0.370   8.516  0.4988 -0.5005 -0.2741
 4126SOL     OW24010   3.394   0.616   7.541 -0.1760 -0.0992  0.3356
 4126SOL    HW124011   3.401   0.563   7.462  0.2110  0.7738 -0.2033
 4126SOL    HW224012   3.341   0.554   7.592  0.7328 -0.4501  0.8410
 4127SOL     OW24013   4.660   0.776   4.376  0.0515  0.1481 -0.2559
 4127SOL    HW124014   4.584   0.749   4.325 -0.0521 -0.7383  0.3836
 4127SOL    HW224015   4.606   0.844   4.417  0.8279  0.7021 -0.1467
 4128SOL     OW24016   2.856   4.665  14.585 -0.2924 -0.5708 -0.2054
 4128SOL    HW124017   2.870   4.644  14.492 -0.4452  2.7705 -0.9783
 4128SOL    HW224018   2.798   4.593  14.608 -0.6484  1.0173  3.8640
 4129SOL     OW24019   3.624   3.516  14.153 -0.4056 -0.4327  0.2138
 4129SOL    HW124020   3.717   3.497  14.168 -0.2028  1.6614  1.4996
 4129SOL    HW224021   3.584   3.437  14.190 -2.2708  1.1326  1.5149
 4130SOL     OW24022   3.196   3.311  12.101  0.3694 -0.0564 -0.3273
 4130SOL    HW124023   3.187   3.332  12.194 -1.3380 -0.8669 -0.3112
 4130SOL    HW224024   3.208   3.216  12.106 -0.1155 -0.0145  1.3631
 4131SOL     OW24025   2.640   0.765   4.402  0.2718  0.3196 -0.0754
 4131SOL    HW124026   2.688   0.848   4.396  0.8145  0.0688  0.8140
 4131SOL    HW224027   2.717   0.713   4.425 -1.0933 -0.8271  1.8658
 4132SOL     OW24028   3.443   2.977  16.881  0.0458 -0.4575  0.6619
 4132SOL    HW124029   3.360   2.945  16.846  1.2090 -0.5361 -2.0525
 4132SOL    HW224030   3.435   3.072  16.882 -0.7498 -0.5334  1.2231
 4133SOL     OW24031   2.544   3.133  13.806  0.5313 -0.1212  0.2965
 4133SOL    HW124032   2.583   3.204  13.756 -2.8852  0.2913 -1.7854
 4133SOL    HW224033   2.618   3.122  13.866  2.4551  1.9017 -1.7389
 4134SOL     OW24034   1.854   3.979   4.882 -0.3261  0.3271  0.0916
 4134SOL    HW124035   1.765   3.946   4.871  0.1212 -0.7574 -0.2845
 4134SOL    HW224036   1.882   4.001   4.793  0.4505  0.1513  0.2840
 4135SOL     OW24037   4.472   3.275  17.736  0.0917 -0.3449 -0.5455
 4135SOL    HW124038   4.559   3.295   0.027 -0.2258 -0.3873  0.2948
 4135SOL    HW224039   4.480   3.285  17.641  0.3236  1.3889 -0.3523
 4136SOL     OW24040   2.118   1.582   7.555 -0.2470 -0.0633  0.3037
 4136SOL    HW124041   2.146   1.516   7.491  1.7049  0.5864  0.4836
 4136SOL    HW224042   2.136   1.541   7.639  2.4519  0.0719 -0.2062
 4137SOL     OW24043   0.932   2.695   0.746 -0.6215 -0.0884 -0.4701
 4137SOL    HW124044   0.959   2.769   0.693  0.2150  0.8878  1.3026
 4137SOL    HW224045   0.967   2.624   0.692  0.4237 -0.4947  0.7183
 4138SOL     OW24046   2.383   3.594   3.788 -0.4091 -0.2487  0.2749
 4138SOL    HW124047   2.445   3.666   3.800 -2.7131  1.8436 -0.3632
 4138SOL    HW224048   2.409   3.519   3.842 -1.5841 -3.0720 -3.1545
 4139SOL     OW24049   1.484   2.398   1.721  0.1570 -0.2246  0.0193
 4139SOL    HW124050   1.467   2.318   1.671  2.3913  0.3007 -1.5753
 4139SOL    HW224051   1.412   2.402   1.783 -0.5901  0.4628 -0.8918
 4140SOL     OW24052   3.707   1.171  14.162 -0.0430  0.1834 -0.5675
 4140SOL    HW124053   3.658   1.106  14.213  1.9055 -1.2197 -0.4801
 4140SOL    HW224054   3.678   1.157  14.072 -0.7981 -1.1227 -0.1165
 4141SOL     OW24055   1.485   3.398   9.202 -0.0714  0.6812  0.3467
 4141SOL    HW124056   1.464   3.489   9.225  2.9684  1.6413 -0.6533
 4141SOL    HW224057   1.510   3.401   9.109 -1.3653 -0.2510 -0.0309
 4142SOL     OW24058   4.240   0.738   1.300  0.1021  0.4630  0.2031
 4142SOL    HW124059   4.292   0.818   1.284  0.7664  0.0208  0.1447
 4142SOL    HW224060   4.163   0.778   1.341  0.8175  1.2384  0.8093
 4143SOL     OW24061   0.530   1.566   5.565 -0.1501 -0.0804  0.1172
 4143SOL    HW124062   0.611   1.552   5.516 -0.6007  1.9952 -1.2181
 4143SOL    HW224063   0.472   1.570   5.489 -0.6154 -1.4835  0.3901
 4144SOL     OW24064   2.930   0.957   5.302 -0.6503  0.3436  0.0525
 4144SOL    HW124065   2.893   0.980   5.216 -0.6551 -1.0719 -0.3333
 4144SOL    HW224066   3.013   0.916   5.278  0.4801  2.1451  0.9048
 4145SOL     OW24067   0.768   0.116  15.562 -0.0311  0.7375  0.5102
 4145SOL    HW124068   0.714   0.120  15.641  0.2257  0.0787  0.7261
 4145SOL    HW224069   0.702   0.141  15.498 -0.1865 -1.0824 -0.0543
 4146SOL     OW24070   1.074   3.956   6.754 -0.7194  0.2581  0.2208
 4146SOL    HW124071   1.137   3.982   6.687 -0.3193 -0.7313  0.2260
 4146SOL    HW224072   1.070   3.861   6.745 -3.0989  0.3332  0.3387
 4147SOL     OW24073   3.502   2.933   5.628  0.5183 -0.4640  0.1769
 4147SOL    HW124074   3.502   2.941   5.533  0.8778  1.1812  0.3214
 4147SOL    HW224075   3.597   2.934   5.642  0.3895 -1.9627  1.1605
 4148SOL     OW24076   3.916   1.487   2.706 -0.3115  0.0097  0.3283
 4148SOL    HW124077   3.835   1.482   2.757 -0.4023  2.0305  0.4028
 4148SOL    HW224078   3.885   1.440   2.629  0.7555 -0.9035  0.4608
 4149SOL     OW24079   3.042   2.500  11.850 -0.1576 -0.2926  0.7243
 4149SOL    HW124080   3.090   2.582  11.852 -1.8782  0.6638  2.7163
 4149SOL    HW224081   3.103   2.453  11.906  0.4841  1.7685  1.7415
 4150SOL     OW24082   1.176   3.069   3.298  0.1411  0.0852 -0.2228
 4150SOL    HW124083   1.103   3.046   3.356  1.5552 -3.1673  0.2837
 4150SOL    HW224084   1.236   3.110   3.361 -1.2501  0.7171  0.6868
 4151SOL     OW24085   1.014   0.838   5.625  0.0062 -0.1584  0.4396
 4151SOL    HW124086   0.991   0.848   5.533 -0.3085  0.9583  0.6431
 4151SOL    HW224087   0.964   0.911   5.662 -0.1742  0.7942 -1.7060
 4152SOL     OW24088   2.594   2.943   2.964  0.6849 -0.4682 -0.1072
 4152SOL    HW124089   2.591   2.858   3.009 -0.9153 -0.2337  0.2401
 4152SOL    HW224090   2.578   2.915   2.874 -0.5565  0.6796 -0.2343
 4153SOL     OW24091   0.881   1.823   9.610 -0.1044 -0.3379  1.0208
 4153SOL    HW124092   0.976   1.819   9.599 -0.2800  0.7617 -0.9520
 4153SOL    HW224093   0.872   1.904   9.659  0.4147 -0.2355  0.9423
 4154SOL     OW24094   0.787   2.729   5.134  0.6747  0.3862  0.0151
 4154SOL    HW124095   0.774   2.716   5.228 -1.0672  0.8680 -0.1575
 4154SOL    HW224096   0.704   2.694   5.102  0.0407 -0.6018  2.7381
 4155SOL     OW24097   0.148   4.076   5.085 -0.2888  0.3043  0.1192
 4155SOL    HW124098   0.119   4.146   5.027  0.6345  0.8296  0.2847
 4155SOL    HW224099   0.064   4.039   5.112 -0.5831  2.0451  1.6115
 4156SOL     OW24100   0.463   1.417   5.072 -0.0101  0.1906 -0.3221
 4156SOL    HW124101   0.417   1.339   5.104  2.0790 -1.6136 -1.7096
 4156SOL    HW224102   0.512   1.448   5.148  1.7433 -0.7818 -1.0387
 4157SOL     OW24103   2.337   1.439  13.650  0.3839 -0.2145  0.0389
 4157SOL    HW124104   2.254   1.487  13.652 -0.1617 -1.2669  3.1206
 4157SOL    HW224105   2.367   1.461  13.562 -3.1489  1.8187 -0.6725
 4158SOL     OW24106   1.888   0.042   6.693 -0.1224 -0.1101  0.6218
 4158SOL    HW124107   1.926   0.073   6.611  2.5408 -2.8716  0.7995
 4158SOL    HW224108   1.907   4.685   6.679 -1.8372 -0.3755  0.0188
 4159SOL     OW24109   4.374   4.420   3.865  0.0863  0.5477  0.0136
 4159SOL    HW124110   4.467   4.417   3.889 -0.4125  1.6395  2.0466
 4159SOL    HW224111   4.340   4.370   3.939  0.1350 -1.4507 -1.2910
 4160SOL     OW24112   1.727   2.697  13.878  0.2539  0.4188  0.5145
 4160SOL    HW124113   1.782   2.736  13.946 -0.0005  2.0076 -0.2109
 4160SOL    HW224114   1.698   2.614  13.916  1.8155 -0.0301  0.7417
 4161SOL     OW24115   0.220   3.368   6.968  0.0650 -0.1500 -0.7901
 4161SOL    HW124116   0.218   3.377   6.873  2.5725 -0.1781 -0.8438
 4161SOL    HW224117   0.255   3.280   6.976  1.2458  0.3463 -0.4826
 4162SOL     OW24118   4.051   3.262  17.380 -0.0229 -0.2897 -0.3673
 4162SOL    HW124119   4.144   3.240  17.379  0.2316  0.7860 -1.1063
 4162SOL    HW224120   4.007   3.202  17.320  1.0402 -1.0757 -0.3516
 4163SOL     OW24121   1.900   4.117   1.512 -0.3773 -0.1597 -0.1445
 4163SOL    HW124122   1.978   4.123   1.456  0.5799  2.9274  1.5621
 4163SOL    HW224123   1.948   4.129   1.594  1.1845  1.0559 -1.2346
 4164SOL     OW24124   4.475   1.458   3.828  0.0072 -0.2852 -0.2397
 4164SOL    HW124125   4.435   1.513   3.895  0.6727  0.9008 -0.8180
 4164SOL    HW224126   4.505   1.378   3.870 -0.3775  0.3601  1.2689
 4165SOL     OW24127   1.711   2.128   0.163  0.0331  0.1830  0.1895
 4165SOL    HW124128   1.645   2.069   0.126  1.0190 -2.0640  2.0424
 4165SOL    HW224129   1.732   2.095   0.250 -1.8596  1.3514  1.0953
 4166SOL     OW24130   1.599   1.694   4.416 -0.4348 -0.3579 -0.5157
 4166SOL    HW124131   1.694   1.691   4.405 -0.4941 -0.7563 -0.9403
 4166SOL    HW224132   1.561   1.697   4.328 -0.9383  0.0126 -0.2859
 4167SOL     OW24133   3.854   2.234   5.583 -1.0871 -0.0452 -0.1974
 4167SOL    HW124134   3.900   2.176   5.644  0.5571 -0.4628 -1.8284
 4167SOL    HW224135   3.923   2.277   5.532  0.6930 -2.9675 -0.2132
 4168SOL     OW24136   0.776   0.520  12.197 -1.2773 -0.3598 -0.7285
 4168SOL    HW124137   0.808   0.484  12.114  0.4336 -1.0743  0.2448
 4168SOL    HW224138   0.785   0.443  12.253 -0.0747  0.3825  0.0883
 4169SOL     OW24139   2.607   2.727   9.338 -0.2230  0.2017 -0.0307
 4169SOL    HW124140   2.643   2.763   9.419 -2.2276  1.6637  0.2158
 4169SOL    HW224141   2.536   2.678   9.380 -1.4945  0.6447 -1.6371
 4170SOL     OW24142   2.122   3.975   2.675 -0.0669 -0.6915  0.1378
 4170SOL    HW124143   2.192   3.925   2.633  1.9128 -0.4354  3.1689
 4170SOL    HW224144   2.057   3.984   2.605 -0.9495  0.7863  1.1431
 4171SOL     OW24145   1.495   4.723   7.417 -0.1011 -0.1163 -0.7259
 4171SOL    HW124146   1.409   4.706   7.455 -0.3090  0.2565 -1.0307
 4171SOL    HW224147   1.490   4.687   7.329  0.4269 -2.4859  0.2020
 4172SOL     OW24148   1.419   4.731   1.724 -0.5096 -0.3730  0.4168
 4172SOL    HW124149   1.492   0.014   1.664 -1.2124 -0.5977 -0.5061
 4172SOL    HW224150   1.347   0.006   1.662  1.7362  0.3895 -2.0808
 4173SOL     OW24151   2.423   4.091   0.726  0.1314  0.0427 -0.0465
 4173SOL    HW124152   2.519   4.083   0.727  0.1016 -0.2866  0.2097
 4173SOL    HW224153   2.388   4.004   0.707  0.9356 -0.9346  2.8693
 4174SOL     OW24154   4.096   0.556   9.721 -0.1564  0.5281  0.0151
 4174SOL    HW124155   4.001   0.549   9.706  0.1342 -2.0021 -0.6504
 4174SOL    HW224156   4.117   0.469   9.756  1.0533  0.0651 -1.8963
 4175SOL     OW24157   2.739   2.785   1.679  0.0235  0.0574 -0.9064
 4175SOL    HW124158   2.744   2.761   1.771 -1.9321 -0.1657 -0.8578
 4175SOL    HW224159   2.760   2.701   1.640 -1.3074 -1.6117  1.9753
 4176SOL     OW24160   4.041   4.435  14.678  0.5158 -0.0733 -0.4066
 4176SOL    HW124161   4.128   4.470  14.700  0.0592  1.6974 -1.3998
 4176SOL    HW224162   4.004   4.524  14.675  1.5835  0.2851 -2.9168
 4177SOL     OW24163   3.652   2.126   7.185 -0.2737 -0.0508  0.0558
 4177SOL    HW124164   3.566   2.132   7.225  1.6709 -2.2160  4.5587
 4177SOL    HW224165   3.646   2.120   7.090  2.0963 -2.3336  0.0401
 4178SOL     OW24166   4.254   1.076   5.601  0.1440 -0.1021  0.1136
 4178SOL    HW124167   4.245   1.087   5.695  3.0855  1.9333  0.1328
 4178SOL    HW224168   4.342   1.040   5.600 -0.9070 -2.7075 -1.7859
 4179SOL     OW24169   3.268   1.555   0.614  0.1905 -0.1664 -0.6606
 4179SOL    HW124170   3.196   1.550   0.552 -1.8469  0.3554  1.6473
 4179SOL    HW224171   3.324   1.626   0.582 -2.5266  1.2985 -2.0794
 4180SOL     OW24172   0.031   1.235   1.279  0.1743  0.3098 -0.2875
 4180SOL    HW124173   4.686   1.207   1.236 -1.1266  0.1023  2.2804
 4180SOL    HW224174   0.000   1.261   1.366  0.1968  1.6759 -0.6948
 4181SOL     OW24175   0.918   2.375   1.838  0.5308 -0.2116  0.2332
 4181SOL    HW124176   0.975   2.362   1.763 -1.2913 -0.0521 -1.1763
 4181SOL    HW224177   0.833   2.384   1.796  0.9004  2.8123  0.1070
 4182SOL     OW24178   3.048   3.437   1.951 -0.0133 -0.0658  0.0484
 4182SOL    HW124179   2.990   3.375   1.996  1.4994 -0.9515  0.7526
 4182SOL    HW224180   3.118   3.380   1.919 -0.6250 -0.1583 -1.1579
 4183SOL     OW24181   4.694   0.375  12.474 -0.1441  0.1247 -0.0523
 4183SOL    HW124182   0.012   0.307  12.434 -0.8399  1.1292 -2.6730
 4183SOL    HW224183   4.710   0.456  12.425  2.2831  0.9111  2.0276
 4184SOL     OW24184   4.551   2.705   2.440  0.1538 -0.0144  0.7346
 4184SOL    HW124185   4.583   2.683   2.352  1.1209 -2.8699  1.7911
 4184SOL    HW224186   4.460   2.728   2.420  0.6180  0.7658 -0.4956
 4185SOL     OW24187   0.391   3.626   4.176 -0.0584  0.3895 -0.5525
 4185SOL    HW124188   0.300   3.642   4.199 -0.1683 -1.6185  0.3529
 4185SOL    HW224189   0.423   3.712   4.147  1.1498  0.3846  0.7592
 4186SOL     OW24190   2.056   3.946  15.146 -0.2194 -0.5531  0.0187
 4186SOL    HW124191   2.132   3.957  15.203  0.0694  2.8453 -1.0108
 4186SOL    HW224192   1.985   3.979  15.201  0.9381 -0.6976  1.5834
 4187SOL     OW24193   0.353   2.008   8.514  0.0055 -0.0296  0.1504
 4187SOL    HW124194   0.312   1.931   8.475 -2.4029  2.0053 -1.3050
 4187SOL    HW224195   0.343   2.083   8.457 -0.6725 -1.1938 -1.2580
 4188SOL     OW24196   4.203   3.290   6.443 -0.7322 -0.1736 -0.2090
 4188SOL    HW124197   4.198   3.241   6.525  0.4690  0.0686  0.0137
 4188SOL    HW224198   4.225   3.218   6.383 -0.8515 -0.0976 -0.3434
 4189SOL     OW24199   1.909   1.563   1.555 -0.4450 -0.1801  0.1504
 4189SOL    HW124200   1.878   1.548   1.644  0.8758  0.0485  0.6462
 4189SOL    HW224201   1.995   1.594   1.583 -0.8313  0.5741  0.4919
 4190SOL     OW24202   4.716   2.594   5.839  0.1402  0.1315  0.1211
 4190SOL    HW124203   0.018   2.536   5.905 -0.2693  0.3360  0.5406
 4190SOL    HW224204   4.726   2.681   5.877 -1.8431 -0.1699  1.3864
 4191SOL     OW24205   3.849   2.970   9.630 -0.0201  0.2536 -0.0492
 4191SOL    HW124206   3.829   2.946   9.720  0.6430 -0.3711 -0.0702
 4191SOL    HW224207   3.766   2.945   9.589 -0.1966  0.0621  0.4265
 4192SOL     OW24208   3.362   4.699   4.613  0.0507 -0.1594 -0.5550
 4192SOL    HW124209   3.272   4.722   4.590 -1.0910 -1.6881  2.5087
 4192SOL    HW224210   3.355   4.703   4.708  1.4408 -1.7423 -0.3907
 4193SOL     OW24211   3.743   3.665   5.824  0.2028  0.0820 -0.0832
 4193SOL    HW124212   3.688   3.736   5.791 -0.5952 -0.5320 -0.0845
 4193SOL    HW224213   3.697   3.674   5.908 -0.5891  0.5849 -0.5817
 4194SOL     OW24214   1.739   0.881   8.026  0.1456  0.6694  0.1164
 4194SOL    HW124215   1.690   0.804   8.054 -0.1599  0.8822  0.1718
 4194SOL    HW224216   1.717   0.948   8.091 -2.8487 -1.1487  0.9689
 4195SOL     OW24217   4.106   0.312   4.262 -0.2923 -0.1188  0.3985
 4195SOL    HW124218   4.013   0.334   4.272 -0.5562  0.0680 -2.6284
 4195SOL    HW224219   4.098   0.221   4.290  1.2946 -0.3490  0.0872
 4196SOL     OW24220   0.552   3.187   6.175  0.3898 -0.2956 -0.9539
 4196SOL    HW124221   0.576   3.270   6.216 -0.9294  0.1720 -1.1138
 4196SOL    HW224222   0.466   3.177   6.215  0.5807  1.0533 -0.2177
 4197SOL     OW24223   2.983   2.368   8.513 -0.1478  0.4041  0.2800
 4197SOL    HW124224   3.038   2.399   8.441 -0.0799  1.1594  0.6709
 4197SOL    HW224225   3.005   2.430   8.582 -1.2896  0.2874  0.7624
 4198SOL     OW24226   3.167   3.691   1.829  0.2694  0.4665  0.6592
 4198SOL    HW124227   3.086   3.668   1.785  1.4350  1.7681 -2.1619
 4198SOL    HW224228   3.193   3.616   1.882 -0.0947 -0.8370 -1.0190
 4199SOL     OW24229   3.538   2.775  15.686 -0.2223  0.7101 -0.8282
 4199SOL    HW124230   3.515   2.865  15.709  0.8067  0.6990  0.2396
 4199SOL    HW224231   3.537   2.731  15.771  0.1923 -1.6531 -2.0367
 4200SOL     OW24232   0.655   1.886   4.053 -0.2458  0.0369  0.0999
 4200SOL    HW124233   0.655   1.791   4.065  0.5714 -0.1279 -1.2499
 4200SOL    HW224234   0.742   1.891   4.015 -1.0126 -0.4945 -1.7506
 4201SOL     OW24235   4.117   0.167   7.033 -0.0664  0.2372  0.1728
 4201SOL    HW124236   4.187   0.173   6.967  0.8212 -1.2913  0.9725
 4201SOL    HW224237   4.155   0.208   7.111 -0.4851  0.9986 -0.0299
 4202SOL     OW24238   1.322   0.126   2.544  0.0740  0.1236  0.4913
 4202SOL    HW124239   1.294   0.079   2.623  2.0191 -2.7305 -0.5019
 4202SOL    HW224240   1.245   0.179   2.525 -1.5077 -1.8443  1.3803
 4203SOL     OW24241   1.081   2.538   7.629  0.3617 -0.0831  0.7661
 4203SOL    HW124242   1.009   2.512   7.573  0.1841  1.0753  0.4783
 4203SOL    HW224243   1.063   2.631   7.637  2.5437  0.3436  0.6926
 4204SOL     OW24244   1.577   1.318   5.422 -0.6701  0.0998  0.1043
 4204SOL    HW124245   1.489   1.336   5.455  0.3780  1.6298  2.0838
 4204SOL    HW224246   1.572   1.349   5.331  0.1352  2.4827  0.8501
 4205SOL     OW24247   0.797   4.146   9.267 -0.2622  0.8265  0.4218
 4205SOL    HW124248   0.712   4.185   9.243 -0.2817 -0.7207 -2.0288
 4205SOL    HW224249   0.774   4.055   9.287  0.3023  0.4762 -0.5233
 4206SOL     OW24250   4.513   1.727   4.459  0.3717  0.3134  0.1885
 4206SOL    HW124251   4.573   1.719   4.385 -2.0333  0.6911 -1.7749
 4206SOL    HW224252   4.566   1.683   4.526 -0.9703  0.2357  1.2173
 4207SOL     OW24253   2.855   1.341  15.314 -0.5132 -0.0056 -0.1086
 4207SOL    HW124254   2.881   1.252  15.288 -0.7096 -0.5837  1.6615
 4207SOL    HW224255   2.761   1.328  15.299 -0.4324 -0.9379  0.2021
 4208SOL     OW24256   3.814   4.032   6.066 -0.0419 -0.3994 -0.4165
 4208SOL    HW124257   3.737   4.052   6.013 -0.5957  0.3557  0.6412
 4208SOL    HW224258   3.874   3.969   6.028  0.3644 -1.1490  1.4459
 4209SOL     OW24259   2.414   2.649  11.426  0.4416  0.0778 -0.7386
 4209SOL    HW124260   2.480   2.709  11.461  1.3480 -0.7558 -1.0003
 4209SOL    HW224261   2.335   2.703  11.426  0.6449  0.3870  3.2577
 4210SOL     OW24262   2.790   0.034   5.214  0.3809  0.8285 -0.4125
 4210SOL    HW124263   2.737   4.695   5.187  3.2303 -0.8243 -1.3967
 4210SOL    HW224264   2.794   0.014   5.308  0.9838 -2.0418 -1.0472
 4211SOL     OW24265   4.136   2.915  17.697 -0.8890 -0.1952 -0.5954
 4211SOL    HW124266   4.231   2.911  17.689 -0.5171  2.4176  2.7091
 4211SOL    HW224267   4.117   2.901  17.604  0.3531  1.2657 -1.0713
 4212SOL     OW24268   3.990   2.259   0.968  0.1678 -0.0303  0.3377
 4212SOL    HW124269   3.995   2.163   0.969 -1.4116 -0.1264 -0.7529
 4212SOL    HW224270   4.056   2.279   1.034  0.3061 -0.3348  0.2912
 4213SOL     OW24271   0.947   1.251  14.680  0.2433 -0.6314  0.6031
 4213SOL    HW124272   1.018   1.262  14.617 -2.1116 -1.6384 -2.2113
 4213SOL    HW224273   0.875   1.292  14.632  0.1816 -2.3644 -0.7612
 4214SOL     OW24274   2.838   3.309   3.214  0.4108 -0.0906  0.4996
 4214SOL    HW124275   2.882   3.393   3.211  2.6532 -1.3385 -1.3396
 4214SOL    HW224276   2.808   3.297   3.124 -1.9893  0.6787  1.1998
 4215SOL     OW24277   0.269   1.437  11.574  0.5219 -0.7095 -0.3367
 4215SOL    HW124278   0.223   1.452  11.657  1.9069  0.8588  0.1640
 4215SOL    HW224279   0.298   1.526  11.552 -0.2623 -0.7364 -1.4357
 4216SOL     OW24280   2.769   1.041   5.074  0.2415  0.5004  0.3499
 4216SOL    HW124281   2.811   1.084   5.000  1.4400 -0.1568  0.6477
 4216SOL    HW224282   2.733   1.113   5.126 -0.4491 -1.3066  2.3984
 4217SOL     OW24283   1.426   2.108  10.790  0.2210  0.1490 -0.4581
 4217SOL    HW124284   1.467   2.069  10.713 -0.7056 -0.2611 -0.7387
 4217SOL    HW224285   1.501   2.145  10.836  0.8610 -0.2488 -1.1672
 4218SOL     OW24286   2.462   2.300   1.840  0.1367  0.0411  0.3123
 4218SOL    HW124287   2.453   2.327   1.749 -0.4472  0.5060  0.5073
 4218SOL    HW224288   2.380   2.264   1.874  0.4168 -0.5226  0.3919
 4219SOL     OW24289   1.503   0.961   7.278 -0.4853 -0.2635 -0.5657
 4219SOL    HW124290   1.432   0.957   7.213 -0.2652 -0.1001 -0.8156
 4219SOL    HW224291   1.474   1.033   7.333  2.5597  0.3231  0.2162
 4220SOL     OW24292   3.931   4.281   5.231 -0.4361  0.1220 -0.0118
 4220SOL    HW124293   3.955   4.374   5.232  0.5740 -0.1261 -0.5020
 4220SOL    HW224294   3.836   4.291   5.233 -0.6673 -1.5705 -2.7448
 4221SOL     OW24295   1.511   1.515   8.261  0.4731  0.3511  0.5934
 4221SOL    HW124296   1.498   1.605   8.231  0.0534 -0.1362 -0.7092
 4221SOL    HW224297   1.607   1.513   8.256  0.3748 -0.8003 -0.7711
 4222SOL     OW24298   4.491   2.602   2.704  0.0213 -0.1583  0.5325
 4222SOL    HW124299   4.568   2.626   2.653 -0.2141 -1.4433 -0.4358
 4222SOL    HW224300   4.454   2.690   2.713  2.6631  0.9898  0.0596
 4223SOL     OW24301   3.063   1.846   1.768 -0.0248 -0.0340  0.0417
 4223SOL    HW124302   3.138   1.843   1.708 -1.7269  0.5062 -2.0978
 4223SOL    HW224303   3.088   1.920   1.823 -0.7983  0.2893 -0.0553
 4224SOL     OW24304   3.185   1.604   0.885 -0.8673 -0.5133  0.4182
 4224SOL    HW124305   3.225   1.589   0.799 -0.4330  1.4304  0.2859
 4224SOL    HW224306   3.179   1.699   0.888 -1.3833 -0.4781 -2.0702
 4225SOL     OW24307   0.321   0.326   7.410 -0.1746 -0.2874  0.2817
 4225SOL    HW124308   0.389   0.269   7.446  0.5780 -0.4236 -1.3409
 4225SOL    HW224309   0.325   0.405   7.465  2.4084  0.2171 -0.6369
 4226SOL     OW24310   0.752   2.006   6.005 -0.0230 -0.1465 -0.1048
 4226SOL    HW124311   0.807   1.982   5.930 -1.0320 -2.0802 -0.1980
 4226SOL    HW224312   0.819   2.022   6.072 -0.6525  2.3216 -0.0813
 4227SOL     OW24313   0.509   2.927   2.555  0.7284 -0.0180  0.2143
 4227SOL    HW124314   0.579   2.906   2.494  0.2827  1.5295 -0.8270
 4227SOL    HW224315   0.508   3.023   2.557 -0.2656 -0.0443  1.0848
 4228SOL     OW24316   4.407   2.229   1.599 -0.4877 -0.1286  0.4664
 4228SOL    HW124317   4.428   2.322   1.587 -3.6024  0.4427 -0.4522
 4228SOL    HW224318   4.424   2.191   1.512  1.3744 -1.6604  1.5018
 4229SOL     OW24319   0.644   2.056  15.823  0.4678 -0.1792  0.3988
 4229SOL    HW124320   0.567   2.097  15.782  0.2880 -1.9402 -1.0239
 4229SOL    HW224321   0.615   2.069  15.913  2.1060  0.6353  0.7991
 4230SOL     OW24322   0.365   1.225   2.003  0.1725 -0.0369 -0.1324
 4230SOL    HW124323   0.422   1.300   1.983 -0.6183  0.3168 -1.0802
 4230SOL    HW224324   0.376   1.177   1.921  0.2277 -0.0649 -0.1089
 4231SOL     OW24325   4.235   4.535   1.786  0.5092  0.4193 -0.0233
 4231SOL    HW124326   4.176   4.472   1.827  2.2168 -1.3550 -0.2943
 4231SOL    HW224327   4.173   4.609   1.781  0.2283  0.3412  2.3180
 4232SOL     OW24328   1.755   1.799  11.863  0.0144 -0.7652  0.0510
 4232SOL    HW124329   1.672   1.789  11.817  0.0999 -0.1255 -0.2436
 4232SOL    HW224330   1.742   1.885  11.902  2.4778 -0.4362  0.1152
 4233SOL     OW24331   3.895   4.565   7.143 -0.2571  0.6127  0.2685
 4233SOL    HW124332   3.863   4.625   7.211 -1.5492 -0.9813  1.0667
 4233SOL    HW224333   3.814   4.520   7.119  1.1565 -0.9876 -1.5046
 4234SOL     OW24334   2.080   1.817   2.673 -0.3485 -0.3412 -0.0294
 4234SOL    HW124335   2.034   1.789   2.594 -1.9956 -0.6087  1.0266
 4234SOL    HW224336   2.144   1.747   2.682 -0.3916 -0.3992 -0.1906
 4235SOL     OW24337   0.958   2.053   0.287  0.2017  0.4488 -0.0375
 4235SOL    HW124338   0.865   2.049   0.308  0.4449  1.3625  1.1828
 4235SOL    HW224339   0.962   2.021   0.197 -2.1793  1.1614 -0.3939
 4236SOL     OW24340   2.191   0.269   7.291 -0.2332  0.2604 -0.3351
 4236SOL    HW124341   2.113   0.319   7.265  0.9392  1.6168 -1.2460
 4236SOL    HW224342   2.262   0.324   7.258 -0.5196  2.1294  2.1715
 4237SOL     OW24343   1.978   1.323   9.811  0.1691  0.2570 -0.6866
 4237SOL    HW124344   1.962   1.260   9.882  0.7486  1.1448  0.2255
 4237SOL    HW224345   2.042   1.271   9.764  1.3835 -1.1603  2.5324
 4238SOL     OW24346   3.986   4.367   5.544 -0.3724  0.4337 -0.5347
 4238SOL    HW124347   4.061   4.404   5.591 -0.4405  0.6774 -0.6178
 4238SOL    HW224348   4.011   4.392   5.455  2.0382  0.1606  0.0407
 4239SOL     OW24349   3.573   0.807  12.422  0.1563 -0.0432 -0.0434
 4239SOL    HW124350   3.571   0.748  12.346  0.5596 -0.4800  0.2865
 4239SOL    HW224351   3.639   0.870  12.393 -0.0057 -1.4390 -3.5080
 4240SOL     OW24352   3.834   1.912   7.235 -0.1224  0.3212  0.2060
 4240SOL    HW124353   3.764   1.975   7.218 -1.6643 -1.8770 -1.6382
 4240SOL    HW224354   3.804   1.856   7.306 -2.4920  1.5471  0.1404
 4241SOL     OW24355   1.490   2.415  17.628  0.3718  0.2627  0.1567
 4241SOL    HW124356   1.418   2.415  17.564  0.6385 -2.0928 -0.1371
 4241SOL    HW224357   1.522   2.332  17.593 -0.0365  0.3503 -0.4340
 4242SOL     OW24358   2.312   3.147  10.995  0.4370  0.2964 -0.1871
 4242SOL    HW124359   2.328   3.149  10.900 -0.3921 -1.8107 -0.3648
 4242SOL    HW224360   2.261   3.227  11.007  1.6309  0.8136  1.3257
 4243SOL     OW24361   2.176   1.631  14.049  0.0370 -0.0664 -0.2528
 4243SOL    HW124362   2.090   1.668  14.069 -1.5743 -3.1425 -1.4895
 4243SOL    HW224363   2.196   1.599  14.137 -0.4626 -1.4762 -0.6494
 4244SOL     OW24364   1.499   2.663  11.261  0.2345  0.4693  0.8165
 4244SOL    HW124365   1.453   2.584  11.291  2.1045 -0.9078  0.0556
 4244SOL    HW224366   1.514   2.636  11.170 -1.2312  0.2988  0.6213
 4245SOL     OW24367   0.724   3.430   2.010  0.3728  0.2410 -0.2978
 4245SOL    HW124368   0.756   3.475   1.932  0.2987 -1.1822 -1.1313
 4245SOL    HW224369   0.688   3.508   2.053 -3.7962 -2.1733  0.5577
 4246SOL     OW24370   3.795   1.007   6.474 -0.0002  0.3756  0.0027
 4246SOL    HW124371   3.816   0.985   6.565 -0.2763  1.7384  0.3946
 4246SOL    HW224372   3.868   1.069   6.468 -1.3315  1.8059 -1.3250
 4247SOL     OW24373   2.112   1.480  14.276  0.0487  0.2777 -0.0302
 4247SOL    HW124374   2.153   1.394  14.278  3.0726  1.6741 -2.2974
 4247SOL    HW224375   2.023   1.454  14.253  0.1532 -0.5184  0.4547
 4248SOL     OW24376   0.063   0.398   6.085  0.1003  0.0364 -0.3946
 4248SOL    HW124377   0.094   0.394   6.175 -1.2071  2.5618  0.1783
 4248SOL    HW224378   4.727   0.335   6.083 -0.0913  0.2176  0.9680
 4249SOL     OW24379   2.337   4.348   2.263 -0.2736 -0.3765  0.2077
 4249SOL    HW124380   2.299   4.288   2.327 -1.4909  0.0964 -0.0743
 4249SOL    HW224381   2.269   4.326   2.200 -1.4020 -0.2312  1.3673
 4250SOL     OW24382   0.128   2.947   2.193  0.2718  0.3260 -0.5394
 4250SOL    HW124383   0.127   2.974   2.285 -0.3717 -0.5571 -0.2847
 4250SOL    HW224384   0.081   2.863   2.190  0.6454  0.0563  1.0024
 4251SOL     OW24385   2.537   3.390  17.449  1.4128  0.1625 -0.3449
 4251SOL    HW124386   2.598   3.401  17.522  3.5522 -0.4572 -2.0466
 4251SOL    HW224387   2.526   3.296  17.459 -1.3220  0.3103 -1.7452
 4252SOL     OW24388   0.479   3.435   3.226  0.5972 -0.2262 -0.3576
 4252SOL    HW124389   0.422   3.442   3.303  1.4276  0.2875  0.2151
 4252SOL    HW224390   0.547   3.497   3.249 -0.1095 -0.1333  1.5251
 4253SOL     OW24391   3.152   2.559   2.009 -0.2349  0.1361 -0.2451
 4253SOL    HW124392   3.182   2.525   2.094 -2.1875  2.2202  1.2493
 4253SOL    HW224393   3.086   2.622   2.036 -2.0134 -1.8180 -0.0796
 4254SOL     OW24394   2.009   3.806   9.483 -0.1559 -0.4774  0.1380
 4254SOL    HW124395   1.971   3.719   9.492 -1.8104 -0.0336 -2.6143
 4254SOL    HW224396   2.046   3.821   9.571  2.0340  0.2499 -0.8999
 4255SOL     OW24397   0.451   3.952   2.757 -0.5221 -0.4629 -0.4182
 4255SOL    HW124398   0.419   3.990   2.839  2.2833 -1.1680  0.9855
 4255SOL    HW224399   0.373   3.950   2.700 -0.5029 -2.2137 -0.3752
 4256SOL     OW24400   4.626   0.459   3.047  0.6827  0.1059  0.2124
 4256SOL    HW124401   4.692   0.525   3.071 -0.7283  0.9485  1.8313
 4256SOL    HW224402   4.578   0.501   2.976  2.3708 -0.5088 -1.2893
 4257SOL     OW24403   3.593   1.959   5.671  0.0434  0.4025 -0.8562
 4257SOL    HW124404   3.544   2.018   5.729 -0.4383  0.7428 -1.6038
 4257SOL    HW224405   3.558   1.873   5.695 -0.3197  0.0919 -2.4657
 4258SOL     OW24406   0.500   1.057  13.077 -0.4142 -0.0805 -0.0925
 4258SOL    HW124407   0.507   1.021  13.165  1.1592 -1.4838 -0.7775
 4258SOL    HW224408   0.493   1.150  13.098  0.1990  0.1066 -0.6985
 4259SOL     OW24409   4.114   3.782   1.861  0.6060  0.1639 -0.1908
 4259SOL    HW124410   4.158   3.861   1.890 -0.4668  0.6159  0.1928
 4259SOL    HW224411   4.034   3.783   1.912  1.5054  1.9502  1.1782
 4260SOL     OW24412   2.865   2.939   3.137  0.0565  0.4851  0.1681
 4260SOL    HW124413   2.894   2.964   3.050 -2.8999  1.1766 -0.6153
 4260SOL    HW224414   2.770   2.937   3.136  0.0951  0.1329 -2.6838
 4261SOL     OW24415   1.628   3.663   5.248  0.3762  0.5064 -0.5909
 4261SOL    HW124416   1.644   3.732   5.312  1.5947 -1.3015  1.0875
 4261SOL    HW224417   1.633   3.586   5.306 -2.4649  0.5744 -0.2880
 4262SOL     OW24418   2.068   2.625   8.200  0.0722  0.8384  0.2548
 4262SOL    HW124419   2.147   2.589   8.160 -0.9213 -0.4717 -0.5379
 4262SOL    HW224420   2.005   2.618   8.128 -0.1083 -1.2556  0.6258
 4263SOL     OW24421   2.791   2.424   5.446 -0.0860  0.9994 -0.3857
 4263SOL    HW124422   2.808   2.368   5.521 -1.9797 -0.5283 -1.1155
 4263SOL    HW224423   2.697   2.410   5.436  0.1135 -1.4783  1.3172
 4264SOL     OW24424   0.482   2.294   2.941 -0.1478 -0.6259 -0.2790
 4264SOL    HW124425   0.436   2.373   2.914 -0.5554 -2.1385 -4.0573
 4264SOL    HW224426   0.536   2.325   3.014  1.1205 -2.2749 -0.4992
 4265SOL     OW24427   3.328   1.801   6.102  0.2213 -0.0802  0.2889
 4265SOL    HW124428   3.417   1.798   6.137  0.5102 -0.0587 -0.4518
 4265SOL    HW224429   3.355   1.855   6.028 -0.9074 -0.4789 -0.4193
 4266SOL     OW24430   0.473   1.063   2.192  0.4076 -0.5366 -0.0676
 4266SOL    HW124431   0.441   1.124   2.125  0.7557 -1.1114 -0.7578
 4266SOL    HW224432   0.467   0.988   2.132 -0.6214  0.0768 -0.7210
 4267SOL     OW24433   2.344   3.356   9.761  0.5818 -0.1584  0.2887
 4267SOL    HW124434   2.292   3.436   9.765  1.0214  0.2634 -2.3961
 4267SOL    HW224435   2.321   3.333   9.671 -0.4512  0.8102  0.3041
 4268SOL     OW24436   2.525   3.062   3.318  0.0804 -0.0081 -0.3914
 4268SOL    HW124437   2.571   2.997   3.266  0.9020 -0.6545  1.1311
 4268SOL    HW224438   2.573   3.141   3.292  1.0775  0.0629  1.6559
 4269SOL     OW24439   3.779   0.798   9.157  0.0181 -0.7378 -0.0027
 4269SOL    HW124440   3.839   0.841   9.218 -0.1508 -1.3840  0.6215
 4269SOL    HW224441   3.715   0.757   9.216 -0.0506 -1.1252 -0.3476
 4270SOL     OW24442   3.228   3.027  12.838 -0.5604  0.0980 -0.1181
 4270SOL    HW124443   3.313   3.046  12.799 -0.9373  2.9004  0.4367
 4270SOL    HW224444   3.180   3.013  12.756  0.6941 -1.1759 -0.6400
 4271SOL     OW24445   1.155   1.142   8.390  0.4063  0.2284 -0.3415
 4271SOL    HW124446   1.199   1.070   8.436  1.0154  0.8435  0.0287
 4271SOL    HW224447   1.212   1.217   8.405  0.0641  0.3934  0.1236
 4272SOL     OW24448   3.733   1.603  12.910 -0.1892  0.3825  0.2400
 4272SOL    HW124449   3.774   1.684  12.881 -1.6459  0.3658 -1.9184
 4272SOL    HW224450   3.790   1.540  12.866 -0.4111  0.6260 -0.3987
 4273SOL     OW24451   4.703   3.753   8.303  0.7723 -0.4930 -0.2152
 4273SOL    HW124452   0.001   3.818   8.242  1.4812 -1.2233 -0.5995
 4273SOL    HW224453   4.620   3.792   8.329  1.6646 -0.7979  3.2115
 4274SOL     OW24454   1.558   1.100   1.691 -0.4528 -0.1150 -0.8946
 4274SOL    HW124455   1.593   1.022   1.646  0.0411 -0.9404  0.9008
 4274SOL    HW224456   1.616   1.166   1.655  0.2496 -0.2425 -0.0098
 4275SOL     OW24457   1.237   2.077   1.982 -0.2830 -0.2779  0.1516
 4275SOL    HW124458   1.148   2.096   2.012 -0.4020 -1.7783  0.7625
 4275SOL    HW224459   1.243   1.982   1.993 -0.4987 -0.3318 -0.1930
 4276SOL     OW24460   4.531   2.080   2.672 -0.5882  0.0445 -0.5201
 4276SOL    HW124461   4.605   2.102   2.728  0.7049  0.8013 -2.5226
 4276SOL    HW224462   4.561   1.998   2.633  2.1853  0.4223  0.8648
 4277SOL     OW24463   0.842   4.373   6.331 -0.5506  0.1646  0.0186
 4277SOL    HW124464   0.845   4.316   6.255 -2.5195 -1.7985  1.4162
 4277SOL    HW224465   0.805   4.319   6.401  0.6963  1.0168  1.3283
 4278SOL     OW24466   0.070   4.483  10.840 -0.7211  0.1965  0.2290
 4278SOL    HW124467   0.164   4.497  10.852 -0.4428 -0.8522 -0.6995
 4278SOL    HW224468   0.048   4.525  10.923 -3.1889 -0.3435 -0.1513
 4279SOL     OW24469   3.201   2.152   6.782 -0.5610 -0.2317  0.6538
 4279SOL    HW124470   3.258   2.165   6.706 -0.0817  0.1747  1.0812
 4279SOL    HW224471   3.114   2.167   6.746 -1.1058  0.7538  2.3950
 4280SOL     OW24472   1.213   4.644   6.823  0.0913 -0.5087 -0.1804
 4280SOL    HW124473   1.141   4.606   6.874  0.9360 -0.5864  0.9742
 4280SOL    HW224474   1.183   4.734   6.816 -1.7506 -1.1322 -0.1987
 4281SOL     OW24475   0.614   1.353   1.959  0.3530  0.6705  0.5496
 4281SOL    HW124476   0.642   1.262   1.964 -0.0529  0.3384 -3.4601
 4281SOL    HW224477   0.695   1.400   1.937  1.1633 -0.9093  0.1719
 4282SOL     OW24478   0.008   2.276   3.121 -0.1630 -0.9918  0.2217
 4282SOL    HW124479   0.024   2.370   3.131  0.3700 -1.2689  2.0748
 4282SOL    HW224480   0.070   2.245   3.187 -1.4297  1.5220  2.6248
 4283SOL     OW24481   2.570   0.914   2.814 -0.0137  0.1451  0.8333
 4283SOL    HW124482   2.490   0.918   2.763  1.8144  1.2109 -1.9674
 4283SOL    HW224483   2.594   1.007   2.819 -0.6875  0.3623 -0.0067
 4284SOL     OW24484   1.841   2.633  14.876 -0.7049 -0.3279  0.2836
 4284SOL    HW124485   1.909   2.567  14.890 -1.6928 -1.6571 -1.1195
 4284SOL    HW224486   1.764   2.581  14.851  1.4364 -3.1829 -0.3344
 4285SOL     OW24487   2.307   0.327   4.000  0.7454 -1.0837 -0.0610
 4285SOL    HW124488   2.335   0.415   4.025 -1.1548 -0.9760  1.6782
 4285SOL    HW224489   2.260   0.297   4.078 -1.1101  1.1788 -0.3264
 4286SOL     OW24490   0.411   2.941   8.601 -0.5571  0.3089  0.8552
 4286SOL    HW124491   0.430   2.849   8.622 -0.9648  0.4476  1.7877
 4286SOL    HW224492   0.318   2.946   8.622 -0.7371  1.6004 -0.2868
 4287SOL     OW24493   0.499   2.829   7.788  0.1100 -0.3372  0.4894
 4287SOL    HW124494   0.572   2.891   7.787 -1.1955  1.1566 -0.4724
 4287SOL    HW224495   0.461   2.859   7.871 -1.7175 -0.0515 -0.4590
 4288SOL     OW24496   1.491   2.685   8.015 -0.0156 -0.4120 -0.0940
 4288SOL    HW124497   1.582   2.661   8.031  0.2979  0.2123 -0.8981
 4288SOL    HW224498   1.459   2.720   8.098  2.7597  0.0377  0.7701
 4289SOL     OW24499   2.256   0.407  10.886  0.6441  0.1991 -0.0025
 4289SOL    HW124500   2.182   0.443  10.836  1.8759  1.6668 -0.7818
 4289SOL    HW224501   2.331   0.443  10.838  3.2756 -1.8784  2.5047
 4290SOL     OW24502   2.495   3.264  14.841 -0.0433 -0.3465  0.3597
 4290SOL    HW124503   2.533   3.205  14.907 -0.1642 -1.3005 -0.4228
 4290SOL    HW224504   2.558   3.268  14.769  0.6191 -1.1310  0.8926
 4291SOL     OW24505   4.337   1.689   4.032 -0.1059 -0.1476  0.3233
 4291SOL    HW124506   4.267   1.712   4.092  1.1862  0.0113  1.7709
 4291SOL    HW224507   4.317   1.745   3.957 -4.8710 -1.8239  0.4017
 4292SOL     OW24508   1.043   3.962   5.292  0.2357 -0.2568 -0.0156
 4292SOL    HW124509   1.066   3.889   5.350  0.9896 -0.7630 -0.9504
 4292SOL    HW224510   0.976   3.926   5.233  0.9416 -1.7384  0.0740
 4293SOL     OW24511   3.648   3.628  10.725  0.3944  0.7715 -0.1920
 4293SOL    HW124512   3.599   3.692  10.673  2.1987  4.6331  2.9308
 4293SOL    HW224513   3.575   3.579  10.764  0.8097 -1.1367 -1.7918
 4294SOL     OW24514   0.916   1.322   0.030 -0.2335 -0.2685  0.4708
 4294SOL    HW124515   0.934   1.278   0.113  0.1543 -0.1736  0.4373
 4294SOL    HW224516   0.903   1.247  17.713  0.1916  1.3503 -1.6789
 4295SOL     OW24517   0.679   0.290   1.951  0.4888  0.1179 -0.2127
 4295SOL    HW124518   0.721   0.364   1.909 -1.9387  1.3741 -0.4637
 4295SOL    HW224519   0.620   0.334   2.013  0.6436 -1.6636  1.2079
 4296SOL     OW24520   3.447   1.880  14.988 -0.3931  0.2652  0.0458
 4296SOL    HW124521   3.418   1.950  15.047 -1.1193 -0.3897  0.4692
 4296SOL    HW224522   3.496   1.931  14.924  2.2801 -1.7892  0.4382
 4297SOL     OW24523   0.279   4.407   6.883 -0.0321 -0.5381  0.2305
 4297SOL    HW124524   0.242   4.407   6.971  2.4208  0.6319  1.2830
 4297SOL    HW224525   0.264   4.316   6.860  2.8062 -1.1842  0.8544
 4298SOL     OW24526   1.966   3.453   6.139  0.7941 -0.6574 -0.0951
 4298SOL    HW124527   1.989   3.518   6.072  0.6190  0.6335  1.0939
 4298SOL    HW224528   1.906   3.401   6.086  1.1325 -2.5891  1.4249
 4299SOL     OW24529   0.218   0.177   9.796  0.1596 -0.2865 -0.2710
 4299SOL    HW124530   0.219   0.112   9.726  1.3705 -0.5116 -0.0365
 4299SOL    HW224531   0.219   0.120   9.873  2.1300 -0.0766 -0.1631
 4300SOL     OW24532   1.518   2.474   5.023 -0.1818  0.0366  0.1486
 4300SOL    HW124533   1.543   2.566   5.026 -1.0154  0.2501  0.3620
 4300SOL    HW224534   1.433   2.466   5.065  0.1703 -0.9579  0.6922
 4301SOL     OW24535   1.795   2.867   2.382 -0.4752  0.1840  0.1893
 4301SOL    HW124536   1.854   2.943   2.384 -0.3547  0.0308  4.0926
 4301SOL    HW224537   1.861   2.800   2.400  0.2302  0.3992 -1.6372
 4302SOL     OW24538   4.471   1.093   9.119  0.0999  0.8013  0.3262
 4302SOL    HW124539   4.548   1.118   9.069 -0.9109  2.5370 -0.3677
 4302SOL    HW224540   4.411   1.122   9.050 -0.4599 -1.4334 -0.1254
 4303SOL     OW24541   3.863   2.511   5.926  0.5659  0.5935  0.4785
 4303SOL    HW124542   3.822   2.427   5.905 -0.0037  1.0682 -0.3022
 4303SOL    HW224543   3.913   2.525   5.845  0.8252  1.9648  0.8790
 4304SOL     OW24544   1.233   3.053   2.825  0.3626 -0.2005  0.3475
 4304SOL    HW124545   1.270   3.082   2.908  2.1802 -1.8772  0.1199
 4304SOL    HW224546   1.160   3.115   2.832  1.6587  0.9073  3.8032
 4305SOL     OW24547   3.726   1.175   2.076  0.4648 -0.1600  0.5618
 4305SOL    HW124548   3.765   1.261   2.059  0.6091 -0.1277  1.0382
 4305SOL    HW224549   3.655   1.195   2.136 -1.1628  0.2976 -1.5357
 4306SOL     OW24550   1.250   2.614   1.709  0.2538 -0.0308 -0.2088
 4306SOL    HW124551   1.218   2.556   1.639  1.7375  1.4150 -2.0693
 4306SOL    HW224552   1.254   2.697   1.663 -2.5020 -0.4194 -1.1578
 4307SOL     OW24553   1.267   4.099   2.054  0.5595 -0.5324 -0.3161
 4307SOL    HW124554   1.220   4.127   1.976 -2.1048 -1.5835  0.9205
 4307SOL    HW224555   1.315   4.026   2.014 -0.1511 -2.0760  1.6533
 4308SOL     OW24556   0.622   2.430  11.686 -0.0319 -0.2186 -0.2866
 4308SOL    HW124557   0.661   2.508  11.726 -1.1856  0.5674 -0.6888
 4308SOL    HW224558   0.602   2.372  11.759  0.1622 -0.7443 -0.6480
 4309SOL     OW24559   0.517   3.756   0.792  0.2250  0.1000  0.4757
 4309SOL    HW124560   0.464   3.829   0.824  1.0463  0.8385  0.1516
 4309SOL    HW224561   0.481   3.754   0.703 -0.1280 -1.2903  0.6488
 4310SOL     OW24562   0.129   0.636   4.102 -0.1642  0.5123 -0.1422
 4310SOL    HW124563   0.171   0.651   4.187  1.1311  1.1056 -0.8970
 4310SOL    HW224564   0.052   0.583   4.125  1.5264 -2.0139 -0.3367
 4311SOL     OW24565   4.159   3.696   3.041  0.1859  0.0347  0.3873
 4311SOL    HW124566   4.152   3.654   3.127  1.1357  2.4659  1.6626
 4311SOL    HW224567   4.159   3.784   3.081 -0.7583  0.2867 -0.1735
 4312SOL     OW24568   2.174   4.703   7.403 -0.4829  0.2124  0.5459
 4312SOL    HW124569   2.236   0.039   7.395 -0.6861  0.2327 -0.8718
 4312SOL    HW224570   2.102   0.021   7.435 -1.8433  0.0312 -2.1932
 4313SOL     OW24571   4.030   4.155  17.296 -0.6083 -0.2978  0.0829
 4313SOL    HW124572   4.058   4.246  17.287  1.8602 -0.9555  0.9710
 4313SOL    HW224573   4.054   4.133  17.386  1.2672 -0.5694 -0.4832
 4314SOL     OW24574   2.360   1.493  13.905  0.2138 -0.4512 -0.2684
 4314SOL    HW124575   2.347   1.476  13.812 -3.6933  1.1556 -0.0119
 4314SOL    HW224576   2.306   1.570  13.925  0.9650 -0.3034  1.2039
 4315SOL     OW24577   3.996   3.550   4.758 -0.2643 -0.1978 -0.0071
 4315SOL    HW124578   4.090   3.537   4.770 -0.1410 -0.4640 -1.3124
 4315SOL    HW224579   3.991   3.548   4.663 -0.8265  2.0620 -0.0137
 4316SOL     OW24580   3.037   1.926   1.229 -0.0735 -0.5380 -0.3192
 4316SOL    HW124581   3.072   2.009   1.197  1.2443 -0.0341  2.4220
 4316SOL    HW224582   2.992   1.943   1.312 -1.9588 -1.1532 -1.2147
 4317SOL     OW24583   1.233   3.438  13.949  0.1223 -0.6236 -0.3497
 4317SOL    HW124584   1.202   3.486  13.873  1.4593  1.1600  0.2241
 4317SOL    HW224585   1.325   3.463  13.939  0.7269 -1.8338  1.9450
 4318SOL     OW24586   2.903   0.637   8.483  0.1605 -0.1995  0.1567
 4318SOL    HW124587   2.876   0.558   8.437 -1.5354  0.4213  0.0869
 4318SOL    HW224588   2.849   0.640   8.562 -0.3005 -0.7064 -0.1404
 4319SOL     OW24589   0.893   1.546   8.058  0.2136 -0.0798 -0.0894
 4319SOL    HW124590   0.928   1.594   8.133 -1.3840 -0.3919  0.8406
 4319SOL    HW224591   0.804   1.579   8.049  0.5551  0.5749 -1.0319
 4320SOL     OW24592   0.938   2.599  17.657 -0.2137  0.0903 -0.3951
 4320SOL    HW124593   0.855   2.563  17.626  0.3467  0.1808 -2.0522
 4320SOL    HW224594   0.903   2.649  17.730  0.2113  0.7211 -0.6182
 4321SOL     OW24595   0.865   2.251   8.292  0.1264  0.3441  0.3790
 4321SOL    HW124596   0.904   2.330   8.329  1.5801  0.5086 -1.5071
 4321SOL    HW224597   0.853   2.273   8.200  2.8304 -3.3467 -0.8683
 4322SOL     OW24598   2.983   3.524   0.111 -0.1608  0.1780  0.3624
 4322SOL    HW124599   3.078   3.523   0.120 -0.0385 -0.0690 -0.9069
 4322SOL    HW224600   2.970   3.613   0.079 -0.2977  1.0893  2.9298
 4323SOL     OW24601   1.807   3.282  15.818 -0.6666 -0.0912 -0.0272
 4323SOL    HW124602   1.802   3.207  15.758 -0.1857 -0.0442 -0.1259
 4323SOL    HW224603   1.859   3.250  15.890 -1.0536 -1.0477 -0.1783
 4324SOL     OW24604   0.954   3.795   4.491  0.4451  0.4292 -0.3064
 4324SOL    HW124605   0.929   3.885   4.509  1.0232  0.3199  0.9924
 4324SOL    HW224606   1.012   3.761   4.558 -0.1076  1.5839  0.7591
 4325SOL     OW24607   4.683   0.335   8.388 -0.1202  0.4678 -0.0093
 4325SOL    HW124608   0.024   0.279   8.397 -0.1835  0.1741 -1.2306
 4325SOL    HW224609   4.706   0.391   8.314  0.3736  0.4222  0.1130
 4326SOL     OW24610   4.057   2.231   8.727  0.1829 -0.3984  0.3699
 4326SOL    HW124611   3.983   2.251   8.670  0.2358  0.5756  0.6405
 4326SOL    HW224612   4.103   2.159   8.684  0.4717  0.4405 -0.7336
 4327SOL     OW24613   1.997   3.828   1.616 -0.4224  0.2271  0.1046
 4327SOL    HW124614   1.936   3.894   1.582 -0.1926  1.3295  1.7775
 4327SOL    HW224615   1.960   3.807   1.702  0.8909 -1.0056  0.3634
 4328SOL     OW24616   0.446   0.686   2.422  0.2924 -0.4241  0.1045
 4328SOL    HW124617   0.353   0.698   2.442  0.5223  0.5422  0.5992
 4328SOL    HW224618   0.471   0.603   2.461 -1.4809 -1.4266 -0.8766
 4329SOL     OW24619   0.019   4.426   6.157  0.6031  0.2228  0.2847
 4329SOL    HW124620   0.027   4.446   6.250 -1.1772  3.4572 -0.2456
 4329SOL    HW224621   0.101   4.465   6.127  1.5307 -1.6052  0.4324
 4330SOL     OW24622   2.410   3.115   3.019  0.6126  0.3655 -0.2107
 4330SOL    HW124623   2.484   3.056   3.004  0.1429 -0.6320  1.3193
 4330SOL    HW224624   2.341   3.053   2.996 -0.2854  1.0630  0.6224
 4331SOL     OW24625   3.692   2.758  15.476 -0.6392  0.6492  0.5891
 4331SOL    HW124626   3.776   2.735  15.517 -0.3071 -1.1402 -1.0801
 4331SOL    HW224627   3.642   2.772  15.556  0.6687  0.5864  1.4217
 4332SOL     OW24628   0.204   1.489  10.864 -0.1058 -0.5586 -0.0540
 4332SOL    HW124629   0.146   1.414  10.853 -1.4842  0.4636  0.2131
 4332SOL    HW224630   0.197   1.526  10.776  3.1900 -0.9078 -0.4766
 4333SOL     OW24631   3.801   1.671   8.493  0.3643 -0.1702 -0.8527
 4333SOL    HW124632   3.853   1.642   8.567  1.6996 -1.6835 -2.3782
 4333SOL    HW224633   3.765   1.751   8.531  4.6553 -0.5171  3.7966
 4334SOL     OW24634   1.105   0.711   9.803  0.1304 -0.0641 -0.5678
 4334SOL    HW124635   1.038   0.655   9.841 -0.1307 -0.6226 -1.8243
 4334SOL    HW224636   1.133   0.766   9.876 -0.1339  0.4521 -0.8544
 4335SOL     OW24637   0.114   1.744   3.271 -0.0300 -0.2313  0.1783
 4335SOL    HW124638   0.094   1.769   3.361  1.7263  0.7608  0.2883
 4335SOL    HW224639   0.112   1.649   3.288 -2.6807 -0.2469 -0.2511
 4336SOL     OW24640   3.515   4.270  17.738  0.3633  0.8035  0.1875
 4336SOL    HW124641   3.447   4.214  17.700  0.8552  2.1147 -2.5797
 4336SOL    HW224642   3.554   4.310  17.661 -0.0860  2.8218  1.0093
 4337SOL     OW24643   0.142   1.214  17.719  0.1336  0.5404 -0.0949
 4337SOL    HW124644   0.147   1.143   0.040  3.1876  1.4903  0.7232
 4337SOL    HW224645   0.183   1.173  17.643  1.1896 -0.9662  1.2862
 4338SOL     OW24646   4.337   1.181   4.563  0.2621 -0.3980  0.0752
 4338SOL    HW124647   4.276   1.162   4.492  1.5633  2.2118 -1.7065
 4338SOL    HW224648   4.284   1.196   4.641 -0.9743  1.3403 -1.1198
 4339SOL     OW24649   3.164   3.089  16.683  0.3592 -0.0697  0.2426
 4339SOL    HW124650   3.218   3.022  16.642  0.3327  0.0714 -0.0257
 4339SOL    HW224651   3.125   3.124  16.602  0.5209  2.4798  1.2813
 4340SOL     OW24652   3.140   2.770   5.449  0.1483  0.2724 -0.1772
 4340SOL    HW124653   3.122   2.839   5.385 -2.8508 -1.2313 -0.9484
 4340SOL    HW224654   3.056   2.724   5.440 -0.1834  0.7295  0.4815
 4341SOL     OW24655   1.730   2.962   2.764 -0.3556  0.7301 -0.2288
 4341SOL    HW124656   1.738   2.952   2.859  0.0790  1.2441 -0.2161
 4341SOL    HW224657   1.764   3.051   2.753 -1.5257  1.0873 -0.9458
 4342SOL     OW24658   0.729   4.548   9.292  0.2533 -0.7068 -0.5224
 4342SOL    HW124659   0.796   4.601   9.248  1.9962 -1.6861  0.9990
 4342SOL    HW224660   0.735   4.462   9.251 -0.8672 -0.0711 -2.0579
 4343SOL     OW24661   3.036   2.547   3.557 -0.0014 -0.5737 -0.0494
 4343SOL    HW124662   3.072   2.634   3.575  2.3738 -1.8324  1.1641
 4343SOL    HW224663   2.981   2.564   3.480  0.8732 -1.6741 -0.9144
 4344SOL     OW24664   0.851   4.708   5.084 -0.2658  0.0553 -0.0211
 4344SOL    HW124665   0.834   0.062   5.054 -0.3121  0.9971  2.8190
 4344SOL    HW224666   0.787   4.661   5.031  0.4794 -0.4726 -0.4519
 4345SOL     OW24667   0.528   1.299   6.852  0.3077  0.2688  0.3215
 4345SOL    HW124668   0.617   1.324   6.827  1.1014 -2.2357  0.7374
 4345SOL    HW224669   0.530   1.332   6.942 -1.4514 -1.0985  0.8583
 4346SOL     OW24670   3.108   2.781   8.111  0.0299 -0.3651  0.6024
 4346SOL    HW124671   3.138   2.699   8.071 -1.3311 -0.8347  0.5445
 4346SOL    HW224672   3.192   2.808   8.147  0.3825 -0.4519 -0.1558
 4347SOL     OW24673   4.394   0.830   7.132  0.0610 -0.6460  0.0456
 4347SOL    HW124674   4.459   0.760   7.123  0.8188 -0.4156  3.6210
 4347SOL    HW224675   4.426   0.865   7.216  4.4432  0.0030 -1.8780
 4348SOL     OW24676   2.027   2.239   7.490 -0.0744  0.2651  0.2557
 4348SOL    HW124677   2.046   2.292   7.413  2.2047  2.4236  2.2630
 4348SOL    HW224678   1.945   2.194   7.473  0.1761 -0.9556  2.1903
 4349SOL     OW24679   4.665   4.311  12.847  0.2292  0.2972  1.1734
 4349SOL    HW124680   0.009   4.345  12.887 -0.2482  0.9100  1.6129
 4349SOL    HW224681   4.712   4.248  12.793 -1.3010 -0.1906  0.4158
 4350SOL     OW24682   3.210   1.371   6.701 -0.1511  0.2045 -0.1099
 4350SOL    HW124683   3.183   1.343   6.614  0.1915 -1.6861  0.4021
 4350SOL    HW224684   3.278   1.308   6.724 -0.4305  0.2603  0.8832
 4351SOL     OW24685   3.462   1.877  10.593 -0.5908  0.3284 -0.5187
 4351SOL    HW124686   3.391   1.941  10.586 -1.2014 -0.5025 -1.7902
 4351SOL    HW224687   3.526   1.926  10.645 -2.5711  0.9351  1.3523
 4352SOL     OW24688   0.097   3.681  13.993 -0.1400  0.3150 -0.4610
 4352SOL    HW124689   0.160   3.740  14.034  1.4582 -3.0126  1.8246
 4352SOL    HW224690   0.069   3.728  13.914 -2.0190 -2.7881 -1.6374
 4353SOL     OW24691   3.068   4.548   4.262 -0.0268 -0.0200  0.4742
 4353SOL    HW124692   3.104   4.485   4.324 -0.2503 -2.7083 -2.1041
 4353SOL    HW224693   3.065   4.627   4.316  1.1243 -0.1657  0.7593
 4354SOL     OW24694   2.795   2.806  13.939 -0.0948  0.5706  0.1972
 4354SOL    HW124695   2.851   2.784  13.864 -1.2853 -0.7299 -0.2977
 4354SOL    HW224696   2.865   2.829  14.000  2.3478 -1.0737 -1.9554
 4355SOL     OW24697   3.988   3.301   1.115 -0.0999  0.0133  0.0761
 4355SOL    HW124698   3.929   3.226   1.121 -1.4702  0.8856 -2.4774
 4355SOL    HW224699   4.029   3.292   1.201 -0.2857  1.9323  0.3512
 4356SOL     OW24700   2.065   0.394   5.444 -0.3216  1.3312 -0.6138
 4356SOL    HW124701   2.077   0.489   5.451 -0.0914  1.3226 -0.9079
 4356SOL    HW224702   2.052   0.376   5.351 -0.2527 -0.3866 -0.2915
 4357SOL     OW24703   3.289   1.743  13.747 -0.0716  0.6419 -0.4453
 4357SOL    HW124704   3.356   1.747  13.815  1.2405 -1.2712 -1.6124
 4357SOL    HW224705   3.218   1.708  13.800  0.8708  2.0302  1.7547
 4358SOL     OW24706   4.675   3.015   6.504 -0.1092  0.4266 -0.3649
 4358SOL    HW124707   4.605   2.956   6.475  0.5079  0.0933 -1.1745
 4358SOL    HW224708   0.020   2.967   6.485 -0.9227 -2.0213  2.4605
 4359SOL     OW24709   1.906   1.816   2.008 -0.0421  0.9300  0.4268
 4359SOL    HW124710   1.897   1.731   1.964 -4.0152  2.0550 -0.9090
 4359SOL    HW224711   1.827   1.855   1.972 -0.1428 -1.9802 -2.5419
 4360SOL     OW24712   0.950   0.254  17.266 -0.3239 -0.3938 -0.2042
 4360SOL    HW124713   0.967   0.299  17.183  3.7826 -1.2021  0.2077
 4360SOL    HW224714   0.872   0.303  17.295  1.0556  1.6622  0.0432
 4361SOL     OW24715   2.673   0.254   5.847 -0.0889 -0.0474 -0.0081
 4361SOL    HW124716   2.694   0.322   5.783  0.3710 -0.3733 -0.2037
 4361SOL    HW224717   2.705   0.293   5.928 -1.1919  0.5952  0.1196
 4362SOL     OW24718   3.326   2.874  14.807 -0.4365 -0.7836 -0.1107
 4362SOL    HW124719   3.394   2.900  14.869 -1.2074  1.1362 -0.0813
 4362SOL    HW224720   3.257   2.871  14.873  1.1531  2.2126  1.7056
 4363SOL     OW24721   0.445   1.644   4.912 -0.2859 -0.2976 -0.2903
 4363SOL    HW124722   0.446   1.603   4.826 -1.2502 -1.9918  0.4975
 4363SOL    HW224723   0.461   1.571   4.972 -3.0365 -0.5668  0.1141
 4364SOL     OW24724   0.534   3.456   2.965  0.3809 -0.1359 -0.7231
 4364SOL    HW124725   0.614   3.501   2.993 -1.3397  2.5005 -0.0675
 4364SOL    HW224726   0.488   3.435   3.046  2.1568 -2.8963 -0.4570
 4365SOL     OW24727   4.256   3.740   3.864 -0.3433 -0.2617 -0.1937
 4365SOL    HW124728   4.171   3.775   3.839 -1.0747  0.4023  3.1456
 4365SOL    HW224729   4.250   3.743   3.960 -1.2915 -1.5671 -0.2125
 4366SOL     OW24730   4.473   2.211   1.958 -0.0173 -0.0676  0.0071
 4366SOL    HW124731   4.424   2.133   1.984  1.6133 -1.1294 -0.1219
 4366SOL    HW224732   4.543   2.173   1.905 -1.0125 -0.9318 -0.7187
 4367SOL     OW24733   0.861   3.048  13.522 -0.1488 -0.3599  0.1278
 4367SOL    HW124734   0.930   3.070  13.585 -0.7413  2.3562 -0.1652
 4367SOL    HW224735   0.882   2.957  13.503 -1.5847 -0.5000 -0.7300
 4368SOL     OW24736   0.099   4.038   1.379  0.5480  0.0813  0.6002
 4368SOL    HW124737   0.181   4.087   1.368 -0.7116  2.0627  0.1084
 4368SOL    HW224738   0.058   4.073   1.458 -1.7907  1.9213 -1.4143
 4369SOL     OW24739   3.849   4.531  14.955  0.1563 -0.2023  0.5226
 4369SOL    HW124740   3.830   4.500  15.043 -1.5295 -1.0558 -0.1261
 4369SOL    HW224741   3.944   4.543  14.953 -0.2085  2.3690 -1.6864
 4370SOL     OW24742   1.088   4.262   8.031  0.1712  0.0654 -0.9078
 4370SOL    HW124743   1.047   4.257   7.945  0.2195 -2.7669 -0.7412
 4370SOL    HW224744   1.117   4.173   8.048 -2.1650 -0.5638 -0.1536
 4371SOL     OW24745   3.690   0.852   6.284  0.0216 -0.1938 -0.1951
 4371SOL    HW124746   3.734   0.909   6.347  0.8519 -0.9406 -0.1096
 4371SOL    HW224747   3.721   0.765   6.308 -0.8297  0.4823  3.2870
 4372SOL     OW24748   1.851   3.766   7.406  0.0730  0.1210 -0.2502
 4372SOL    HW124749   1.847   3.684   7.356  0.3130 -0.5085  0.7744
 4372SOL    HW224750   1.909   3.743   7.478 -1.7018 -3.0011  0.1623
 4373SOL     OW24751   1.616   1.091   4.252  0.2712 -0.0479  0.0355
 4373SOL    HW124752   1.549   1.077   4.319  1.0052  1.1474  1.0327
 4373SOL    HW224753   1.574   1.079   4.167  1.0995 -0.2737 -0.3336
 4374SOL     OW24754   0.686   2.919  10.577 -0.2215  0.1502 -0.3903
 4374SOL    HW124755   0.667   3.012  10.566  1.6943  0.5925  0.0805
 4374SOL    HW224756   0.766   2.930  10.628  0.6776 -1.8290 -1.3967
 4375SOL     OW24757   1.157   0.057   7.236 -0.0081  0.4063  0.1039
 4375SOL    HW124758   1.167   0.129   7.299 -0.3916 -0.2556  0.9216
 4375SOL    HW224759   1.246   0.059   7.201  0.0248 -0.2872  0.1489
 4376SOL     OW24760   4.388   1.955   2.024 -0.0883  0.1934 -0.2101
 4376SOL    HW124761   4.294   1.955   2.042 -0.2271  0.0285 -0.9056
 4376SOL    HW224762   4.418   1.881   2.077  1.4617  0.8136 -0.2342
 4377SOL     OW24763   1.992   1.109   8.403  0.7008  0.3120  0.1725
 4377SOL    HW124764   2.051   1.041   8.371  0.0120 -0.7341  1.1132
 4377SOL    HW224765   2.049   1.185   8.418 -0.5551  1.4403 -0.7360
 4378SOL     OW24766   4.696   0.046   6.809  0.2482 -0.1544 -0.4579
 4378SOL    HW124767   4.680   0.136   6.780 -3.6158  0.1980  2.7140
 4378SOL    HW224768   0.017   0.068   6.882 -1.1682  1.0943  0.2904
 4379SOL     OW24769   3.351   1.209   1.780 -0.1178  0.3842  0.2969
 4379SOL    HW124770   3.271   1.260   1.770  0.0604  0.3143 -1.5289
 4379SOL    HW224771   3.372   1.181   1.691  2.1920 -0.6490  1.1584
 4380SOL     OW24772   4.389   2.439   4.900  0.6295  0.3084  0.2557
 4380SOL    HW124773   4.301   2.443   4.862  1.4007 -1.3857 -1.7532
 4380SOL    HW224774   4.373   2.500   4.971 -0.2812  1.2335 -0.7516
 4381SOL     OW24775   3.506   2.940  15.008  0.0273 -0.1220  0.1676
 4381SOL    HW124776   3.477   3.022  15.048  0.4381 -0.1159  0.4526
 4381SOL    HW224777   3.562   2.911  15.080  2.0265  2.1802 -0.4492
 4382SOL     OW24778   2.672   1.690  10.348  0.4385  0.3444 -0.1498
 4382SOL    HW124779   2.720   1.771  10.363 -0.5400  0.9839 -0.5449
 4382SOL    HW224780   2.747   1.630  10.352 -0.5544 -0.8822  0.3488
 4383SOL     OW24781   3.966   0.978   3.734 -0.5293 -0.0366  0.1349
 4383SOL    HW124782   4.059   0.976   3.757 -0.3145  1.7726 -0.5579
 4383SOL    HW224783   3.960   0.887   3.705 -0.5282 -0.4260  1.3550
 4384SOL     OW24784   0.588   2.021  11.900 -0.2627  0.6790  0.1049
 4384SOL    HW124785   0.664   1.973  11.933 -1.3856 -0.0880  1.5866
 4384SOL    HW224786   0.604   2.024  11.806  3.2169 -0.4251  0.6818
 4385SOL     OW24787   3.443   4.019   8.161  0.6288  0.9010 -0.1030
 4385SOL    HW124788   3.447   4.094   8.102 -1.8017 -1.0337 -2.6761
 4385SOL    HW224789   3.462   3.945   8.103 -1.6524  0.5229 -0.3344
 4386SOL     OW24790   0.742   0.919   2.767 -0.2274  0.2066 -0.0549
 4386SOL    HW124791   0.683   0.845   2.756 -0.2699  0.0660  1.0617
 4386SOL    HW224792   0.797   0.909   2.690 -0.7656 -0.3926 -0.3583
 4387SOL     OW24793   2.986   4.568   5.716  0.3208  0.1210  0.1384
 4387SOL    HW124794   2.934   4.532   5.787 -0.7995 -1.2189 -1.3629
 4387SOL    HW224795   2.964   4.660   5.730 -0.4556  0.2057 -1.6256
 4388SOL     OW24796   4.606   3.738   1.006  0.1467 -0.0050 -0.5198
 4388SOL    HW124797   4.591   3.644   1.005  0.6159 -0.0706 -0.9797
 4388SOL    HW224798   4.670   3.755   0.937 -0.2802  0.8334 -0.7119
 4389SOL     OW24799   2.688   3.225  14.650 -0.4896  0.8990  0.2290
 4389SOL    HW124800   2.749   3.283  14.603  0.3845 -0.0088  0.2525
 4389SOL    HW224801   2.748   3.150  14.652  1.8575  2.7666  0.5694
 4390SOL     OW24802   4.607   1.843   7.251  0.4607 -0.1048 -0.2759
 4390SOL    HW124803   4.563   1.922   7.220 -1.3669 -0.5517  1.2187
 4390SOL    HW224804   4.682   1.850   7.192  0.1473 -0.5820 -0.7321
 4391SOL     OW24805   1.807   1.486   4.125  0.4098 -0.8413 -0.1525
 4391SOL    HW124806   1.726   1.534   4.138  0.8427 -0.8726  2.5973
 4391SOL    HW224807   1.775   1.405   4.084 -1.4327 -0.6261  0.8902
 4392SOL     OW24808   3.236   2.757  16.127  0.4527  0.0915  0.3849
 4392SOL    HW124809   3.239   2.830  16.189  2.2612  0.9397 -0.7059
 4392SOL    HW224810   3.211   2.686  16.185 -1.8513  1.0932  0.6168
 4393SOL     OW24811   3.318   3.005  13.263 -0.1115 -0.4149 -0.3481
 4393SOL    HW124812   3.378   2.946  13.218 -0.0437 -1.3986  1.0393
 4393SOL    HW224813   3.377   3.070  13.300  0.0272 -1.2613  0.9179
 4394SOL     OW24814   1.227   2.185   6.274 -0.4394  0.8186  0.2851
 4394SOL    HW124815   1.195   2.237   6.200  3.1256  0.4650 -1.5141
 4394SOL    HW224816   1.269   2.110   6.231 -1.6721  0.2963 -0.0304
 4395SOL     OW24817   4.105   0.539   2.880 -0.1426 -0.7631 -0.0091
 4395SOL    HW124818   4.011   0.542   2.864 -0.3705 -0.2718  1.4323
 4395SOL    HW224819   4.139   0.540   2.791  1.4863 -1.3303  0.6019
 4396SOL     OW24820   2.768   0.030   0.855  0.2518 -0.1254  0.2243
 4396SOL    HW124821   2.672   0.025   0.858  0.1758  1.1698  0.2505
 4396SOL    HW224822   2.779   4.689   0.910  2.4057 -0.3893 -0.5897
 4397SOL     OW24823   0.605   0.843  17.286 -0.0924  0.2590  0.6931
 4397SOL    HW124824   0.674   0.909  17.297  0.6230 -0.5038  0.7235
 4397SOL    HW224825   0.529   0.888  17.325 -0.3436  0.1902  0.2833
 4398SOL     OW24826   2.385   1.412   6.296  0.0045 -0.3772 -0.4346
 4398SOL    HW124827   2.441   1.346   6.338  2.0694  0.1778 -2.3026
 4398SOL    HW224828   2.348   1.466   6.366  2.4331  0.8247 -0.0808
 4399SOL     OW24829   1.761   3.589  14.861  0.5229  0.1518  0.1149
 4399SOL    HW124830   1.829   3.525  14.878 -0.5752 -1.2038 -0.6175
 4399SOL    HW224831   1.800   3.666  14.819  1.6092 -1.4288 -1.7848
 4400SOL     OW24832   3.198   0.956   6.538 -0.4635 -0.1991 -0.0125
 4400SOL    HW124833   3.140   0.884   6.512 -0.4346  0.6361 -2.4381
 4400SOL    HW224834   3.257   0.910   6.597  2.1779  3.5576  0.2400
 4401SOL     OW24835   2.091   4.464   7.282  0.2667  0.2524 -0.1405
 4401SOL    HW124836   2.160   4.398   7.288 -0.0740 -0.2762 -1.8857
 4401SOL    HW224837   2.137   4.543   7.312  1.1025 -0.3617  0.1785
 4402SOL     OW24838   1.068   4.357   8.382  0.1840 -0.5473  0.0532
 4402SOL    HW124839   1.084   4.380   8.474  2.1164  1.2282 -0.7323
 4402SOL    HW224840   0.975   4.334   8.384 -0.6405  2.7115 -2.3771
 4403SOL     OW24841   0.930   2.263  10.143 -0.3766 -0.3393 -0.0015
 4403SOL    HW124842   0.971   2.306  10.218 -1.1912 -2.9336  1.9258
 4403SOL    HW224843   0.962   2.176  10.168  3.5646  0.4612 -2.1544
 4404SOL     OW24844   3.766   1.593  11.181 -0.1043  0.5075  0.0827
 4404SOL    HW124845   3.689   1.589  11.124 -1.0752 -1.3964  1.5175
 4404SOL    HW224846   3.724   1.616  11.264 -0.5906 -0.6364  0.1678
 4405SOL     OW24847   4.552   1.230   7.068 -0.0526  0.1438 -0.6565
 4405SOL    HW124848   4.587   1.319   7.065  2.7105 -0.9610 -1.2422
 4405SOL    HW224849   4.461   1.237   7.040 -0.9877 -0.1559  2.2400
 4406SOL     OW24850   2.208   1.749   9.111  0.1790 -0.3741 -0.1357
 4406SOL    HW124851   2.229   1.742   9.204 -1.3131  0.5557  0.2811
 4406SOL    HW224852   2.164   1.834   9.102  1.0064 -0.0668 -1.2699
 4407SOL     OW24853   3.729   1.486   5.206 -0.3933 -0.4582 -0.0682
 4407SOL    HW124854   3.674   1.562   5.228 -2.4597 -1.5287 -1.4655
 4407SOL    HW224855   3.818   1.521   5.202 -0.0955 -1.1128  0.9115
 4408SOL     OW24856   1.078   4.038   4.214  0.0733  0.1954 -0.0388
 4408SOL    HW124857   1.156   4.067   4.167  0.5901 -1.3089 -0.1061
 4408SOL    HW224858   1.109   4.051   4.304  0.2071  1.5206 -0.2831
 4409SOL     OW24859   4.671   4.583   9.000  0.2989  0.1051  0.6616
 4409SOL    HW124860   4.683   4.675   8.975  3.0000 -0.4059  0.1078
 4409SOL    HW224861   4.628   4.538   8.928  2.2658  0.0607 -0.4689
 4410SOL     OW24862   2.619   3.941   2.743  0.4929  0.2570 -0.3154
 4410SOL    HW124863   2.594   4.022   2.698  0.5975  0.4923  0.0444
 4410SOL    HW224864   2.707   3.917   2.715 -0.4692  0.3822 -3.4626
 4411SOL     OW24865   2.350   1.767   2.317  0.1634 -0.1645 -0.7269
 4411SOL    HW124866   2.331   1.860   2.326 -2.6596 -0.8783  0.6445
 4411SOL    HW224867   2.307   1.750   2.233 -1.3851 -1.2532  0.2800
 4412SOL     OW24868   1.702   2.482  14.579 -0.0513 -0.1113  0.0914
 4412SOL    HW124869   1.728   2.569  14.548 -0.0355 -0.2752 -0.3592
 4412SOL    HW224870   1.761   2.417  14.541  1.7204  1.1631  0.6502
 4413SOL     OW24871   3.504   2.225   6.208 -0.8550  0.7671  0.0434
 4413SOL    HW124872   3.441   2.285   6.168 -0.5585  2.0212  1.4316
 4413SOL    HW224873   3.548   2.171   6.142  0.7198  1.0421  0.8471
 4414SOL     OW24874   1.486   3.447  12.398  0.2526 -0.4043 -0.1041
 4414SOL    HW124875   1.473   3.378  12.333  0.3962 -0.1942 -0.3568
 4414SOL    HW224876   1.528   3.393  12.465  0.8957  0.8946  0.5231
 4415SOL     OW24877   0.678   1.854   1.156 -0.0629  0.0445  0.4793
 4415SOL    HW124878   0.674   1.939   1.200  3.1271 -1.1987  3.1544
 4415SOL    HW224879   0.622   1.868   1.080 -0.2764  0.8364  0.7795
 4416SOL     OW24880   3.781   2.304  15.484 -0.4628 -0.3177  0.1197
 4416SOL    HW124881   3.837   2.300  15.561  1.2450 -0.7496 -1.1350
 4416SOL    HW224882   3.829   2.247  15.424 -0.6103  2.3379 -2.5219
 4417SOL     OW24883   1.064   3.275   4.337  0.3609  0.2050 -0.0858
 4417SOL    HW124884   1.058   3.221   4.259 -0.0498  0.2086 -0.0541
 4417SOL    HW224885   1.076   3.366   4.309 -1.0091  0.7370  1.0364
 4418SOL     OW24886   0.622   2.739   1.766  0.1591  0.4840  0.2580
 4418SOL    HW124887   0.646   2.792   1.690  1.2614  1.1254  1.0608
 4418SOL    HW224888   0.537   2.709   1.732  0.6786 -1.8915  1.0674
 4419SOL     OW24889   3.109   2.916   4.302 -0.5904  0.1374  0.1469
 4419SOL    HW124890   3.065   2.952   4.379 -1.5092 -0.0518 -0.2905
 4419SOL    HW224891   3.096   2.826   4.329 -0.8108  0.4940  1.2253
 4420SOL     OW24892   4.691   3.202   3.272 -0.5423 -0.6131  0.4651
 4420SOL    HW124893   4.624   3.233   3.212  0.3697 -0.6930 -0.6015
 4420SOL    HW224894   0.037   3.201   3.222 -0.0645  0.1266  1.2160
 4421SOL     OW24895   1.181   2.728  16.757  0.5167  0.1899 -0.4850
 4421SOL    HW124896   1.179   2.640  16.718  1.2636 -0.6673  1.4043
 4421SOL    HW224897   1.095   2.723  16.799  0.9519  1.1648  0.5168
 4422SOL     OW24898   4.034   2.547   7.729  0.2527 -0.0199  0.2353
 4422SOL    HW124899   4.011   2.562   7.821 -3.5684  0.9671 -0.8810
 4422SOL    HW224900   3.948   2.559   7.688  0.4696 -1.6947 -0.6952
 4423SOL     OW24901   3.286   3.071   3.782 -0.2641  0.2991 -0.3029
 4423SOL    HW124902   3.261   3.095   3.692  2.3004 -1.5110 -1.5151
 4423SOL    HW224903   3.228   3.119   3.841 -1.6382  1.5986 -2.6890
 4424SOL     OW24904   4.118   4.090  13.512 -0.1868 -0.1596 -0.2002
 4424SOL    HW124905   4.054   4.031  13.552  0.7360 -1.1174 -0.1294
 4424SOL    HW224906   4.158   4.033  13.446 -1.5536 -0.6395 -0.6212
 4425SOL     OW24907   3.233   0.204  14.548  0.5625  0.1469  0.2412
 4425SOL    HW124908   3.194   0.289  14.569 -0.2385 -0.4928  1.3181
 4425SOL    HW224909   3.183   0.147  14.607  0.9915 -1.6378 -1.1184
 4426SOL     OW24910   4.606   2.432  17.353  0.0216 -0.0934  0.0309
 4426SOL    HW124911   4.559   2.460  17.274 -0.0326  0.7896  0.3809
 4426SOL    HW224912   4.534   2.395  17.402  0.5383  0.2630  1.0598
 4427SOL     OW24913   4.728   4.699  12.973 -0.3721  0.3908 -0.4988
 4427SOL    HW124914   4.647   0.007  12.947 -0.3870  0.2810 -0.6363
 4427SOL    HW224915   0.052   4.705  12.899 -0.7060 -2.8976 -1.0227
 4428SOL     OW24916   4.518   3.012   7.419 -0.1979 -0.5035  1.2546
 4428SOL    HW124917   4.517   3.108   7.426 -1.3176 -0.2887 -1.5517
 4428SOL    HW224918   4.461   2.987   7.491 -0.6944  1.6551  1.6197
 4429SOL     OW24919   3.199   1.424   8.917  0.1427  0.0138  0.3029
 4429SOL    HW124920   3.149   1.353   8.876  1.9814 -0.2319 -1.5401
 4429SOL    HW224921   3.144   1.496   8.886  2.3073  2.5432  2.2892
 4430SOL     OW24922   2.610   4.302   7.367 -0.4046  0.9098  0.3842
 4430SOL    HW124923   2.540   4.238   7.367  0.9848 -0.6161 -1.6950
 4430SOL    HW224924   2.585   4.361   7.438 -2.9366 -0.5239  0.6625
 4431SOL     OW24925   2.528   4.389   7.105 -0.4031  0.0896 -0.0218
 4431SOL    HW124926   2.446   4.356   7.144  0.9086 -0.8869  1.9366
 4431SOL    HW224927   2.594   4.368   7.171 -2.9585 -1.1354  2.1744
 4432SOL     OW24928   0.071   3.161  13.188 -0.4193 -0.1766  0.2232
 4432SOL    HW124929   0.105   3.212  13.262  1.7172 -0.5477 -0.4992
 4432SOL    HW224930   0.154   3.142  13.145 -0.9117  0.6571 -1.0710
 4433SOL     OW24931   2.843   4.553   7.577 -0.5126 -0.0395 -0.4941
 4433SOL    HW124932   2.777   4.491   7.609  0.1252 -0.0057  0.8999
 4433SOL    HW224933   2.922   4.509   7.608 -1.8252 -0.0301  2.8900
 4434SOL     OW24934   0.843   1.992   7.447  0.9857  0.3020  0.5212
 4434SOL    HW124935   0.766   1.981   7.392  1.2992  1.7964 -0.2041
 4434SOL    HW224936   0.808   2.022   7.531  2.1956  1.9687  0.4430
 4435SOL     OW24937   3.683   3.217  13.953  0.1753 -0.4472  0.1374
 4435SOL    HW124938   3.759   3.190  14.005 -1.0224 -0.8509  1.6919
 4435SOL    HW224939   3.603   3.191  13.999  0.3872 -1.8060 -0.2631
 4436SOL     OW24940   4.111   0.423   7.814 -0.0707 -0.2605  0.1271
 4436SOL    HW124941   4.020   0.415   7.787  0.0170  2.1061 -0.8380
 4436SOL    HW224942   4.121   0.341   7.862  0.9203  0.9369  1.9543
 4437SOL     OW24943   3.007   1.593   4.341 -0.4978  0.5975  0.4614
 4437SOL    HW124944   2.995   1.499   4.326 -2.0223  1.1418 -1.6515
 4437SOL    HW224945   3.027   1.602   4.434 -0.1104  0.5717  0.3793
 4438SOL     OW24946   1.343   2.740   7.493  0.1053  0.0492  0.2247
 4438SOL    HW124947   1.255   2.704   7.489  0.8049 -1.7748  1.0163
 4438SOL    HW224948   1.340   2.806   7.562 -0.0600  3.3188 -2.8896
 4439SOL     OW24949   2.857   1.227   8.995 -0.0658  0.0294 -0.0445
 4439SOL    HW124950   2.841   1.144   8.950 -0.0453  0.2633 -0.4761
 4439SOL    HW224951   2.889   1.277   8.920  0.8707 -0.5606 -0.0424
 4440SOL     OW24952   0.758   3.881   3.264  0.2560 -0.0275 -0.3031
 4440SOL    HW124953   0.781   3.929   3.343 -0.0739 -0.3660  0.0019
 4440SOL    HW224954   0.833   3.899   3.208 -0.4744  1.2542 -0.8551
 4441SOL     OW24955   4.544   1.206  11.543 -0.9510  0.9107 -0.3315
 4441SOL    HW124956   4.566   1.230  11.453  1.7762  0.4201  0.1968
 4441SOL    HW224957   4.568   1.286  11.591  1.8507  0.2708 -0.6961
 4442SOL     OW24958   1.700   0.430  10.046  0.2502  0.0798 -0.2817
 4442SOL    HW124959   1.652   0.407  10.126  2.2588 -0.5433  0.7559
 4442SOL    HW224960   1.660   0.365   9.989  2.1093 -0.8092 -0.5621
 4443SOL     OW24961   4.724   1.691  11.195 -0.0566  0.1507 -0.4525
 4443SOL    HW124962   4.691   1.633  11.127 -2.6072  1.5584 -0.3934
 4443SOL    HW224963   0.072   1.715  11.156 -1.0292  0.9794 -2.0140
 4444SOL     OW24964   3.223   0.109   7.843  0.2198 -0.0605  0.3607
 4444SOL    HW124965   3.140   0.064   7.857  1.3352 -2.3605 -0.4414
 4444SOL    HW224966   3.262   0.049   7.780 -1.0634 -0.0459 -0.4487
 4445SOL     OW24967   4.099   0.011  13.094  0.1940 -1.0052  0.1022
 4445SOL    HW124968   4.132   4.700  13.017  1.4742 -1.6733  1.0629
 4445SOL    HW224969   4.137   0.098  13.079 -1.3488 -0.2676  0.5447
 4446SOL     OW24970   4.567   0.367   3.732 -0.9895 -0.1564 -0.3179
 4446SOL    HW124971   4.659   0.380   3.708 -0.8978 -0.5350 -0.1733
 4446SOL    HW224972   4.580   0.319   3.814 -0.9878  0.1816 -0.1178
 4447SOL     OW24973   2.105   1.394  11.360  0.0965  0.2998  0.1581
 4447SOL    HW124974   2.110   1.315  11.306  0.0246 -0.0395  0.6471
 4447SOL    HW224975   2.019   1.397  11.403 -1.6112 -0.8092 -3.1575
 4448SOL     OW24976   4.050   1.854   1.262 -0.1026 -0.2519 -0.4384
 4448SOL    HW124977   4.126   1.864   1.320 -0.9692 -2.2975  1.0729
 4448SOL    HW224978   4.006   1.939   1.257  0.5986  0.0875 -0.7557
 4449SOL     OW24979   2.677   0.386   9.640  0.1317 -0.4134  0.1919
 4449SOL    HW124980   2.583   0.371   9.633 -0.3243  2.3759  0.2064
 4449SOL    HW224981   2.709   0.305   9.602  0.8921  0.9190 -1.9783
 4450SOL     OW24982   4.435   3.940   7.201  0.6514 -0.0052  0.1677
 4450SOL    HW124983   4.363   3.951   7.262 -1.1007 -1.6385 -1.6407
 4450SOL    HW224984   4.476   4.027   7.203  1.1068 -0.2111 -0.1528
 4451SOL     OW24985   4.632   2.482   2.072  0.3035 -0.1462  0.1563
 4451SOL    HW124986   4.714   2.470   2.025 -0.2330  0.9769 -1.0444
 4451SOL    HW224987   4.590   2.396   2.064 -3.4853  1.8903 -1.8098
 4452SOL     OW24988   1.486   4.640   3.396 -0.0056  0.0796  0.1636
 4452SOL    HW124989   1.506   4.700   3.468 -0.7327 -0.0834  0.4964
 4452SOL    HW224990   1.439   4.568   3.438  0.8252 -0.7722 -0.3837
 4453SOL     OW24991   1.319   2.324   6.488 -0.0062 -0.1463 -0.3584
 4453SOL    HW124992   1.377   2.252   6.511  0.1869  0.1654  0.1374
 4453SOL    HW224993   1.292   2.297   6.401 -0.5175 -2.8482  0.6534
 4454SOL     OW24994   0.073   4.287   4.931 -0.3358 -0.0005  0.3566
 4454SOL    HW124995   0.141   4.239   4.883 -0.3127  2.8534 -2.4673
 4454SOL    HW224996   0.033   4.346   4.868 -1.5017 -1.4101 -0.2087
 4455SOL     OW24997   2.443   2.044  16.887  0.4898 -0.1854 -0.4059
 4455SOL    HW124998   2.530   2.008  16.906  1.4209  3.5063  2.3305
 4455SOL    HW224999   2.433   2.034  16.792 -0.5160 -1.8614 -0.1039
 4456SOL     OW25000   4.164   2.843  12.489 -0.1380  0.7004 -0.7113
 4456SOL    HW125001   4.221   2.892  12.430  1.0564 -0.5739 -0.5971
 4456SOL    HW225002   4.080   2.882  12.463 -0.4610 -1.0513 -2.2791
 4457SOL     OW25003   3.355   3.415   2.566 -0.1606 -0.2084  0.7947
 4457SOL    HW125004   3.379   3.348   2.501  2.2851 -0.0331  1.5105
 4457SOL    HW225005   3.413   3.483   2.533  0.5561 -0.9066  0.6183
 4458SOL     OW25006   2.066   2.487   4.211 -0.2335  0.6316 -0.2199
 4458SOL    HW125007   2.062   2.393   4.192  1.0431 -0.2299  3.6838
 4458SOL    HW225008   2.136   2.512   4.152  0.7583 -1.4331  0.0772
 4459SOL     OW25009   3.440   1.328   5.935 -0.1127  0.3654  0.1407
 4459SOL    HW125010   3.516   1.295   5.887  1.3745 -0.2835  2.9461
 4459SOL    HW225011   3.473   1.316   6.024 -0.9501  3.2641  0.8496
 4460SOL     OW25012   4.717   3.834  13.809  0.7257 -0.1228 -0.1591
 4460SOL    HW125013   4.673   3.917  13.825 -0.2878 -0.6811 -0.0750
 4460SOL    HW225014   4.716   3.836  13.714 -2.0490 -2.7996 -0.1834
 4461SOL     OW25015   0.053   0.933  17.735  0.0461  0.4910 -0.3247
 4461SOL    HW125016   4.715   0.907  17.681  0.1065 -2.0357  0.7953
 4461SOL    HW225017   0.113   0.956  17.664  2.5452 -0.6510  1.4297
 4462SOL     OW25018   3.349   4.154   0.666  0.1883  0.6360  0.3201
 4462SOL    HW125019   3.409   4.168   0.593 -0.7574 -1.6266 -0.8893
 4462SOL    HW225020   3.410   4.136   0.738 -0.6100 -1.2814  0.5233
 4463SOL     OW25021   1.011   4.092   7.338  0.0078  0.8352 -0.3440
 4463SOL    HW125022   0.963   4.015   7.308 -0.2422  1.0867 -0.5896
 4463SOL    HW225023   1.098   4.077   7.301 -0.3485 -0.1143 -0.7974
 4464SOL     OW25024   2.873   1.877   4.983 -0.3054  0.3246  0.1131
 4464SOL    HW125025   2.907   1.869   5.072  0.4807  1.8842 -0.0515
 4464SOL    HW225026   2.859   1.971   4.976  3.9335  1.2166  4.2406
 4465SOL     OW25027   1.740   0.623   9.252  0.7580 -0.0463  0.6885
 4465SOL    HW125028   1.743   0.677   9.173 -2.1754  2.2937  2.1980
 4465SOL    HW225029   1.653   0.649   9.283  0.4607 -2.2520  1.7333
 4466SOL     OW25030   4.423   0.330   8.698 -0.2581  0.1854  0.0384
 4466SOL    HW125031   4.356   0.286   8.646  1.0387 -2.4513  0.5998
 4466SOL    HW225032   4.455   0.396   8.636 -0.4978 -1.1300 -1.4942
 4467SOL     OW25033   4.114   0.906   2.233 -0.1921  0.4924  0.3209
 4467SOL    HW125034   4.018   0.903   2.236 -0.2607  0.4576 -1.5638
 4467SOL    HW225035   4.121   0.984   2.288  0.0773 -0.0969  1.1199
 4468SOL     OW25036   3.807   1.287   5.540 -0.5925  0.2910 -0.4758
 4468SOL    HW125037   3.859   1.333   5.605 -0.2868  0.8841 -1.1406
 4468SOL    HW225038   3.739   1.353   5.546  1.1009  2.3151 -3.5851
 4469SOL     OW25039   0.255   2.957  11.691  0.2854  0.0252  0.6792
 4469SOL    HW125040   0.200   2.988  11.762 -1.6208  2.8086 -2.0088
 4469SOL    HW225041   0.324   2.912  11.739  0.0034 -3.5556 -2.2762
 4470SOL     OW25042   2.011   2.270  11.846  0.2484  1.0026 -0.2700
 4470SOL    HW125043   2.083   2.215  11.814  1.2772  1.7491  0.7666
 4470SOL    HW225044   2.044   2.286  11.935  0.1652  2.7453 -0.5660
 4471SOL     OW25045   3.687   4.425   6.996  0.3655 -0.6677  0.4084
 4471SOL    HW125046   3.659   4.360   7.060 -2.6734 -0.2732 -0.5395
 4471SOL    HW225047   3.681   4.371   6.918  2.8051 -0.2805 -0.0760
 4472SOL     OW25048   3.538   1.326  11.043  0.0512 -1.2713  0.3980
 4472SOL    HW125049   3.550   1.417  11.015  2.0186 -1.5498  0.3401
 4472SOL    HW225050   3.628   1.293  11.041  0.4598 -0.2392  1.4823
 4473SOL     OW25051   1.392   0.603   3.324 -0.3768  0.4538 -0.1994
 4473SOL    HW125052   1.461   0.551   3.366 -1.6661  0.6379  2.1531
 4473SOL    HW225053   1.367   0.544   3.253  2.5645 -0.9061 -0.0658
 4474SOL     OW25054   0.845   3.526  15.120 -0.5876  0.4021 -0.5991
 4474SOL    HW125055   0.920   3.483  15.078 -0.6839  2.1073 -2.5315
 4474SOL    HW225056   0.777   3.459  15.118 -0.3752  0.1720 -0.0530
 4475SOL     OW25057   0.940   2.372   7.363 -0.3689  0.2569 -0.0894
 4475SOL    HW125058   0.854   2.414   7.368 -0.8928 -0.7587 -0.4626
 4475SOL    HW225059   0.984   2.456   7.357 -0.6591  0.3077 -1.5780
 4476SOL     OW25060   3.206   0.891   5.285 -0.0649 -0.3472  0.0979
 4476SOL    HW125061   3.297   0.862   5.295  0.2385  2.5164  5.7318
 4476SOL    HW225062   3.198   0.889   5.190 -0.3866  0.1019  0.1145
 4477SOL     OW25063   4.221   2.172  15.803  0.1690 -0.1576  0.0105
 4477SOL    HW125064   4.286   2.220  15.752 -1.9898  1.4723 -1.2558
 4477SOL    HW225065   4.208   2.241  15.868 -0.1756  1.1402 -1.4341
 4478SOL     OW25066   0.325   0.280   4.792  0.3948 -0.0796  0.4279
 4478SOL    HW125067   0.297   0.275   4.700  0.0807 -1.6527  0.6147
 4478SOL    HW225068   0.364   0.366   4.807  1.5200 -0.5529  0.1769
 4479SOL     OW25069   2.213   0.856   3.890 -0.0218 -0.1342  0.0316
 4479SOL    HW125070   2.126   0.861   3.849 -0.8136  0.6402  1.8225
 4479SOL    HW225071   2.233   0.948   3.874 -1.1156 -0.2051 -1.8358
 4480SOL     OW25072   0.651   0.936   7.957  0.2983  0.0030  0.1334
 4480SOL    HW125073   0.607   0.981   8.029  0.0089 -1.1469  0.6790
 4480SOL    HW225074   0.585   0.949   7.889  0.9090  1.4123 -0.1908
 4481SOL     OW25075   3.173   0.210   6.591 -0.1035  0.4288 -0.5860
 4481SOL    HW125076   3.078   0.221   6.591 -0.2464 -0.7163  0.1551
 4481SOL    HW225077   3.184   0.115   6.594 -1.3950  0.3930  2.4510
 4482SOL     OW25078   0.239   2.476   9.484 -0.1801  0.0276  0.0494
 4482SOL    HW125079   0.145   2.490   9.489 -0.2290 -0.3698  0.2969
 4482SOL    HW225080   0.270   2.558   9.445 -0.6782 -0.7527 -1.9257
 4483SOL     OW25081   2.647   3.828   2.211 -0.3651  0.5492 -0.1120
 4483SOL    HW125082   2.697   3.810   2.291  0.5017 -0.6723 -0.9242
 4483SOL    HW225083   2.614   3.916   2.225 -1.9577 -0.3031  1.6081
 4484SOL     OW25084   3.600   1.040  17.035 -0.1713 -0.5897 -0.0389
 4484SOL    HW125085   3.654   1.100  16.983 -2.1707  0.7663 -0.5553
 4484SOL    HW225086   3.517   1.081  17.013  0.1992  0.1184 -0.1241
 4485SOL     OW25087   2.193   2.019   7.405  0.6964  0.4131  0.0302
 4485SOL    HW125088   2.163   2.104   7.438 -0.3449  1.7379 -4.2993
 4485SOL    HW225089   2.109   1.979   7.429  0.7912 -0.3750 -0.9302
 4486SOL     OW25090   0.796   3.734   7.822  0.1109 -0.2202  0.5791
 4486SOL    HW125091   0.749   3.679   7.884 -0.6127 -0.8991 -0.5833
 4486SOL    HW225092   0.733   3.806   7.818  1.2033  0.4128 -4.5168
 4487SOL     OW25093   0.393   1.281   5.650 -0.1965 -0.0063  0.1651
 4487SOL    HW125094   0.357   1.248   5.732 -2.2473  0.9951 -0.3329
 4487SOL    HW225095   0.477   1.323   5.670 -0.1254  0.0502 -0.2627
 4488SOL     OW25096   2.322   1.350  17.013 -0.1572 -0.0781 -0.0791
 4488SOL    HW125097   2.333   1.394  17.097 -0.4434 -0.9988  0.4532
 4488SOL    HW225098   2.238   1.305  17.027  0.4875 -0.9368  1.0806
 4489SOL     OW25099   3.495   2.920   2.101  0.5792  0.1234  0.5899
 4489SOL    HW125100   3.506   2.830   2.131 -0.3301  0.2998  1.4364
 4489SOL    HW225101   3.411   2.933   2.144  0.3471  0.8283 -0.0657
 4490SOL     OW25102   0.027   3.113   9.591 -0.4062 -0.2744 -0.3189
 4490SOL    HW125103   0.091   3.143   9.526  0.2804 -3.8734 -1.2871
 4490SOL    HW225104   0.066   3.027   9.600  1.1469  0.6580  1.8043
 4491SOL     OW25105   1.279   2.757   2.801  0.8002 -0.7596  0.3300
 4491SOL    HW125106   1.372   2.760   2.779  0.9828  0.8748  1.2931
 4491SOL    HW225107   1.254   2.846   2.776 -1.5408 -1.1004  1.4367
 4492SOL     OW25108   2.295   1.314   5.415 -0.0393 -0.5386 -0.2336
 4492SOL    HW125109   2.332   1.242   5.364 -0.0807 -0.2679 -0.6437
 4492SOL    HW225110   2.275   1.268   5.496 -1.3568  3.0123  1.4657
 4493SOL     OW25111   0.414   0.261   2.294  0.0562 -0.4349  0.0614
 4493SOL    HW125112   0.372   0.176   2.289  0.5584 -0.6760 -0.0850
 4493SOL    HW225113   0.364   0.311   2.229  1.4330 -0.4731 -1.0213
 4494SOL     OW25114   3.607   0.700   9.316  0.1745 -0.6731 -0.0759
 4494SOL    HW125115   3.591   0.606   9.320 -0.1228 -0.5592  1.3324
 4494SOL    HW225116   3.517   0.713   9.284  2.2870  3.8024 -4.2045
 4495SOL     OW25117   0.433   4.092   8.565 -0.3279  0.2459 -0.4978
 4495SOL    HW125118   0.423   4.007   8.608  0.9774 -0.7239 -2.1254
 4495SOL    HW225119   0.342   4.122   8.572  0.0193  1.1524  0.0456
 4496SOL     OW25120   3.618   2.225   6.908 -0.5462 -0.1045 -0.3477
 4496SOL    HW125121   3.667   2.301   6.876 -0.1443 -0.4882 -0.6452
 4496SOL    HW225122   3.560   2.273   6.967  0.9070  1.6978 -0.3963
 4497SOL     OW25123   0.107   0.418   3.550 -0.1296 -0.2155 -0.3908
 4497SOL    HW125124   0.191   0.414   3.506 -0.2522  1.8720 -0.8094
 4497SOL    HW225125   0.060   0.479   3.494  1.0468 -0.3422 -1.5071
 4498SOL     OW25126   2.983   3.931   2.138 -0.8027 -0.3310  0.1510
 4498SOL    HW125127   2.973   3.937   2.233 -0.3478 -1.6019  0.2815
 4498SOL    HW225128   2.983   3.838   2.117  2.2769 -0.1570 -0.7402
 4499SOL     OW25129   1.537   2.751   4.896 -0.4419  0.0840 -1.1889
 4499SOL    HW125130   1.481   2.809   4.948 -1.0733  0.4388 -2.2855
 4499SOL    HW225131   1.582   2.814   4.840  3.2229 -1.2472  0.1879
 4500SOL     OW25132   3.151   2.671   0.126  0.4178 -0.0527  0.0178
 4500SOL    HW125133   3.216   2.601   0.121 -0.0646 -0.6985  2.9879
 4500SOL    HW225134   3.200   2.749   0.099  2.1566 -1.3014 -0.4210
 4501SOL     OW25135   3.388   4.325   4.852  0.1879  0.0448 -0.7937
 4501SOL    HW125136   3.380   4.417   4.877  1.5938 -0.0862  0.1336
 4501SOL    HW225137   3.317   4.304   4.791 -2.4094  1.9876  1.5912
 4502SOL     OW25138   1.928   0.753   4.224  0.5838 -0.1722 -0.3646
 4502SOL    HW125139   1.889   0.833   4.261 -1.1018 -0.2184 -2.0888
 4502SOL    HW225140   1.908   0.765   4.131 -0.9134  0.9869  0.1073
 4503SOL     OW25141   3.382   0.404   9.070 -0.1666  0.3828  0.4478
 4503SOL    HW125142   3.436   0.417   8.992 -0.0193  0.1309  0.5077
 4503SOL    HW225143   3.307   0.453   9.035 -0.8154 -0.5737  0.4901
 4504SOL     OW25144   1.638   1.541   1.464 -0.1463  0.4244 -1.1862
 4504SOL    HW125145   1.593   1.611   1.513 -1.1173 -1.3952  0.5529
 4504SOL    HW225146   1.728   1.558   1.490  0.1830  0.8860 -2.6425
 4505SOL     OW25147   0.871   0.006   0.954  0.2746  0.9630 -0.0541
 4505SOL    HW125148   0.830   0.001   0.868  0.0331  0.2330  0.0997
 4505SOL    HW225149   0.935   4.671   0.951 -1.1201 -0.2770 -0.5644
 4506SOL     OW25150   2.066   1.448   2.214 -0.3235  0.1814  0.0416
 4506SOL    HW125151   2.075   1.509   2.140  2.5140 -0.5069 -0.1861
 4506SOL    HW225152   2.144   1.393   2.200  0.4378  1.2939 -0.1372
 4507SOL     OW25153   0.723   2.025  10.832 -0.7035 -0.3391 -0.4778
 4507SOL    HW125154   0.805   2.067  10.858 -1.6008  1.9033 -1.3066
 4507SOL    HW225155   0.674   2.011  10.913  1.9856 -0.8742  1.0250
 4508SOL     OW25156   0.197   4.689   0.072 -0.5734  0.0942 -0.0921
 4508SOL    HW125157   0.281   4.661   0.109  0.4363  0.6243 -2.0077
 4508SOL    HW225158   0.194   0.048   0.083 -0.0028  0.2135 -0.9858
 4509SOL     OW25159   0.372   2.236   7.584 -0.1568 -0.7956 -0.0583
 4509SOL    HW125160   0.418   2.304   7.633  0.5465 -0.6483 -0.9181
 4509SOL    HW225161   0.279   2.248   7.607 -0.1865  0.8998 -1.0754
 4510SOL     OW25162   2.460   0.165  13.751  0.1109  0.2680 -0.4585
 4510SOL    HW125163   2.510   0.132  13.677 -0.9396 -2.5211  0.0791
 4510SOL    HW225164   2.481   0.113  13.829  2.0437  0.4367 -0.8739
 4511SOL     OW25165   2.450   3.206   3.978  0.2539  0.4029  0.1048
 4511SOL    HW125166   2.523   3.155   4.015 -0.0545 -0.2603 -0.2054
 4511SOL    HW225167   2.384   3.180   4.042 -1.6634  0.5200 -1.8285
 4512SOL     OW25168   0.307   3.054  10.692 -0.1176 -0.2332 -0.2392
 4512SOL    HW125169   0.376   3.004  10.735 -1.0371 -2.9273 -1.8704
 4512SOL    HW225170   0.302   3.020  10.602 -0.7690  1.5100 -0.8742
 4513SOL     OW25171   3.456   4.371   6.284 -0.0658  0.6603 -0.0264
 4513SOL    HW125172   3.501   4.304   6.335 -0.1777  0.8816  0.3659
 4513SOL    HW225173   3.370   4.375   6.325  0.9725 -1.1234  2.3020
 4514SOL     OW25174   4.662   3.427  11.060  0.8200  0.0551  0.1932
 4514SOL    HW125175   4.680   3.365  11.131  1.8372  1.6700  1.3175
 4514SOL    HW225176   4.566   3.428  11.069  0.6931 -0.2555 -1.0867
 4515SOL     OW25177   2.562   2.036   8.291 -0.3060  0.5473  0.5713
 4515SOL    HW125178   2.487   2.087   8.261  1.1031  2.2991  0.0415
 4515SOL    HW225179   2.543   2.040   8.384 -0.7559  1.4214  0.4383
 4516SOL     OW25180   3.932   1.658   4.325 -0.6046 -0.0477 -0.7579
 4516SOL    HW125181   3.854   1.696   4.366 -1.4231 -0.4293 -1.9678
 4516SOL    HW225182   3.995   1.679   4.394  1.7110  0.4645 -3.0407
 4517SOL     OW25183   0.208   3.138  15.400 -0.0374  0.7035  0.1749
 4517SOL    HW125184   0.114   3.141  15.384  0.0024  1.3020  0.0472
 4517SOL    HW225185   0.243   3.204  15.340  1.7897 -1.6539 -1.3446
 4518SOL     OW25186   4.416   2.098   6.023  0.5252 -0.0004 -0.4479
 4518SOL    HW125187   4.360   2.125   6.095  1.5215  0.3065  0.2100
 4518SOL    HW225188   4.496   2.129   6.064 -1.6678  2.2466  2.0769
 4519SOL     OW25189   3.206   0.942   4.150  0.7109 -0.1303 -0.1360
 4519SOL    HW125190   3.164   1.014   4.197 -0.2892 -0.0507 -1.1544
 4519SOL    HW225191   3.211   0.873   4.217  1.9384  0.1542  0.0595
 4520SOL     OW25192   4.304   0.932   5.876 -0.3609 -0.1755 -0.1625
 4520SOL    HW125193   4.306   0.896   5.965  1.2313 -0.2052 -0.2033
 4520SOL    HW225194   4.217   0.969   5.860 -1.9593 -3.5472  0.6990
 4521SOL     OW25195   3.956   0.445   2.306  0.0692  0.1858  0.4658
 4521SOL    HW125196   3.907   0.385   2.250  0.8372 -2.3728  2.5487
 4521SOL    HW225197   3.907   0.522   2.276 -0.7258  0.2396  1.8911
 4522SOL     OW25198   4.165   3.924   6.129 -0.4193 -0.2667  0.1801
 4522SOL    HW125199   4.126   3.879   6.054  3.0257 -1.5351 -0.8784
 4522SOL    HW225200   4.252   3.884   6.131 -0.6896 -0.9035 -0.8635
 4523SOL     OW25201   0.809   2.878   7.637  0.3179 -0.1360  0.2643
 4523SOL    HW125202   0.903   2.878   7.656  0.4310 -0.1741 -0.3035
 4523SOL    HW225203   0.785   2.954   7.689 -2.9623 -0.8621 -0.2151
 4524SOL     OW25204   0.685   2.294   4.656  0.6994  0.2314  0.4303
 4524SOL    HW125205   0.597   2.300   4.691  0.9457  2.1025  0.7301
 4524SOL    HW225206   0.721   2.352   4.724  1.3031  1.9354 -1.3312
 4525SOL     OW25207   2.366   0.477   7.170  0.0935  0.2249 -0.5817
 4525SOL    HW125208   2.410   0.520   7.242  0.3377  1.7602 -1.6546
 4525SOL    HW225209   2.429   0.443   7.106 -1.3422 -4.4944  0.4626
 4526SOL     OW25210   0.380   1.061  17.338 -0.4739  0.6881 -0.3021
 4526SOL    HW125211   0.435   1.130  17.376 -1.1846  0.0085  1.9596
 4526SOL    HW225212   0.356   1.096  17.252 -0.0860 -0.4052 -0.8616
 4527SOL     OW25213   0.231   1.798   7.339  0.0033  0.1258 -0.0002
 4527SOL    HW125214   0.288   1.842   7.403 -0.7667 -0.9091  1.3872
 4527SOL    HW225215   0.158   1.860   7.342 -2.1239 -2.3507 -0.7415
 4528SOL     OW25216   4.616   1.937   2.996  0.2918  0.2138  0.0361
 4528SOL    HW125217   4.682   2.005   2.980  2.9092 -2.4300 -0.2779
 4528SOL    HW225218   4.575   1.964   3.079 -0.7613  1.2205 -0.8029
 4529SOL     OW25219   2.274   3.767   5.948 -0.0657  0.0785  0.0375
 4529SOL    HW125220   2.355   3.794   5.906  0.2303 -0.6490  0.1422
 4529SOL    HW225221   2.273   3.834   6.016  0.5423 -1.4121  1.5200
 4530SOL     OW25222   3.694   2.054   3.401 -0.1484 -0.1386 -0.2028
 4530SOL    HW125223   3.765   1.991   3.394  0.3600  0.4683 -0.4942
 4530SOL    HW225224   3.738   2.133   3.429 -2.5434  1.1011  0.0616
 4531SOL     OW25225   1.464   4.463   4.673 -0.0883  0.0069  0.0205
 4531SOL    HW125226   1.461   4.545   4.722  0.9329 -0.6052  1.1083
 4531SOL    HW225227   1.538   4.425   4.719 -0.2843 -1.1504 -0.6304
 4532SOL     OW25228   0.650   0.001  16.097 -0.4813  0.1713  0.5020
 4532SOL    HW125229   0.631   0.089  16.131 -0.0466  0.3448  0.2851
 4532SOL    HW225230   0.567   4.715  16.056 -0.2611  3.2260 -1.5524
 4533SOL     OW25231   0.811   3.985  14.839 -0.1897 -0.0202  0.2457
 4533SOL    HW125232   0.790   3.926  14.911  0.3353 -0.0622  0.3640
 4533SOL    HW225233   0.870   3.924  14.794  0.9620 -0.6676  2.6336
 4534SOL     OW25234   3.185   1.155   0.067  0.7380  0.2574 -0.0707
 4534SOL    HW125235   3.140   1.215   0.008  0.1086 -0.9565 -0.8329
 4534SOL    HW225236   3.163   1.199   0.149 -2.7039  0.7360 -1.2669
 4535SOL     OW25237   4.258   3.364   2.449  0.2135  0.1237  0.6417
 4535SOL    HW125238   4.232   3.338   2.360  2.8344 -0.4229  0.0152
 4535SOL    HW225239   4.186   3.344   2.509 -1.3862 -1.0076 -1.6622
 4536SOL     OW25240   2.402   3.365   3.161  0.3526  0.1981  0.3850
 4536SOL    HW125241   2.415   3.292   3.101  3.0183  0.5619  0.5262
 4536SOL    HW225242   2.479   3.415   3.135  0.4415 -0.0704  0.1375
 4537SOL     OW25243   3.061   1.190   7.320  0.2635 -0.3165 -0.2534
 4537SOL    HW125244   2.976   1.178   7.362 -1.0978  2.7364 -2.0664
 4537SOL    HW225245   3.033   1.208   7.230 -1.5010  2.2837  0.8096
 4538SOL     OW25246   0.181   4.263  13.857  0.2662 -0.1845 -0.5133
 4538SOL    HW125247   0.179   4.342  13.804 -0.2410  0.5760  0.6341
 4538SOL    HW225248   0.162   4.191  13.796 -0.5748  0.4336 -0.9861
 4539SOL     OW25249   0.348   3.752   2.299 -0.0199 -0.1193 -0.1828
 4539SOL    HW125250   0.256   3.733   2.318 -0.0264 -0.4166 -0.5182
 4539SOL    HW225251   0.348   3.791   2.212  1.5495 -4.6090 -2.2027
 4540SOL     OW25252   2.623   1.935   0.004  0.2540 -0.2139  0.1864
 4540SOL    HW125253   2.676   1.866  17.708  0.5991  1.2671 -2.0433
 4540SOL    HW225254   2.549   1.888   0.042 -0.5498  1.4184  0.6511
 4541SOL     OW25255   1.575   0.748  10.147  0.0712 -0.2771  0.4498
 4541SOL    HW125256   1.502   0.699  10.110  0.8313  0.9154 -2.5924
 4541SOL    HW225257   1.583   0.696  10.228 -1.6965 -3.2855 -1.3191
 4542SOL     OW25258   0.952   3.208   8.479 -0.6593  0.2761  0.3550
 4542SOL    HW125259   1.014   3.282   8.477  0.8822 -1.0254  0.1166
 4542SOL    HW225260   0.866   3.242   8.453  0.6685  1.6515 -2.2220
 4543SOL     OW25261   2.224   4.170   9.732  0.0486 -0.2999 -0.0538
 4543SOL    HW125262   2.158   4.193   9.667  0.3165  0.3365 -0.1000
 4543SOL    HW225263   2.276   4.251   9.731 -0.1169 -0.1720  1.6227
 4544SOL     OW25264   4.676   4.302   9.606  0.1919  0.0840  0.0807
 4544SOL    HW125265   0.034   4.321   9.606 -0.0280  1.1701  3.4783
 4544SOL    HW225266   4.657   4.255   9.687 -2.6247  1.1836  0.0562
 4545SOL     OW25267   2.693   3.067  14.361  0.1449 -0.3018  0.4250
 4545SOL    HW125268   2.766   3.024  14.317 -0.5026 -0.9646 -0.0065
 4545SOL    HW225269   2.702   3.158  14.335 -1.0328 -0.2010  0.3709
 4546SOL     OW25270   0.749   1.263   9.677 -0.1995 -0.5048 -0.6766
 4546SOL    HW125271   0.828   1.211   9.661 -1.7666 -2.5451 -1.7034
 4546SOL    HW225272   0.700   1.219   9.747 -0.3676  1.7452  0.6195
 4547SOL     OW25273   4.372   1.792   0.785 -0.0516  0.6421  0.0028
 4547SOL    HW125274   4.425   1.793   0.865  0.1875 -2.0876 -0.1470
 4547SOL    HW225275   4.391   1.703   0.757  0.7228  0.2137  1.8793
 4548SOL     OW25276   0.523   3.262   4.597  0.1503 -0.3558 -0.1610
 4548SOL    HW125277   0.471   3.197   4.644  0.5657 -0.3598  0.2969
 4548SOL    HW225278   0.485   3.244   4.511  0.4771  0.8144 -0.5545
 4549SOL     OW25279   1.449   3.750   4.323  0.0907 -0.6681  0.0765
 4549SOL    HW125280   1.407   3.773   4.240  0.4859  0.6758  0.2499
 4549SOL    HW225281   1.382   3.687   4.353 -3.1537  1.4446 -2.7125
 4550SOL     OW25282   2.222   0.266   0.935 -0.5860  0.6239  0.1392
 4550SOL    HW125283   2.219   0.171   0.942 -1.3993  0.5049 -1.7214
 4550SOL    HW225284   2.274   0.267   0.855  0.7374  0.6655  0.9964
 4551SOL     OW25285   3.929   3.565  11.238  0.2677 -0.0881 -0.9183
 4551SOL    HW125286   3.837   3.577  11.261  0.6235  1.3373 -0.2302
 4551SOL    HW225287   3.939   3.632  11.171 -0.5081  1.0956  0.1447
 4552SOL     OW25288   4.169   2.551   8.998 -0.5720 -0.1477  0.0351
 4552SOL    HW125289   4.141   2.598   9.077  1.8605  2.0395 -0.3769
 4552SOL    HW225290   4.265   2.554   9.001 -0.4566  1.2768 -4.0131
 4553SOL     OW25291   0.534   3.923   1.206 -0.2327 -0.5787  0.3490
 4553SOL    HW125292   0.442   3.931   1.182  0.2135  3.5178 -0.0470
 4553SOL    HW225293   0.560   3.834   1.182  1.4858  0.2764 -0.9950
 4554SOL     OW25294   1.730   0.430   3.825  0.1302  0.2515  0.0201
 4554SOL    HW125295   1.709   0.496   3.759 -2.1068  1.8118  2.2822
 4554SOL    HW225296   1.765   0.483   3.896  0.2354 -1.0105  0.9000
 4555SOL     OW25297   3.766   1.991   5.133 -0.0062  0.7938  0.2973
 4555SOL    HW125298   3.683   1.996   5.084 -0.1813  0.6527  0.5829
 4555SOL    HW225299   3.737   2.006   5.223  1.5816 -1.2670  1.1588
 4556SOL     OW25300   2.576   1.601   2.352 -0.1494  0.0135 -0.1320
 4556SOL    HW125301   2.488   1.631   2.373  0.4982  0.6861  1.6261
 4556SOL    HW225302   2.628   1.647   2.418 -0.8574 -0.0720  0.4796
 4557SOL     OW25303   0.801   1.772  17.540 -0.1773  0.4998  0.0722
 4557SOL    HW125304   0.830   1.836  17.475 -0.2181  1.3392  0.8900
 4557SOL    HW225305   0.880   1.723  17.560 -0.3417  0.0499 -0.3821
 4558SOL     OW25306   4.584   4.390  10.698  0.0163 -0.3632  0.2045
 4558SOL    HW125307   4.638   4.379  10.620  2.0657 -2.3769  1.8759
 4558SOL    HW225308   4.637   4.455  10.744  0.5046 -0.0035 -0.8730
 4559SOL     OW25309   4.572   2.857   9.314 -0.4750 -0.4953 -0.7299
 4559SOL    HW125310   4.592   2.773   9.272 -1.1397  0.1663 -2.3841
 4559SOL    HW225311   4.561   2.824   9.403 -4.5569  0.9132 -0.7068
 4560SOL     OW25312   1.114   4.551   7.149 -0.0064  0.4421  0.5045
 4560SOL    HW125313   1.048   4.570   7.082 -1.9797 -1.1471  1.9950
 4560SOL    HW225314   1.122   4.640   7.183 -1.4123  0.3752  1.0124
 4561SOL     OW25315   3.857   2.148   6.411 -0.3176  0.0947 -0.3910
 4561SOL    HW125316   3.768   2.118   6.394 -1.7494  3.1206  1.7736
 4561SOL    HW225317   3.865   2.133   6.505  1.6872  1.0602 -0.3910
 4562SOL     OW25318   2.713   1.487   1.410 -0.2415  0.2025 -0.1752
 4562SOL    HW125319   2.756   1.564   1.447 -1.1810  1.7429 -2.3144
 4562SOL    HW225320   2.633   1.534   1.388  0.3330  0.3742 -1.8595
 4563SOL     OW25321   2.629   1.659  10.081  0.6203  0.3775  0.1792
 4563SOL    HW125322   2.615   1.569  10.053 -0.0556  0.1607  1.2077
 4563SOL    HW225323   2.648   1.648  10.174 -0.6316 -2.0895  0.1300
 4564SOL     OW25324   2.411   4.047   1.375  0.1457  0.1286 -0.3435
 4564SOL    HW125325   2.386   4.018   1.463 -0.4942 -0.0714 -0.5905
 4564SOL    HW225326   2.466   3.972   1.352 -1.8908 -1.0994 -1.2584
 4565SOL     OW25327   4.409   2.168   5.649  0.0248  0.1418 -0.2319
 4565SOL    HW125328   4.341   2.183   5.714 -2.4314  0.9311 -2.9626
 4565SOL    HW225329   4.470   2.227   5.694 -2.3117  0.3294  2.6370
 4566SOL     OW25330   4.397   0.789   4.462 -0.2830  0.3863  0.3507
 4566SOL    HW125331   4.330   0.721   4.465 -0.4011  0.6165  2.6230
 4566SOL    HW225332   4.369   0.830   4.381 -0.1930 -2.8159 -1.3108
 4567SOL     OW25333   1.481   4.734   4.839 -0.2610  0.2127  0.2705
 4567SOL    HW125334   1.473   0.091   4.861  0.9457  0.6107 -0.9753
 4567SOL    HW225335   1.470   4.698   4.927  2.0809  0.5775  0.7104
 4568SOL     OW25336   3.510   0.956   5.308  0.0391 -0.1888 -0.0095
 4568SOL    HW125337   3.599   0.967   5.341  0.4165  1.7108 -1.6924
 4568SOL    HW225338   3.478   1.046   5.321  0.7898  0.2567 -1.3377
 4569SOL     OW25339   0.315   1.557   1.016  0.0343 -0.2452 -0.0949
 4569SOL    HW125340   0.374   1.597   0.953 -0.3806 -0.5763 -0.6927
 4569SOL    HW225341   0.246   1.510   0.969  0.3529 -1.1005  0.2904
 4570SOL     OW25342   2.466   2.154   5.396 -0.8344 -0.3222  0.0230
 4570SOL    HW125343   2.392   2.215   5.396 -1.3542 -0.9574 -0.8859
 4570SOL    HW225344   2.453   2.102   5.317  0.4011 -1.3720  0.5125
 4571SOL     OW25345   3.051   2.505   5.742 -0.3833 -0.2385  0.1183
 4571SOL    HW125346   2.963   2.484   5.709  0.5414 -0.2726 -2.3225
 4571SOL    HW225347   3.072   2.424   5.787  1.5183  0.2028  0.0066
 4572SOL     OW25348   4.378   1.627   5.966  0.2692 -0.1105  0.4616
 4572SOL    HW125349   4.371   1.719   5.938  0.4104  0.4541  2.2968
 4572SOL    HW225350   4.416   1.644   6.052 -0.5408 -1.0640  1.0132
 4573SOL     OW25351   2.516   4.200   3.223 -0.1742 -0.4979 -0.3194
 4573SOL    HW125352   2.536   4.264   3.291  2.8876 -0.6170 -1.1172
 4573SOL    HW225353   2.485   4.262   3.157  0.5641 -0.0092 -0.2103
 4574SOL     OW25354   3.360   2.258   5.848 -0.3275 -0.1294 -1.3173
 4574SOL    HW125355   3.273   2.276   5.884  0.2095  1.6555 -0.9373
 4574SOL    HW225356   3.411   2.332   5.881 -0.1904 -1.6010  1.7146
 4575SOL     OW25357   4.242   4.352  13.137  0.0106  0.2340 -0.4784
 4575SOL    HW125358   4.258   4.352  13.043 -1.8208  3.8327 -0.7822
 4575SOL    HW225359   4.269   4.443  13.154  3.9915 -0.7787 -1.2637
 4576SOL     OW25360   0.324   4.556  13.302 -0.1961  0.2063  0.9167
 4576SOL    HW125361   0.334   4.568  13.208  1.0754 -0.5419  0.9657
 4576SOL    HW225362   0.228   4.564  13.302 -0.4571 -3.1776  2.5250
 4577SOL     OW25363   0.572   4.279   3.875 -0.4456  0.5577 -0.6605
 4577SOL    HW125364   0.634   4.348   3.898 -1.1192  0.8855  0.1463
 4577SOL    HW225365   0.501   4.325   3.831  0.0860  1.5030 -0.5272
 4578SOL     OW25366   1.320   3.816   1.196 -0.9025  0.0640 -0.1870
 4578SOL    HW125367   1.393   3.878   1.183 -0.6516  0.0658  1.2985
 4578SOL    HW225368   1.287   3.842   1.281 -0.3538 -2.0648  0.6662
 4579SOL     OW25369   0.293   2.565  14.176  0.0888  0.7049  0.5440
 4579SOL    HW125370   0.266   2.578  14.267 -1.6983 -0.1826  0.1428
 4579SOL    HW225371   0.225   2.500  14.157  1.2495 -0.8869  1.7631
 4580SOL     OW25372   1.196   3.157   0.350 -0.0454 -0.4296 -0.6094
 4580SOL    HW125373   1.193   3.222   0.420  0.9370 -0.7459 -0.2695
 4580SOL    HW225374   1.254   3.092   0.390 -0.4111 -1.7873 -2.2639
 4581SOL     OW25375   0.134   4.568   0.383  0.4697  0.2183 -0.1709
 4581SOL    HW125376   0.175   4.652   0.406 -0.9058  0.5261  1.2009
 4581SOL    HW225377   0.163   4.559   0.293  1.7980 -0.9243  0.3718
 4582SOL     OW25378   4.037   1.361   1.433 -0.1562  0.2850 -0.6041
 4582SOL    HW125379   4.005   1.451   1.423  0.2419  0.8679  3.5438
 4582SOL    HW225380   4.018   1.345   1.525  2.4969  0.7769  0.0298
 4583SOL     OW25381   3.484   2.745   4.691  0.5459  0.5224 -0.5268
 4583SOL    HW125382   3.487   2.841   4.691 -2.0135  0.5821  0.7085
 4583SOL    HW225383   3.391   2.726   4.697  0.9878 -1.4692  0.1446
 4584SOL     OW25384   1.971   3.815   5.574  0.1947  0.3765  0.0445
 4584SOL    HW125385   1.956   3.750   5.506  0.8186  0.0162  0.2502
 4584SOL    HW225386   2.029   3.774   5.638  0.7781  4.1776  1.9373
 4585SOL     OW25387   2.134   1.515   5.272  0.3226  0.2173 -0.1479
 4585SOL    HW125388   2.166   1.427   5.291 -0.8476 -0.1931 -0.0233
 4585SOL    HW225389   2.038   1.514   5.280  0.4502 -0.8468  1.2430
 4586SOL     OW25390   1.733   4.056   2.601 -0.4727  0.4490  0.2320
 4586SOL    HW125391   1.659   4.111   2.573 -1.5457 -0.4880  1.1899
 4586SOL    HW225392   1.747   4.090   2.690 -0.7823 -0.6308  0.6899
 4587SOL     OW25393   3.005   0.116   0.767  0.5476 -0.5845 -0.0999
 4587SOL    HW125394   2.919   0.095   0.804 -0.7359  4.6327 -0.0647
 4587SOL    HW225395   3.022   0.208   0.788 -0.6388 -0.2636 -0.5645
 4588SOL     OW25396   3.948   4.674   1.310  0.1949  0.2331  0.3228
 4588SOL    HW125397   3.991   4.599   1.269  2.8278  2.0821 -0.3717
 4588SOL    HW225398   3.992   0.008   1.262 -1.1997  1.8779  1.4314
 4589SOL     OW25399   4.007   1.172   6.497 -0.7598 -0.2539 -0.3845
 4589SOL    HW125400   4.026   1.191   6.405 -0.6227  0.1930 -0.2626
 4589SOL    HW225401   4.091   1.160   6.541 -0.7488 -0.1366 -0.3746
 4590SOL     OW25402   2.174   3.258   0.852  0.5741  0.8542 -0.2745
 4590SOL    HW125403   2.109   3.320   0.887 -1.6789 -2.1153  0.8437
 4590SOL    HW225404   2.152   3.179   0.901  0.8351  0.1588 -1.2964
 4591SOL     OW25405   1.695   1.418   1.205  0.2160 -0.2556 -0.2079
 4591SOL    HW125406   1.663   1.468   1.280  0.0338  1.1828 -1.2478
 4591SOL    HW225407   1.679   1.487   1.141  0.5736  0.8576  0.9066
 4592SOL     OW25408   4.669   2.111   8.212 -0.1136  0.4921  0.2707
 4592SOL    HW125409   4.719   2.051   8.268 -1.8120  0.2400  1.5255
 4592SOL    HW225410   4.643   2.049   8.143  0.7320 -0.4416  0.7780
 4593SOL     OW25411   3.731   1.142   9.316 -0.2969 -0.7252 -0.3611
 4593SOL    HW125412   3.774   1.082   9.377 -1.7934 -0.6879  0.7345
 4593SOL    HW225413   3.788   1.218   9.309 -0.3752 -0.6776 -0.4754
 4594SOL     OW25414   3.210   3.876   6.420  0.0551 -0.5091  0.2215
 4594SOL    HW125415   3.273   3.876   6.492  0.6585  0.6988 -0.3044
 4594SOL    HW225416   3.133   3.832   6.454  0.4707 -0.8451  0.7329
 4595SOL     OW25417   1.219   1.622   8.245  0.0371  0.5482  0.1370
 4595SOL    HW125418   1.264   1.661   8.320 -0.0844 -1.8754  1.4943
 4595SOL    HW225419   1.135   1.667   8.254  0.2044  0.8795  0.0365
 4596SOL     OW25420   1.649   3.599   2.162  0.1303  0.1025 -0.9034
 4596SOL    HW125421   1.690   3.549   2.233  0.8924 -1.2511 -2.2903
 4596SOL    HW225422   1.579   3.638   2.215  2.0031 -1.2254  2.5554
 4597SOL     OW25423   3.633   0.560   7.633 -0.0050 -0.1653  0.8663
 4597SOL    HW125424   3.677   0.503   7.569 -1.4433 -0.7521  0.3968
 4597SOL    HW225425   3.557   0.594   7.586  0.9836 -0.7565 -1.1583
 4598SOL     OW25426   1.462   1.764  14.296  0.1921  0.0710  0.5149
 4598SOL    HW125427   1.385   1.752  14.352  0.4255 -0.7268  0.6602
 4598SOL    HW225428   1.511   1.822  14.354  0.8996  0.1883 -0.2127
 4599SOL     OW25429   3.292   1.070   1.474  0.3793 -0.4623 -0.2869
 4599SOL    HW125430   3.349   1.145   1.454 -0.9619  0.4427 -0.7221
 4599SOL    HW225431   3.327   1.002   1.416 -2.5307 -2.4804  0.2938
 4600SOL     OW25432   1.465   1.012  16.592 -0.5912  0.4843  0.3244
 4600SOL    HW125433   1.444   1.024  16.500  3.2332 -0.0013 -0.6184
 4600SOL    HW225434   1.486   1.099  16.628  0.0745  0.3686  0.2209
 4601SOL     OW25435   0.947   2.071   6.194  0.4317 -0.1279  0.8524
 4601SOL    HW125436   1.040   2.064   6.213  0.4180 -0.2405  0.8807
 4601SOL    HW225437   0.922   1.992   6.243 -0.6088 -0.3394 -0.0082
 4602SOL     OW25438   2.288   0.285  12.228 -0.2630 -0.6936 -0.3853
 4602SOL    HW125439   2.351   0.257  12.294  0.7309 -0.1837 -1.1035
 4602SOL    HW225440   2.229   0.321  12.295  1.7336  0.7849  0.5819
 4603SOL     OW25441   0.472   4.598  11.362  0.1291  0.1022 -0.2422
 4603SOL    HW125442   0.524   4.620  11.439 -0.4578  2.4394 -0.5001
 4603SOL    HW225443   0.444   4.508  11.381 -1.9616  0.1991 -2.8985
 4604SOL     OW25444   3.687   1.781   4.386  0.5096  0.0141 -0.2497
 4604SOL    HW125445   3.621   1.724   4.425  2.4521 -0.9577  1.6253
 4604SOL    HW225446   3.645   1.806   4.304 -0.0370  3.0864  0.9631
 4605SOL     OW25447   2.486   0.512   3.336 -0.0645  0.3928 -0.3560
 4605SOL    HW125448   2.579   0.503   3.355  0.1019  0.5379 -1.0942
 4605SOL    HW225449   2.454   0.422   3.337 -2.0204  1.0588 -2.1109
 4606SOL     OW25450   4.167   1.468  11.156 -0.1645  0.0929 -0.0275
 4606SOL    HW125451   4.119   1.444  11.235 -0.2980  2.6323  0.6472
 4606SOL    HW225452   4.260   1.479  11.178 -0.5370  0.5879  1.2959
 4607SOL     OW25453   2.497   3.724  12.616  0.5791 -0.1742 -0.1497
 4607SOL    HW125454   2.587   3.695  12.633  0.8104  0.1284 -0.8752
 4607SOL    HW225455   2.454   3.672  12.684  2.0260 -1.3160 -0.1247
 4608SOL     OW25456   2.919   0.782   5.914 -0.2428 -0.7481 -0.5241
 4608SOL    HW125457   2.979   0.807   5.983 -1.1852  0.4968 -0.1486
 4608SOL    HW225458   2.888   0.697   5.946  1.5258 -0.4634  1.8669
 4609SOL     OW25459   4.678   4.207  12.446  0.2458 -0.4700 -0.0838
 4609SOL    HW125460   0.014   4.195  12.508  2.4147  1.3430 -2.2728
 4609SOL    HW225461   4.694   4.289  12.401 -1.6358 -0.2595 -0.3532
 4610SOL     OW25462   1.048   2.288   6.582  0.1921  0.4949  0.2055
 4610SOL    HW125463   1.135   2.318   6.556 -0.2742  0.1681 -1.7805
 4610SOL    HW225464   1.042   2.213   6.522 -2.0850  1.7059 -1.0862
 4611SOL     OW25465   0.073   1.362   0.443  0.4781  0.7658  0.0372
 4611SOL    HW125466   0.164   1.365   0.413 -0.6690 -0.1976 -3.5280
 4611SOL    HW225467   0.067   1.276   0.484  1.4731  0.8911  0.4541
 4612SOL     OW25468   0.418   3.518  16.641  0.2204  0.2038 -0.5200
 4612SOL    HW125469   0.344   3.503  16.582 -0.4739 -1.0356  0.6665
 4612SOL    HW225470   0.407   3.612  16.655  0.2495  0.1916 -0.4164
 4613SOL     OW25471   3.618   2.607   6.360  0.7011 -0.5411  0.3708
 4613SOL    HW125472   3.621   2.678   6.424 -1.2014  2.3020 -2.6791
 4613SOL    HW225473   3.711   2.590   6.344  0.9350  1.6419 -0.4842
 4614SOL     OW25474   3.566   0.546  11.763  0.3515  0.2333  0.3682
 4614SOL    HW125475   3.540   0.625  11.716  0.4584 -1.1402 -1.9803
 4614SOL    HW225476   3.650   0.569  11.804  0.1470  1.4801  0.1016
 4615SOL     OW25477   1.025   3.174   9.315 -0.2183 -0.1934  0.0099
 4615SOL    HW125478   0.936   3.208   9.320 -0.0076  0.5933 -1.6901
 4615SOL    HW225479   1.022   3.094   9.264  2.8343 -1.0758  1.1861
 4616SOL     OW25480   4.693   3.020   3.478 -0.9761 -0.4534 -0.0588
 4616SOL    HW125481   4.705   3.082   3.406  0.9165  1.2363  1.7013
 4616SOL    HW225482   4.615   3.056   3.519  1.0700  4.1039 -0.1461
 4617SOL     OW25483   0.029   3.961   6.403 -0.1109  0.1612 -0.4681
 4617SOL    HW125484   4.686   3.910   6.419  0.5618 -0.5904  0.3974
 4617SOL    HW225485   0.076   3.905   6.341 -1.0281  1.2886 -2.1887
 4618SOL     OW25486   2.312   1.374   1.638 -0.5290 -0.7799 -0.3036
 4618SOL    HW125487   2.383   1.367   1.702 -1.2450  1.0922  0.7005
 4618SOL    HW225488   2.320   1.287   1.597 -1.1825 -1.6150  1.3320
 4619SOL     OW25489   3.233   4.253  13.476  0.1363  0.1871 -0.4678
 4619SOL    HW125490   3.313   4.231  13.429  0.9808  0.5294  0.8115
 4619SOL    HW225491   3.179   4.173  13.473 -1.4724  1.2462  0.4966
 4620SOL     OW25492   3.102   2.390   7.823 -0.3725  0.1192 -0.0911
 4620SOL    HW125493   3.014   2.385   7.785 -0.4547 -2.2043  0.4004
 4620SOL    HW225494   3.101   2.340   7.904 -0.2746  2.4710  1.3689
 4621SOL     OW25495   3.584   0.784  10.943  0.2689 -0.1329 -0.1912
 4621SOL    HW125496   3.504   0.733  10.945 -0.2319  0.6501 -0.3694
 4621SOL    HW225497   3.562   0.865  10.897  0.0886  0.9230  1.7777
 4622SOL     OW25498   4.364   3.769   2.224 -0.2243  0.1271 -0.2276
 4622SOL    HW125499   4.302   3.839   2.245 -1.5013 -1.3397  0.8971
 4622SOL    HW225500   4.409   3.805   2.148 -0.8709 -0.1175 -0.7221
 4623SOL     OW25501   4.671   3.073   0.201 -0.1195  0.6375  1.1954
 4623SOL    HW125502   4.694   3.018   0.126 -1.5179  1.2182  0.3491
 4623SOL    HW225503   4.635   3.150   0.156  0.9093  2.1858  3.0382
 4624SOL     OW25504   2.331   3.381   4.213 -0.1097 -0.1227  0.1833
 4624SOL    HW125505   2.286   3.429   4.144 -0.9114 -1.3288 -0.1219
 4624SOL    HW225506   2.289   3.295   4.212 -0.9192  0.2792  0.1804
 4625SOL     OW25507   4.632   3.657  10.607 -0.1693  0.5618 -0.1536
 4625SOL    HW125508   4.565   3.610  10.557  1.4914 -2.6952  0.6683
 4625SOL    HW225509   4.674   3.587  10.658  0.4244 -0.1215 -1.5743
 4626SOL     OW25510   2.456   4.415   3.039  0.6252 -0.6282  0.3903
 4626SOL    HW125511   2.428   4.493   3.087 -1.5159  0.0341 -1.9474
 4626SOL    HW225512   2.534   4.442   2.991  0.1357 -1.1784 -0.7178
 4627SOL     OW25513   3.429   0.928   1.684 -0.5086  0.4415 -0.1458
 4627SOL    HW125514   3.371   0.961   1.616 -1.7254  0.4184  0.8820
 4627SOL    HW225515   3.509   0.910   1.634 -2.3729 -0.9295 -2.6022
 4628SOL     OW25516   1.129   4.629   6.003 -0.1301  0.0022  0.4286
 4628SOL    HW125517   1.083   4.562   5.954 -0.5511  0.2079  0.5406
 4628SOL    HW225518   1.061   4.695   6.021 -0.4936 -0.2160 -0.1548
 4629SOL     OW25519   2.210   1.224   6.561  0.3890  0.2842  0.1028
 4629SOL    HW125520   2.240   1.196   6.648  2.8566 -0.6779 -1.0331
 4629SOL    HW225521   2.216   1.317   6.583 -0.9293  0.8127 -1.8386
 4630SOL     OW25522   3.789   1.972   2.159 -0.2540  0.3461 -0.2095
 4630SOL    HW125523   3.850   2.033   2.199 -0.8151  0.0749  1.0720
 4630SOL    HW225524   3.706   2.005   2.194 -0.0052  1.3100 -0.5196
 4631SOL     OW25525   0.154   0.040   7.593 -0.4630 -0.6421  0.3047
 4631SOL    HW125526   0.072   0.016   7.635 -1.0480  0.7319 -0.0599
 4631SOL    HW225527   0.131   0.111   7.534  0.3958  0.2211  1.0129
 4632SOL     OW25528   3.563   2.082   2.432 -0.1876  0.2758 -0.5648
 4632SOL    HW125529   3.599   2.170   2.435  0.2182  0.1321 -1.2671
 4632SOL    HW225530   3.554   2.060   2.524 -0.0255 -0.3404 -0.6993
 4633SOL     OW25531   0.691   4.278   2.768  0.2028 -0.3974 -0.2782
 4633SOL    HW125532   0.640   4.237   2.698 -0.4849 -0.8033  0.4492
 4633SOL    HW225533   0.782   4.287   2.743  0.1603 -1.0638 -0.6745
 4634SOL     OW25534   3.688   3.293   4.915  0.0361  0.0207  0.6809
 4634SOL    HW125535   3.669   3.312   5.007 -0.1734  2.0819  0.2300
 4634SOL    HW225536   3.690   3.198   4.917 -0.6817  0.0411  1.8469
 4635SOL     OW25537   0.067   4.090  11.402  0.0003  0.1638  0.0929
 4635SOL    HW125538   0.035   4.091  11.493  1.3408  0.0517  0.5697
 4635SOL    HW225539   4.722   4.085  11.352  0.1064 -1.4971  0.1022
 4636SOL     OW25540   3.543   0.244   7.433 -0.1545  0.0337 -0.0862
 4636SOL    HW125541   3.598   0.214   7.505 -0.5452 -0.0274  0.1846
 4636SOL    HW225542   3.462   0.195   7.447 -0.3622  0.3702 -0.1111
 4637SOL     OW25543   2.601   3.901   4.668 -0.0170  0.5693 -0.4852
 4637SOL    HW125544   2.544   3.882   4.742  1.0525  0.1012  0.2230
 4637SOL    HW225545   2.687   3.919   4.706  0.2572 -0.1036 -0.7691
 4638SOL     OW25546   0.834   0.208   2.722  0.9088  0.3414  0.0834
 4638SOL    HW125547   0.817   0.162   2.640  2.9751  0.7075 -0.5652
 4638SOL    HW225548   0.799   0.296   2.704  0.2441  0.2469  0.9514
 4639SOL     OW25549   3.962   0.369   8.129  0.7583  0.4627 -0.6586
 4639SOL    HW125550   4.037   0.403   8.178  0.9367  0.9229 -1.2485
 4639SOL    HW225551   3.966   0.427   8.053  0.8032  0.3156 -0.7695
 4640SOL     OW25552   1.689   2.180   8.136 -0.1467  0.5388 -0.0706
 4640SOL    HW125553   1.664   2.226   8.216  1.0824  2.7671 -0.9766
 4640SOL    HW225554   1.606   2.138   8.113 -0.5487 -0.2216  2.7158
 4641SOL     OW25555   1.655   0.685   8.360 -0.1807  0.0781  0.4664
 4641SOL    HW125556   1.608   0.762   8.328 -0.9187 -0.8053 -0.5475
 4641SOL    HW225557   1.649   0.695   8.455 -0.1527  2.4920  0.2132
 4642SOL     OW25558   0.797   2.056  13.364  0.5261  0.3534 -0.0968
 4642SOL    HW125559   0.862   2.055  13.435  0.8412  0.7199 -0.3808
 4642SOL    HW225560   0.733   2.116  13.403 -0.9746 -0.6267 -1.0446
 4643SOL     OW25561   0.971   3.823   3.930 -0.3378  0.0578 -0.7083
 4643SOL    HW125562   0.967   3.919   3.924 -0.9284 -0.0401 -1.8217
 4643SOL    HW225563   1.039   3.799   3.867 -2.0738 -2.0230 -1.7607
 4644SOL     OW25564   2.778   4.114   9.132  0.6043 -0.0765  0.0047
 4644SOL    HW125565   2.810   4.120   9.042  0.7172  1.9897  0.1798
 4644SOL    HW225566   2.765   4.022   9.153  1.5036 -0.2024  0.0163
 4645SOL     OW25567   2.635   1.349  13.365 -0.7839  0.0058  0.1006
 4645SOL    HW125568   2.701   1.416  13.385  2.5725 -3.2680 -0.0630
 4645SOL    HW225569   2.690   1.271  13.371  0.7705  1.0349 -0.5881
 4646SOL     OW25570   2.205   2.278  11.096  0.1100  1.7744  0.3971
 4646SOL    HW125571   2.127   2.223  11.092  1.2594  0.1406  0.5265
 4646SOL    HW225572   2.209   2.271  11.192 -1.4655  1.2113  0.4204
 4647SOL     OW25573   4.086   2.685   1.475  0.1688  0.2081 -0.3675
 4647SOL    HW125574   4.142   2.715   1.404  1.1559 -0.6781  0.0465
 4647SOL    HW225575   4.002   2.718   1.443  1.0054 -0.6871 -3.4922
 4648SOL     OW25576   2.178   3.380  12.831  0.2893  0.2279 -0.3209
 4648SOL    HW125577   2.098   3.327  12.829 -0.1406  0.8226  1.4494
 4648SOL    HW225578   2.186   3.399  12.737 -1.6314 -0.2116 -0.5770
 4649SOL     OW25579   4.556   2.322   6.468  0.1750  0.3313  0.0107
 4649SOL    HW125580   4.509   2.405   6.472  0.0453  0.2004  1.4500
 4649SOL    HW225581   4.645   2.359   6.467  1.6127 -3.2454 -2.1984
 4650SOL     OW25582   3.887   2.228   5.012  0.0889 -0.5400  0.6985
 4650SOL    HW125583   3.829   2.168   5.058 -0.9045  0.4667  0.7304
 4650SOL    HW225584   3.829   2.255   4.941  0.9839  2.3435  1.0661
 4651SOL     OW25585   3.969   1.997   9.236 -0.0753 -0.1712 -0.0814
 4651SOL    HW125586   3.953   1.971   9.146  0.4579  0.5407 -0.3740
 4651SOL    HW225587   3.900   1.953   9.286  0.7670 -1.4442 -0.0320
 4652SOL     OW25588   0.846   0.493   7.072 -0.3709  0.2624  0.7071
 4652SOL    HW125589   0.772   0.551   7.093 -0.6427 -0.3091  1.3554
 4652SOL    HW225590   0.837   0.415   7.127 -0.2181  0.4604  1.0181
 4653SOL     OW25591   3.469   3.485   1.065 -0.1584  0.4238 -0.3686
 4653SOL    HW125592   3.508   3.514   1.147 -0.6921  0.7065 -0.2164
 4653SOL    HW225593   3.486   3.556   1.004 -0.7549  0.0496 -0.9832
 4654SOL     OW25594   2.853   1.585   6.671  0.1557  0.1603 -0.1623
 4654SOL    HW125595   2.908   1.640   6.614 -1.2018  1.4790 -0.1866
 4654SOL    HW225596   2.765   1.611   6.646  0.9050  1.6701 -1.2447
 4655SOL     OW25597   1.477   0.377   7.048  0.3819 -0.3648  0.0095
 4655SOL    HW125598   1.465   0.367   7.142  2.7155  1.9571  0.5507
 4655SOL    HW225599   1.389   0.353   7.018 -0.0008  1.3160 -0.2394
 4656SOL     OW25600   0.516   2.636  10.898  0.2166  0.6941  0.0647
 4656SOL    HW125601   0.486   2.575  10.831  0.5345  0.6558 -0.0393
 4656SOL    HW225602   0.477   2.596  10.976  1.2415 -1.4143 -0.5005
 4657SOL     OW25603   3.350   3.482   8.166 -0.5765  0.4882 -0.2082
 4657SOL    HW125604   3.291   3.412   8.138  0.6616 -0.4537 -0.4620
 4657SOL    HW225605   3.299   3.561   8.144 -0.1208  0.6593 -0.6483
 4658SOL     OW25606   0.718   0.545  10.931 -0.0843  0.1443 -0.4586
 4658SOL    HW125607   0.773   0.602  10.985  1.0817 -0.6777 -0.7808
 4658SOL    HW225608   0.655   0.609  10.899  0.3088  0.4697 -0.5776
 4659SOL     OW25609   1.516   0.103   4.355 -0.0882 -0.0703 -0.2486
 4659SOL    HW125610   1.606   0.075   4.343 -0.4369 -0.3364 -2.2349
 4659SOL    HW225611   1.479   0.015   4.345  2.2786 -0.8491 -1.9877
 4660SOL     OW25612   3.914   0.700  11.367 -0.8401 -0.2642 -0.8206
 4660SOL    HW125613   3.871   0.627  11.411  0.4540 -1.4370 -1.4688
 4660SOL    HW225614   4.003   0.681  11.397 -0.7905  0.4538 -0.5260
 4661SOL     OW25615   4.730   2.018   7.836  0.0467 -0.1492 -0.1681
 4661SOL    HW125616   4.729   1.988   7.745  1.3589  2.8875 -1.1752
 4661SOL    HW225617   0.086   2.016   7.863  0.7530  1.4969 -2.4400
 4662SOL     OW25618   0.362   1.505   4.668 -0.3667 -0.3312 -0.0786
 4662SOL    HW125619   0.301   1.568   4.629  1.0984  0.5133 -0.9962
 4662SOL    HW225620   0.297   1.442   4.699  1.4737 -2.2931 -0.2457
 4663SOL     OW25621   4.546   2.850   5.009  0.2515  0.1975 -0.0663
 4663SOL    HW125622   4.564   2.798   5.087  1.9863  0.0662 -0.5622
 4663SOL    HW225623   4.477   2.907   5.045 -2.1203 -1.0008 -2.7270
 4664SOL     OW25624   2.141   2.303   1.557  0.4109 -0.5746  0.2235
 4664SOL    HW125625   2.150   2.226   1.502  0.8177 -1.3848  1.4290
 4664SOL    HW225626   2.230   2.332   1.574 -0.5682  0.9053  2.7857
 4665SOL     OW25627   4.151   2.582   6.345  0.1821  0.0047 -0.1754
 4665SOL    HW125628   4.078   2.551   6.291  0.3865  2.1537 -1.6588
 4665SOL    HW225629   4.185   2.646   6.283  3.0791  0.0164  1.4159
 4666SOL     OW25630   2.283   3.120   5.872  0.3938  0.1332  0.2904
 4666SOL    HW125631   2.303   3.136   5.964  0.7469  0.4742  0.1532
 4666SOL    HW225632   2.345   3.050   5.847  0.5701  1.3356 -2.5694
 4667SOL     OW25633   3.658   0.788   6.608 -0.2444  0.1488  0.3042
 4667SOL    HW125634   3.723   0.858   6.617  0.3351 -0.1039 -1.9011
 4667SOL    HW225635   3.708   0.707   6.617 -0.2649  0.1157  0.1303
 4668SOL     OW25636   3.153   4.344   0.713 -0.0985 -0.5966  0.3927
 4668SOL    HW125637   3.222   4.281   0.691  1.5583  0.8181  1.5382
 4668SOL    HW225638   3.117   4.349   0.625  0.6330 -2.3484 -0.0240
 4669SOL     OW25639   1.085   4.054   6.382  0.6601  1.1088  0.7308
 4669SOL    HW125640   0.997   4.018   6.370  0.8433  0.1101  2.3494
 4669SOL    HW225641   1.069   4.131   6.437 -2.5178  0.2720  0.9885
 4670SOL     OW25642   0.331   4.429   2.786  0.4114 -0.3961 -0.2705
 4670SOL    HW125643   0.412   4.479   2.784  0.4799 -0.5095 -0.3469
 4670SOL    HW225644   0.297   4.440   2.697  0.6439 -1.6360 -0.5127
 4671SOL     OW25645   3.926   4.643  12.554 -0.1576 -0.1179  0.2530
 4671SOL    HW125646   3.944   4.720  12.500 -0.7414 -0.1107  0.0744
 4671SOL    HW225647   3.994   4.582  12.524 -0.7362  0.1320 -1.5431
 4672SOL     OW25648   2.136   1.164   7.306 -1.1651 -0.0361 -0.0453
 4672SOL    HW125649   2.053   1.134   7.343 -3.2028  4.3182 -1.0437
 4672SOL    HW225650   2.201   1.106   7.345  0.0569  0.5149 -1.2951
 4673SOL     OW25651   3.140   0.711  12.086  0.0254  0.3042  0.0636
 4673SOL    HW125652   3.096   0.734  12.167 -0.3366  3.4758 -1.0340
 4673SOL    HW225653   3.174   0.796  12.061 -0.8983  0.6098 -0.1561
 4674SOL     OW25654   3.427   0.118  15.399  0.5733  0.0684  0.8799
 4674SOL    HW125655   3.516   0.091  15.377 -0.4164 -0.1645 -2.7254
 4674SOL    HW225656   3.387   0.085  15.319  2.1118  2.2541 -0.8106
 4675SOL     OW25657   0.552   3.267   7.186 -0.0163 -0.5314  0.2026
 4675SOL    HW125658   0.619   3.199   7.182  0.1018 -0.3493 -1.1227
 4675SOL    HW225659   0.535   3.255   7.279  1.3686 -0.4179  0.4738
 4676SOL     OW25660   0.160   3.763   4.190 -0.3507  0.0044 -0.4228
 4676SOL    HW125661   0.176   3.808   4.107  0.6097 -1.0321 -0.7975
 4676SOL    HW225662   0.108   3.819   4.248  0.3270  1.4694 -1.2414
 4677SOL     OW25663   0.927   3.738   2.066  0.2959  0.0874  0.2726
 4677SOL    HW125664   0.913   3.767   1.976 -1.0494 -1.0689  0.1054
 4677SOL    HW225665   0.999   3.677   2.048  0.7176  0.7311 -0.2056
 4678SOL     OW25666   0.377   3.855   2.064 -0.1062  0.3035  0.2621
 4678SOL    HW125667   0.382   3.949   2.046 -0.6249  0.3857  0.5535
 4678SOL    HW225668   0.468   3.832   2.049 -0.2869 -0.2373 -0.0408
 4679SOL     OW25669   2.643   3.384  12.501 -0.1427  0.3339 -0.5655
 4679SOL    HW125670   2.649   3.441  12.577 -2.2501  1.4342 -1.2208
 4679SOL    HW225671   2.581   3.316  12.528  1.6552 -1.0307  0.1239
 4680SOL     OW25672   0.430   0.449  10.191  0.3232  0.5019  0.4854
 4680SOL    HW125673   0.344   0.460  10.150  1.0227  0.6937 -0.8973
 4680SOL    HW225674   0.407   0.393  10.265  1.3602 -0.6920 -0.0975
 4681SOL     OW25675   2.247   3.279   8.880  1.2274  0.0145 -0.6700
 4681SOL    HW125676   2.230   3.373   8.872  1.3534  0.2524  1.8976
 4681SOL    HW225677   2.242   3.241   8.792  1.7006 -1.9490  0.1556
 4682SOL     OW25678   2.833   1.433   0.581  0.3390  0.4296 -0.3648
 4682SOL    HW125679   2.778   1.495   0.629 -1.2620 -0.3992 -1.1355
 4682SOL    HW225680   2.835   1.472   0.494 -1.3980 -0.4833 -0.8170
 4683SOL     OW25681   1.400   1.532   3.196 -0.4989  0.1877 -0.1085
 4683SOL    HW125682   1.365   1.615   3.227  2.0460  1.2487 -0.1219
 4683SOL    HW225683   1.458   1.559   3.125 -0.1317 -0.3038  0.0004
 4684SOL     OW25684   3.716   2.448   1.632 -0.0586  0.3784  0.4601
 4684SOL    HW125685   3.636   2.442   1.685  0.3690 -2.8579  0.7395
 4684SOL    HW225686   3.705   2.365   1.586 -0.5544  1.5262 -1.4679
 4685SOL     OW25687   4.175   3.001   7.170 -0.5148 -0.6760 -0.4372
 4685SOL    HW125688   4.111   3.027   7.104 -1.3874  2.2033  1.5428
 4685SOL    HW225689   4.124   3.015   7.250  1.2458  1.1953  0.3579
 4686SOL     OW25690   0.903   0.342  16.992 -0.3583  0.6830  0.0970
 4686SOL    HW125691   0.848   0.268  16.968 -2.1455  1.6677  1.1074
 4686SOL    HW225692   0.969   0.346  16.923 -1.4916  0.7579 -0.9789
 4687SOL     OW25693   1.106   2.522   2.694  0.4743  0.1158 -0.7192
 4687SOL    HW125694   1.071   2.433   2.695 -0.7378  0.6091 -0.0068
 4687SOL    HW225695   1.159   2.532   2.773 -2.4437  2.8247  0.8706
 4688SOL     OW25696   4.589   2.798   3.755 -0.4276 -0.0461 -0.6763
 4688SOL    HW125697   4.653   2.801   3.826 -0.1441  1.6911 -0.9935
 4688SOL    HW225698   4.577   2.892   3.740  0.2810  0.4822  2.0721
 4689SOL     OW25699   0.539   2.508   3.126 -0.4996 -0.1227 -0.5391
 4689SOL    HW125700   0.598   2.582   3.109 -0.9352  0.2922 -0.2431
 4689SOL    HW225701   0.471   2.539   3.065 -0.2563  0.9162 -0.2712
 4690SOL     OW25702   1.866   2.429   2.833  0.1485  0.3232  0.1365
 4690SOL    HW125703   1.869   2.462   2.743 -0.4611  1.8447  0.6714
 4690SOL    HW225704   1.775   2.396   2.835 -0.7646  2.6037 -3.4541
 4691SOL     OW25705   1.861   1.532   5.235 -0.2031  0.3354 -0.2373
 4691SOL    HW125706   1.768   1.538   5.260  0.6003 -2.1365  3.3440
 4691SOL    HW225707   1.856   1.469   5.164 -2.9461  0.5941 -0.2998
 4692SOL     OW25708   4.554   1.902  10.546  0.5738 -0.3447 -0.4780
 4692SOL    HW125709   4.482   1.893  10.608  0.8559  2.0523  0.2094
 4692SOL    HW225710   4.633   1.928  10.594 -0.0600  0.2665  0.2348
 4693SOL     OW25711   3.553   2.251   7.767  0.2644  0.0403  0.1875
 4693SOL    HW125712   3.584   2.249   7.858  0.1855  1.0798  0.2404
 4693SOL    HW225713   3.470   2.206   7.781 -0.8160  1.4403 -1.7846
 4694SOL     OW25714   2.642   0.631  13.802 -0.0878  0.0154  0.1606
 4694SOL    HW125715   2.564   0.582  13.776  1.1425 -0.6954 -2.2176
 4694SOL    HW225716   2.688   0.556  13.839  0.5448 -0.1040 -0.8511
 4695SOL     OW25717   4.655   3.665  16.819 -0.3432  0.2269  0.2334
 4695SOL    HW125718   4.577   3.610  16.829  0.5714 -1.0128  0.4620
 4695SOL    HW225719   4.627   3.742  16.868 -1.1472  1.3300 -1.9344
 4696SOL     OW25720   0.618   4.588  17.709  0.2087  0.3410 -0.1060
 4696SOL    HW125721   0.678   4.532   0.016 -1.0522 -1.8009 -1.0239
 4696SOL    HW225722   0.535   4.572   0.012  0.8881 -0.5390  0.8439
 4697SOL     OW25723   2.840   1.533   1.982  0.0557 -0.0170 -0.0479
 4697SOL    HW125724   2.920   1.585   1.980  0.5750 -0.6761  3.0999
 4697SOL    HW225725   2.779   1.607   1.977  1.1234  0.9759  1.6884
 4698SOL     OW25726   4.445   3.370   3.794  0.2376 -0.4863 -0.5072
 4698SOL    HW125727   4.441   3.392   3.887 -0.1956 -1.4312 -0.3094
 4698SOL    HW225728   4.357   3.353   3.762 -0.8321  0.9982  1.7016
 4699SOL     OW25729   0.731   0.177  13.711  0.0175  0.4120  0.4440
 4699SOL    HW125730   0.637   0.195  13.716  0.2229  1.7191 -0.2840
 4699SOL    HW225731   0.740   0.120  13.787  0.6352 -1.8109 -1.3185
 4700SOL     OW25732   0.418   1.535   5.952 -0.1732 -0.7679 -0.3034
 4700SOL    HW125733   0.405   1.459   6.009 -1.5596 -0.2936  0.0069
 4700SOL    HW225734   0.415   1.607   6.015 -1.2699  0.0660 -1.3229
 4701SOL     OW25735   1.278   2.346   1.895  0.0490  0.7730  0.2461
 4701SOL    HW125736   1.302   2.256   1.918 -0.4485  1.0952  2.0026
 4701SOL    HW225737   1.261   2.385   1.981  0.4254  1.2212  0.1162
 4702SOL     OW25738   0.659   3.757   5.428 -0.2465 -0.0520  0.3799
 4702SOL    HW125739   0.602   3.790   5.358  1.3160  2.0474  0.1189
 4702SOL    HW225740   0.647   3.834   5.483 -0.3738 -0.5047  0.9803
 4703SOL     OW25741   1.538   3.184   2.344 -0.5121 -0.1736 -0.2213
 4703SOL    HW125742   1.557   3.123   2.273 -1.5232 -2.2637  1.2917
 4703SOL    HW225743   1.629   3.198   2.372 -1.5661  1.3970  2.4632
 4704SOL     OW25744   0.606   4.417   7.019  0.7768 -0.4083  0.0164
 4704SOL    HW125745   0.689   4.414   7.067  1.3588 -0.1204 -0.9788
 4704SOL    HW225746   0.592   4.329   6.985 -1.5960  0.3300 -0.8785
 4705SOL     OW25747   2.669   1.696   3.906  0.1773  0.4501  0.4810
 4705SOL    HW125748   2.655   1.780   3.949  0.6896  1.7094 -1.8419
 4705SOL    HW225749   2.621   1.647   3.973  1.0265 -1.4964 -0.3519
 4706SOL     OW25750   1.899   0.401   4.545 -0.2002 -0.0390 -0.0025
 4706SOL    HW125751   1.822   0.458   4.548  2.0106  2.9930 -0.8846
 4706SOL    HW225752   1.970   0.465   4.553  0.6675 -0.9575 -0.2264
 4707SOL     OW25753   0.477   2.939   8.047 -0.3430  0.4567 -0.1097
 4707SOL    HW125754   0.429   2.903   8.122  0.8471 -0.5861  0.1452
 4707SOL    HW225755   0.558   2.965   8.091  0.3775 -2.3537  0.2378
 4708SOL     OW25756   0.740   1.536   0.021 -0.1932  0.0740 -0.9755
 4708SOL    HW125757   0.800   1.606  17.736  2.9195 -1.6336  1.4919
 4708SOL    HW225758   0.804   1.465   0.015 -0.5125 -0.4747  1.9939
 4709SOL     OW25759   2.499   2.333   5.755 -0.0416 -0.0362 -0.1896
 4709SOL    HW125760   2.553   2.272   5.805  3.1281  2.1594 -0.8829
 4709SOL    HW225761   2.426   2.278   5.726  1.3670 -2.1371  0.2653
 4710SOL     OW25762   2.167   3.043   7.423 -0.5511 -0.0207  0.0323
 4710SOL    HW125763   2.162   3.096   7.343  0.1714  1.3823  0.9195
 4710SOL    HW225764   2.177   3.103   7.497  0.8032 -0.1077 -0.0780
 4711SOL     OW25765   0.631   0.371   9.017 -0.0488  0.0144  0.4684
 4711SOL    HW125766   0.620   0.465   9.000 -1.4015 -0.4313 -1.1100
 4711SOL    HW225767   0.723   0.367   8.990 -0.0538 -0.8534  0.5841
 4712SOL     OW25768   2.586   0.429   8.109  0.8406 -0.2225 -0.6412
 4712SOL    HW125769   2.558   0.356   8.164  0.0000  0.1557 -0.5699
 4712SOL    HW225770   2.506   0.453   8.062 -0.9189 -2.7704  1.0149
 4713SOL     OW25771   3.933   2.076   3.155 -0.5926  0.3737  0.5934
 4713SOL    HW125772   3.994   2.089   3.227  1.5664 -0.2149 -1.1364
 4713SOL    HW225773   3.938   2.162   3.113 -1.5297  0.0286 -0.2321
 4714SOL     OW25774   1.577   0.896   3.571  0.3760  0.3428  0.5626
 4714SOL    HW125775   1.541   0.934   3.491  0.8255 -0.8802 -0.2230
 4714SOL    HW225776   1.506   0.848   3.613  0.0536 -1.0605 -1.5249
 4715SOL     OW25777   2.400   0.625   2.756  0.1544  0.4223  0.2495
 4715SOL    HW125778   2.407   0.573   2.836  0.5862 -0.6572 -0.4961
 4715SOL    HW225779   2.404   0.713   2.793  1.4667  0.3293  0.3187
 4716SOL     OW25780   4.536   3.114   1.568  0.8956 -0.1232  0.3156
 4716SOL    HW125781   4.586   3.033   1.567  1.0259 -0.0965  3.6097
 4716SOL    HW225782   4.602   3.176   1.600  3.0357 -2.2395 -0.0476
 4717SOL     OW25783   1.600   4.179  10.718  1.1038  0.2047 -0.3094
 4717SOL    HW125784   1.608   4.085  10.732  0.6206  0.6265  2.8039
 4717SOL    HW225785   1.511   4.186  10.683  0.9209 -0.5500  0.0158
 4718SOL     OW25786   1.960   1.937  15.795 -0.7238 -0.0637 -0.3626
 4718SOL    HW125787   1.872   1.945  15.833 -0.8950 -4.3090  0.1156
 4718SOL    HW225788   1.978   1.843  15.794 -0.6122 -0.0359 -0.9479
 4719SOL     OW25789   0.921   1.680   2.523  0.5410  0.1752  0.1564
 4719SOL    HW125790   0.902   1.608   2.464  1.7121  0.1883 -0.2417
 4719SOL    HW225791   0.837   1.681   2.569 -0.4721 -0.0056 -1.6967
 4720SOL     OW25792   1.096   3.397   7.501  0.0727 -0.0656  0.3541
 4720SOL    HW125793   1.093   3.338   7.426  1.0517  1.1900 -0.6767
 4720SOL    HW225794   1.026   3.460   7.484 -0.9529 -0.9658  1.2796
 4721SOL     OW25795   3.162   1.381   1.620  0.4420 -0.0747  0.2191
 4721SOL    HW125796   3.069   1.388   1.641  0.1914 -1.4073 -0.4310
 4721SOL    HW225797   3.162   1.366   1.525 -2.1529 -1.3382  0.4044
 4722SOL     OW25798   1.216   4.397   4.091 -0.4813 -0.5300  0.4901
 4722SOL    HW125799   1.165   4.407   4.172  0.3642  1.2558  0.8118
 4722SOL    HW225800   1.270   4.476   4.092  3.0573 -2.9496 -1.0609
 4723SOL     OW25801   2.518   3.297   6.785 -0.3941  0.1960  0.0964
 4723SOL    HW125802   2.584   3.356   6.822  1.2289 -2.0245  0.8173
 4723SOL    HW225803   2.439   3.349   6.794  0.0805  0.9619 -0.1433
 4724SOL     OW25804   1.520   0.074  17.668  0.3009  0.0203 -0.2736
 4724SOL    HW125805   1.609   0.084  17.632  0.1637  0.1246 -0.5865
 4724SOL    HW225806   1.527   0.011  17.740 -2.5092  2.5188  2.1590
 4725SOL     OW25807   4.001   0.658   9.027 -0.6650  0.6694 -0.2858
 4725SOL    HW125808   3.939   0.714   9.074 -1.8475 -1.1566  0.3481
 4725SOL    HW225809   3.998   0.580   9.084 -0.0119  1.8126  1.3267
 4726SOL     OW25810   1.368   3.069   1.777 -0.1173  0.1666 -0.1448
 4726SOL    HW125811   1.406   3.146   1.733  0.8478 -0.6823 -0.8095
 4726SOL    HW225812   1.343   3.108   1.860  0.8092  0.5168 -0.0290
 4727SOL     OW25813   2.175   4.031   4.878  0.2551 -0.6029 -0.4140
 4727SOL    HW125814   2.093   4.075   4.902  0.7847  1.2320 -1.9893
 4727SOL    HW225815   2.235   4.090   4.924  0.1646 -0.2111 -0.8074
 4728SOL     OW25816   4.325   4.555   4.444  0.1599  0.2408 -0.8505
 4728SOL    HW125817   4.269   4.535   4.369 -1.1465 -0.9462  0.4247
 4728SOL    HW225818   4.343   4.648   4.428 -0.3464  0.6632  1.0033
 4729SOL     OW25819   2.134   3.971  14.751  0.0070  0.5795  0.3213
 4729SOL    HW125820   2.136   4.016  14.666 -2.1520 -1.1206 -0.6207
 4729SOL    HW225821   2.116   3.883  14.717 -1.0309 -0.6266  4.0503
 4730SOL     OW25822   1.476   2.085   5.304  0.0996  0.1745  0.0811
 4730SOL    HW125823   1.401   2.097   5.363  0.4431  0.2459  0.5012
 4730SOL    HW225824   1.553   2.085   5.361  0.2556 -1.2457 -0.1477
 4731SOL     OW25825   3.095   4.334   1.237  0.4310  0.9108 -0.0388
 4731SOL    HW125826   3.056   4.401   1.293  0.4666  0.6204  0.3318
 4731SOL    HW225827   3.066   4.256   1.284 -0.3402  1.3575  0.2193
 4732SOL     OW25828   0.329   0.737   1.688 -0.4750  0.6864  0.0685
 4732SOL    HW125829   0.284   0.725   1.604  2.6771  0.7698 -1.5994
 4732SOL    HW225830   0.258   0.712   1.747 -1.0025 -1.6707 -1.5236
 4733SOL     OW25831   3.267   1.672  12.491 -0.0817 -0.6439 -0.2977
 4733SOL    HW125832   3.284   1.581  12.470  1.2399 -0.4480 -0.1216
 4733SOL    HW225833   3.278   1.664  12.586  2.0826 -0.6224 -0.5368
 4734SOL     OW25834   0.329   4.717   3.393  0.0975 -0.2294  0.6197
 4734SOL    HW125835   0.356   4.625   3.391  1.3772  0.1257  1.6257
 4734SOL    HW225836   0.411   0.027   3.371  0.9693 -1.6185  0.9631
 4735SOL     OW25837   4.255   0.327  12.379  0.2803  0.1667 -0.0920
 4735SOL    HW125838   4.341   0.300  12.410 -0.2254 -0.8958  0.3629
 4735SOL    HW225839   4.260   0.305  12.286 -0.6244 -2.5428  0.5005
 4736SOL     OW25840   2.099   1.575   3.322 -0.1974  0.0754  0.3705
 4736SOL    HW125841   2.015   1.539   3.351  0.4074 -0.2569  1.6622
 4736SOL    HW225842   2.074   1.594   3.231 -1.6310 -0.6062  0.6118
 4737SOL     OW25843   2.910   0.909   6.334  0.4837 -0.7111 -0.4474
 4737SOL    HW125844   2.943   0.971   6.270  2.4738 -2.3586 -1.0241
 4737SOL    HW225845   2.964   0.831   6.322  0.2656 -0.7102 -1.4271
 4738SOL     OW25846   4.396   0.195  14.286 -0.1974  0.2779 -0.2850
 4738SOL    HW125847   4.354   0.125  14.335  1.1392  0.6560  1.3924
 4738SOL    HW225848   4.320   0.215  14.230 -1.9274 -0.6504  1.7609
 4739SOL     OW25849   3.914   2.432  12.097  0.0251  0.2663 -0.1279
 4739SOL    HW125850   3.973   2.496  12.057  0.1906  0.4691  0.4499
 4739SOL    HW225851   3.952   2.353  12.058 -1.2978  0.2738 -1.4320
 4740SOL     OW25852   2.505   3.269   1.732 -0.0876 -0.1164 -0.2857
 4740SOL    HW125853   2.430   3.326   1.713  0.5414  0.7444 -0.1709
 4740SOL    HW225854   2.455   3.204   1.782  1.2062 -0.5085  0.4945
 4741SOL     OW25855   2.083   4.317  17.046  0.6119  0.0478 -0.1335
 4741SOL    HW125856   2.141   4.244  17.067  0.1224 -0.1359  0.5886
 4741SOL    HW225857   2.047   4.286  16.963 -1.0991 -1.2271  1.0863
 4742SOL     OW25858   0.847   2.764   2.997 -0.7890 -0.5536 -0.2823
 4742SOL    HW125859   0.917   2.702   3.021 -1.9289 -1.3882  0.9009
 4742SOL    HW225860   0.860   2.758   2.902  1.4205 -0.9185  0.0447
 4743SOL     OW25861   2.446   0.127   0.483 -0.0278 -0.4124 -0.2968
 4743SOL    HW125862   2.369   0.077   0.452 -0.2947  0.2101 -0.6410
 4743SOL    HW225863   2.527   0.077   0.477 -0.0555 -0.4833 -0.0605
 4744SOL     OW25864   1.820   4.198   3.801  0.3983  0.6173  0.3147
 4744SOL    HW125865   1.843   4.125   3.744  0.5491  0.6999  0.2711
 4744SOL    HW225866   1.760   4.253   3.750 -0.7237 -0.3493  0.6006
 4745SOL     OW25867   3.107   2.845   7.556  0.0004 -0.6029 -0.3292
 4745SOL    HW125868   3.048   2.795   7.499 -0.1822 -0.5602 -0.1779
 4745SOL    HW225869   3.106   2.801   7.641 -0.1674 -2.0778 -1.0834
 4746SOL     OW25870   2.042   1.820   3.679 -0.0101 -0.2660 -0.8019
 4746SOL    HW125871   1.977   1.818   3.609 -0.8416  0.3366 -0.0531
 4746SOL    HW225872   2.033   1.727   3.698  1.0664 -0.6733 -2.2716
 4747SOL     OW25873   1.960   3.411  15.245  0.2973  0.1796 -0.9388
 4747SOL    HW125874   1.905   3.489  15.253 -0.0007  0.0519 -1.6529
 4747SOL    HW225875   2.032   3.456  15.200  1.0522  1.6214  1.7490
 4748SOL     OW25876   2.354   1.475   3.536 -0.0274 -0.3689  0.5952
 4748SOL    HW125877   2.294   1.543   3.504  0.3501 -0.7432 -0.8829
 4748SOL    HW225878   2.321   1.462   3.625 -0.3469 -0.4148  0.4697
 4749SOL     OW25879   1.645   4.200   8.497  0.5156  0.7011 -1.0712
 4749SOL    HW125880   1.708   4.188   8.426  1.8913 -0.6378  0.3733
 4749SOL    HW225881   1.690   4.159   8.571 -2.9963 -0.9621  0.1463
 4750SOL     OW25882   3.981   3.096   4.604  0.2475 -0.0712  0.4326
 4750SOL    HW125883   3.899   3.112   4.557  0.5818  1.0592  0.2308
 4750SOL    HW225884   3.973   3.167   4.668  2.4529  1.0781 -0.5551
 4751SOL     OW25885   3.040   3.166   3.951 -0.3366 -0.4087 -0.2864
 4751SOL    HW125886   2.973   3.217   3.906  1.4151  0.9202 -1.3913
 4751SOL    HW225887   3.049   3.217   4.032  0.0839  2.4605 -2.1347
 4752SOL     OW25888   0.120   4.002  16.677  0.2460 -0.1495  0.2902
 4752SOL    HW125889   0.087   4.085  16.711  0.7361  0.2339 -0.1543
 4752SOL    HW225890   0.106   3.935  16.744 -1.0145  0.8285  0.9969
 4753SOL     OW25891   4.645   4.505  17.117 -0.2341 -0.3311  0.0728
 4753SOL    HW125892   4.641   4.571  17.187  0.6340  0.1094 -0.3042
 4753SOL    HW225893   4.559   4.528  17.082  0.1856 -2.2707 -2.1697
 4754SOL     OW25894   3.333   0.175   3.270  0.4389 -0.2346 -0.4728
 4754SOL    HW125895   3.335   0.163   3.175  0.7814  2.0373 -0.7645
 4754SOL    HW225896   3.299   0.087   3.287  1.4893 -0.5967 -0.2843
 4755SOL     OW25897   0.145   1.354   2.108 -0.2790 -0.5109  0.1518
 4755SOL    HW125898   0.104   1.268   2.111  0.3619 -0.8249  0.0150
 4755SOL    HW225899   0.215   1.343   2.043 -1.2717 -1.5735 -0.7234
 4756SOL     OW25900   0.388   0.578   8.629 -0.4512 -0.5109  0.8653
 4756SOL    HW125901   0.299   0.603   8.602  0.5403 -0.8582 -2.7957
 4756SOL    HW225902   0.377   0.594   8.722 -2.0064 -2.3776  1.0127
 4757SOL     OW25903   3.441   2.015  12.195 -0.0913 -0.1564 -0.8190
 4757SOL    HW125904   3.369   1.992  12.254  0.9522  0.5922  0.7312
 4757SOL    HW225905   3.475   1.928  12.174 -0.8116 -0.3597 -1.1318
 4758SOL     OW25906   4.729   3.045   9.187  0.2976 -0.0972  0.2603
 4758SOL    HW125907   4.670   2.995   9.242  1.3413  1.2462  2.6054
 4758SOL    HW225908   0.061   3.069   9.249  2.8062  3.8266 -3.9271
 4759SOL     OW25909   4.344   2.651   9.349 -0.0861  0.5413 -0.0037
 4759SOL    HW125910   4.288   2.594   9.401  1.2360 -1.2204 -0.5454
 4759SOL    HW225911   4.393   2.688   9.423  1.1851 -0.7132 -0.2322
 4760SOL     OW25912   4.730   4.206  16.869  0.1046 -0.2133 -0.2222
 4760SOL    HW125913   0.044   4.230  16.948  0.4096  3.6231 -1.5889
 4760SOL    HW225914   4.709   4.291  16.832 -0.1934 -0.0321  0.3701
 4761SOL     OW25915   2.542   3.817   1.323  0.3189 -0.8301  0.4204
 4761SOL    HW125916   2.621   3.807   1.376 -1.2670 -1.5739  2.6546
 4761SOL    HW225917   2.516   3.726   1.308 -0.9103 -0.5197  0.6886
 4762SOL     OW25918   3.206   0.588  11.830  0.5534  0.1069  0.3026
 4762SOL    HW125919   3.154   0.601  11.909 -0.7489  1.3421 -0.7521
 4762SOL    HW225920   3.264   0.516  11.856  0.1007 -0.9282 -1.5339
 4763SOL     OW25921   0.140   2.305  14.351  0.1989 -0.4828  0.0813
 4763SOL    HW125922   0.130   2.341  14.263 -0.1770  0.1009  0.3592
 4763SOL    HW225923   0.224   2.260  14.345  1.5607  2.2705 -1.0874
 4764SOL     OW25924   2.788   3.029   5.593  0.4863 -0.5537  0.0568
 4764SOL    HW125925   2.871   3.033   5.641  0.9797 -0.4022 -0.8232
 4764SOL    HW225926   2.747   2.951   5.631  0.3974  0.4691  2.0662
 4765SOL     OW25927   2.306   1.073   5.599  0.3837  0.3705 -0.2718
 4765SOL    HW125928   2.272   0.984   5.586  2.1592 -0.1194 -1.6016
 4765SOL    HW225929   2.394   1.068   5.562  0.8103 -1.5953  1.0276
 4766SOL     OW25930   4.067   2.686   5.361  0.3038 -0.1960 -0.0495
 4766SOL    HW125931   4.067   2.622   5.290 -0.4132 -0.6874  0.3912
 4766SOL    HW225932   4.134   2.654   5.421  0.0924 -1.9494 -0.7422
 4767SOL     OW25933   3.106   0.307   4.746  0.4479 -0.4797 -0.0166
 4767SOL    HW125934   3.184   0.298   4.802  1.0536 -0.3598 -0.8476
 4767SOL    HW225935   3.055   0.231   4.773 -1.4592  0.7969 -0.0750
 4768SOL     OW25936   1.640   3.634   5.952  0.1773  0.1992 -0.3793
 4768SOL    HW125937   1.640   3.714   6.005  0.2590 -1.0321  1.4908
 4768SOL    HW225938   1.658   3.671   5.866  0.5686  2.9898  0.9092
 4769SOL     OW25939   2.965   2.098   6.298 -0.3387  0.4121  0.3998
 4769SOL    HW125940   2.955   2.043   6.221  1.3043 -1.2075  1.3449
 4769SOL    HW225941   2.976   2.183   6.256 -0.9312  0.9786  1.4003
 4770SOL     OW25942   0.762   4.709   6.831 -0.0639  0.7805  0.4710
 4770SOL    HW125943   0.670   4.682   6.839 -0.3771  1.1708 -1.7426
 4770SOL    HW225944   0.755   0.068   6.820  0.8078  0.3460 -3.7704
 4771SOL     OW25945   4.267   0.624   7.986 -0.5118 -0.0731 -0.0525
 4771SOL    HW125946   4.211   0.560   7.941  0.1805 -0.4646 -0.3552
 4771SOL    HW225947   4.240   0.708   7.950 -0.1362  0.4757  0.9355
 4772SOL     OW25948   3.315   4.167  16.735 -0.3186 -0.9922  0.2265
 4772SOL    HW125949   3.235   4.146  16.783 -0.4058 -1.8735 -0.2981
 4772SOL    HW225950   3.288   4.205  16.651  1.8424 -1.6270 -0.7697
 4773SOL     OW25951   0.502   3.861  13.008 -0.6475 -0.1167  0.0583
 4773SOL    HW125952   0.563   3.899  12.944  1.9175 -1.9898  1.4088
 4773SOL    HW225953   0.560   3.860  13.084 -1.0723  0.0180  0.3802
 4774SOL     OW25954   0.079   1.859  17.458  0.9141 -0.0133 -0.1115
 4774SOL    HW125955   0.100   1.816  17.541 -1.1951 -0.2400  0.2885
 4774SOL    HW225956   0.016   1.928  17.479 -0.3367 -1.7759  1.9257
 4775SOL     OW25957   0.172   4.439   7.405  0.9277  0.4595 -0.4491
 4775SOL    HW125958   0.236   4.397   7.461  0.8090 -0.0193 -0.6737
 4775SOL    HW225959   0.093   4.406   7.448 -0.1234  1.5066 -1.5477
 4776SOL     OW25960   4.126   1.919   2.062  0.4047 -0.4698  0.0318
 4776SOL    HW125961   4.098   2.007   2.038  0.7714 -0.4702 -0.4032
 4776SOL    HW225962   4.092   1.875   1.984 -0.9632 -1.0911  0.9856
 4777SOL     OW25963   0.498   4.122  16.752 -0.1661 -0.4232 -0.1043
 4777SOL    HW125964   0.545   4.190  16.704 -2.9099  2.3489  1.1656
 4777SOL    HW225965   0.451   4.064  16.691 -1.4827 -0.1605  0.6593
 4778SOL     OW25966   4.365   0.517   6.128  0.0776  0.1304  0.2634
 4778SOL    HW125967   4.435   0.527   6.063 -0.6966  1.7108 -0.3285
 4778SOL    HW225968   4.401   0.436   6.163 -1.0292 -0.9688 -1.1606
 4779SOL     OW25969   0.593   0.970   3.891 -0.1942  0.3282  0.3124
 4779SOL    HW125970   0.552   1.005   3.812 -1.9947 -0.6732  0.7897
 4779SOL    HW225971   0.546   1.020   3.958 -1.5444 -1.5939  0.7931
 4780SOL     OW25972   0.480   3.947   4.354  0.0159 -0.1823 -0.0366
 4780SOL    HW125973   0.524   3.904   4.281 -0.1800 -0.0619 -0.2262
 4780SOL    HW225974   0.464   4.033   4.314  0.6394 -0.1496 -0.2235
 4781SOL     OW25975   4.249   2.383   6.066 -0.2248 -0.1628  0.5930
 4781SOL    HW125976   4.309   2.353   6.134 -1.1301  0.3116  1.6055
 4781SOL    HW225977   4.180   2.409   6.127 -0.4940 -0.0608  0.2490
 4782SOL     OW25978   2.855   3.231  16.652 -0.4132 -0.8094  0.1293
 4782SOL    HW125979   2.822   3.161  16.594  0.1539 -0.4767 -0.5891
 4782SOL    HW225980   2.940   3.263  16.621 -2.0647  2.2298 -1.2555
 4783SOL     OW25981   2.501   3.957   9.059 -0.4669 -0.7029  0.0943
 4783SOL    HW125982   2.581   3.924   9.099 -1.6107  0.3097  3.2191
 4783SOL    HW225983   2.442   3.884   9.076 -1.1940 -0.5204 -1.6242
 4784SOL     OW25984   0.722   3.554   4.420  0.5943  0.0353  0.1657
 4784SOL    HW125985   0.671   3.608   4.480  2.6313 -1.4648  3.3012
 4784SOL    HW225986   0.778   3.623   4.385  0.8234 -0.5401 -0.6135
 4785SOL     OW25987   4.379   3.349   9.239  0.1616  1.0851 -0.1807
 4785SOL    HW125988   4.303   3.372   9.186  0.3685  2.8329  0.2785
 4785SOL    HW225989   4.335   3.304   9.311  3.1465 -2.2724 -0.4885
 4786SOL     OW25990   4.509   2.773   9.562 -0.7800  0.6433 -0.1635
 4786SOL    HW125991   4.472   2.833   9.626  0.9417  2.4832 -0.9166
 4786SOL    HW225992   4.577   2.728   9.611 -1.2138  0.6393  0.4417
 4787SOL     OW25993   0.469   2.742  11.784 -0.1559 -0.2490  0.1552
 4787SOL    HW125994   0.535   2.679  11.812  1.1871  1.1177  0.0025
 4787SOL    HW225995   0.398   2.722  11.846  0.0669  1.9780  1.1288
 4788SOL     OW25996   2.467   0.027   7.490  0.1176 -0.5263  0.1035
 4788SOL    HW125997   2.442   0.117   7.472 -0.1704 -0.3878  1.1814
 4788SOL    HW225998   2.551   0.036   7.535  0.1129 -1.3579  0.2811
 4789SOL     OW25999   4.505   2.816   5.294  0.0804 -0.5705  0.2128
 4789SOL    HW126000   4.414   2.834   5.314  0.6886  0.6393  1.8312
 4789SOL    HW226001   4.552   2.878   5.350  1.0242 -1.0957  0.0089
 4790SOL     OW26002   3.226   0.492   8.273 -0.0077 -0.4301  0.3037
 4790SOL    HW126003   3.170   0.416   8.285  0.6560 -1.2925 -2.0280
 4790SOL    HW226004   3.265   0.479   8.359 -3.2286 -1.2828  1.6443
 4791SOL     OW26005   2.232   2.227   1.943 -0.1978 -0.2766 -0.1009
 4791SOL    HW126006   2.137   2.235   1.932 -0.0227  0.9135 -0.7433
 4791SOL    HW226007   2.239   2.151   2.000  1.6732 -0.1538 -0.1672
 4792SOL     OW26008   3.335   2.083  15.142 -0.1638 -0.4379  0.0058
 4792SOL    HW126009   3.245   2.061  15.162 -0.7260 -0.3684 -2.3787
 4792SOL    HW226010   3.322   2.170  15.103  2.2599  0.8298  2.0319
 4793SOL     OW26011   3.365   0.881   1.314  0.4181 -0.2404 -0.1110
 4793SOL    HW126012   3.422   0.861   1.239  0.2592  1.6159 -0.7435
 4793SOL    HW226013   3.322   0.796   1.324 -3.0583  1.4338 -0.8162
 4794SOL     OW26014   0.937   4.112  12.457 -0.3454  0.2220  0.0136
 4794SOL    HW126015   0.900   4.192  12.420 -1.1402  0.4672  1.3244
 4794SOL    HW226016   1.013   4.098  12.401 -1.6286  0.5970 -1.8155
 4795SOL     OW26017   1.333   3.673   2.046  0.1369 -0.1215  0.1771
 4795SOL    HW126018   1.358   3.731   1.974 -0.0614 -0.5904 -0.2648
 4795SOL    HW226019   1.323   3.739   2.115  0.2532 -0.9671  1.0042
 4796SOL     OW26020   0.475   2.101   4.758 -0.1764 -0.1554 -1.1941
 4796SOL    HW126021   0.419   2.104   4.681 -0.9078  2.5441 -0.5464
 4796SOL    HW226022   0.515   2.016   4.742 -0.8236 -0.8873  0.9823
 4797SOL     OW26023   1.270   2.974  11.660  0.0772  0.5706 -0.4007
 4797SOL    HW126024   1.301   3.062  11.637 -0.9853  0.8711 -0.6705
 4797SOL    HW226025   1.341   2.918  11.628 -0.3538 -0.2592  0.1044
 4798SOL     OW26026   4.353   0.306   2.879  0.0685 -0.6008 -0.1816
 4798SOL    HW126027   4.395   0.376   2.829 -1.6808  0.6095  0.0210
 4798SOL    HW226028   4.305   0.269   2.805  0.0954 -0.8159 -0.0892
 4799SOL     OW26029   1.080   1.405   6.609 -0.1001 -0.0311  0.4781
 4799SOL    HW126030   1.114   1.486   6.570  0.5085 -0.2603  0.5306
 4799SOL    HW226031   1.068   1.351   6.530 -1.6639 -2.6482  2.5122
 4800SOL     OW26032   3.859   3.247   9.442  0.6567 -0.0274 -0.5406
 4800SOL    HW126033   3.792   3.290   9.389  0.7109  1.6017  0.7169
 4800SOL    HW226034   3.806   3.240   9.521  0.1845 -0.9029 -0.9327
 4801SOL     OW26035   3.361   1.453   1.052 -0.2881 -0.0204  0.0084
 4801SOL    HW126036   3.294   1.489   0.994  0.6121  2.4419  0.5282
 4801SOL    HW226037   3.432   1.513   1.033  0.4443 -0.8317  0.2092
 4802SOL     OW26038   0.789   3.535   5.257  0.1362 -0.0688 -0.0944
 4802SOL    HW126039   0.746   3.541   5.343 -2.2904 -0.2410 -1.3007
 4802SOL    HW226040   0.791   3.439   5.262 -0.7789 -0.0860 -0.0496
 4803SOL     OW26041   0.424   3.654   6.173  0.4385  0.3876  0.5214
 4803SOL    HW126042   0.377   3.616   6.099  0.0366 -0.5078  1.2471
 4803SOL    HW226043   0.412   3.590   6.242  1.7739  1.3101  1.6051
 4804SOL     OW26044   4.163   4.652   0.857  0.0207 -0.4334 -0.3768
 4804SOL    HW126045   4.215   4.730   0.879  1.0865 -1.5495  1.0718
 4804SOL    HW226046   4.074   4.685   0.849 -0.3966 -2.0490 -2.1635
 4805SOL     OW26047   4.265   1.308   3.411  0.3127 -0.4253  0.2447
 4805SOL    HW126048   4.304   1.377   3.466  2.1950  0.9182 -2.7502
 4805SOL    HW226049   4.342   1.254   3.392  1.6110  2.2719 -2.3442
 4806SOL     OW26050   2.388   3.363  15.217  0.0278 -0.6514 -0.4025
 4806SOL    HW126051   2.367   3.270  15.220 -2.9894 -0.0003 -1.3948
 4806SOL    HW226052   2.315   3.409  15.177  0.6378 -0.2534 -1.0681
 4807SOL     OW26053   3.278   1.321   7.073 -0.8360 -0.4923  0.2463
 4807SOL    HW126054   3.328   1.292   7.150 -0.9588 -0.2055  0.4344
 4807SOL    HW226055   3.192   1.296   7.107 -0.8300  1.9249  2.0397
 4808SOL     OW26056   1.886   3.510  14.141 -0.3219 -0.5438  0.1558
 4808SOL    HW126057   1.975   3.544  14.128 -0.5639 -0.0493 -0.2257
 4808SOL    HW226058   1.909   3.417  14.135  1.4704 -0.1277  0.7214
 4809SOL     OW26059   0.069   4.473   6.421 -0.0611 -0.3228  0.0211
 4809SOL    HW126060   0.137   4.414   6.453 -0.7179 -1.4266 -0.5842
 4809SOL    HW226061   0.030   4.518   6.496  1.5058  1.5411 -0.2930
 4810SOL     OW26062   1.711   0.819   2.909 -0.1477  0.0848  0.0699
 4810SOL    HW126063   1.685   0.853   2.823  0.6444  0.8217  0.1169
 4810SOL    HW226064   1.637   0.766   2.938 -0.7761  0.3429 -1.0722
 4811SOL     OW26065   1.429   3.853   2.737  0.1148  0.0493  0.0172
 4811SOL    HW126066   1.482   3.879   2.662  1.2158 -0.8590  0.4736
 4811SOL    HW226067   1.442   3.758   2.732  0.0587  0.0507 -0.1502
 4812SOL     OW26068   0.378   4.192  14.004  0.7265  0.4189 -0.2054
 4812SOL    HW126069   0.428   4.272  13.991  1.1141 -0.2006 -2.6838
 4812SOL    HW226070   0.302   4.210  13.948  0.3193  0.9628  0.5354
 4813SOL     OW26071   3.691   0.092  10.162  0.4544 -0.6195  0.5700
 4813SOL    HW126072   3.636   0.171  10.155  0.8607 -0.3274  0.6502
 4813SOL    HW226073   3.702   0.086  10.257 -1.3592 -1.0090  0.7387
 4814SOL     OW26074   2.755   2.512   6.062  0.5177 -0.4920 -0.2272
 4814SOL    HW126075   2.698   2.512   6.139  0.1188  0.3934 -0.5216
 4814SOL    HW226076   2.694   2.479   5.996  0.6018 -0.9147 -0.0958
 4815SOL     OW26077   3.810   3.465   0.008 -0.5814  0.0119  0.8468
 4815SOL    HW126078   3.889   3.413  17.737 -0.6476  0.4054 -0.9780
 4815SOL    HW226079   3.843   3.541   0.057 -1.2639 -0.1275  1.5145
 4816SOL     OW26080   1.687   2.924   3.315  0.2570 -0.8974  1.1585
 4816SOL    HW126081   1.704   3.016   3.333 -0.7527 -0.4757 -0.0277
 4816SOL    HW226082   1.613   2.905   3.373 -1.8919 -1.7015 -1.8497
 4817SOL     OW26083   2.918   3.672  11.267  0.6678 -0.1592 -0.4564
 4817SOL    HW126084   2.861   3.602  11.297  0.3853  0.6552  0.9125
 4817SOL    HW226085   2.869   3.747  11.302  1.3280  0.5386 -1.0253
 4818SOL     OW26086   2.962   3.048   4.500  0.3088 -0.1060 -0.7434
 4818SOL    HW126087   2.988   3.003   4.580 -0.5935 -1.2363 -1.0852
 4818SOL    HW226088   2.928   3.131   4.533  1.1736  0.7659 -2.0294
 4819SOL     OW26089   0.578   2.078   6.872  0.4208 -0.0499 -0.1776
 4819SOL    HW126090   0.573   2.018   6.947  0.7517  1.1628  0.8269
 4819SOL    HW226091   0.640   2.142   6.906 -0.7114  1.8906 -1.7496
 4820SOL     OW26092   3.074   3.385   4.448 -0.3179 -0.0686  0.2005
 4820SOL    HW126093   3.072   3.479   4.430 -2.4421  0.4868  3.3617
 4820SOL    HW226094   3.150   3.374   4.504 -0.9884 -2.1391  0.7247
 4821SOL     OW26095   4.289   4.038   8.131 -0.9751 -0.2012 -0.3609
 4821SOL    HW126096   4.317   4.057   8.042  2.8683  1.5617  1.2281
 4821SOL    HW226097   4.357   4.092   8.170  0.0060 -1.8933  0.3009
 4822SOL     OW26098   3.900   1.186   6.161 -0.0790  0.5406 -0.0817
 4822SOL    HW126099   3.842   1.135   6.105  1.0514  0.4096 -1.1230
 4822SOL    HW226100   3.941   1.119   6.216  0.5925  0.4523 -0.6947
 4823SOL     OW26101   4.304   3.772   4.144 -0.4137  0.3287  0.1215
 4823SOL    HW126102   4.274   3.849   4.194  0.2314  0.9066 -0.3858
 4823SOL    HW226103   4.219   3.728   4.153 -0.9638  1.2272 -0.5881
 4824SOL     OW26104   2.497   2.360   4.161 -0.3447 -0.0268 -0.7157
 4824SOL    HW126105   2.433   2.420   4.201  1.5471  1.0586  0.6541
 4824SOL    HW226106   2.452   2.281   4.191 -2.0354  1.4470  0.6729
 4825SOL     OW26107   0.565   3.597   8.704  0.1189 -0.2365  0.4121
 4825SOL    HW126108   0.475   3.575   8.679  0.2587  1.3998 -1.5581
 4825SOL    HW226109   0.615   3.522   8.672  0.9779  0.7164 -0.4886
 4826SOL     OW26110   3.171   4.663  11.062  0.0541 -0.1829  0.1616
 4826SOL    HW126111   3.165   4.673  11.157 -1.6804  1.6599 -0.1540
 4826SOL    HW226112   3.086   4.702  11.045 -0.9144 -1.7584  1.3928
 4827SOL     OW26113   4.180   2.771  10.145 -0.4327 -0.4259 -0.0946
 4827SOL    HW126114   4.259   2.729  10.180 -0.6007  0.5753  1.4860
 4827SOL    HW226115   4.126   2.757  10.222 -2.7879 -0.4808 -1.7746
 4828SOL     OW26116   2.306   0.639   6.938 -0.1811 -0.4797 -0.3770
 4828SOL    HW126117   2.269   0.681   7.016  1.6940  1.4203 -0.5032
 4828SOL    HW226118   2.280   0.549   6.956 -1.0203 -0.2255 -0.3208
 4829SOL     OW26119   3.508   2.720   2.570  0.3215 -0.1642 -0.4637
 4829SOL    HW126120   3.508   2.626   2.588 -1.1622 -0.1792 -0.5428
 4829SOL    HW226121   3.594   2.729   2.529  0.2517 -0.8590 -0.7557
 4830SOL     OW26122   1.638   3.182   3.846  0.2676  0.0170 -0.4670
 4830SOL    HW126123   1.584   3.124   3.792  0.6703 -2.8122  2.1323
 4830SOL    HW226124   1.719   3.139   3.816 -0.1539  0.1475 -1.8152
 4831SOL     OW26125   1.179   2.751   2.281  0.1866  0.5148 -0.1508
 4831SOL    HW126126   1.195   2.723   2.191 -1.8658  1.7872 -0.9067
 4831SOL    HW226127   1.263   2.725   2.320 -1.0669 -1.3667  1.2894
 4832SOL     OW26128   1.820   2.771   8.143 -0.0782  0.6420 -0.5190
 4832SOL    HW126129   1.862   2.838   8.196  0.9744 -1.2785  1.0848
 4832SOL    HW226130   1.745   2.820   8.110 -0.3342 -0.6195 -1.8669
 4833SOL     OW26131   2.178   3.860   1.121 -0.2504 -0.1920  0.3902
 4833SOL    HW126132   2.132   3.777   1.133  0.7859 -0.3653  3.0863
 4833SOL    HW226133   2.267   3.838   1.094 -0.3391 -0.9568  0.7384
 4834SOL     OW26134   0.944   4.543   6.911 -0.0781 -0.4789 -0.5049
 4834SOL    HW126135   0.882   4.612   6.891 -1.2126 -1.4915 -0.4779
 4834SOL    HW226136   0.903   4.475   6.858 -0.3738 -1.0428  0.4471
 4835SOL     OW26137   0.972   1.999   8.927  0.2459 -0.4630 -0.1294
 4835SOL    HW126138   0.964   2.044   9.011  0.1221 -0.7377  0.0060
 4835SOL    HW226139   0.993   2.073   8.869  2.6983 -2.0291 -1.2697
 4836SOL     OW26140   4.461   0.101  16.082  0.0615  0.0890 -0.2357
 4836SOL    HW126141   4.424   0.048  16.012 -0.3371  0.5206 -0.3517
 4836SOL    HW226142   4.534   0.045  16.109 -0.5400 -0.5283  0.0945
 4837SOL     OW26143   3.462   2.649   8.166  0.1621  0.0073  0.2438
 4837SOL    HW126144   3.417   2.733   8.177 -0.8491 -0.5360  0.2084
 4837SOL    HW226145   3.433   2.590   8.235 -0.3484  0.4342  0.3905
 4838SOL     OW26146   1.878   2.160   6.775 -0.4291 -0.3164  0.4741
 4838SOL    HW126147   1.840   2.212   6.846  1.5815 -0.0413  1.3502
 4838SOL    HW226148   1.814   2.089   6.768  0.4040 -0.7863 -2.5056
 4839SOL     OW26149   2.599   2.657  17.666  0.0680 -0.0557 -0.4233
 4839SOL    HW126150   2.618   2.582  17.722 -0.4273 -0.2425 -0.5065
 4839SOL    HW226151   2.580   2.613  17.583  0.4940  2.4000 -1.8319
 4840SOL     OW26152   0.197   3.355  13.342 -0.2022 -0.0942 -0.0872
 4840SOL    HW126153   0.168   3.352  13.433  2.0032  4.3563  0.7715
 4840SOL    HW226154   0.290   3.350  13.364  0.1119 -0.2692 -1.4347
 4841SOL     OW26155   4.357   0.229   6.884 -0.4294 -0.4799 -0.2773
 4841SOL    HW126156   4.431   0.255   6.938  0.7228 -0.4525 -1.8980
 4841SOL    HW226157   4.334   0.308   6.835 -1.0116 -0.5196 -0.0680
 4842SOL     OW26158   3.020   0.312  17.428 -0.2719  0.2136 -0.3247
 4842SOL    HW126159   3.010   0.227  17.471 -2.1541  1.9579  2.6899
 4842SOL    HW226160   3.088   0.348  17.485 -0.8047  0.6760  0.0151
 4843SOL     OW26161   2.120   1.048   6.263  0.0699 -0.5711 -0.1682
 4843SOL    HW126162   2.186   1.017   6.325  0.0661 -2.7203 -1.2375
 4843SOL    HW226163   2.175   1.108   6.213 -0.9235 -0.8280 -1.5603
 4844SOL     OW26164   0.368   2.187   4.262  0.3929  0.5323  0.1427
 4844SOL    HW126165   0.440   2.124   4.263  1.1500  1.3791 -0.5735
 4844SOL    HW226166   0.373   2.200   4.357 -1.4755 -1.4849  0.5309
 4845SOL     OW26167   4.334   0.197  13.435 -0.3158 -0.0618 -0.2172
 4845SOL    HW126168   4.276   0.130  13.398 -0.8780 -0.2510  1.0049
 4845SOL    HW226169   4.367   0.240  13.357  2.2491 -0.3193  0.7246
 4846SOL     OW26170   2.586   4.180   1.689  0.0171 -0.2625 -0.3727
 4846SOL    HW126171   2.521   4.215   1.750 -1.4461  0.3728 -2.2915
 4846SOL    HW226172   2.538   4.193   1.607 -0.2396  1.7067  0.0977
 4847SOL     OW26173   4.084   0.198   5.599  0.6340  0.5406 -0.0988
 4847SOL    HW126174   4.167   0.186   5.553  0.9020  1.0880  0.2476
 4847SOL    HW226175   4.078   0.117   5.650  2.5681 -1.2407 -2.7003
 4848SOL     OW26176   0.184   3.421  11.062 -0.3458  0.1738  0.0982
 4848SOL    HW126177   0.094   3.442  11.037  0.2010  0.2384 -1.8380
 4848SOL    HW226178   0.211   3.338  11.023  2.4300  0.5435  1.1580
 4849SOL     OW26179   1.932   3.160  15.358 -0.8139 -0.4753 -0.3307
 4849SOL    HW126180   1.927   3.255  15.353 -2.9958 -0.5493  0.6612
 4849SOL    HW226181   1.949   3.144  15.451  2.7083  1.1439 -0.6947
 4850SOL     OW26182   2.877   1.749  13.118 -0.0997 -0.6167 -0.3331
 4850SOL    HW126183   2.811   1.752  13.187  2.3338 -2.4239  2.1018
 4850SOL    HW226184   2.889   1.842  13.099  0.2163 -0.4451  0.7112
 4851SOL     OW26185   2.892   1.340   3.539  0.0161  0.5264  0.1760
 4851SOL    HW126186   2.820   1.357   3.600  0.7285  1.1185  0.8469
 4851SOL    HW226187   2.962   1.396   3.572 -0.0635  0.9215 -0.3227
 4852SOL     OW26188   2.097   1.596   9.878 -0.2163 -0.7767  0.0077
 4852SOL    HW126189   2.104   1.506   9.845  0.0669 -0.8496  0.2618
 4852SOL    HW226190   2.048   1.635   9.805  0.0487  0.1413  0.3167
 4853SOL     OW26191   3.697   2.299   5.792 -0.1709 -0.4029  0.0206
 4853SOL    HW126192   3.732   2.271   5.707 -0.6193  1.2222 -0.6960
 4853SOL    HW226193   3.667   2.389   5.778  1.0590 -0.1866 -1.2291
 4854SOL     OW26194   1.746   0.298   7.966 -0.1764  1.0274 -0.5360
 4854SOL    HW126195   1.756   0.204   7.981  2.0478  0.9202 -2.7278
 4854SOL    HW226196   1.762   0.302   7.872  2.9458  3.5575  0.1189
 4855SOL     OW26197   3.433   1.561   8.926 -0.4224 -0.1808  0.0197
 4855SOL    HW126198   3.463   1.557   8.835  1.0524  0.8194  0.4559
 4855SOL    HW226199   3.371   1.489   8.920  1.9659 -2.2910  0.4006
 4856SOL     OW26200   4.492   0.975   4.628 -0.2079 -0.2395  0.4269
 4856SOL    HW126201   4.444   1.052   4.598  0.0686  0.0278  0.6759
 4856SOL    HW226202   4.450   0.911   4.570 -0.5208 -1.9007  2.4897
 4857SOL     OW26203   4.416   4.232  14.530 -0.1762  0.3710 -0.3032
 4857SOL    HW126204   4.463   4.311  14.557  0.9469  0.9129 -3.7877
 4857SOL    HW226205   4.422   4.171  14.603  0.2923  0.1415 -0.5305
 4858SOL     OW26206   1.962   4.130   1.900 -0.2061  0.3940  0.0581
 4858SOL    HW126207   1.996   4.147   1.812  1.0532  2.0271  0.8536
 4858SOL    HW226208   2.034   4.073   1.928 -0.9610  0.1920  1.5609
 4859SOL     OW26209   1.305   1.936   4.915 -0.1134  0.2607 -0.3004
 4859SOL    HW126210   1.253   1.948   4.994 -0.4988  0.1594 -0.5432
 4859SOL    HW226211   1.381   1.988   4.943 -1.3076  2.0533 -0.3948
 4860SOL     OW26212   3.399   0.165  16.929 -0.5744 -0.7131 -0.1391
 4860SOL    HW126213   3.390   0.195  16.839 -2.4747 -0.5475  0.0965
 4860SOL    HW226214   3.332   0.216  16.974  0.4021 -0.5090  1.0817
 4861SOL     OW26215   0.077   3.593   2.260  0.3736  0.0114 -0.0712
 4861SOL    HW126216   0.118   3.596   2.347 -2.1019  0.9931  1.0776
 4861SOL    HW226217   4.721   3.593   2.286  0.1919  0.1384 -0.7149
 4862SOL     OW26218   3.404   0.153   0.028  0.2872  0.6921 -0.4507
 4862SOL    HW126219   3.385   0.091   0.098  0.8671  0.6997 -0.2853
 4862SOL    HW226220   3.472   0.208   0.067  0.0860  1.3260 -0.9873
 4863SOL     OW26221   2.276   0.438   4.422  0.0418  0.4458  0.6555
 4863SOL    HW126222   2.313   0.519   4.457 -1.7667  0.4808  2.4922
 4863SOL    HW226223   2.203   0.478   4.373  0.6542  0.8632  0.0781
 4864SOL     OW26224   0.312   0.255   6.124 -0.2144 -0.3847 -0.0644
 4864SOL    HW126225   0.300   0.299   6.209  1.5270  1.9683 -1.0363
 4864SOL    HW226226   0.249   0.308   6.074 -1.0819  0.1071  1.5308
 4865SOL     OW26227   2.185   3.080   5.009  0.3414 -0.4536 -0.7333
 4865SOL    HW126228   2.257   3.119   4.961 -0.3061  1.9206  0.2071
 4865SOL    HW226229   2.203   2.988   4.992 -1.4442 -1.0670  0.6804
 4866SOL     OW26230   2.837   4.495   6.887 -0.4058 -0.1444  0.4247
 4866SOL    HW126231   2.822   4.473   6.979 -2.3079 -1.5174 -0.2124
 4866SOL    HW226232   2.859   4.588   6.898  0.6979 -0.4530  0.7589
 4867SOL     OW26233   0.653   0.753   0.324 -0.0821 -0.4210  0.3230
 4867SOL    HW126234   0.739   0.782   0.293 -0.4776 -0.1645 -0.5478
 4867SOL    HW226235   0.673   0.721   0.412 -1.4013  3.5891  2.0706
 4868SOL     OW26236   3.356   2.437   8.321  0.4160  0.0099  0.1540
 4868SOL    HW126237   3.287   2.450   8.256  0.6897  0.1302 -0.1158
 4868SOL    HW226238   3.322   2.367   8.377 -0.8414 -0.3993 -1.1139
 4869SOL     OW26239   1.741   4.402  10.820 -0.4537  0.2580 -0.1325
 4869SOL    HW126240   1.674   4.468  10.801 -1.4975  0.7640  5.1306
 4869SOL    HW226241   1.700   4.325  10.783  0.3420 -0.1152 -0.2414
 4870SOL     OW26242   1.263   4.617   6.219  1.3630  1.0158 -0.1195
 4870SOL    HW126243   1.205   4.639   6.146 -0.0394 -0.6982  0.5064
 4870SOL    HW226244   1.312   4.547   6.176  0.6937  1.8758 -2.3228
 4871SOL     OW26245   3.513   4.137   1.417  0.3118  0.6499  0.4116
 4871SOL    HW126246   3.443   4.156   1.480 -1.1949  0.1050 -1.1036
 4871SOL    HW226247   3.520   4.229   1.391 -1.2548  0.5200 -0.4785
 4872SOL     OW26248   3.166   0.084   3.644  0.6074  0.3972 -0.0047
 4872SOL    HW126249   3.087   0.132   3.666  0.2613 -0.3366  0.3919
 4872SOL    HW226250   3.195   0.134   3.568  0.2475  0.4413 -0.1119
 4873SOL     OW26251   1.811   4.238   3.484 -0.1673  0.1386  0.2383
 4873SOL    HW126252   1.882   4.205   3.430 -0.6077  0.1937 -0.3794
 4873SOL    HW226253   1.798   4.327   3.450  0.3117  0.5528  1.1338
 4874SOL     OW26254   2.957   2.654   7.819 -0.3555  0.0031  0.2241
 4874SOL    HW126255   2.915   2.575   7.854  0.0528 -0.3800 -0.1528
 4874SOL    HW226256   3.045   2.617   7.821 -1.3570 -2.5121 -1.4379
 4875SOL     OW26257   4.232   0.885   8.223  0.0526 -0.1830  0.1055
 4875SOL    HW126258   4.225   0.967   8.270  0.9044 -0.2112  0.2794
 4875SOL    HW226259   4.142   0.852   8.216 -0.6787  1.2168  3.2549
 4876SOL     OW26260   1.950   3.125   4.194  0.0008  1.1579  0.5344
 4876SOL    HW126261   1.857   3.135   4.174  1.0048  1.8789 -3.6732
 4876SOL    HW226262   1.961   3.197   4.256 -0.5693 -0.5944  2.6729
 4877SOL     OW26263   0.794   1.328   7.218  0.0691  0.0398 -0.4357
 4877SOL    HW126264   0.728   1.259   7.210 -0.1947  0.2809 -0.3619
 4877SOL    HW226265   0.808   1.347   7.126  2.8348 -0.1538 -0.0573
 4878SOL     OW26266   0.971   1.011   8.847  0.2424  0.5371  0.6885
 4878SOL    HW126267   1.042   0.971   8.798  0.0009  1.8287 -0.7244
 4878SOL    HW226268   0.977   0.952   8.922  0.4650 -0.9504 -0.5052
 4879SOL     OW26269   1.418   2.870   5.928  0.3264 -0.2907  0.1257
 4879SOL    HW126270   1.463   2.849   5.846 -0.6650 -1.1297 -0.2066
 4879SOL    HW226271   1.394   2.786   5.965  0.1243 -0.9198 -1.4360
 4880SOL     OW26272   3.347   2.876   2.995  0.5630  0.1210 -0.7523
 4880SOL    HW126273   3.265   2.833   2.970  0.0771  0.9057 -0.5269
 4880SOL    HW226274   3.316   2.966   2.993  2.5067  0.8723  1.8926
 4881SOL     OW26275   2.397   1.287  15.709  1.0271 -0.1854  0.0863
 4881SOL    HW126276   2.317   1.254  15.749 -0.1470 -1.9689 -3.7321
 4881SOL    HW226277   2.447   1.206  15.716  0.6745 -0.2524  1.8188
 4882SOL     OW26278   3.360   3.383   2.849  0.3757  0.0011  0.1560
 4882SOL    HW126279   3.453   3.372   2.830  0.6987 -0.0069  1.6819
 4882SOL    HW226280   3.335   3.424   2.766  0.8720  0.1942  0.1030
 4883SOL     OW26281   3.605   3.758   5.066 -0.1261  0.1618 -0.1124
 4883SOL    HW126282   3.562   3.720   5.143 -0.1631 -0.2194 -0.3203
 4883SOL    HW226283   3.641   3.836   5.109 -0.8687 -0.0703  0.9210
 4884SOL     OW26284   4.528   1.243   2.541 -0.1575 -0.4203 -0.4377
 4884SOL    HW126285   4.434   1.260   2.543 -0.2229 -1.0892  2.5417
 4884SOL    HW226286   4.550   1.223   2.632  2.2242 -1.7694 -1.2784
 4885SOL     OW26287   3.346   1.970   8.581  0.3032 -0.1621  0.4743
 4885SOL    HW126288   3.393   1.916   8.518 -0.9945 -1.4021  0.5817
 4885SOL    HW226289   3.398   1.963   8.661 -1.0116  0.4173  1.3901
 4886SOL     OW26290   1.151   3.653   3.766  0.5995  0.0343  0.1876
 4886SOL    HW126291   1.081   3.589   3.781  0.6802 -0.5237 -1.7685
 4886SOL    HW226292   1.232   3.605   3.784  1.1966  1.7582  2.0888
 4887SOL     OW26293   0.709   0.304   7.553 -0.7912 -0.0361 -0.1501
 4887SOL    HW126294   0.629   0.262   7.583 -1.2865  0.8695 -0.1965
 4887SOL    HW226295   0.694   0.307   7.458 -0.4562  0.4684 -0.1890
 4888SOL     OW26296   0.907   3.027   2.727  0.1529  0.2715  0.9012
 4888SOL    HW126297   0.957   3.098   2.767  1.6408 -0.0752 -0.3347
 4888SOL    HW226298   0.972   2.957   2.732 -0.3002 -0.3051 -1.1620
 4889SOL     OW26299   4.410   3.145   7.101 -0.2834  0.0292  0.2281
 4889SOL    HW126300   4.359   3.066   7.115  1.1116 -0.5400  2.1273
 4889SOL    HW226301   4.361   3.173   7.024 -0.1867 -3.3475 -1.0422
 4890SOL     OW26302   2.888   2.035   6.862 -0.5886  0.0598  0.6005
 4890SOL    HW126303   2.936   2.041   6.779 -3.5231 -0.2686 -1.1273
 4890SOL    HW226304   2.858   1.944   6.866 -1.2321  0.3845  3.3306
 4891SOL     OW26305   3.961   4.630   4.549  0.3028  0.4148 -0.6290
 4891SOL    HW126306   4.002   4.544   4.549  0.4663  0.4903 -0.7573
 4891SOL    HW226307   3.867   4.619   4.565  0.2850 -0.7509 -1.5554
 4892SOL     OW26308   3.227   3.041   4.773 -0.5982  0.1387  0.4954
 4892SOL    HW126309   3.229   3.105   4.844  2.4672  1.1046 -0.4506
 4892SOL    HW226310   3.318   3.035   4.744 -0.9227  1.5966 -0.8288
 4893SOL     OW26311   2.538   4.070   2.252  0.6698 -0.5339 -0.4488
 4893SOL    HW126312   2.554   4.112   2.168 -0.8428 -2.3255 -1.6424
 4893SOL    HW226313   2.593   4.126   2.306 -0.5422  0.6502 -0.4683
 4894SOL     OW26314   1.500   4.588  14.249 -0.1356 -0.2072  0.1976
 4894SOL    HW126315   1.436   4.659  14.256 -0.4667 -0.4252 -0.6335
 4894SOL    HW226316   1.453   4.514  14.210 -1.7033  1.4610 -1.0493
 4895SOL     OW26317   3.258   0.035   1.946 -0.4974 -0.1012  0.2020
 4895SOL    HW126318   3.246   0.061   1.854  0.2542 -0.9178 -0.1263
 4895SOL    HW226319   3.189   4.705   1.952 -0.2009 -0.5412 -1.0095
 4896SOL     OW26320   3.550   1.287   2.436  0.2090  0.1752 -0.3154
 4896SOL    HW126321   3.480   1.333   2.483  2.0648  1.4413  1.2419
 4896SOL    HW226322   3.524   1.196   2.450  1.5212 -0.3222 -1.1278
 4897SOL     OW26323   3.972   1.852   5.091  0.1578  0.1127  0.2117
 4897SOL    HW126324   4.038   1.919   5.111  0.0566  0.8386 -1.8884
 4897SOL    HW226325   3.894   1.901   5.115 -0.1832 -0.3919  0.1360
 4898SOL     OW26326   2.952   1.987   4.404  0.3318 -0.0416 -0.3458
 4898SOL    HW126327   3.022   1.951   4.349  0.2253 -2.2680  0.9641
 4898SOL    HW226328   2.879   1.996   4.342 -0.7681  0.9682  1.1150
 4899SOL     OW26329   2.274   3.050  16.775 -0.7688 -0.1714  0.1013
 4899SOL    HW126330   2.262   2.975  16.718  0.0681 -0.0730 -0.2114
 4899SOL    HW226331   2.358   3.038  16.821 -0.2951 -0.3238 -0.8002
 4900SOL     OW26332   3.787   4.643  17.606 -0.6943  0.1703  0.2850
 4900SOL    HW126333   3.883   4.642  17.610 -0.7431 -0.3030  1.1492
 4900SOL    HW226334   3.779   4.729  17.565 -3.2301 -0.6415 -0.9164
 4901SOL     OW26335   1.290   1.974  15.670  0.1229  0.3604 -0.2809
 4901SOL    HW126336   1.314   1.977  15.577  0.7556  2.3565 -0.0587
 4901SOL    HW226337   1.194   1.973  15.672  0.1837 -1.3679  0.9244
 4902SOL     OW26338   1.374   4.483   7.906 -0.0267 -0.3577  0.1762
 4902SOL    HW126339   1.431   4.421   7.861  0.0821  0.8849 -1.3655
 4902SOL    HW226340   1.396   4.470   7.999 -0.3609 -0.2495  0.2707
 4903SOL     OW26341   0.029   3.252  11.270  0.3206 -0.1611  0.8208
 4903SOL    HW126342   0.097   3.316  11.289 -0.2844  0.3987  1.1070
 4903SOL    HW226343   0.063   3.172  11.311 -1.3679 -0.4084  1.7725
 4904SOL     OW26344   3.859   1.961   0.944 -0.3254 -0.2382 -0.2762
 4904SOL    HW126345   3.914   1.882   0.943  3.8747  2.6870 -1.1945
 4904SOL    HW226346   3.799   1.940   1.015  0.9236 -0.4794  0.7114
 4905SOL     OW26347   1.503   3.327   1.739 -0.0189  0.3812 -0.0701
 4905SOL    HW126348   1.583   3.356   1.695 -0.2671 -2.3155 -2.2612
 4905SOL    HW226349   1.509   3.372   1.823 -2.0096  0.7913 -0.1557
 4906SOL     OW26350   1.569   2.496  13.939  0.4075 -0.4899 -0.1436
 4906SOL    HW126351   1.579   2.448  13.856 -1.3065  0.3093 -0.7980
 4906SOL    HW226352   1.475   2.513  13.942  0.5576  1.1520 -4.5641
 4907SOL     OW26353   0.842   0.668   6.110  0.0800 -0.3694 -0.5176
 4907SOL    HW126354   0.795   0.724   6.172 -0.6211 -0.6430 -0.7979
 4907SOL    HW226355   0.910   0.729   6.083  0.5122  0.9046  3.4134
 4908SOL     OW26356   2.680   3.774   6.271 -0.0235  0.1430 -0.2478
 4908SOL    HW126357   2.670   3.684   6.240 -2.3690  0.0069  0.8864
 4908SOL    HW226358   2.625   3.822   6.209 -2.1701  0.9528  2.2999
 4909SOL     OW26359   4.322   1.515   4.393 -0.4418  0.7195  0.2611
 4909SOL    HW126360   4.382   1.459   4.344  1.4954 -0.2793  3.7791
 4909SOL    HW226361   4.371   1.597   4.401  0.7892  0.0138 -0.2096
 4910SOL     OW26362   1.669   2.143   8.573 -0.2275 -0.1707 -0.5596
 4910SOL    HW126363   1.731   2.105   8.511 -0.2222 -0.9906 -0.0512
 4910SOL    HW226364   1.629   2.203   8.509 -0.8983 -0.0776 -0.0540
 4911SOL     OW26365   0.944   0.679   7.807  0.6121 -0.3371 -0.4207
 4911SOL    HW126366   0.899   0.757   7.773  0.1815  0.0462  1.0399
 4911SOL    HW226367   1.036   0.704   7.797  0.4881 -0.1086 -1.0414
 4912SOL     OW26368   4.383   2.218   2.508 -0.1499  0.7117  0.0924
 4912SOL    HW126369   4.428   2.168   2.577 -1.7978 -0.2087  0.5231
 4912SOL    HW226370   4.451   2.230   2.443 -0.7869  0.9198 -0.5357
 4913SOL     OW26371   2.729   1.050  15.076 -0.0213  0.4143  0.2802
 4913SOL    HW126372   2.778   1.039  15.157  1.9440  1.4681 -0.7614
 4913SOL    HW226373   2.796   1.053  15.008 -2.8787  1.1147 -2.4730
 4914SOL     OW26374   1.382   3.175  10.646 -0.2637  0.1815  0.5585
 4914SOL    HW126375   1.421   3.197  10.561  0.7020 -2.3031  0.3722
 4914SOL    HW226376   1.441   3.106  10.674 -1.6050 -1.7291 -1.3550
 4915SOL     OW26377   1.608   2.702   9.109  0.5164 -0.3509  0.0267
 4915SOL    HW126378   1.554   2.652   9.047 -0.7630 -0.9826  1.6412
 4915SOL    HW226379   1.639   2.776   9.057 -0.2791 -1.2060 -1.6644
 4916SOL     OW26380   0.639   4.518   1.542 -0.4001 -0.4490  0.4074
 4916SOL    HW126381   0.663   4.508   1.634  1.1090  2.2675  0.3007
 4916SOL    HW226382   0.550   4.551   1.552 -0.4734 -0.0019 -1.7468
 4917SOL     OW26383   1.537   1.307  10.090 -0.0872  0.0528  0.1056
 4917SOL    HW126384   1.446   1.327  10.113  0.1336  0.6078  0.5016
 4917SOL    HW226385   1.536   1.212  10.094 -1.1770  0.1024  1.1119
 4918SOL     OW26386   4.295   1.861   6.784 -0.1438  0.1306  0.9269
 4918SOL    HW126387   4.370   1.807   6.809 -1.1623 -0.1116  3.5170
 4918SOL    HW226388   4.292   1.904   6.870 -0.3054 -1.0039  1.4862
 4919SOL     OW26389   4.371   4.206  16.369  0.3734  0.5500 -0.1695
 4919SOL    HW126390   4.311   4.260  16.318 -0.7766  0.3397  0.9621
 4919SOL    HW226391   4.376   4.128  16.314  3.0622  0.6119 -0.0346
 4920SOL     OW26392   2.407   2.654   2.099  0.4466  0.0698  0.3060
 4920SOL    HW126393   2.392   2.696   2.184  2.9131  2.0881 -0.2647
 4920SOL    HW226394   2.424   2.733   2.049  0.3697  1.1544  1.9818
 4921SOL     OW26395   4.455   4.567   7.832 -0.3995 -0.0198  0.3039
 4921SOL    HW126396   4.459   4.479   7.796  0.7497  0.1198  0.0948
 4921SOL    HW226397   4.364   4.569   7.860 -0.6702 -0.4438 -0.5641
 4922SOL     OW26398   2.682   3.495  12.747  0.3545 -0.0764  0.0768
 4922SOL    HW126399   2.753   3.536  12.797 -0.3698  1.3271 -0.0414
 4922SOL    HW226400   2.625   3.465  12.817  1.6248  1.1870  1.6483
 4923SOL     OW26401   1.861   2.016   2.641  0.1897  0.7301  0.4196
 4923SOL    HW126402   1.780   1.971   2.621 -0.2030  2.7017 -2.4258
 4923SOL    HW226403   1.931   1.951   2.637 -0.5639 -0.0662  0.2487
 4924SOL     OW26404   2.819   3.525  16.281 -0.0075  0.6480  0.4656
 4924SOL    HW126405   2.779   3.485  16.203 -0.6431 -1.9384  2.0981
 4924SOL    HW226406   2.904   3.483  16.294 -0.1318 -0.3864 -2.0899
 4925SOL     OW26407   3.543   1.069   4.182 -0.7452 -0.0704  0.6233
 4925SOL    HW126408   3.524   0.987   4.137  3.8893 -2.3716  2.8008
 4925SOL    HW226409   3.613   1.115   4.135 -1.2535  0.5014  0.4197
 4926SOL     OW26410   3.655   4.422   2.238  0.5660  0.9236  0.2239
 4926SOL    HW126411   3.740   4.458   2.213  0.1287  0.2133 -2.3171
 4926SOL    HW226412   3.641   4.359   2.167 -1.8925  2.0762 -0.3191
 4927SOL     OW26413   3.939   2.934  15.441  0.4787 -0.0660 -0.5743
 4927SOL    HW126414   3.940   2.856  15.385 -1.9690 -0.6152  0.1301
 4927SOL    HW226415   3.885   2.998  15.395  0.3667  0.7828  0.7175
 4928SOL     OW26416   3.644   0.985  13.736  0.0880 -0.6143 -0.2211
 4928SOL    HW126417   3.691   1.024  13.662  0.9255 -1.0408  0.0935
 4928SOL    HW226418   3.581   0.935  13.684 -0.8539  1.1385 -0.7858
 4929SOL     OW26419   0.092   2.017   7.316 -0.4110 -0.3554  0.2645
 4929SOL    HW126420   0.026   2.084   7.330  1.4937  1.2161  1.6798
 4929SOL    HW226421   0.176   2.063   7.319 -1.0685  0.7724  1.1321
 4930SOL     OW26422   1.179   3.392  11.767 -0.7621  0.4134  0.3740
 4930SOL    HW126423   1.189   3.485  11.787 -0.0294  0.3073  0.5045
 4930SOL    HW226424   1.091   3.391  11.729 -0.4025 -1.5174 -0.3571
 4931SOL     OW26425   1.448   0.852   9.832  0.0023  0.4425 -0.1064
 4931SOL    HW126426   1.481   0.770   9.795 -2.7736  0.0833 -1.7969
 4931SOL    HW226427   1.505   0.919   9.793  0.9158 -0.9039 -1.0601
 4932SOL     OW26428   3.453   0.740  12.070  0.2529 -0.3490 -0.7149
 4932SOL    HW126429   3.464   0.803  11.999 -3.4828 -0.4113 -1.3228
 4932SOL    HW226430   3.403   0.670  12.028 -0.7142 -0.0069 -0.1342
 4933SOL     OW26431   1.034   4.179   9.115  0.0033  0.0421 -0.4046
 4933SOL    HW126432   0.965   4.164   9.179  0.4305  3.7813  0.9275
 4933SOL    HW226433   1.045   4.088   9.086  2.2735 -0.9116  3.3933
 4934SOL     OW26434   3.630   0.418   9.307  0.6841 -0.2149 -0.1825
 4934SOL    HW126435   3.542   0.382   9.311  0.4572  0.3848  0.1873
 4934SOL    HW226436   3.670   0.391   9.390  0.0821  2.5181  1.0156
 4935SOL     OW26437   2.896   3.902   2.418  0.4629 -0.5804  0.0105
 4935SOL    HW126438   2.897   3.854   2.501  0.7494  0.0855  0.3919
 4935SOL    HW226439   2.847   3.979   2.448  0.2768 -0.5245 -0.4479
 4936SOL     OW26440   3.554   0.334  15.534  0.4890  0.1983 -0.2349
 4936SOL    HW126441   3.528   0.403  15.472 -1.1229 -0.5420 -0.3853
 4936SOL    HW226442   3.518   0.258  15.487  3.1063  0.2019 -2.2267
 4937SOL     OW26443   3.543   2.120   4.425 -0.1355 -0.3449  0.0185
 4937SOL    HW126444   3.524   2.182   4.355 -1.2849 -0.2822  0.3828
 4937SOL    HW226445   3.636   2.111   4.405 -0.3302 -1.5183 -0.3812
 4938SOL     OW26446   0.699   1.842   8.082 -0.4068 -0.5694 -0.4045
 4938SOL    HW126447   0.654   1.766   8.046  0.3016 -1.3830  0.4151
 4938SOL    HW226448   0.662   1.843   8.171  0.0157  0.0700 -0.2333
 4939SOL     OW26449   4.075   1.030  14.423 -0.2024 -0.2544 -0.1354
 4939SOL    HW126450   4.017   1.105  14.406  1.6781  1.5865  1.5720
 4939SOL    HW226451   4.120   1.076  14.494  2.0552 -1.3869 -0.8360
 4940SOL     OW26452   0.078   0.184  13.135 -0.0831  0.1149  0.2254
 4940SOL    HW126453   0.022   0.117  13.096  2.1354 -0.2813 -2.2329
 4940SOL    HW226454   0.163   0.142  13.147  0.2630 -0.0336 -2.6735
 4941SOL     OW26455   3.822   4.563   8.438 -0.0863  0.2739 -0.0840
 4941SOL    HW126456   3.783   4.477   8.421  0.2690  0.2927 -0.9982
 4941SOL    HW226457   3.912   4.546   8.412 -0.3290 -0.1498 -0.6566
 4942SOL     OW26458   1.402   0.752   2.844 -0.8617  0.1309 -0.0937
 4942SOL    HW126459   1.383   0.840   2.812  2.4039  1.5058  1.7604
 4942SOL    HW226460   1.326   0.718   2.797 -0.7393 -0.6224  0.2518
 4943SOL     OW26461   0.727   3.205  11.999  0.5975  0.1554 -0.1245
 4943SOL    HW126462   0.702   3.136  11.937  2.6804 -1.9025  1.3223
 4943SOL    HW226463   0.742   3.289  11.956 -0.4049  0.4209  0.0355
 4944SOL     OW26464   3.170   0.567   8.603 -0.2435 -0.1641  0.3657
 4944SOL    HW126465   3.226   0.644   8.593 -1.6564  0.4561 -2.8988
 4944SOL    HW226466   3.097   0.592   8.546  1.2769  1.6768 -0.7844
 4945SOL     OW26467   1.425   2.230   2.205  0.0744 -0.1774  0.2917
 4945SOL    HW126468   1.393   2.211   2.293  1.2495  1.5299  1.0667
 4945SOL    HW226469   1.339   2.254   2.169 -0.9953 -2.6536  1.2056
 4946SOL     OW26470   3.131   2.763   2.354 -0.0570  0.3092  0.6206
 4946SOL    HW126471   3.151   2.675   2.325  1.1471  0.0136  2.3492
 4946SOL    HW226472   3.039   2.748   2.377 -0.5180  1.5019 -0.4044
 4947SOL     OW26473   0.664   3.335   8.596  0.0365 -0.0612 -0.3272
 4947SOL    HW126474   0.697   3.371   8.514  0.2093  0.8031  0.1223
 4947SOL    HW226475   0.648   3.246   8.566 -0.4024  0.2648 -1.0767
 4948SOL     OW26476   1.585   2.069   3.052  0.5069  0.2168  0.1905
 4948SOL    HW126477   1.557   2.019   2.975  0.1242  0.1608  0.3663
 4948SOL    HW226478   1.503   2.073   3.100 -0.4603 -1.3366 -1.3457
 4949SOL     OW26479   0.433   3.209   8.318  0.1176 -0.1475 -0.0990
 4949SOL    HW126480   0.445   3.190   8.225 -1.3593  0.1431 -0.3520
 4949SOL    HW226481   0.437   3.305   8.324 -1.3758 -0.1548  0.9226
 4950SOL     OW26482   0.500   1.031   4.547 -0.2688 -0.0144  0.1250
 4950SOL    HW126483   0.427   1.088   4.525 -0.4957 -1.0396 -1.7843
 4950SOL    HW226484   0.526   1.008   4.458  1.3287  0.2384  0.5325
 4951SOL     OW26485   4.416   2.578   5.160  0.7495 -0.1274 -0.3648
 4951SOL    HW126486   4.420   2.671   5.183  0.5497 -0.8736  2.7958
 4951SOL    HW226487   4.373   2.537   5.235  1.2638 -1.6327 -0.8948
 4952SOL     OW26488   1.482   3.475   1.978 -0.3308 -0.4644 -0.7617
 4952SOL    HW126489   1.518   3.475   2.067 -2.6402 -0.0985  0.1485
 4952SOL    HW226490   1.424   3.551   1.984 -0.8498 -0.9440  0.1799
 4953SOL     OW26491   2.156   2.817   3.967  0.3408 -0.3423  0.5370
 4953SOL    HW126492   2.224   2.869   3.924 -0.4781  0.8944  0.7473
 4953SOL    HW226493   2.076   2.830   3.917  0.2995 -1.0899  0.4013
 4954SOL     OW26494   1.333   1.742   7.828 -0.5176 -0.3675  0.1997
 4954SOL    HW126495   1.298   1.790   7.902  1.3265 -3.2954  2.9967
 4954SOL    HW226496   1.370   1.668   7.877  0.1621 -0.3251 -0.2447
 4955SOL     OW26497   0.368   0.424   2.038 -0.3289  0.2704 -0.3792
 4955SOL    HW126498   0.321   0.484   2.097  0.5604 -0.5215  1.1406
 4955SOL    HW226499   0.407   0.488   1.979  1.5384  0.4385  1.0520
 4956SOL     OW26500   1.191   3.871   0.285  0.0168 -0.1151 -0.5586
 4956SOL    HW126501   1.240   3.814   0.344 -0.1563 -0.6086 -0.8949
 4956SOL    HW226502   1.186   3.819   0.206  0.7891 -1.4389  0.2722
 4957SOL     OW26503   4.674   3.595   7.005 -0.2792  0.3313 -0.6745
 4957SOL    HW126504   4.663   3.553   6.920 -0.2357 -2.9428  0.9456
 4957SOL    HW226505   4.649   3.527   7.067 -0.5980  2.8986  2.0050
 4958SOL     OW26506   2.024   1.140   4.148 -0.3739  0.6658  0.0945
 4958SOL    HW126507   1.983   1.097   4.073  0.3434  0.3494 -0.1089
 4958SOL    HW226508   2.064   1.216   4.107 -0.8875  1.3328  0.8105
 4959SOL     OW26509   3.135   1.138   5.399  0.0444  0.3027 -0.4904
 4959SOL    HW126510   3.043   1.126   5.423  0.0889  0.7129 -0.1133
 4959SOL    HW226511   3.156   1.050   5.367  1.1911 -0.0317  1.2551
 4960SOL     OW26512   2.814   0.677   5.231 -0.4680  0.2226  0.0498
 4960SOL    HW126513   2.794   0.604   5.172  0.0742 -1.4434  1.9225
 4960SOL    HW226514   2.905   0.700   5.212  0.0665  0.1854  2.4613
 4961SOL     OW26515   2.188   2.611   6.034 -0.2930  0.2702 -0.4760
 4961SOL    HW126516   2.123   2.677   6.008 -0.1070  0.6749  0.0940
 4961SOL    HW226517   2.214   2.569   5.952  0.2527  1.4927 -0.9257
 4962SOL     OW26518   3.888   4.619  11.131  0.0550  0.3337  0.4825
 4962SOL    HW126519   3.815   4.653  11.080  0.6502  0.2017 -0.4669
 4962SOL    HW226520   3.874   4.654  11.219 -0.9683  0.5223  0.2446
 4963SOL     OW26521   2.718   1.697   4.435 -0.1077 -0.4250  0.4114
 4963SOL    HW126522   2.763   1.668   4.514  0.9071 -3.2148 -1.1913
 4963SOL    HW226523   2.795   1.706   4.379 -0.3715 -1.0160 -0.0352
 4964SOL     OW26524   3.301   2.551   8.805 -0.0352  0.2551  0.1534
 4964SOL    HW126525   3.211   2.531   8.781 -0.2571 -0.4708  1.6552
 4964SOL    HW226526   3.285   2.645   8.812  1.1127  0.4864 -0.2728
 4965SOL     OW26527   3.964   3.497   8.377  0.3492 -0.4913 -0.1912
 4965SOL    HW126528   4.027   3.463   8.441 -0.0831 -1.9717 -0.5440
 4965SOL    HW226529   4.021   3.563   8.339  0.8219 -0.9465 -0.2732
 4966SOL     OW26530   0.197   1.097   8.229  0.5710 -0.7250  0.1551
 4966SOL    HW126531   0.278   1.142   8.253 -0.1195  1.8168 -2.2322
 4966SOL    HW226532   0.135   1.119   8.299  0.4772 -0.3587 -0.0455
 4967SOL     OW26533   2.307   2.636   3.068 -0.4825 -0.2913  0.2894
 4967SOL    HW126534   2.260   2.564   3.110  2.6450 -1.8654  1.0419
 4967SOL    HW226535   2.357   2.657   3.146 -0.8814 -1.5894  0.8921
 4968SOL     OW26536   0.073   2.523   6.432 -0.5579  0.0232  0.5213
 4968SOL    HW126537   0.143   2.489   6.377 -1.5132 -2.1954  0.6806
 4968SOL    HW226538   0.109   2.533   6.520 -1.8397 -2.2934  1.2958
 4969SOL     OW26539   2.107   2.519   7.587 -0.2533  0.4877  0.3898
 4969SOL    HW126540   2.041   2.450   7.583  0.0704  0.2721 -1.2189
 4969SOL    HW226541   2.052   2.591   7.556  1.7772  1.8425 -0.0426
 4970SOL     OW26542   2.361   3.018   5.377  0.0606 -0.3132 -0.4984
 4970SOL    HW126543   2.403   3.024   5.291  0.0408 -2.5066 -0.6479
 4970SOL    HW226544   2.393   3.087   5.436  2.5694 -0.4405 -1.7192
 4971SOL     OW26545   2.439   0.376  11.421 -0.2001  0.1484 -0.2797
 4971SOL    HW126546   2.363   0.406  11.470  0.2905  1.0007 -0.0512
 4971SOL    HW226547   2.433   0.282  11.439 -0.6223  0.5485  1.5844
 4972SOL     OW26548   1.410   3.250   8.751  0.2646  0.4042  0.0075
 4972SOL    HW126549   1.451   3.230   8.667  0.5615 -1.2562  0.5452
 4972SOL    HW226550   1.321   3.215   8.744  0.0431  0.7801  0.9623
 4973SOL     OW26551   2.465   0.515   3.007 -0.1085 -0.0436 -0.2669
 4973SOL    HW126552   2.405   0.553   3.071 -0.2455  1.5149 -1.3249
 4973SOL    HW226553   2.548   0.545   3.044 -1.2065  1.2989  1.0967
 4974SOL     OW26554   1.106   2.174   6.889 -0.5416 -0.0578 -0.3128
 4974SOL    HW126555   1.092   2.237   6.817  1.9211  0.8391 -0.0098
 4974SOL    HW226556   1.107   2.230   6.966  0.3333  0.1880 -0.5031
 4975SOL     OW26557   1.701   3.944  17.196 -0.0888  0.1642 -0.3163
 4975SOL    HW126558   1.754   3.971  17.271  2.3160 -2.2367 -1.1440
 4975SOL    HW226559   1.674   3.857  17.226  2.9353 -1.0324 -1.0817
 4976SOL     OW26560   3.168   4.269   3.899  0.2804  0.3374  0.0105
 4976SOL    HW126561   3.176   4.340   3.962  1.0436 -1.1936  1.6365
 4976SOL    HW226562   3.074   4.249   3.898  0.6527 -1.4403  0.2533
 4977SOL     OW26563   0.101   4.065  16.094  0.4463 -0.5806  0.0983
 4977SOL    HW126564   0.071   4.150  16.061  0.6142 -0.2065  0.9088
 4977SOL    HW226565   0.120   4.028  16.008 -3.4103 -0.5684 -0.7836
 4978SOL     OW26566   0.456   3.345  17.344 -0.3423 -0.4974  0.2040
 4978SOL    HW126567   0.519   3.291  17.296 -0.0463 -0.6802  0.8041
 4978SOL    HW226568   0.471   3.438  17.325  0.3859 -0.7016 -0.2161
 4979SOL     OW26569   3.933   4.086   4.755 -0.1066  0.2127  0.1287
 4979SOL    HW126570   3.948   3.994   4.733  2.7542  0.7988 -0.4389
 4979SOL    HW226571   3.947   4.073   4.849  0.6168 -0.6159 -0.0830
 4980SOL     OW26572   1.770   2.134   7.439 -0.0091 -0.6492  0.1931
 4980SOL    HW126573   1.718   2.057   7.460 -1.1549  0.1726  0.4051
 4980SOL    HW226574   1.734   2.202   7.495  0.1065 -0.3265 -0.1218
 4981SOL     OW26575   0.495   4.143  14.286 -0.1072 -0.0463  0.0591
 4981SOL    HW126576   0.450   4.136  14.202  0.9048  0.4348 -0.5182
 4981SOL    HW226577   0.584   4.165  14.258 -0.0445 -2.6250 -1.7908
 4982SOL     OW26578   2.051   2.386   2.470  0.4249  0.2056  0.6441
 4982SOL    HW126579   2.073   2.358   2.559 -0.2817 -0.0479  0.7378
 4982SOL    HW226580   1.961   2.354   2.481  1.0640 -1.2925  1.4712
 4983SOL     OW26581   3.835   3.134   4.225 -0.3570 -0.3003 -0.2306
 4983SOL    HW126582   3.774   3.086   4.169  0.5719 -1.1418 -0.5364
 4983SOL    HW226583   3.867   3.063   4.280 -1.2763  0.1268  0.8474
 4984SOL     OW26584   2.295   3.272   9.512  0.1136 -0.1782 -0.4667
 4984SOL    HW126585   2.264   3.188   9.478 -0.9302  0.5287 -1.2866
 4984SOL    HW226586   2.331   3.309   9.431 -1.5852 -1.1825 -1.6844
 4985SOL     OW26587   2.449   3.562  16.783 -0.0360  0.8149  0.4544
 4985SOL    HW126588   2.426   3.634  16.725 -2.3362  0.5661  1.0373
 4985SOL    HW226589   2.539   3.536  16.763 -0.2098  1.5125 -1.1895
 4986SOL     OW26590   4.217   2.541  13.088 -0.0901 -0.3402  0.3123
 4986SOL    HW126591   4.242   2.618  13.037 -0.6166 -1.0273 -0.9903
 4986SOL    HW226592   4.166   2.590  13.152  0.6127 -1.3439  1.6440
 4987SOL     OW26593   4.245   3.747   8.562  0.1517 -0.1666  0.2959
 4987SOL    HW126594   4.164   3.780   8.602  1.0632 -0.2009  2.2086
 4987SOL    HW226595   4.227   3.654   8.565 -0.7278 -0.0230 -0.8703
 4988SOL     OW26596   1.393   1.044   0.364  0.2633 -0.3993 -0.3697
 4988SOL    HW126597   1.376   0.970   0.423 -0.0126 -0.5154 -0.5935
 4988SOL    HW226598   1.443   1.100   0.423 -0.4243  0.6316 -0.7789
 4989SOL     OW26599   1.894   3.767   1.860 -0.2929 -0.4929  0.9293
 4989SOL    HW126600   1.832   3.835   1.887 -0.2801 -0.6426  1.3317
 4989SOL    HW226601   1.907   3.729   1.947 -1.9273 -0.2876  1.2646
 4990SOL     OW26602   2.211   2.468   8.049  0.2895 -0.3942 -0.0121
 4990SOL    HW126603   2.254   2.390   8.015  2.5564 -0.5516  3.2823
 4990SOL    HW226604   2.136   2.411   8.070 -0.6941  0.9537  0.1521
 4991SOL     OW26605   3.170   3.641  11.165  0.0909 -0.3751 -0.0255
 4991SOL    HW126606   3.214   3.579  11.223 -0.0938  0.0896  0.6197
 4991SOL    HW226607   3.094   3.652  11.222  1.3077  0.5957  1.4039
 4992SOL     OW26608   4.087   3.702   9.152  0.6050 -0.2577  0.3153
 4992SOL    HW126609   4.093   3.612   9.185 -1.6972 -0.9843 -1.2265
 4992SOL    HW226610   4.123   3.759   9.221 -4.1261  3.1152  0.0168
 4993SOL     OW26611   2.301   2.391  12.504  0.0232  0.5839  0.2123
 4993SOL    HW126612   2.380   2.415  12.456  0.3116  1.6024  1.1993
 4993SOL    HW226613   2.322   2.418  12.593  0.8690 -2.0178  0.8101
 4994SOL     OW26614   4.078   4.339   7.260  0.4332 -0.1229 -0.4106
 4994SOL    HW126615   4.141   4.384   7.204 -0.7027  0.3467 -1.3214
 4994SOL    HW226616   4.013   4.291   7.209 -0.1999 -0.3462  0.5874
 4995SOL     OW26617   4.048   2.864   6.806  0.1790  0.0556  0.6542
 4995SOL    HW126618   4.058   2.833   6.717  0.4401 -1.3930  1.1960
 4995SOL    HW226619   4.084   2.792   6.857  2.0208  0.6688  0.2286
 4996SOL     OW26620   1.191   3.077  17.203 -0.2086  0.4092  0.4473
 4996SOL    HW126621   1.124   3.016  17.236  0.8230 -0.9469  0.0378
 4996SOL    HW226622   1.174   3.074  17.109 -0.9444 -0.2249  0.5960
 4997SOL     OW26623   0.587   1.941   3.373  0.1485 -0.2376  0.1446
 4997SOL    HW126624   0.651   1.973   3.310 -1.8949  2.7640 -0.4319
 4997SOL    HW226625   0.504   1.965   3.331 -0.0121 -1.3103 -0.1506
 4998SOL     OW26626   3.966   3.114  11.557 -0.2311 -0.0967 -0.4288
 4998SOL    HW126627   4.048   3.139  11.515 -0.7602 -2.5614 -2.9377
 4998SOL    HW226628   3.970   3.162  11.640  1.0592 -0.6422 -0.1646
 4999SOL     OW26629   1.159   1.239   7.504  0.1667  0.0391  0.6109
 4999SOL    HW126630   1.193   1.273   7.587 -2.4510 -0.0778  1.7448
 4999SOL    HW226631   1.220   1.281   7.444  1.2258  0.3648  1.9235
 5000SOL     OW26632   0.004   2.751   6.275 -0.5080  0.1262 -0.1116
 5000SOL    HW126633   0.012   2.678   6.336 -1.8721  0.2908  0.2716
 5000SOL    HW226634   0.086   2.744   6.226  0.2995 -0.7272  1.3848
 5001SOL     OW26635   0.943   3.971   5.755 -0.1476  0.0273  0.3757
 5001SOL    HW126636   0.958   3.884   5.791  0.9332  1.2465  2.8089
 5001SOL    HW226637   0.850   3.957   5.735 -0.0712 -0.5326  0.4219
 5002SOL     OW26638   4.696   2.188   1.561  0.4860 -0.6825  0.0472
 5002SOL    HW126639   0.039   2.136   1.553  0.9260 -0.1741  1.1010
 5002SOL    HW226640   4.646   2.146   1.491  1.4578  1.2380 -1.8087
 5003SOL     OW26641   2.704   3.672   8.445 -0.0605 -0.4156  0.3392
 5003SOL    HW126642   2.729   3.608   8.511  1.5624 -1.4699 -1.3002
 5003SOL    HW226643   2.783   3.675   8.391  1.0224 -0.9294  1.9155
 5004SOL     OW26644   2.690   4.352   4.718  0.4957  0.1245  0.0355
 5004SOL    HW126645   2.667   4.315   4.803 -0.3265 -1.2250 -0.7699
 5004SOL    HW226646   2.606   4.387   4.687  1.1592  1.6865 -0.0242
 5005SOL     OW26647   3.598   0.809   3.421 -0.0674 -0.0361 -0.0104
 5005SOL    HW126648   3.635   0.779   3.338 -1.4005  1.1337 -1.0249
 5005SOL    HW226649   3.651   0.885   3.444  1.9716 -1.4307 -0.0402
 5006SOL     OW26650   2.159   1.331   8.512 -0.0797  0.0800 -0.4459
 5006SOL    HW126651   2.120   1.393   8.574  1.4213 -0.2627  0.8586
 5006SOL    HW226652   2.183   1.258   8.570 -0.0735 -0.0515 -0.6120
 5007SOL     OW26653   3.739   4.295   8.436  0.3497  0.7843 -0.4400
 5007SOL    HW126654   3.652   4.276   8.401 -0.7661  0.7822  2.3824
 5007SOL    HW226655   3.765   4.206   8.460  0.0669  1.0577  0.8696
 5008SOL     OW26656   2.542   1.960   1.654 -0.0167 -0.1817 -0.1067
 5008SOL    HW126657   2.566   2.043   1.696  1.0592  0.3620 -1.7964
 5008SOL    HW226658   2.630   1.924   1.646 -0.6496 -1.8604  0.5175
 5009SOL     OW26659   1.441   0.274   5.151  0.3485  0.5370  0.0726
 5009SOL    HW126660   1.510   0.261   5.216 -1.5607 -3.5506  1.2562
 5009SOL    HW226661   1.371   0.304   5.208 -0.4496  0.2908 -0.7683
 5010SOL     OW26662   0.242   0.357   3.995 -0.8345  0.3533 -0.0465
 5010SOL    HW126663   0.179   0.296   3.957 -1.8145  0.9721  0.5859
 5010SOL    HW226664   0.187   0.433   4.014 -2.2126 -0.7829  0.4995
 5011SOL     OW26665   2.818   3.195   3.454  0.7228  0.5228  0.0938
 5011SOL    HW126666   2.809   3.279   3.499 -0.4270  0.8091 -0.6726
 5011SOL    HW226667   2.815   3.232   3.366 -1.2931  0.0474 -0.0351
 5012SOL     OW26668   3.885   2.911  15.700 -0.7253 -0.6459 -0.4360
 5012SOL    HW126669   3.858   2.820  15.693 -0.1375 -0.7461 -1.3867
 5012SOL    HW226670   3.921   2.926  15.613 -1.4302 -1.1750 -0.8162
 5013SOL     OW26671   2.463   0.847   9.893 -0.4831 -0.2614 -0.6529
 5013SOL    HW126672   2.521   0.772   9.906 -2.3638 -1.2979  1.6897
 5013SOL    HW226673   2.391   0.804   9.849 -0.0533 -0.8970 -0.7306
 5014SOL     OW26674   1.285   3.427   2.548 -0.4400  0.3802 -0.3687
 5014SOL    HW126675   1.304   3.349   2.497 -0.0136 -0.1926  0.6652
 5014SOL    HW226676   1.268   3.384   2.632 -1.8209 -1.0306 -1.3598
 5015SOL     OW26677   1.311   0.905   8.421  0.0295 -0.8444 -0.1256
 5015SOL    HW126678   1.369   0.969   8.380 -0.0602 -1.2754 -0.9282
 5015SOL    HW226679   1.279   0.859   8.343 -0.6259 -1.1668  0.3374
 5016SOL     OW26680   1.455   2.234   3.580  0.2307 -0.5777 -0.1762
 5016SOL    HW126681   1.419   2.299   3.641 -1.7134 -2.2738  0.4702
 5016SOL    HW226682   1.537   2.215   3.626 -1.2371 -0.7554  2.3711
 5017SOL     OW26683   0.766   0.627  17.278 -0.3570  0.1067  0.0386
 5017SOL    HW126684   0.804   0.652  17.194 -1.0842 -1.7836 -0.8528
 5017SOL    HW226685   0.689   0.684  17.286 -0.8502 -0.5767  0.1815
 5018SOL     OW26686   2.925   1.914   5.720 -0.2338  0.1504 -0.2352
 5018SOL    HW126687   2.953   1.827   5.746 -0.7371  0.9060  2.8604
 5018SOL    HW226688   2.955   1.961   5.798 -1.4742 -0.3257  0.5280
 5019SOL     OW26689   1.755   2.036  12.003  0.3866 -0.0638 -0.6472
 5019SOL    HW126690   1.811   2.032  12.080  1.4827 -0.3807 -1.4631
 5019SOL    HW226691   1.755   2.130  11.984  0.9724  0.4049  1.6974
 5020SOL     OW26692   1.090   3.587   2.453 -0.4530  0.6499 -0.0606
 5020SOL    HW126693   1.074   3.536   2.373  2.5269  0.3201 -0.4217
 5020SOL    HW226694   1.161   3.536   2.492 -0.3003  0.9673  0.0761
 5021SOL     OW26695   0.543   2.593   0.264  0.0367  0.6187 -0.3822
 5021SOL    HW126696   0.610   2.525   0.268  3.1166  3.7266  0.6520
 5021SOL    HW226697   0.578   2.659   0.323  0.1318  0.6126 -0.4329
 5022SOL     OW26698   0.386   4.516  13.578  0.2636  0.2237 -0.5644
 5022SOL    HW126699   0.383   4.540  13.485  0.5268 -1.3986 -0.9866
 5022SOL    HW226700   0.305   4.466  13.586  0.3382  0.0960 -0.6064
 5023SOL     OW26701   2.648   2.834   3.947  0.2219  0.1848  0.4160
 5023SOL    HW126702   2.584   2.775   3.907  0.2719 -1.0951  2.2448
 5023SOL    HW226703   2.721   2.773   3.951 -0.2086 -0.3344  0.4168
 5024SOL     OW26704   1.726   0.018   6.945  0.3980 -0.2838 -0.1554
 5024SOL    HW126705   1.748   0.098   6.992 -0.3132 -0.1958  0.0349
 5024SOL    HW226706   1.765   0.035   6.859 -1.3994  1.4237 -0.6241
 5025SOL     OW26707   3.032   2.307  10.520  0.1643  0.5323 -0.3295
 5025SOL    HW126708   2.980   2.383  10.546 -2.0627 -0.9473 -0.4735
 5025SOL    HW226709   3.082   2.306  10.601 -3.2792 -2.5803  1.7535
 5026SOL     OW26710   3.317   0.848  16.311 -0.4355  0.2290 -0.3492
 5026SOL    HW126711   3.389   0.812  16.259  0.0847 -0.4465  0.8232
 5026SOL    HW226712   3.322   0.801  16.395  2.6401  1.3592  0.1068
 5027SOL     OW26713   4.355   3.628   6.508 -0.3426  0.2723 -0.6641
 5027SOL    HW126714   4.311   3.598   6.429  0.5843  0.1847 -1.1528
 5027SOL    HW226715   4.284   3.674   6.552 -0.6254 -0.1305 -0.6950
 5028SOL     OW26716   2.560   3.468   7.120  1.0644 -0.9151  0.7512
 5028SOL    HW126717   2.540   3.438   7.208 -1.3968  0.0818  0.5500
 5028SOL    HW226718   2.638   3.419   7.096  0.9467 -1.1504  0.8538
 5029SOL     OW26719   0.032   1.525   1.480 -0.3978  0.4203  0.1687
 5029SOL    HW126720   0.018   1.531   1.385  0.1886  1.6904  0.1650
 5029SOL    HW226721   4.708   1.451   1.495 -1.3967  0.9770 -1.0197
 5030SOL     OW26722   1.537   4.295   2.900 -0.0361 -0.4402  0.4280
 5030SOL    HW126723   1.466   4.250   2.855  0.0106 -0.0040 -0.0883
 5030SOL    HW226724   1.611   4.248   2.860 -0.0778 -1.9238  2.1486
 5031SOL     OW26725   4.453   0.216  13.698  0.3448  0.3194  0.2983
 5031SOL    HW126726   4.435   0.250  13.610  1.9055 -0.4309 -0.3083
 5031SOL    HW226727   4.526   0.159  13.673  1.3920  1.1788  1.3822
 5032SOL     OW26728   0.983   2.474   4.315 -0.2537  0.1269  0.0588
 5032SOL    HW126729   0.958   2.439   4.230 -0.2799  0.9922 -0.2872
 5032SOL    HW226730   0.930   2.424   4.377 -0.9597 -0.9255 -1.4052
 5033SOL     OW26731   1.185   2.666   1.985  0.4408  0.1866 -0.2861
 5033SOL    HW126732   1.090   2.659   1.995  0.6354 -2.5459 -0.3472
 5033SOL    HW226733   1.202   2.627   1.899  2.0750  0.9414 -0.2941
 5034SOL     OW26734   0.422   3.450   3.961  0.5584  0.4864 -0.0692
 5034SOL    HW126735   0.349   3.391   3.977  1.3321  0.1528  2.2270
 5034SOL    HW226736   0.405   3.510   4.034 -0.3176 -0.9933  0.9543
 5035SOL     OW26737   4.619   0.196   9.173  0.9274 -0.2438  0.1144
 5035SOL    HW126738   4.586   0.247   9.099  2.8839  1.0090  0.1037
 5035SOL    HW226739   4.541   0.208   9.227  1.5449 -1.8060  1.3619
 5036SOL     OW26740   3.084   3.238   9.121  0.1954 -0.4274 -0.5771
 5036SOL    HW126741   3.163   3.236   9.176 -0.7236 -0.4791  0.7443
 5036SOL    HW226742   3.056   3.147   9.125 -3.3678  0.7310  0.5440
 5037SOL     OW26743   3.375   4.633  11.948 -0.0698 -0.2824  0.0574
 5037SOL    HW126744   3.286   4.668  11.937 -0.2920 -1.1044 -0.7703
 5037SOL    HW226745   3.416   4.599  11.869 -0.4435 -0.0078 -0.2525
 5038SOL     OW26746   0.316   4.029   7.578  0.4237  0.2243  0.2862
 5038SOL    HW126747   0.231   4.031   7.534  0.9974 -3.3272 -0.9929
 5038SOL    HW226748   0.314   4.125   7.578 -1.4717  0.1840  0.7918
 5039SOL     OW26749   1.898   1.705   7.688 -0.5378  0.1655  0.0402
 5039SOL    HW126750   1.912   1.621   7.646 -0.6425  0.4458 -0.5543
 5039SOL    HW226751   1.982   1.742   7.716 -0.9452  1.0626  0.0797
 5040SOL     OW26752   1.529   2.840  11.003 -0.2485 -0.1197 -0.0148
 5040SOL    HW126753   1.523   2.926  11.044 -1.8547 -0.3105  0.1229
 5040SOL    HW226754   1.445   2.833  10.958 -0.4776  0.7445  0.2764
 5041SOL     OW26755   0.908   4.436   0.440  0.2466  0.1842 -0.0586
 5041SOL    HW126756   0.822   4.462   0.472  0.2969 -2.3305  2.1278
 5041SOL    HW226757   0.921   4.344   0.466 -2.6595 -1.6247 -5.0691
 5042SOL     OW26758   3.802   2.953   5.710 -0.2023 -0.1025  1.2381
 5042SOL    HW126759   3.814   2.903   5.629 -1.1913 -0.5731  1.3809
 5042SOL    HW226760   3.842   2.889   5.769  2.6493  0.4873 -0.0479
 5043SOL     OW26761   4.271   0.761   8.584 -0.0968 -0.1606 -0.6535
 5043SOL    HW126762   4.254   0.667   8.572  1.1218 -0.6453  1.4762
 5043SOL    HW226763   4.296   0.767   8.676  2.1970  0.5490 -1.2979
 5044SOL     OW26764   1.519   0.746   3.148 -0.1887  0.5381  0.3636
 5044SOL    HW126765   1.447   0.807   3.133 -0.1748  0.6244  0.6619
 5044SOL    HW226766   1.496   0.705   3.231  2.4002 -1.2776  0.1917
 5045SOL     OW26767   1.959   3.807  10.230 -0.2465  0.9654 -0.0726
 5045SOL    HW126768   1.966   3.716  10.258 -2.0878  1.0209  0.5605
 5045SOL    HW226769   1.906   3.853  10.295  0.1676 -1.2240  1.7930
 5046SOL     OW26770   3.678   0.555  17.242 -1.1220 -0.7964 -0.4225
 5046SOL    HW126771   3.676   0.486  17.308  0.1813 -1.8129 -1.4378
 5046SOL    HW226772   3.637   0.507  17.170 -2.1878 -0.0583 -0.3110
 5047SOL     OW26773   2.720   0.300   5.434  0.3023 -0.0594  0.0565
 5047SOL    HW126774   2.806   0.291   5.394  0.3645  0.2813  0.1123
 5047SOL    HW226775   2.737   0.372   5.495 -0.3572 -0.6575  0.9317
 5048SOL     OW26776   2.327   4.302   0.911  0.2562  0.2662  0.2539
 5048SOL    HW126777   2.361   4.231   0.858  0.0724  0.7741 -0.5419
 5048SOL    HW226778   2.388   4.282   0.983 -0.5571 -1.3841  0.4730
 5049SOL     OW26779   0.000   2.837   4.632  0.7479  0.0980 -0.8043
 5049SOL    HW126780   4.692   2.890   4.566  1.5957  0.5837 -0.9880
 5049SOL    HW226781   4.698   2.862   4.716  0.4297 -0.9454 -0.6310
 5050SOL     OW26782   2.863   2.631  16.431  0.0946 -0.0171  0.1502
 5050SOL    HW126783   2.896   2.720  16.438  0.0938  0.0189 -0.2849
 5050SOL    HW226784   2.844   2.634  16.337 -0.3618 -1.1130  0.2092
 5051SOL     OW26785   3.832   2.547  17.035 -0.2219  0.1765  0.0881
 5051SOL    HW126786   3.811   2.542  16.941  0.6456  0.3544 -0.1225
 5051SOL    HW226787   3.874   2.464  17.059 -1.9414 -1.2680 -1.8602
 5052SOL     OW26788   4.063   0.534  10.260  0.1555 -0.2354 -0.1918
 5052SOL    HW126789   4.101   0.470  10.320 -0.1893  1.0159  1.3706
 5052SOL    HW226790   3.970   0.532  10.283  0.6595 -0.1722  1.8154
 5053SOL     OW26791   1.536   3.590  10.292 -0.0980 -0.0082 -0.1308
 5053SOL    HW126792   1.463   3.576  10.353 -0.2230 -0.9478 -0.4950
 5053SOL    HW226793   1.569   3.667  10.338 -1.7839  1.9101 -2.1252
 5054SOL     OW26794   3.525   0.173   6.989  0.1370 -0.4265  0.3274
 5054SOL    HW126795   3.532   0.079   6.975 -0.8613 -0.4693  0.0648
 5054SOL    HW226796   3.582   0.182   7.066  0.8704  0.5305 -0.3300
 5055SOL     OW26797   4.497   3.792  17.581  0.2180  0.1102  0.0089
 5055SOL    HW126798   4.517   3.699  17.568 -1.3279 -0.3773  1.0834
 5055SOL    HW226799   4.534   3.828  17.500  0.9229 -0.5029  0.0642
 5056SOL     OW26800   3.896   1.981   8.973  0.6013 -0.0088 -0.1403
 5056SOL    HW126801   3.952   1.959   8.899  0.5947  1.6192 -0.6403
 5056SOL    HW226802   3.865   1.893   8.994 -0.0069  0.8068  2.4808
 5057SOL     OW26803   0.579   0.625   1.629 -0.1899 -0.5925 -0.2232
 5057SOL    HW126804   0.626   0.675   1.562 -0.6510  0.6981  0.4034
 5057SOL    HW226805   0.497   0.675   1.631  0.5090  0.5068  1.0903
 5058SOL     OW26806   1.085   4.395   2.180 -0.0881 -0.0989 -0.1914
 5058SOL    HW126807   1.168   4.438   2.198 -1.1784  1.8755  0.2015
 5058SOL    HW226808   1.108   4.312   2.220  1.3435 -0.3358 -1.4856
 5059SOL     OW26809   1.785   2.658   3.952  0.0634 -0.4776  0.3167
 5059SOL    HW126810   1.849   2.722   3.923 -0.7198  0.3693  0.4581
 5059SOL    HW226811   1.714   2.652   3.887 -0.6027 -0.9040  1.0756
 5060SOL     OW26812   4.461   4.511   7.503 -0.0530  0.2246  0.5230
 5060SOL    HW126813   4.446   4.559   7.422  2.1112  1.5465  0.9037
 5060SOL    HW226814   4.387   4.538   7.558  1.4103 -0.2128  2.7326
 5061SOL     OW26815   0.997   3.845  13.267 -0.2852  0.2136 -0.2608
 5061SOL    HW126816   0.936   3.883  13.203  0.2467 -3.4522 -2.9176
 5061SOL    HW226817   0.942   3.773  13.298 -2.2335  2.2313  1.0502
 5062SOL     OW26818   2.610   1.120   3.817 -0.6441  0.4519  0.3014
 5062SOL    HW126819   2.655   1.198   3.785 -0.0438  0.3096  0.8109
 5062SOL    HW226820   2.612   1.066   3.739 -0.9604  1.6169 -0.5154
 5063SOL     OW26821   2.803   3.839   6.798  0.0629 -0.3332 -0.2949
 5063SOL    HW126822   2.770   3.857   6.710  1.7862  0.4411 -0.7862
 5063SOL    HW226823   2.727   3.801   6.843  2.0771 -1.0188  2.5737
 5064SOL     OW26824   1.274   0.249  14.571  0.2175 -0.0105  0.5801
 5064SOL    HW126825   1.347   0.188  14.560 -0.7117 -0.7895 -1.4250
 5064SOL    HW226826   1.316   0.324  14.530 -0.3640 -0.1730 -0.3322
 5065SOL     OW26827   2.607   1.342   2.370  0.2672 -0.3659 -0.0163
 5065SOL    HW126828   2.604   1.438   2.371 -0.5896 -0.3957 -0.0147
 5065SOL    HW226829   2.657   1.335   2.289 -0.4556  0.7892 -0.5770
 5066SOL     OW26830   4.662   4.330  11.330 -0.0812 -0.0071 -0.3122
 5066SOL    HW126831   4.684   4.260  11.393  0.8278 -0.4053 -1.0799
 5066SOL    HW226832   0.014   4.359  11.306  0.2088  0.8283  1.7095
 5067SOL     OW26833   4.210   4.724   5.826 -0.1230  0.4469  0.0124
 5067SOL    HW126834   4.265   4.693   5.898 -1.0148 -0.6695  0.2192
 5067SOL    HW226835   4.277   0.008   5.761  0.5664 -1.1237  0.2478
 5068SOL     OW26836   3.480   0.565  14.782  0.6905  0.3254 -0.2358
 5068SOL    HW126837   3.518   0.651  14.802  0.2200  0.0224  1.9902
 5068SOL    HW226838   3.388   0.584  14.801  0.6138  0.9152 -1.2245
 5069SOL     OW26839   0.022   0.129  10.090 -0.2017  0.1676  0.4839
 5069SOL    HW126840   4.705   0.052  10.069 -2.2982  1.8527 -0.3955
 5069SOL    HW226841   4.735   0.135  10.183 -2.6935 -2.1253  0.0426
 5070SOL     OW26842   1.616   2.941   8.036  0.3639  0.3987  0.0512
 5070SOL    HW126843   1.521   2.950   8.030  0.1439 -2.1939 -0.4908
 5070SOL    HW226844   1.631   3.012   8.098  1.1456 -1.0378  1.5141
 5071SOL     OW26845   4.487   4.677   8.612 -0.9285  0.1794  0.6643
 5071SOL    HW126846   4.554   0.006   8.592 -1.7221  0.8855  0.2950
 5071SOL    HW226847   4.533   4.596   8.588 -0.3397  0.0916  2.1243
 5072SOL     OW26848   4.349   2.931   5.634 -0.1158 -0.3142  0.4542
 5072SOL    HW126849   4.321   3.019   5.659 -1.9769 -0.5254 -0.9606
 5072SOL    HW226850   4.434   2.956   5.598 -0.5479  1.0624  0.3780
 5073SOL     OW26851   4.036   1.408  13.298  0.2151  0.1297  0.2077
 5073SOL    HW126852   3.980   1.424  13.222 -0.5008  1.5359  1.0182
 5073SOL    HW226853   4.114   1.364  13.266  0.9342  1.7180 -0.2226
 5074SOL     OW26854   2.065   0.860   9.859  0.0490 -0.1695  0.0140
 5074SOL    HW126855   2.040   0.769   9.871  0.0133 -0.3545 -1.4741
 5074SOL    HW226856   2.057   0.883   9.766 -0.4146 -0.3478  0.0062
 5075SOL     OW26857   0.383   2.013   2.909 -0.1370  0.4853 -0.4451
 5075SOL    HW126858   0.388   2.108   2.900  0.9122  0.8434  3.7731
 5075SOL    HW226859   0.441   1.988   2.981  1.4771  1.0491 -1.5569
 5076SOL     OW26860   0.735   3.288  15.841  0.1890  0.2851 -0.1308
 5076SOL    HW126861   0.681   3.368  15.836 -0.6461 -0.2730 -0.1307
 5076SOL    HW226862   0.675   3.214  15.841 -1.4361  1.5856  1.5652
 5077SOL     OW26863   0.200   1.258   2.398  0.3459 -0.2916 -0.1175
 5077SOL    HW126864   0.238   1.306   2.472  0.7772  0.6254 -0.9259
 5077SOL    HW226865   0.217   1.312   2.320  0.1812 -0.8100 -0.5122
 5078SOL     OW26866   0.294   3.371   9.863 -0.4526 -0.1103  0.2194
 5078SOL    HW126867   0.206   3.409   9.864  0.6203  2.4108 -1.6440
 5078SOL    HW226868   0.354   3.435   9.902  1.3333 -2.6139  1.5761
 5079SOL     OW26869   0.035   1.852  15.736 -0.5110 -0.4376  0.3668
 5079SOL    HW126870   0.102   1.785  15.722 -0.2527  0.0857 -0.9025
 5079SOL    HW226871   0.029   1.882  15.645  0.5305 -1.0022  0.1126
 5080SOL     OW26872   3.207   4.552   0.921  0.4439 -0.5384 -0.4332
 5080SOL    HW126873   3.244   4.523   1.004 -0.3997 -0.4539 -0.0310
 5080SOL    HW226874   3.179   4.463   0.897  0.0593 -0.5993  0.2559
 5081SOL     OW26875   1.294   0.893   3.161  0.2798  0.0602  0.5996
 5081SOL    HW126876   1.219   0.870   3.216  0.9843 -1.9676  0.6996
 5081SOL    HW226877   1.238   0.913   3.085 -0.5628  0.8743  1.4311
 5082SOL     OW26878   1.195   0.259  13.017 -0.2542 -0.1288  0.1338
 5082SOL    HW126879   1.253   0.184  13.032  0.1817 -0.1597 -1.6569
 5082SOL    HW226880   1.185   0.288  13.107  1.6720  2.0432 -0.3651
 5083SOL     OW26881   2.853   4.328   7.186 -0.1016  0.8816  0.1897
 5083SOL    HW126882   2.772   4.307   7.232  0.2424 -0.0343  0.3630
 5083SOL    HW226883   2.868   4.250   7.133 -0.1340  1.9383 -1.3988
 5084SOL     OW26884   1.446   2.996   4.652  0.2801 -0.2602  0.2224
 5084SOL    HW126885   1.518   3.006   4.714  3.0442  2.2551 -3.3934
 5084SOL    HW226886   1.487   3.016   4.568 -1.9173  2.4650 -0.1743
 5085SOL     OW26887   2.981   2.426   4.087  0.1767 -0.6040 -0.5748
 5085SOL    HW126888   2.935   2.492   4.140  2.1523 -0.2481  0.6683
 5085SOL    HW226889   2.907   2.392   4.037  0.5927 -3.5908  0.8753
 5086SOL     OW26890   3.133   1.991  11.039 -0.6235 -0.6677 -0.1705
 5086SOL    HW126891   3.131   1.960  10.949 -1.6490 -1.7208  0.2120
 5086SOL    HW226892   3.191   2.067  11.040 -1.1645 -0.2499 -0.4637
 5087SOL     OW26893   3.344   3.832  10.705  0.0738  0.4890 -0.4719
 5087SOL    HW126894   3.400   3.872  10.638  1.7061  1.6540  1.5705
 5087SOL    HW226895   3.304   3.760  10.658  2.0812  0.4761 -2.1989
 5088SOL     OW26896   0.383   0.084   9.413 -0.7145  0.5465 -0.1660
 5088SOL    HW126897   0.326   0.130   9.352  0.4153  2.0331 -0.0920
 5088SOL    HW226898   0.399   0.149   9.481  0.2933  0.3470 -0.2174
 5089SOL     OW26899   0.538   0.985   3.324  0.5134 -0.8027 -0.3209
 5089SOL    HW126900   0.539   1.038   3.403  1.0039 -1.6159  0.2173
 5089SOL    HW226901   0.499   1.041   3.257  0.1935 -1.2273 -0.4909
 5090SOL     OW26902   1.421   2.999   6.777 -0.4130 -0.1423  0.0601
 5090SOL    HW126903   1.486   2.966   6.715 -1.4029 -0.9996 -0.5161
 5090SOL    HW226904   1.359   2.927   6.785  0.8123 -1.2875 -0.8539
 5091SOL     OW26905   0.841   2.043   2.220 -0.2898 -0.0451  0.4694
 5091SOL    HW126906   0.760   2.024   2.269  1.9371 -1.9465  3.4214
 5091SOL    HW226907   0.878   1.956   2.237  0.5814  0.2123 -0.1308
 5092SOL     OW26908   4.289   2.883   2.655 -0.0352  0.4592  0.1031
 5092SOL    HW126909   4.382   2.907   2.664 -0.1742  1.5565 -1.3152
 5092SOL    HW226910   4.273   2.932   2.574  1.8198  2.6817  1.0613
 5093SOL     OW26911   2.146   0.471   0.592  0.1586 -0.0353 -0.3175
 5093SOL    HW126912   2.130   0.440   0.504 -0.4890 -4.1097  1.2456
 5093SOL    HW226913   2.194   0.398   0.631 -2.6045 -1.0622  1.1144
 5094SOL     OW26914   2.656   0.174   3.968 -0.5833  0.8254 -0.9000
 5094SOL    HW126915   2.583   0.112   3.966  0.9726 -1.0415 -0.0056
 5094SOL    HW226916   2.681   0.162   3.876 -0.5742  0.2349 -0.8202
 5095SOL     OW26917   2.306   4.328   7.290 -0.0296 -0.0866  0.4533
 5095SOL    HW126918   2.352   4.381   7.355 -0.0598  1.4387 -0.7643
 5095SOL    HW226919   2.331   4.237   7.306 -0.0267 -0.2803 -0.6806
 5096SOL     OW26920   0.216   3.365  12.010 -0.9275 -0.1661  0.0577
 5096SOL    HW126921   0.278   3.331  11.946 -1.9205  1.2714 -1.6648
 5096SOL    HW226922   0.200   3.452  11.974 -2.9509  0.3401  2.1563
 5097SOL     OW26923   0.962   3.420  15.960  0.1356 -0.2161  0.0447
 5097SOL    HW126924   0.871   3.392  15.948 -0.3564  0.3068  2.6711
 5097SOL    HW226925   0.990   3.484  15.895 -1.2229  0.1088 -0.2280
 5098SOL     OW26926   4.622   0.131  14.507 -0.0665 -0.6319 -0.1131
 5098SOL    HW126927   4.558   0.175  14.452  0.4849 -1.0932 -1.1296
 5098SOL    HW226928   4.669   0.077  14.442  0.2111 -0.9947  0.3830
 5099SOL     OW26929   4.287   2.042   1.124 -0.3814  0.2498  0.7503
 5099SOL    HW126930   4.264   1.985   1.050  1.4692  0.6487 -0.1286
 5099SOL    HW226931   4.281   1.977   1.194  0.0539 -1.6976 -1.0064
 5100SOL     OW26932   0.042   2.564   4.571  0.1182  0.1567 -0.3923
 5100SOL    HW126933   0.002   2.645   4.605 -0.5142 -1.1206  1.9247
 5100SOL    HW226934   0.096   2.608   4.505  1.9669 -1.1904  0.2250
 5101SOL     OW26935   3.211   0.306   5.857 -0.3307  0.4252  0.0669
 5101SOL    HW126936   3.142   0.253   5.897  2.1856 -2.0712  1.1040
 5101SOL    HW226937   3.157   0.376   5.820 -1.2077  0.3496  1.2014
 5102SOL     OW26938   2.231   3.445   2.010 -0.2111 -0.4833  0.0794
 5102SOL    HW126939   2.227   3.432   2.105  0.3763  3.4926  0.6463
 5102SOL    HW226940   2.152   3.498   2.005 -0.0293 -0.2326 -0.1784
 5103SOL     OW26941   4.397   1.791  11.149 -0.2208  0.4332 -0.0536
 5103SOL    HW126942   4.433   1.702  11.152  2.9020  1.8427  3.3162
 5103SOL    HW226943   4.388   1.817  11.240  0.3427  3.0677 -0.7448
 5104SOL     OW26944   2.665   0.947   8.025  0.3447 -0.0069 -0.0931
 5104SOL    HW126945   2.715   0.881   8.071  0.8632  0.1368 -0.4485
 5104SOL    HW226946   2.740   0.993   7.989 -0.4166 -0.0357 -1.7374
 5105SOL     OW26947   3.349   1.792   1.979  0.5519  0.2492  0.0797
 5105SOL    HW126948   3.438   1.767   1.957  1.1217  1.3716  1.0807
 5105SOL    HW226949   3.331   1.870   1.926  0.4607 -1.1096 -1.8783
 5106SOL     OW26950   0.642   3.886  14.631 -0.1177 -0.2615  0.2288
 5106SOL    HW126951   0.699   3.809  14.624  0.8530  0.3535  1.5090
 5106SOL    HW226952   0.681   3.921  14.711  1.1054 -1.5590  0.2087
 5107SOL     OW26953   2.045   4.220  14.947  0.5276 -0.3478  0.8655
 5107SOL    HW126954   1.989   4.194  14.874 -0.1287  0.2365  1.1601
 5107SOL    HW226955   2.047   4.147  15.008 -0.9832 -0.4592  0.7676
 5108SOL     OW26956   1.217   4.649  13.996 -1.1197  0.2348 -0.3297
 5108SOL    HW126957   1.123   4.644  13.975 -0.8164 -2.0300 -1.1817
 5108SOL    HW226958   1.223   4.604  14.081 -3.4346  0.4895 -0.0334
 5109SOL     OW26959   2.402   4.664   4.868  0.5267 -0.6057  0.1283
 5109SOL    HW126960   2.315   4.701   4.881  1.1352  1.3760 -1.4305
 5109SOL    HW226961   2.450   0.007   4.844 -1.0162 -0.0541 -1.1267
 5110SOL     OW26962   3.384   0.885   6.217 -0.0212 -0.0041 -0.1652
 5110SOL    HW126963   3.476   0.909   6.232 -0.2205  0.1998  0.7253
 5110SOL    HW226964   3.338   0.953   6.265  0.4319  1.3567 -1.6537
 5111SOL     OW26965   0.828   3.408   2.659 -0.1641  0.2432  0.3969
 5111SOL    HW126966   0.903   3.371   2.611  0.6541  1.8784  0.4211
 5111SOL    HW226967   0.761   3.353   2.619  1.7687 -0.6799 -1.5438
 5112SOL     OW26968   3.026   2.241   6.995 -0.2433  0.1446  0.1473
 5112SOL    HW126969   2.986   2.156   6.981 -1.9193  1.3528 -2.2284
 5112SOL    HW226970   3.097   2.227   6.932  1.5064 -0.5593  2.2474
 5113SOL     OW26971   4.615   2.266   6.123  0.3603 -0.2886 -0.6674
 5113SOL    HW126972   4.568   2.343   6.153  2.3281  0.7086 -0.1964
 5113SOL    HW226973   4.644   2.290   6.035 -1.1583 -2.5476 -1.7826
 5114SOL     OW26974   2.964   0.037   4.360 -0.1211 -0.1746 -0.4209
 5114SOL    HW126975   2.889   0.079   4.401 -1.2994 -3.6907  1.0430
 5114SOL    HW226976   2.956   0.053   4.266  1.0911 -1.9032 -0.8142
 5115SOL     OW26977   3.307   2.510   3.690 -0.3206 -0.0692 -0.6436
 5115SOL    HW126978   3.253   2.518   3.768  2.0791 -0.7293  1.0810
 5115SOL    HW226979   3.243   2.506   3.619 -0.5717 -1.1170 -0.3578
 5116SOL     OW26980   4.088   2.309  13.316 -0.4166 -0.5844 -0.7023
 5116SOL    HW126981   4.031   2.386  13.325 -1.0649 -0.9905 -1.2802
 5116SOL    HW226982   4.097   2.278  13.406 -2.0123  2.8533  0.6331
 5117SOL     OW26983   4.385   2.735   4.059  0.1432 -0.0646  0.1631
 5117SOL    HW126984   4.445   2.685   4.004  0.9197  3.1219 -1.8531
 5117SOL    HW226985   4.313   2.748   3.998  0.7166  1.2462 -0.2373
 5118SOL     OW26986   0.366   3.470  13.018  0.0462 -0.2891  0.6548
 5118SOL    HW126987   0.383   3.446  12.927  0.6599  0.8416  0.4663
 5118SOL    HW226988   0.382   3.564  13.016 -4.6371  0.4927  0.1593
 5119SOL     OW26989   0.155   0.630   5.355  0.1919 -0.0492 -0.3694
 5119SOL    HW126990   0.209   0.700   5.393  2.6678 -1.6505 -0.8834
 5119SOL    HW226991   0.080   0.640   5.414 -0.1993 -3.4700 -0.2756
 5120SOL     OW26992   2.305   2.013   0.678  0.2491 -0.2646  0.7543
 5120SOL    HW126993   2.331   2.040   0.766 -0.1219  0.4902  0.6254
 5120SOL    HW226994   2.305   2.100   0.637  1.4538  0.0848  1.4920
 5121SOL     OW26995   3.895   2.623   1.755 -0.5732  0.9195 -0.3040
 5121SOL    HW126996   3.812   2.656   1.789 -0.3705 -0.6041  1.6901
 5121SOL    HW226997   3.869   2.540   1.714 -0.0921  0.7058 -0.1777
 5122SOL     OW26998   2.420   4.034   9.889  0.0974 -0.0830  0.4713
 5122SOL    HW126999   2.485   4.058   9.823  1.8249  3.0437  3.3780
 5122SOL    HW227000   2.347   4.076   9.842 -1.0130  0.2688  2.5176
 5123SOL     OW27001   1.262   1.417   2.253  0.3284  0.0146 -0.1326
 5123SOL    HW127002   1.176   1.415   2.212  0.1370  1.2045  0.2111
 5123SOL    HW227003   1.325   1.438   2.184 -0.6801 -0.4155 -1.1647
 5124SOL     OW27004   2.423   0.438   7.548 -0.3966  0.0836 -0.1384
 5124SOL    HW127005   2.453   0.373   7.485  2.3502  0.5449  0.6881
 5124SOL    HW227006   2.491   0.504   7.534 -0.7748  0.5415  0.1388
 5125SOL     OW27007   0.547   0.540   7.266  0.4521 -0.2470 -0.2429
 5125SOL    HW127008   0.581   0.464   7.313  1.1731 -1.6098 -2.9514
 5125SOL    HW227009   0.510   0.506   7.185 -1.5284 -1.4418  1.1571
 5126SOL     OW27010   0.284   0.705  16.708 -0.4176  0.1050  0.5746
 5126SOL    HW127011   0.326   0.788  16.731  0.3388  1.1327 -4.5016
 5126SOL    HW227012   0.332   0.642  16.763 -1.3382  0.5997  1.9561
 5127SOL     OW27013   2.052   4.556   4.974 -0.3678 -0.4054  0.5066
 5127SOL    HW127014   2.042   4.569   4.880  2.7684  0.2521  0.2595
 5127SOL    HW227015   2.036   4.648   4.997 -1.0136 -0.8784  1.9236
 5128SOL     OW27016   4.196   1.483  12.840 -0.1586 -0.1940 -0.6242
 5128SOL    HW127017   4.239   1.511  12.921 -1.0686 -2.9561  0.7974
 5128SOL    HW227018   4.270   1.462  12.782  0.3371 -1.8508  0.6106
 5129SOL     OW27019   0.405   3.205  14.806  0.1835 -0.2774 -0.8608
 5129SOL    HW127020   0.374   3.215  14.896  0.7960 -1.1098 -0.5656
 5129SOL    HW227021   0.358   3.126  14.781  0.2474 -0.3916 -0.6204
 5130SOL     OW27022   2.495   2.321   6.784 -0.2774  0.0389  0.1534
 5130SOL    HW127023   2.471   2.412   6.769  2.9049  1.2013  2.0770
 5130SOL    HW227024   2.544   2.328   6.866 -0.7589 -0.2806  0.4674
 5131SOL     OW27025   2.059   2.424   4.733 -0.7446  0.0606 -0.1939
 5131SOL    HW127026   2.110   2.413   4.813  1.0671 -2.6212 -1.6837
 5131SOL    HW227027   2.039   2.517   4.728  2.6244  0.9055  1.6977
 5132SOL     OW27028   4.688   0.771  16.921 -0.1187 -0.0022 -0.8698
 5132SOL    HW127029   0.008   0.750  16.996 -2.5126  1.8992  1.4607
 5132SOL    HW227030   4.599   0.758  16.952  1.5059  0.4509  4.1004
 5133SOL     OW27031   1.123   2.188   0.590  0.6219 -0.2838  0.1063
 5133SOL    HW127032   1.158   2.255   0.648  0.1322  0.0109  0.0591
 5133SOL    HW227033   1.130   2.237   0.508 -0.2726  0.7229  0.6321
 5134SOL     OW27034   4.160   2.758   5.821  0.0134  0.3014 -0.5662
 5134SOL    HW127035   4.239   2.739   5.871 -0.7843 -2.0092 -0.1466
 5134SOL    HW227036   4.191   2.813   5.749 -1.5132  0.8506 -0.8035
 5135SOL     OW27037   1.131   0.630   5.780 -0.7273 -0.8847 -0.3753
 5135SOL    HW127038   1.111   0.704   5.722 -0.6327 -1.0452 -0.6114
 5135SOL    HW227039   1.182   0.665   5.854 -2.2005 -1.1502  0.7698
 5136SOL     OW27040   3.102   1.054   6.807  0.2010 -0.7219 -0.2004
 5136SOL    HW127041   3.097   0.993   6.734  2.0103  0.1289 -1.0330
 5136SOL    HW227042   3.183   1.101   6.787 -1.0661  1.9288  0.8445
 5137SOL     OW27043   3.454   0.451   6.186  0.4423  0.6272  0.1816
 5137SOL    HW127044   3.471   0.508   6.262 -0.5429  1.0118  0.1092
 5137SOL    HW227045   3.412   0.512   6.126 -0.1293  0.5979  0.5523
 5138SOL     OW27046   1.336   4.395   7.262 -0.6840  0.3735  0.1712
 5138SOL    HW127047   1.258   4.412   7.209  1.1606  0.6620 -2.4638
 5138SOL    HW227048   1.410   4.406   7.202 -0.2590  2.4106  1.0777
 5139SOL     OW27049   0.701   3.269  13.066 -0.1158  0.4094  0.4727
 5139SOL    HW127050   0.793   3.293  13.063  0.3059 -1.2564  0.1472
 5139SOL    HW227051   0.654   3.333  13.120  0.2626  2.3462 -1.5116
 5140SOL     OW27052   1.997   0.151   0.289 -0.4698  0.4124  0.3238
 5140SOL    HW127053   2.003   0.235   0.334 -0.7338  0.6019  0.0065
 5140SOL    HW227054   2.043   0.179   0.210 -0.2275  1.3206  0.7852
 5141SOL     OW27055   1.362   0.723   0.857  0.4599 -0.5770 -0.0494
 5141SOL    HW127056   1.324   0.635   0.866 -2.8236  0.9792  1.2472
 5141SOL    HW227057   1.377   0.749   0.948  0.3991  0.0026 -0.2065
 5142SOL     OW27058   2.277   3.951   1.596 -0.2420  0.2236  0.1317
 5142SOL    HW127059   2.340   3.913   1.658 -0.9791 -0.4464  0.4682
 5142SOL    HW227060   2.210   3.889   1.571 -2.1737  2.0144  0.8728
 5143SOL     OW27061   1.706   1.406   5.678 -0.5646 -0.0489  0.1241
 5143SOL    HW127062   1.653   1.336   5.716  0.0060  0.9205  2.6638
 5143SOL    HW227063   1.682   1.400   5.585 -0.9014  0.4301  0.1785
 5144SOL     OW27064   3.112   0.890  10.513  0.1373 -0.2335 -0.2073
 5144SOL    HW127065   3.096   0.800  10.483  1.8789 -0.8690  0.7689
 5144SOL    HW227066   3.131   0.889  10.607  0.9503 -0.4863 -0.3754
 5145SOL     OW27067   3.640   2.506   7.267 -0.1830 -0.5888 -0.5371
 5145SOL    HW127068   3.685   2.569   7.210 -1.3269  1.9989  1.4257
 5145SOL    HW227069   3.637   2.546   7.354  1.4621  0.7709 -1.1085
 5146SOL     OW27070   3.882   3.444   5.760  0.1019 -0.0321 -0.1214
 5146SOL    HW127071   3.824   3.513   5.794 -0.3403 -0.4480 -0.0257
 5146SOL    HW227072   3.931   3.493   5.694 -1.4825  1.7881  0.0420
 5147SOL     OW27073   0.987   3.955  10.296 -1.1104  0.2804  0.7029
 5147SOL    HW127074   1.036   3.943  10.377 -0.1592 -1.1715 -0.0852
 5147SOL    HW227075   1.052   3.930  10.230 -0.0787  0.9028  1.4794
 5148SOL     OW27076   2.228   2.634   6.616 -0.6381 -0.2428  0.0264
 5148SOL    HW127077   2.267   2.570   6.557  1.1772 -0.7242  1.7475
 5148SOL    HW227078   2.305   2.681   6.650 -0.2195 -0.8109 -0.1379
 5149SOL     OW27079   0.742   4.544   7.260 -0.3235  0.3927 -0.3901
 5149SOL    HW127080   0.809   4.503   7.205  1.1887  0.6599  1.2771
 5149SOL    HW227081   0.769   4.526   7.350 -0.2555  2.7003  0.0388
 5150SOL     OW27082   0.086   1.104   7.229  0.2735 -0.8481  0.5220
 5150SOL    HW127083   0.146   1.175   7.208 -1.8054  0.6255 -0.3112
 5150SOL    HW227084   0.037   1.124   7.309 -0.6522  0.3090 -0.3313
 5151SOL     OW27085   0.671   0.359  17.219 -0.1956  0.2164  0.2283
 5151SOL    HW127086   0.676   0.442  17.268 -1.1639 -0.2624  1.1307
 5151SOL    HW227087   0.668   0.393  17.129  0.2622  0.9713  0.4914
 5152SOL     OW27088   2.406   3.072  15.202 -0.4662  0.0734 -0.4359
 5152SOL    HW127089   2.406   2.993  15.257  2.1244 -1.0685 -2.0439
 5152SOL    HW227090   2.314   3.098  15.191 -0.3791  0.0973 -1.1418
 5153SOL     OW27091   2.035   3.648   5.933  0.4066  0.5912 -0.1308
 5153SOL    HW127092   2.108   3.707   5.951 -0.1283  1.0784  0.4117
 5153SOL    HW227093   1.965   3.687   5.986 -0.5963 -1.1233 -0.1763
 5154SOL     OW27094   3.492   4.701   4.269  0.7003  0.1137 -0.4293
 5154SOL    HW127095   3.488   4.703   4.174  0.2946 -0.0541 -0.4159
 5154SOL    HW227096   3.437   0.038   4.300 -2.8244 -2.3367 -0.8926
 5155SOL     OW27097   0.485   0.738  10.447 -0.0153 -0.4525  0.5670
 5155SOL    HW127098   0.559   0.680  10.429  0.0118  0.1030 -1.1038
 5155SOL    HW227099   0.520   0.827  10.451 -1.0617 -0.0346  0.4675
 5156SOL     OW27100   2.495   3.389   6.202  0.2985  0.1245 -0.0156
 5156SOL    HW127101   2.561   3.383   6.132 -1.2031  1.6448 -1.5722
 5156SOL    HW227102   2.443   3.310   6.191 -1.0271  0.8701  0.8541
 5157SOL     OW27103   0.593   3.100  13.505 -0.6071 -0.0909 -0.2267
 5157SOL    HW127104   0.559   3.040  13.572  0.2963  0.4364  0.7063
 5157SOL    HW227105   0.688   3.087  13.509 -0.3154  2.0486 -0.3737
 5158SOL     OW27106   0.905   1.253   6.409  0.0914  0.4728  0.2755
 5158SOL    HW127107   0.913   1.218   6.320 -0.2504  3.8587 -1.0751
 5158SOL    HW227108   0.906   1.347   6.393 -3.7189  0.1134 -2.0258
 5159SOL     OW27109   4.452   0.093   1.165  0.3215  0.2476 -0.4091
 5159SOL    HW127110   4.533   0.075   1.212  0.1094  1.1706  0.3059
 5159SOL    HW227111   4.464   0.094   1.070 -0.2228 -0.3159 -0.4867
 5160SOL     OW27112   1.738   2.599   1.332  0.3123 -0.5227 -0.0810
 5160SOL    HW127113   1.653   2.597   1.377 -0.4151 -0.4553 -1.4189
 5160SOL    HW227114   1.794   2.541   1.382  1.5700 -0.4583 -1.4070
 5161SOL     OW27115   1.308   2.140  17.659  0.1631  0.2964 -0.7413
 5161SOL    HW127116   1.271   2.146  17.571 -0.6155  2.1435 -0.2870
 5161SOL    HW227117   1.398   2.156  17.631  1.1827 -1.5481  1.4843
 5162SOL     OW27118   0.790   4.293   4.814 -0.1100  0.0841 -0.0075
 5162SOL    HW127119   0.817   4.216   4.863  0.9894 -0.7384 -1.8817
 5162SOL    HW227120   0.695   4.282   4.811 -0.0717  0.4338 -3.0971
 5163SOL     OW27121   4.539   2.744   0.106 -0.2161  0.2678 -0.6120
 5163SOL    HW127122   4.629   2.732   0.075  0.8432  3.7297  1.0748
 5163SOL    HW227123   4.544   2.718   0.198 -2.2600  0.5257 -0.4403
 5164SOL     OW27124   2.740   4.011   4.269  0.0490 -0.1107  0.1185
 5164SOL    HW127125   2.696   3.931   4.296  0.8525  0.4783  3.2932
 5164SOL    HW227126   2.713   4.066   4.343 -0.9185 -2.1500  1.2607
 5165SOL     OW27127   4.585   2.154  16.785  0.0148  0.5154 -0.7722
 5165SOL    HW127128   4.602   2.116  16.871 -1.4957  0.7576 -0.3729
 5165SOL    HW227129   4.510   2.106  16.750  0.9309 -2.8438  1.9879
 5166SOL     OW27130   1.290   4.656  15.944 -0.3976  0.2309 -0.5038
 5166SOL    HW127131   1.322   4.640  15.855  1.5263 -1.4493  0.4888
 5166SOL    HW227132   1.222   4.721  15.927 -2.0646 -1.7523 -1.5108
 5167SOL     OW27133   1.072   3.530   1.744  0.3588 -0.6488 -0.3018
 5167SOL    HW127134   1.107   3.482   1.818 -0.1892  0.2628  0.5566
 5167SOL    HW227135   1.088   3.465   1.675  1.6633 -2.1175  1.3927
 5168SOL     OW27136   1.684   3.893  10.742 -0.8743  0.1109 -0.0900
 5168SOL    HW127137   1.778   3.881  10.729 -0.6974  1.2996  0.1022
 5168SOL    HW227138   1.679   3.881  10.837  1.9470  2.0133  0.3057
 5169SOL     OW27139   1.881   4.017   7.774  0.4066 -0.1930  0.2293
 5169SOL    HW127140   1.960   3.993   7.822  1.4308  1.1013 -0.8157
 5169SOL    HW227141   1.814   3.963   7.816 -1.7834  1.8557 -0.6321
 5170SOL     OW27142   4.041   4.104   8.615  0.2797 -0.1479 -0.3097
 5170SOL    HW127143   4.057   4.101   8.521  1.8348 -0.6291 -0.0324
 5170SOL    HW227144   4.021   4.011   8.628 -1.0158  0.2551  0.5885
 5171SOL     OW27145   3.127   3.851   5.292 -0.1604 -0.5561  0.0675
 5171SOL    HW127146   3.061   3.790   5.326 -1.7289  0.6681 -0.8142
 5171SOL    HW227147   3.203   3.793   5.300 -2.3083 -2.7165  4.6280
 5172SOL     OW27148   3.589   0.283  12.473 -0.0245  0.4402  0.2668
 5172SOL    HW127149   3.676   0.270  12.513  0.7840 -0.2912 -1.7323
 5172SOL    HW227150   3.549   0.196  12.473 -0.2861  0.5631  0.9629
 5173SOL     OW27151   0.895   0.167   8.915  0.4314 -0.2708  0.1124
 5173SOL    HW127152   0.925   0.143   8.827  2.6956  1.9015  0.3097
 5173SOL    HW227153   0.828   0.100   8.928 -1.0279  0.5311 -3.1089
 5174SOL     OW27154   3.575   4.149   4.853 -0.2491  0.0767 -0.3039
 5174SOL    HW127155   3.649   4.209   4.841 -1.4272  1.4679 -0.6549
 5174SOL    HW227156   3.506   4.215   4.856  1.9110  2.2409  1.5380
 5175SOL     OW27157   0.759   3.331   1.649 -0.1951  0.0425  0.0555
 5175SOL    HW127158   0.757   3.360   1.558  0.8281  0.4495  0.1635
 5175SOL    HW227159   0.758   3.410   1.703 -0.6813  1.3299 -1.8425
 5176SOL     OW27160   3.511   1.440  15.152 -0.4739 -0.7569  0.6179
 5176SOL    HW127161   3.566   1.512  15.122 -1.0184 -0.0144  1.4101
 5176SOL    HW227162   3.574   1.368  15.155  0.2981 -0.1172 -0.3782
 5177SOL     OW27163   2.589   1.363   4.265 -0.3402  0.2102 -0.7509
 5177SOL    HW127164   2.621   1.311   4.339 -1.9133 -1.0536 -0.9371
 5177SOL    HW227165   2.561   1.295   4.204  1.3397 -0.4020 -0.8416
 5178SOL     OW27166   3.507   3.281   7.226 -0.0398 -0.3091  0.2415
 5178SOL    HW127167   3.435   3.229   7.190  0.7026 -1.0686 -0.1555
 5178SOL    HW227168   3.491   3.246   7.314  1.5493  0.3587  0.7933
 5179SOL     OW27169   3.754   0.636  11.925 -0.1160  0.0121 -0.3427
 5179SOL    HW127170   3.794   0.566  11.976  0.1581  2.5663  2.9430
 5179SOL    HW227171   3.793   0.715  11.963  0.0561  0.9277 -2.3961
 5180SOL     OW27172   4.311   0.078   4.351 -0.3065  0.7750 -0.1507
 5180SOL    HW127173   4.314   0.058   4.257 -1.8872  0.9724 -0.2379
 5180SOL    HW227174   4.345   0.167   4.346  0.4598  0.4399 -0.9758
 5181SOL     OW27175   0.412   0.764  16.233  0.9053  0.1617  0.0255
 5181SOL    HW127176   0.447   0.852  16.220 -0.1418  0.6719  0.5659
 5181SOL    HW227177   0.339   0.780  16.293  1.3887 -1.3244  1.0027
 5182SOL     OW27178   2.754   0.294  17.276 -0.4379  0.4610  0.1034
 5182SOL    HW127179   2.785   0.204  17.266  2.4908  1.5984 -0.9361
 5182SOL    HW227180   2.725   0.298  17.367 -0.3190  1.6894  0.0856
 5183SOL     OW27181   1.651   4.607   2.728  0.1788 -0.2552  0.0671
 5183SOL    HW127182   1.557   4.590   2.718  0.0995  1.4035 -2.0780
 5183SOL    HW227183   1.665   4.595   2.822  0.6992 -0.5201 -0.0439
 5184SOL     OW27184   3.439   3.686   9.245 -0.1769  0.2940  0.6297
 5184SOL    HW127185   3.377   3.673   9.173  2.4324  0.0296 -1.5455
 5184SOL    HW227186   3.521   3.688   9.195 -0.4750 -1.8992  0.0251
 5185SOL     OW27187   1.763   4.423   6.412  0.3740 -0.3343 -0.0317
 5185SOL    HW127188   1.670   4.441   6.403  0.2224 -1.5222 -0.7882
 5185SOL    HW227189   1.797   4.494   6.466 -1.1074  0.4774 -0.1702
 5186SOL     OW27190   1.383   4.135   3.474  0.0547  0.3344  0.7312
 5186SOL    HW127191   1.340   4.051   3.487 -1.0262  0.5857 -1.0484
 5186SOL    HW227192   1.378   4.148   3.379  0.7677 -0.9806  0.5196
 5187SOL     OW27193   2.387   1.989   7.635 -0.3323 -0.1260 -0.1953
 5187SOL    HW127194   2.389   2.032   7.549 -0.3039  2.9445  1.3267
 5187SOL    HW227195   2.399   2.064   7.693 -0.4399 -0.6834  0.5399
 5188SOL     OW27196   4.308   3.684   7.425  0.4529  0.5147 -0.4207
 5188SOL    HW127197   4.292   3.598   7.386 -1.6905  0.6470  0.1812
 5188SOL    HW227198   4.340   3.645   7.506 -1.1929 -0.1138 -0.0872
 5189SOL     OW27199   4.392   0.716   2.476  0.6967 -0.3086 -0.3716
 5189SOL    HW127200   4.347   0.736   2.394  2.8431  1.0045 -1.2237
 5189SOL    HW227201   4.444   0.793   2.496  0.4472 -0.1233 -0.4344
 5190SOL     OW27202   4.233   3.001   1.559 -0.1566  0.2622 -0.1505
 5190SOL    HW127203   4.294   2.929   1.574  0.9970  1.2749  0.0178
 5190SOL    HW227204   4.289   3.065   1.516 -2.4363  0.4114 -2.9600
 5191SOL     OW27205   2.767   1.831   6.390  0.3082 -0.1789 -0.5459
 5191SOL    HW127206   2.833   1.878   6.440 -0.5818 -0.7068  1.1044
 5191SOL    HW227207   2.712   1.786   6.454  1.7152 -0.4718  0.4482
 5192SOL     OW27208   1.464   2.968   7.070  0.3646  0.6818  0.0963
 5192SOL    HW127209   1.445   2.924   6.987  2.0629  0.3678 -0.1385
 5192SOL    HW227210   1.515   2.905   7.120  0.1229 -0.6621 -1.3498
 5193SOL     OW27211   3.714   0.757   7.184 -0.1935  0.2070 -0.8307
 5193SOL    HW127212   3.708   0.738   7.090  0.5970 -2.0726 -0.4252
 5193SOL    HW227213   3.626   0.725   7.205 -1.2259  2.1277 -2.3143
 5194SOL     OW27214   1.390   1.635   2.879 -0.0692  0.2784 -0.1283
 5194SOL    HW127215   1.406   1.648   2.786 -0.2506  0.2580 -0.1615
 5194SOL    HW227216   1.295   1.639   2.877 -0.1480 -1.7004 -0.4698
 5195SOL     OW27217   0.341   0.112   6.750 -0.3666  0.0806  0.6676
 5195SOL    HW127218   0.310   0.087   6.663 -0.6844  1.1716  0.4699
 5195SOL    HW227219   0.369   0.027   6.785  1.1485 -0.5771 -2.1240
 5196SOL     OW27220   1.605   1.429  12.819  0.2708 -0.3510 -0.0924
 5196SOL    HW127221   1.520   1.429  12.776 -0.2828  1.1987  1.0131
 5196SOL    HW227222   1.609   1.512  12.867  0.9568  0.3905 -1.4337
 5197SOL     OW27223   2.121   3.033  13.017  0.1377  0.4684 -0.7723
 5197SOL    HW127224   2.112   2.967  13.086 -0.3005 -0.0969 -1.3744
 5197SOL    HW227225   2.116   3.115  13.066 -0.8104  0.6935 -1.2310
 5198SOL     OW27226   3.603   4.426  17.543 -0.5359  0.0122  0.3816
 5198SOL    HW127227   3.529   4.483  17.524  0.1029  0.0969 -1.9356
 5198SOL    HW227228   3.667   4.496  17.533 -0.2848 -0.1739  0.6740
 5199SOL     OW27229   2.433   0.527  10.713 -0.0185  0.1399 -0.5041
 5199SOL    HW127230   2.500   0.590  10.739 -0.2636  0.9454 -1.8217
 5199SOL    HW227231   2.467   0.505  10.626 -0.9132  0.2998 -0.8959
 5200SOL     OW27232   0.444   4.207   2.154 -0.1247  0.1760  0.1570
 5200SOL    HW127233   0.358   4.216   2.194 -0.1830 -1.2507  0.3552
 5200SOL    HW227234   0.508   4.205   2.226 -0.2294 -0.0173  0.2456
 5201SOL     OW27235   3.798   2.886   9.889 -0.1441  0.0865  0.4585
 5201SOL    HW127236   3.856   2.926   9.954 -0.3842 -1.2988  1.5117
 5201SOL    HW227237   3.732   2.859   9.953 -1.0016 -1.4333 -1.0699
 5202SOL     OW27238   1.198   1.002   8.028  0.3925  0.1840  0.1780
 5202SOL    HW127239   1.151   0.927   8.065 -0.1376  2.4736  4.1371
 5202SOL    HW227240   1.217   0.971   7.940 -1.5220 -2.2713  0.6112
 5203SOL     OW27241   2.623   3.054   4.103  0.3778 -0.2568  0.2770
 5203SOL    HW127242   2.642   3.014   4.188 -0.5305 -2.0570 -0.3791
 5203SOL    HW227243   2.653   2.996   4.033 -1.6405 -1.1708  0.1680
 5204SOL     OW27244   1.225   2.777   0.332  0.4970  0.3532 -0.0488
 5204SOL    HW127245   1.194   2.717   0.265  2.3338 -1.2553  0.5300
 5204SOL    HW227246   1.141   2.814   0.359  0.7593 -0.0855  1.3875
 5205SOL     OW27247   1.710   4.150   4.471 -0.6999 -0.1523 -0.5447
 5205SOL    HW127248   1.720   4.100   4.390 -0.4445 -0.2014 -0.4837
 5205SOL    HW227249   1.737   4.235   4.436 -0.4423 -0.2630 -0.6120
 5206SOL     OW27250   0.191   2.721   1.782 -0.0234  0.5582 -0.1808
 5206SOL    HW127251   0.241   2.792   1.824  0.1221  0.1718  0.2947
 5206SOL    HW227252   0.105   2.740   1.820 -0.1212  1.5066 -0.8551
 5207SOL     OW27253   3.327   2.894   8.217 -0.6428 -0.1518 -0.4907
 5207SOL    HW127254   3.289   2.938   8.293 -0.5736 -1.9208  0.5716
 5207SOL    HW227255   3.390   2.965   8.202 -0.3827 -0.3589 -0.3924
 5208SOL     OW27256   2.878   0.235   8.736 -0.2040 -0.2965  0.1669
 5208SOL    HW127257   2.804   0.247   8.677 -1.1661 -1.1176  1.1928
 5208SOL    HW227258   2.945   0.196   8.680  0.7533 -1.3857  2.0779
 5209SOL     OW27259   1.374   2.231   7.231  0.5454  0.6417 -0.6066
 5209SOL    HW127260   1.373   2.325   7.212  0.6542  0.6019 -0.8154
 5209SOL    HW227261   1.301   2.220   7.292  1.5431  0.1421  0.5047
 5210SOL     OW27262   0.176   1.281   7.709  0.2471  0.3282 -0.0181
 5210SOL    HW127263   0.204   1.247   7.794 -0.3138  1.3597  0.5882
 5210SOL    HW227264   0.098   1.334   7.730 -0.1855 -0.4627  0.3584
 5211SOL     OW27265   0.760   4.630  14.424 -0.1189 -0.0871  0.1981
 5211SOL    HW127266   0.699   4.571  14.469 -2.2516  0.3877 -2.0982
 5211SOL    HW227267   0.817   4.569  14.378 -1.2374 -1.1496  0.2170
 5212SOL     OW27268   1.686   2.950   0.238  0.1790  0.2172  0.0801
 5212SOL    HW127269   1.666   2.984   0.151  0.4107  0.4365  0.1135
 5212SOL    HW227270   1.609   2.978   0.289 -0.5196  0.8041 -1.3213
 5213SOL     OW27271   2.877   2.587   6.416 -0.1716 -0.3854 -0.0834
 5213SOL    HW127272   2.871   2.664   6.473 -0.1766 -1.2676  1.1173
 5213SOL    HW227273   2.972   2.576   6.423 -0.2969 -0.7142  1.0498
 5214SOL     OW27274   2.652   3.439   9.259  0.3329  0.1075  0.2155
 5214SOL    HW127275   2.729   3.452   9.204 -0.3866  3.5226  0.0373
 5214SOL    HW227276   2.689   3.421   9.346  2.2974 -0.9830 -0.8381
 5215SOL     OW27277   2.986   1.353   6.412 -0.2844 -0.3987 -0.7961
 5215SOL    HW127278   2.977   1.442   6.378 -0.9893 -0.1333  0.0935
 5215SOL    HW227279   2.991   1.292   6.338  0.0947 -2.4391  0.9017
 5216SOL     OW27280   0.473   0.033   4.798 -0.1778 -0.2024  0.5250
 5216SOL    HW127281   0.408   0.101   4.785  2.7686  2.0084 -2.7285
 5216SOL    HW227282   0.526   0.041   4.718 -0.1255  2.0859  0.7866
 5217SOL     OW27283   4.311   2.650   8.238  0.3602 -0.1502  0.3745
 5217SOL    HW127284   4.335   2.571   8.285  2.1593 -1.1772 -2.2783
 5217SOL    HW227285   4.301   2.617   8.148 -1.2883  2.4259 -0.4248
 5218SOL     OW27286   0.100   4.604   3.335  0.4631  0.0679 -0.0957
 5218SOL    HW127287   0.178   4.647   3.371  0.0110  0.3745  0.5188
 5218SOL    HW227288   0.149   4.568   3.261 -0.7465 -0.2058 -0.7602
 5219SOL     OW27289   3.776   3.253   6.659  0.2310  0.1584  0.0674
 5219SOL    HW127290   3.757   3.328   6.715  0.7253  0.5188 -0.2517
 5219SOL    HW227291   3.749   3.181   6.715  0.2322  0.4453  0.4339
 5220SOL     OW27292   4.257   2.179  16.555  0.3188 -0.3378  0.2907
 5220SOL    HW127293   4.230   2.168  16.646 -1.6415 -1.3595 -0.4248
 5220SOL    HW227294   4.275   2.088  16.531 -1.7178 -0.5777 -0.3193
 5221SOL     OW27295   4.716   4.102   5.815  0.2357 -0.9301  0.2649
 5221SOL    HW127296   4.622   4.084   5.809  0.0179 -0.1779  1.3799
 5221SOL    HW227297   4.735   4.181   5.765  2.4887 -1.8641 -0.3622
 5222SOL     OW27298   1.750   1.684   6.842 -0.6022  0.6136 -0.4205
 5222SOL    HW127299   1.784   1.718   6.924 -2.7107  0.6686  0.4165
 5222SOL    HW227300   1.715   1.600   6.873 -0.3885  0.7442  0.1670
 5223SOL     OW27301   2.839   3.567   5.821 -0.1020 -0.4775 -0.0539
 5223SOL    HW127302   2.760   3.589   5.872 -0.6719  0.1720 -1.2150
 5223SOL    HW227303   2.907   3.616   5.867  1.3095 -0.3789 -2.2912
 5224SOL     OW27304   3.719   1.238   3.280 -0.3005  0.2907 -0.0280
 5224SOL    HW127305   3.784   1.224   3.211  0.3816  1.0335  0.4535
 5224SOL    HW227306   3.637   1.245   3.232 -0.7816 -0.9092  0.6243
 5225SOL     OW27307   3.224   4.063  15.532  0.3843  0.0610 -0.0801
 5225SOL    HW127308   3.285   4.123  15.575 -0.9527  0.5934  1.1007
 5225SOL    HW227309   3.171   4.125  15.481 -0.1889 -2.0051 -1.9828
 5226SOL     OW27310   3.541   0.648   0.590 -0.5031 -0.7542 -0.4009
 5226SOL    HW127311   3.465   0.637   0.533 -1.9731  0.6521  1.3285
 5226SOL    HW227312   3.568   0.560   0.618  2.0574 -0.0897 -0.6952
 5227SOL     OW27313   3.968   3.591   4.502 -0.5678 -0.0262  0.4239
 5227SOL    HW127314   3.922   3.543   4.433  0.4515 -1.2425  0.5915
 5227SOL    HW227315   4.057   3.574   4.472 -0.3261  0.8763  0.6125
 5228SOL     OW27316   0.089   2.325   1.892 -0.4169  0.1570  0.1783
 5228SOL    HW127317   0.123   2.237   1.874 -0.6922  0.4711 -1.8439
 5228SOL    HW227318   0.136   2.334   1.975  1.9582 -1.2644 -0.9986
 5229SOL     OW27319   3.057   2.010   8.639 -0.4206 -0.3091  0.1211
 5229SOL    HW127320   3.095   1.947   8.701  2.7209  0.2707 -1.1971
 5229SOL    HW227321   3.108   2.083   8.675  0.2985 -0.5094 -0.4947
 5230SOL     OW27322   2.870   1.285   0.994 -0.1608 -0.1671  0.3149
 5230SOL    HW127323   2.904   1.371   1.020 -0.0789  0.0510 -0.4940
 5230SOL    HW227324   2.819   1.261   1.071 -0.1356  0.0889  0.4112
 5231SOL     OW27325   3.263   3.583  14.800  0.4335  0.2607 -0.2179
 5231SOL    HW127326   3.326   3.525  14.842 -1.2454 -1.4094  0.0286
 5231SOL    HW227327   3.313   3.626  14.732 -0.2962 -1.0527 -1.5890
 5232SOL     OW27328   4.614   1.493   5.526 -0.4586 -0.2542  0.0562
 5232SOL    HW127329   4.607   1.399   5.511  3.8266 -0.8000  1.3099
 5232SOL    HW227330   4.594   1.490   5.620  0.8439 -0.0010  0.3426
 5233SOL     OW27331   1.997   3.606   2.361 -0.0027 -0.2420 -0.5239
 5233SOL    HW127332   1.913   3.560   2.374 -1.4226  1.5988 -3.2719
 5233SOL    HW227333   2.042   3.609   2.446  0.3363 -0.2215 -0.7075
 5234SOL     OW27334   4.264   4.627  11.221  0.2939  0.0462 -0.5452
 5234SOL    HW127335   4.337   4.673  11.263 -1.6070  0.8619  1.9159
 5234SOL    HW227336   4.212   4.601  11.297 -0.4306 -0.2781 -1.1591
 5235SOL     OW27337   2.520   4.708   5.626  0.2159  0.3102  0.0179
 5235SOL    HW127338   2.505   0.059   5.587  2.1208  0.4806 -0.3363
 5235SOL    HW227339   2.552   4.660   5.550  1.1991  1.0122 -0.0220
 5236SOL     OW27340   1.207   1.554   8.916  0.0687 -0.5599  0.4063
 5236SOL    HW127341   1.161   1.616   8.859  0.3899 -0.9558 -0.2732
 5236SOL    HW227342   1.182   1.466   8.890 -1.1974 -0.1204  0.1408
 5237SOL     OW27343   3.173   4.090   7.687 -0.4111 -0.3273  0.3242
 5237SOL    HW127344   3.265   4.081   7.664 -0.2662  0.4476  0.6042
 5237SOL    HW227345   3.141   4.000   7.677 -0.9123 -0.1581  0.3768
 5238SOL     OW27346   3.235   3.890   3.533 -0.1926 -0.2845 -0.6502
 5238SOL    HW127347   3.215   3.944   3.610 -0.5650  0.2339 -1.1106
 5238SOL    HW227348   3.233   3.802   3.570  2.3180  0.0156  0.2258
 5239SOL     OW27349   3.333   2.058  13.710  0.0231 -0.3946  0.6004
 5239SOL    HW127350   3.266   2.086  13.773 -0.3624  0.9512 -0.4194
 5239SOL    HW227351   3.342   1.965  13.730 -2.4974 -0.8207 -0.2543
 5240SOL     OW27352   2.905   1.076   2.511  0.0225 -0.0307 -0.0014
 5240SOL    HW127353   2.913   1.093   2.417  0.4488 -0.1494  0.0127
 5240SOL    HW227354   2.937   1.158   2.547 -1.0041 -0.2390  1.3566
 5241SOL     OW27355   4.699   3.420  10.750 -0.0573 -0.2421 -0.0594
 5241SOL    HW127356   4.673   3.434  10.841 -2.2395 -1.5959 -0.4787
 5241SOL    HW227357   4.683   3.327  10.735 -2.0491  0.2232 -0.8314
 5242SOL     OW27358   0.855   0.903   0.621  0.5910  0.1962  0.5643
 5242SOL    HW127359   0.815   0.817   0.613  1.8552 -0.4201  0.9303
 5242SOL    HW227360   0.838   0.923   0.713 -0.3285  0.1314  0.4110
 5243SOL     OW27361   3.344   1.933  15.525  0.9315  0.4925 -0.2580
 5243SOL    HW127362   3.346   2.009  15.583 -0.8732  0.7755 -0.5553
 5243SOL    HW227363   3.260   1.889  15.537  1.9120 -0.8854  1.5569
 5244SOL     OW27364   2.586   3.407  17.185  0.5766  0.0127  0.2171
 5244SOL    HW127365   2.512   3.424  17.127  0.0562 -0.8596  0.6214
 5244SOL    HW227366   2.544   3.391  17.269  0.0628  0.5474  0.0532
 5245SOL     OW27367   2.606   0.391  12.025 -0.3520  0.2361 -0.2486
 5245SOL    HW127368   2.613   0.298  12.043 -0.2861  0.0255 -1.3653
 5245SOL    HW227369   2.569   0.396  11.937  1.0887 -0.5992 -0.8996
 5246SOL     OW27370   1.543   4.148   8.143  0.0211  0.2061  0.1445
 5246SOL    HW127371   1.622   4.129   8.093  0.1908 -3.1690  1.7006
 5246SOL    HW227372   1.476   4.153   8.074 -0.4785  0.6637  0.6575
 5247SOL     OW27373   2.543   0.388   7.817  0.8790  0.0440  0.2151
 5247SOL    HW127374   2.499   0.398   7.732 -0.4223  0.2207  0.9140
 5247SOL    HW227375   2.467   0.378   7.874  1.7077 -2.7310  0.8389
 5248SOL     OW27376   3.653   4.010   3.040  0.0327 -0.1359  0.1626
 5248SOL    HW127377   3.664   4.059   2.958  1.4132 -1.5205 -0.4996
 5248SOL    HW227378   3.721   4.044   3.098 -0.2990  0.9032 -0.0686
 5249SOL     OW27379   1.485   2.155   4.985  0.2239 -0.4928 -0.0098
 5249SOL    HW127380   1.418   2.223   4.989  0.5540 -0.0143 -2.5252
 5249SOL    HW227381   1.470   2.128   5.075 -4.7409  1.7510 -0.1518
 5250SOL     OW27382   1.527   1.983   0.012  0.2007  0.8331  0.2890
 5250SOL    HW127383   1.512   1.913   0.075 -1.3313 -0.0899 -1.0880
 5250SOL    HW227384   1.450   2.034   0.036 -0.4444 -0.1183  0.2446
 5251SOL     OW27385   2.834   3.940   3.242 -0.6292 -0.2241 -0.2089
 5251SOL    HW127386   2.804   4.017   3.289  1.1445 -0.4555  1.3014
 5251SOL    HW227387   2.790   3.962   3.160  0.6145 -1.5403 -1.2493
 5252SOL     OW27388   1.120   3.667   1.110 -0.0678  0.3295 -0.6042
 5252SOL    HW127389   1.211   3.692   1.127  0.1150  1.1727 -2.9654
 5252SOL    HW227390   1.085   3.699   1.193  0.3001 -0.0309 -0.3050
 5253SOL     OW27391   0.492   2.878   3.270 -0.0417 -0.2585  0.1130
 5253SOL    HW127392   0.516   2.969   3.249 -0.0983 -0.1879  0.3584
 5253SOL    HW227393   0.533   2.827   3.200  1.0472 -1.6556  1.7878
 5254SOL     OW27394   1.694   3.535   0.480 -0.0779 -0.1616 -0.2290
 5254SOL    HW127395   1.685   3.451   0.526 -0.0660 -0.3492 -0.5695
 5254SOL    HW227396   1.645   3.592   0.539  0.2998 -0.2301  0.1536
 5255SOL     OW27397   2.854   3.612   0.956  0.4791  0.0077  0.1313
 5255SOL    HW127398   2.915   3.567   1.015 -1.0956  0.3499  2.0233
 5255SOL    HW227399   2.858   3.547   0.886 -0.3906  2.6842 -2.4530
 5256SOL     OW27400   2.855   0.563   3.629  0.0466 -0.5278 -0.7826
 5256SOL    HW127401   2.937   0.544   3.673  0.4247  1.4230 -0.6567
 5256SOL    HW227402   2.862   0.658   3.622 -1.8584 -0.4831 -2.2663
 5257SOL     OW27403   4.348   4.124   7.883  0.4508  0.1435 -0.3051
 5257SOL    HW127404   4.321   4.197   7.826  1.5095  0.9986  0.2852
 5257SOL    HW227405   4.434   4.154   7.911  0.0315 -0.3633  1.5255
 5258SOL     OW27406   4.334   1.323   1.511  0.1444 -0.0748  0.0705
 5258SOL    HW127407   4.257   1.298   1.460  0.4554  2.5262 -1.6546
 5258SOL    HW227408   4.325   1.267   1.589 -1.6681  1.1266  0.7374
 5259SOL     OW27409   2.590   1.052  13.264 -0.0097 -0.2287 -0.3771
 5259SOL    HW127410   2.502   1.021  13.287  1.0347 -0.4839  3.3191
 5259SOL    HW227411   2.563   1.086  13.179  1.5656  3.1728  0.4872
 5260SOL     OW27412   2.256   0.181   5.405 -0.2467 -0.2760  0.0632
 5260SOL    HW127413   2.205   0.261   5.395 -0.2541 -0.4822 -1.5310
 5260SOL    HW227414   2.340   0.204   5.445 -0.4677  1.8706 -0.7016
 5261SOL     OW27415   3.214   1.101  16.183  0.1107 -0.1492 -0.2544
 5261SOL    HW127416   3.156   1.027  16.199 -0.7840  0.5250 -0.3656
 5261SOL    HW227417   3.153   1.173  16.197  2.2187  1.4146  0.9180
 5262SOL     OW27418   0.092   1.666   5.507 -0.2172 -0.1374 -0.9106
 5262SOL    HW127419   0.029   1.594   5.496  0.0106 -0.3791 -0.6425
 5262SOL    HW227420   0.119   1.653   5.598  0.3425 -1.2589 -1.2379
 5263SOL     OW27421   3.964   1.391   1.062  0.7263  0.4738  0.0114
 5263SOL    HW127422   4.000   1.478   1.048  0.0966  0.9728  1.4189
 5263SOL    HW227423   3.871   1.413   1.062  0.7074  0.4018  0.5911
 5264SOL     OW27424   3.396   3.772   1.651 -0.0210 -0.5404 -0.2988
 5264SOL    HW127425   3.437   3.735   1.729  1.3791  2.9975  0.6757
 5264SOL    HW227426   3.305   3.744   1.665 -0.6181  0.9630 -1.1482
 5265SOL     OW27427   0.653   4.170   6.899  0.5410  0.5741  0.1334
 5265SOL    HW127428   0.725   4.116   6.867 -0.7098 -1.5062  0.8513
 5265SOL    HW227429   0.590   4.110   6.938 -0.0163 -1.8130 -4.4068
 5266SOL     OW27430   4.532   0.952   6.068  0.1217 -0.1615  0.3415
 5266SOL    HW127431   4.438   0.972   6.071 -0.1957 -1.4636 -0.8891
 5266SOL    HW227432   4.535   0.871   6.118  1.7229  0.2203  0.8598
 5267SOL     OW27433   0.728   2.314   2.490 -0.4035 -0.2427 -0.5849
 5267SOL    HW127434   0.666   2.258   2.536 -0.0469  1.5354  2.0682
 5267SOL    HW227435   0.805   2.318   2.546  0.1007 -3.9337 -1.0515
 5268SOL     OW27436   3.059   0.760  11.651 -0.6030  0.4872  0.0489
 5268SOL    HW127437   3.117   0.699  11.697 -2.5362 -1.5957 -0.2328
 5268SOL    HW227438   3.025   0.696  11.588  0.8540 -0.6110  0.3758
 5269SOL     OW27439   4.445   3.559   7.661 -0.4174  0.0528  0.4437
 5269SOL    HW127440   4.512   3.553   7.729  1.1341  1.3945 -0.9643
 5269SOL    HW227441   4.497   3.579   7.583  0.0161  1.5126  1.0973
 5270SOL     OW27442   3.667   1.070   8.658 -0.2628  0.5470 -0.5950
 5270SOL    HW127443   3.601   1.098   8.722 -0.9145 -0.4145 -0.8355
 5270SOL    HW227444   3.615   1.081   8.578  0.0188  0.7131 -0.7532
 5271SOL     OW27445   1.645   2.803  13.116  0.0113  0.2590 -0.1182
 5271SOL    HW127446   1.598   2.776  13.037 -1.9044 -1.4217  1.6029
 5271SOL    HW227447   1.607   2.890  13.130  0.0667  0.3970 -0.8440
 5272SOL     OW27448   4.585   1.168   4.766  0.4838  0.4406 -0.0753
 5272SOL    HW127449   4.494   1.160   4.797  0.5039 -0.0845 -0.1663
 5272SOL    HW227450   4.590   1.092   4.709  1.6555 -1.4846  2.6267
 5273SOL     OW27451   0.279   1.969  14.081 -0.3781  0.1093  0.5470
 5273SOL    HW127452   0.248   2.059  14.082 -1.1733 -0.1701  1.2507
 5273SOL    HW227453   0.360   1.969  14.131 -0.0282 -3.5146 -0.0344
 5274SOL     OW27454   3.197   2.553   1.723  0.0352 -0.1587 -0.4620
 5274SOL    HW127455   3.172   2.637   1.685 -0.6927 -0.2445 -0.1783
 5274SOL    HW227456   3.171   2.572   1.814  1.4895  0.5806 -0.2125
 5275SOL     OW27457   3.584   2.139   1.222 -0.2327  0.3650  0.3784
 5275SOL    HW127458   3.539   2.115   1.142 -0.0434 -0.7315  0.5988
 5275SOL    HW227459   3.539   2.220   1.246 -0.6092  0.0677  0.6757
 5276SOL     OW27460   0.775   1.659   8.438 -0.2215 -0.4601 -0.8408
 5276SOL    HW127461   0.768   1.619   8.525  2.9585  1.2173  0.1987
 5276SOL    HW227462   0.707   1.610   8.392 -0.6117 -0.9915  0.3089
 5277SOL     OW27463   4.094   0.817  16.854  0.2426 -0.6404  0.4109
 5277SOL    HW127464   4.133   0.893  16.811  1.0810 -1.5313 -0.3967
 5277SOL    HW227465   3.999   0.825  16.847  0.2269  0.4221  1.8409
 5278SOL     OW27466   3.456   1.281   7.280 -0.3615  0.0686 -0.3306
 5278SOL    HW127467   3.411   1.248   7.358  0.2987 -0.7595 -0.3079
 5278SOL    HW227468   3.538   1.233   7.286 -0.6443 -0.5406 -1.4678
 5279SOL     OW27469   3.324   2.464   6.791 -0.1948  0.0472 -0.1318
 5279SOL    HW127470   3.343   2.441   6.882  2.1192 -1.0234 -0.8836
 5279SOL    HW227471   3.412   2.437   6.765  0.5187  0.9261  1.3692
 5280SOL     OW27472   4.006   3.834   8.661  0.1591  0.5447  0.4389
 5280SOL    HW127473   3.912   3.822   8.671  0.1472  0.3748  0.1092
 5280SOL    HW227474   4.042   3.824   8.750 -2.5705  2.2144  1.7334
 5281SOL     OW27475   3.853   2.335   6.804 -0.6994  0.4686  0.1339
 5281SOL    HW127476   3.875   2.254   6.757 -1.9634  0.5106 -0.5314
 5281SOL    HW227477   3.911   2.341   6.880 -0.5267 -1.2657  0.1424
 5282SOL     OW27478   4.172   3.203   8.554 -0.2293  0.1769  0.0943
 5282SOL    HW127479   4.202   3.159   8.633  0.3418  1.6960  0.7185
 5282SOL    HW227480   4.202   3.138   8.491  1.3897  0.4104  0.6316
 5283SOL     OW27481   3.893   2.820  17.123 -0.2531  0.1178 -0.2238
 5283SOL    HW127482   3.808   2.844  17.086 -0.6585 -0.4675  0.3128
 5283SOL    HW227483   3.894   2.725  17.112 -4.9564 -0.0740  0.9481
 5284SOL     OW27484   4.586   4.201   2.607  0.0354 -0.0328  0.1320
 5284SOL    HW127485   4.518   4.269   2.617 -0.8266 -0.8143 -0.4188
 5284SOL    HW227486   4.603   4.188   2.700  1.0652 -0.0211 -0.0614
 5285SOL     OW27487   4.290   2.635   8.648  0.3063  0.2404  0.1661
 5285SOL    HW127488   4.199   2.639   8.677  0.5004 -0.5901  0.8977
 5285SOL    HW227489   4.340   2.657   8.727  1.4073  1.3369 -0.8327
 5286SOL     OW27490   0.783   3.413  11.827 -0.6000 -0.0733 -0.0952
 5286SOL    HW127491   0.699   3.456  11.810 -0.3108  1.3346  1.9844
 5286SOL    HW227492   0.837   3.488  11.854 -0.1358 -0.5425  0.2686
 5287SOL     OW27493   3.991   4.338   6.372  0.1397  0.6079 -0.1793
 5287SOL    HW127494   3.942   4.368   6.448 -0.3194 -0.0400 -0.2215
 5287SOL    HW227495   3.971   4.244   6.366  0.5612  0.5213 -0.3148
 5288SOL     OW27496   0.985   2.836  13.469  0.7099  0.1605  0.3095
 5288SOL    HW127497   1.043   2.881  13.407  0.3908  0.0284 -0.0833
 5288SOL    HW227498   1.046   2.783  13.520 -0.9973 -0.5226  1.6053
 5289SOL     OW27499   1.774   2.803  11.909 -0.0137  0.3477 -0.0559
 5289SOL    HW127500   1.765   2.843  11.822  4.0448 -0.6336 -0.9192
 5289SOL    HW227501   1.855   2.753  11.906 -0.3594 -0.2987  1.7238
 5290SOL     OW27502   2.560   3.527   2.612 -0.3981 -0.1333 -0.2265
 5290SOL    HW127503   2.527   3.572   2.689  0.4650 -1.4836  0.9213
 5290SOL    HW227504   2.599   3.449   2.651  0.3316  0.4007  0.0822
 5291SOL     OW27505   3.697   1.566   1.264 -0.6995 -0.2178  0.0754
 5291SOL    HW127506   3.733   1.611   1.187 -0.1024 -0.5362  0.1654
 5291SOL    HW227507   3.682   1.483   1.220 -2.9512 -0.1993  0.8321
 5292SOL     OW27508   1.138   2.427  11.763  0.2066  0.6991  0.1641
 5292SOL    HW127509   1.145   2.482  11.841 -0.6681  0.9203  0.0837
 5292SOL    HW227510   1.076   2.358  11.787  1.8778 -1.3413 -1.4103
 5293SOL     OW27511   4.206   0.160   4.622 -0.1800  0.8272 -0.2831
 5293SOL    HW127512   4.113   0.177   4.608 -0.7951 -3.2950 -1.0584
 5293SOL    HW227513   4.240   0.134   4.537  0.5364  2.4148 -0.4868
 5294SOL     OW27514   0.535   4.723   6.490  0.3050  0.5791  0.4640
 5294SOL    HW127515   0.616   0.028   6.461  0.1952  1.2830  1.1592
 5294SOL    HW227516   0.536   4.725   6.585  1.1365  1.9125  0.4143
 5295SOL     OW27517   1.975   3.756   5.014  0.4112  0.4543  0.8663
 5295SOL    HW127518   1.891   3.733   5.055  0.5074 -1.4094  0.0180
 5295SOL    HW227519   1.964   3.850   5.002  1.2754  0.4998  0.4408
 5296SOL     OW27520   2.236   1.239  14.311  0.3028  0.3516  0.5999
 5296SOL    HW127521   2.279   1.232  14.225 -1.0902 -2.2239  0.1231
 5296SOL    HW227522   2.314   1.278  14.350  0.4393 -0.8376  1.5017
 5297SOL     OW27523   1.069   2.189  15.503  0.1358 -0.3211  0.2764
 5297SOL    HW127524   1.123   2.197  15.582  1.7828  2.4402 -1.1311
 5297SOL    HW227525   1.062   2.280  15.475  1.9814  0.5537  2.6091
 5298SOL     OW27526   4.105   4.219   1.702  0.4365  0.2047  0.0269
 5298SOL    HW127527   4.033   4.157   1.708 -1.0138  1.8060 -0.6636
 5298SOL    HW227528   4.104   4.254   1.791  0.0195  1.4132 -0.4551
 5299SOL     OW27529   3.535   1.377   3.882 -0.3140  0.1083 -0.1507
 5299SOL    HW127530   3.450   1.342   3.909  0.1327 -0.7957  0.0952
 5299SOL    HW227531   3.516   1.378   3.788 -2.4272 -0.7594  0.2603
 5300SOL     OW27532   2.147   1.392  10.768 -0.0423  0.2076 -0.0052
 5300SOL    HW127533   2.140   1.369  10.860 -0.4238 -2.3363 -0.6680
 5300SOL    HW227534   2.169   1.309  10.726  0.2831 -0.4182  1.4023
 5301SOL     OW27535   3.153   4.695  10.177  0.9307 -0.2375  0.6127
 5301SOL    HW127536   3.222   4.631  10.157  1.5062  1.3762 -2.6276
 5301SOL    HW227537   3.211   0.035  10.175  0.0428  0.4824  2.0328
 5302SOL     OW27538   2.766   3.236   4.293 -0.7661  0.0712  0.6688
 5302SOL    HW127539   2.706   3.183   4.241  1.3988  0.5630 -2.3176
 5302SOL    HW227540   2.718   3.318   4.311  1.2413  1.2018  0.8399
 5303SOL     OW27541   2.171   2.211   5.916 -0.7144 -0.0393  0.2292
 5303SOL    HW127542   2.183   2.203   5.822  2.3988 -2.2882  0.8387
 5303SOL    HW227543   2.198   2.301   5.937 -0.3217  1.2596 -6.0451
 5304SOL     OW27544   4.576   2.459  14.178  0.1858  0.5052 -0.4994
 5304SOL    HW127545   4.662   2.418  14.170 -0.6572 -1.2287 -0.9002
 5304SOL    HW227546   4.593   2.552  14.186  1.6647  0.1256  0.6474
 5305SOL     OW27547   3.765   4.097   2.241  0.4622  0.6227 -0.6167
 5305SOL    HW127548   3.675   4.127   2.250 -0.6171 -2.7885 -0.0719
 5305SOL    HW227549   3.805   4.154   2.306  0.6551  0.7932 -0.8851
 5306SOL     OW27550   0.295   0.120   1.569 -0.1854  0.2313  0.1710
 5306SOL    HW127551   0.267   0.207   1.599 -0.0799 -0.6146  2.7070
 5306SOL    HW227552   0.339   0.145   1.488 -0.7732  0.8687  0.0485
 5307SOL     OW27553   0.497   0.712   2.756  0.1646  0.1283 -0.0843
 5307SOL    HW127554   0.437   0.782   2.729  1.5618  1.7912  1.1256
 5307SOL    HW227555   0.436   0.639   2.744 -0.6590  0.6291  1.0384
 5308SOL     OW27556   2.781   3.155   0.818 -0.6166 -0.0698 -0.1993
 5308SOL    HW127557   2.814   3.122   0.734  0.3360  1.8521 -0.5739
 5308SOL    HW227558   2.807   3.247   0.821  1.4374 -0.7678  4.3329
 5309SOL     OW27559   2.630   3.952   7.374 -0.1005 -0.3013 -0.3660
 5309SOL    HW127560   2.692   3.984   7.309 -0.8387  0.6909 -0.5721
 5309SOL    HW227561   2.661   3.863   7.391  0.9332 -0.2331 -1.9430
 5310SOL     OW27562   1.343   4.059  10.876  0.1030  0.0939 -0.2679
 5310SOL    HW127563   1.370   4.107  10.954 -2.2501  0.6657  0.2132
 5310SOL    HW227564   1.277   4.116  10.836 -2.4369 -0.1395  3.6591
 5311SOL     OW27565   3.910   4.128   9.579  0.0114 -1.0605  0.3480
 5311SOL    HW127566   3.893   4.163   9.666 -0.4787 -1.6915  0.5042
 5311SOL    HW227567   3.821   4.106   9.551 -0.4193  1.2576 -0.0400
 5312SOL     OW27568   0.347   1.535   3.563  0.4192  0.4553  0.2168
 5312SOL    HW127569   0.429   1.488   3.546  0.8119  0.6577  1.5526
 5312SOL    HW227570   0.355   1.534   3.658  0.2855  2.0932  0.2500
 5313SOL     OW27571   2.467   1.172   5.837  0.2283  0.3578 -0.4586
 5313SOL    HW127572   2.435   1.150   5.750 -1.4349 -0.8038  0.4284
 5313SOL    HW227573   2.479   1.266   5.823  1.1380  0.3519  0.2345
 5314SOL     OW27574   4.525   3.151   4.693 -0.0344  0.7461  0.6242
 5314SOL    HW127575   4.551   3.171   4.603 -0.4524  0.3125  0.4064
 5314SOL    HW227576   4.450   3.096   4.669 -0.3046  1.9822 -1.3221
 5315SOL     OW27577   3.520   2.025   2.703 -0.1267 -0.0256 -0.8663
 5315SOL    HW127578   3.546   2.003   2.792  1.8923  0.6337 -1.3088
 5315SOL    HW227579   3.443   2.080   2.719  0.6238  0.5679  0.6517
 5316SOL     OW27580   2.106   4.162   1.679 -0.5292 -0.2686 -0.4038
 5316SOL    HW127581   2.136   4.251   1.697 -0.3982 -0.7917  1.9452
 5316SOL    HW227582   2.189   4.115   1.673 -1.0377 -1.1997 -0.1539
 5317SOL     OW27583   1.479   0.499   5.924 -0.2683 -0.1709 -0.1361
 5317SOL    HW127584   1.441   0.423   5.968  1.3017 -0.9557 -0.1311
 5317SOL    HW227585   1.561   0.463   5.889  1.6662  2.0769  2.0804
 5318SOL     OW27586   3.228   4.151   5.349 -0.2671  0.0750 -0.4871
 5318SOL    HW127587   3.216   4.056   5.352 -1.1203  0.1946 -0.1196
 5318SOL    HW227588   3.322   4.166   5.360 -0.3790 -0.4902  1.3869
 5319SOL     OW27589   3.868   2.671   9.691  0.4495  0.4596 -0.1365
 5319SOL    HW127590   3.866   2.758   9.730  0.7080 -0.5538  2.1570
 5319SOL    HW227591   3.777   2.643   9.696  0.8731 -0.9925 -0.4252
 5320SOL     OW27592   0.285   3.185  10.928 -0.7151  0.3554  0.3892
 5320SOL    HW127593   0.290   3.144  10.843 -2.5843  1.2484 -0.1750
 5320SOL    HW227594   0.372   3.222  10.939  0.3057 -1.8893 -0.3158
 5321SOL     OW27595   1.833   2.599   4.215  0.1282 -0.2646 -0.3877
 5321SOL    HW127596   1.924   2.568   4.221 -0.4263 -1.6078  0.9509
 5321SOL    HW227597   1.816   2.608   4.122 -1.0621  1.3964 -0.0041
 5322SOL     OW27598   3.106   0.620   3.471 -0.5423 -0.4439 -0.3930
 5322SOL    HW127599   3.072   0.709   3.470 -1.8771 -0.9660 -0.8771
 5322SOL    HW227600   3.117   0.609   3.566  1.2785 -1.8653 -0.7656
 5323SOL     OW27601   4.661   2.395  12.414  0.2790 -0.0571 -0.6187
 5323SOL    HW127602   4.661   2.428  12.324  2.2459 -0.0727 -0.6310
 5323SOL    HW227603   0.013   2.424  12.436  0.1241  0.5424 -0.7803
 5324SOL     OW27604   0.851   3.672   2.778  0.5315 -0.6918 -0.2894
 5324SOL    HW127605   0.853   3.590   2.728 -0.1553  0.2124 -1.8237
 5324SOL    HW227606   0.758   3.692   2.763  0.8642  0.0781 -1.3365
 5325SOL     OW27607   2.956   3.523   2.802 -0.3322  0.2160  0.3423
 5325SOL    HW127608   3.006   3.479   2.733  1.1883  1.7994  0.4491
 5325SOL    HW227609   3.017   3.546   2.872 -1.4192  2.8446  0.4006
 5326SOL     OW27610   0.639   2.286  11.094  0.2350  0.1811  0.2771
 5326SOL    HW127611   0.603   2.200  11.112 -1.3322  0.4522 -1.4992
 5326SOL    HW227612   0.577   2.318  11.028  0.3573  0.1717  0.1551
 5327SOL     OW27613   1.602   1.883   3.343 -0.2474 -0.3091  0.3224
 5327SOL    HW127614   1.630   1.850   3.258 -1.5463 -0.2102 -0.1510
 5327SOL    HW227615   1.521   1.933   3.329  1.0905  1.3645 -1.2897
 5328SOL     OW27616   2.154   2.943   9.687  0.7671 -0.4948  0.4484
 5328SOL    HW127617   2.099   2.899   9.752 -1.5233 -0.0682 -1.1999
 5328SOL    HW227618   2.210   2.992   9.747 -0.8682  0.9382  0.7826
 5329SOL     OW27619   4.604   1.263  15.359 -0.0300 -0.0156  0.1019
 5329SOL    HW127620   4.526   1.209  15.372  0.4887 -0.6181  0.7213
 5329SOL    HW227621   4.574   1.349  15.389  0.3489  0.3809 -0.6743
 5330SOL     OW27622   3.152   0.553   5.216  0.5442 -0.3788  0.0688
 5330SOL    HW127623   3.184   0.463   5.207 -0.5232 -0.8065  0.5691
 5330SOL    HW227624   3.193   0.567   5.301 -0.4194 -1.3267  0.6827
 5331SOL     OW27625   0.755   3.979  15.206  0.0540  0.3798  0.0313
 5331SOL    HW127626   0.822   4.044  15.185 -0.3195  0.6688 -0.2789
 5331SOL    HW227627   0.709   4.039  15.264  1.6199 -0.1050  1.7510
 5332SOL     OW27628   2.652   4.486   1.770  0.0973  0.7252  0.1587
 5332SOL    HW127629   2.587   4.420   1.794  1.3976 -0.4377  0.5447
 5332SOL    HW227630   2.624   4.569   1.809 -2.6175 -0.5821  0.9997
 5333SOL     OW27631   4.515   3.849   6.471  0.1261  0.3139  0.6491
 5333SOL    HW127632   4.464   3.929   6.479 -1.4625 -0.5304 -0.9866
 5333SOL    HW227633   4.458   3.774   6.490  0.9682 -0.4179  0.2893
 5334SOL     OW27634   1.633   1.407   7.494 -0.4996  0.3192  0.8507
 5334SOL    HW127635   1.728   1.420   7.493 -0.0216 -3.0125  3.1350
 5334SOL    HW227636   1.627   1.324   7.541  0.8199 -0.1286  0.2193
 5335SOL     OW27637   2.984   2.540   4.761 -0.0466  0.2249 -0.2772
 5335SOL    HW127638   3.058   2.483   4.782 -2.0020 -2.2898 -0.1999
 5335SOL    HW227639   3.022   2.609   4.707  1.0217 -1.8727 -2.1680
 5336SOL     OW27640   3.376   2.352  13.232  0.1377 -0.8167 -0.0866
 5336SOL    HW127641   3.460   2.395  13.215 -0.1545 -0.1708  0.0918
 5336SOL    HW227642   3.348   2.345  13.141  1.8135  1.8984 -0.7986
 5337SOL     OW27643   3.536   4.341   3.244 -0.3227 -0.2799 -0.1759
 5337SOL    HW127644   3.506   4.426   3.213  0.5311 -0.4599 -1.4753
 5337SOL    HW227645   3.610   4.375   3.294 -0.4963  0.5166 -0.4672
 5338SOL     OW27646   0.901   0.248   3.237 -0.6058  0.1705 -0.2027
 5338SOL    HW127647   0.866   0.220   3.152 -0.7068  1.0847 -0.4720
 5338SOL    HW227648   0.863   0.336   3.240 -0.2882  0.2114  2.8511
 5339SOL     OW27649   2.446   3.472   3.534  0.1510  0.0668 -0.3109
 5339SOL    HW127650   2.405   3.519   3.606 -1.1305 -0.4236 -0.7264
 5339SOL    HW227651   2.538   3.491   3.553  0.4491  0.0990 -1.7520
 5340SOL     OW27652   3.463   2.524  12.106  0.2024  0.2553  0.0770
 5340SOL    HW127653   3.459   2.449  12.166 -0.4857 -0.5848 -1.0100
 5340SOL    HW227654   3.472   2.591  12.174  2.2151 -0.9051  0.9482
 5341SOL     OW27655   0.405   0.194   2.598 -0.3794 -0.3416 -0.3893
 5341SOL    HW127656   0.377   0.126   2.538  0.7422 -0.0110 -1.2819
 5341SOL    HW227657   0.413   0.152   2.684  1.2987  0.8766  0.0415
 5342SOL     OW27658   4.308   1.143   1.715 -0.0141 -0.0068 -0.0753
 5342SOL    HW127659   4.400   1.154   1.740 -0.2574 -2.2014  1.8220
 5342SOL    HW227660   4.263   1.159   1.798 -1.8828  0.7456 -1.2418
 5343SOL     OW27661   0.001   3.898   3.369  0.1445  0.5001  0.0750
 5343SOL    HW127662   0.077   3.849   3.338  0.0800  0.5637 -0.1827
 5343SOL    HW227663   4.705   3.945   3.292 -0.2261  1.1398  0.6244
 5344SOL     OW27664   3.673   3.641   2.764 -0.2231 -0.3884 -0.1231
 5344SOL    HW127665   3.726   3.658   2.842 -2.5344 -2.3933  1.8784
 5344SOL    HW227666   3.671   3.545   2.766  0.4722 -0.4062 -0.6071
 5345SOL     OW27667   2.072   2.763   5.709  0.0122  0.1270  0.2905
 5345SOL    HW127668   2.153   2.809   5.686  0.6774 -0.9977  0.3701
 5345SOL    HW227669   2.005   2.798   5.651  1.9141  0.6709 -1.5740
 5346SOL     OW27670   3.938   4.355  11.028 -0.0212 -0.0946 -0.1184
 5346SOL    HW127671   3.917   4.444  11.059  1.8434  0.0814  0.6192
 5346SOL    HW227672   3.873   4.345  10.958  0.0500  0.2017 -0.2287
 5347SOL     OW27673   4.017   0.898   9.632 -0.5187  0.1228  0.4309
 5347SOL    HW127674   4.053   0.852   9.709 -0.1846  0.5059  0.5006
 5347SOL    HW227675   4.093   0.924   9.580 -0.4909 -1.0961 -0.1368
 5348SOL     OW27676   4.556   2.952   0.414  0.0588  0.3778 -0.7470
 5348SOL    HW127677   4.481   2.913   0.370 -0.0422  0.8015 -0.9486
 5348SOL    HW227678   4.599   2.996   0.341 -1.7605 -1.0025 -2.6698
 5349SOL     OW27679   3.939   3.149   0.511 -0.2195 -0.3037 -0.5950
 5349SOL    HW127680   3.913   3.216   0.574 -1.1846 -1.1618 -0.0815
 5349SOL    HW227681   3.976   3.206   0.444  0.3300  1.5504  1.2885
 5350SOL     OW27682   1.311   4.005   4.599 -0.0381  0.0786 -0.6849
 5350SOL    HW127683   1.403   3.987   4.617 -0.4101 -0.5073  0.6351
 5350SOL    HW227684   1.277   3.916   4.600 -0.4802  0.2560  0.7548
 5351SOL     OW27685   0.347   4.459   4.590 -0.0183 -0.1639 -0.2586
 5351SOL    HW127686   0.280   4.396   4.563 -0.0946 -1.0332  1.9967
 5351SOL    HW227687   0.309   4.546   4.581 -0.0447 -0.1126  0.3369
 5352SOL     OW27688   1.757   4.124  13.383 -0.5058 -0.3659 -0.0474
 5352SOL    HW127689   1.684   4.186  13.389  0.1040  0.5343 -1.9312
 5352SOL    HW227690   1.780   4.144  13.292 -0.6842 -1.1093 -0.2621
 5353SOL     OW27691   1.538   1.611  13.520 -0.0278  0.0141  0.1380
 5353SOL    HW127692   1.540   1.549  13.594  1.2703  0.5781  0.5750
 5353SOL    HW227693   1.461   1.580  13.472  0.1070  0.2151 -0.2023
 5354SOL     OW27694   3.915   2.822   2.860 -0.1448 -0.0368 -0.3546
 5354SOL    HW127695   3.979   2.878   2.905  0.5248 -0.7491 -0.4098
 5354SOL    HW227696   3.928   2.746   2.917  0.4898  0.0588 -0.3615
 5355SOL     OW27697   4.531   0.976   5.563 -0.1320 -0.6991 -0.3070
 5355SOL    HW127698   4.608   0.950   5.614 -0.4093  0.9376  0.9403
 5355SOL    HW227699   4.569   1.054   5.522 -0.5454 -1.0040 -1.2675
 5356SOL     OW27700   0.676   2.750   6.111 -0.1608 -0.3923 -0.3166
 5356SOL    HW127701   0.621   2.771   6.186  0.6402  0.0186  0.1532
 5356SOL    HW227702   0.676   2.655   6.119 -4.4186 -0.5439 -1.7481
 5357SOL     OW27703   0.303   2.067   4.542  0.1149  0.2572  0.4015
 5357SOL    HW127704   0.254   2.146   4.522  1.2581  0.8827  0.0755
 5357SOL    HW227705   0.236   2.004   4.568 -0.5829  2.1659  3.3423
 5358SOL     OW27706   1.468   0.061  12.671 -0.1516 -0.0437  0.4020
 5358SOL    HW127707   1.556   0.028  12.689 -0.1667 -0.4658 -0.3031
 5358SOL    HW227708   1.427   0.019  12.747  0.4072  0.6977  1.1139
 5359SOL     OW27709   2.686   2.516   8.445 -0.7605  0.1603  0.2301
 5359SOL    HW127710   2.608   2.478   8.404  0.2506 -2.8607  1.0790
 5359SOL    HW227711   2.722   2.447   8.501  0.7805 -2.0830 -3.4891
 5360SOL     OW27712   4.367   2.233   3.069  0.2273 -0.3683  0.9301
 5360SOL    HW127713   4.332   2.163   3.014 -0.8613 -1.5223  3.0820
 5360SOL    HW227714   4.384   2.295   2.998 -4.6170  0.5273  0.5465
 5361SOL     OW27715   0.189   3.776   1.357 -0.0624 -0.9403  0.2689
 5361SOL    HW127716   0.162   3.866   1.373 -1.2229 -1.3566  0.6989
 5361SOL    HW227717   0.099   3.743   1.351 -1.3199  2.5793  0.1181
 5362SOL     OW27718   3.528   3.624   6.824  0.3829  0.6200  0.4651
 5362SOL    HW127719   3.471   3.577   6.763  0.0459 -2.0173  2.8243
 5362SOL    HW227720   3.480   3.620   6.907 -0.3246 -0.4501  0.0027
 5363SOL     OW27721   0.087   1.304   9.457 -0.0280 -0.1404  0.4246
 5363SOL    HW127722   0.014   1.341   9.408 -0.1168 -0.2818  0.4496
 5363SOL    HW227723   0.046   1.289   9.542  2.6597 -1.2830  1.5158
 5364SOL     OW27724   3.287   3.113   2.880  0.0419 -0.1410  0.4391
 5364SOL    HW127725   3.309   3.206   2.886  3.0805 -0.7475 -1.4752
 5364SOL    HW227726   3.306   3.097   2.788 -0.7385  0.4039  0.1930
 5365SOL     OW27727   0.654   1.619   4.088 -0.1021 -0.0753  0.1675
 5365SOL    HW127728   0.682   1.528   4.077  0.6269 -0.1763  2.9731
 5365SOL    HW227729   0.568   1.607   4.128 -0.6992  1.0050 -0.8097
 5366SOL     OW27730   4.523   4.636   1.496 -0.2103  0.2550  0.1887
 5366SOL    HW127731   4.609   4.603   1.471 -1.2193 -1.4020 -1.1227
 5366SOL    HW227732   4.472   4.562   1.465  2.0206 -0.3083 -2.1537
 5367SOL     OW27733   0.055   0.366   0.882  0.3237 -0.1885 -0.0591
 5367SOL    HW127734   0.129   0.426   0.889  1.3736 -1.5309  0.4359
 5367SOL    HW227735   4.720   0.389   0.942  0.8895 -1.0178  0.9320
 5368SOL     OW27736   3.765   4.038  17.223  0.0687  0.3213 -0.3066
 5368SOL    HW127737   3.831   4.106  17.239  0.0599  0.7818 -2.3008
 5368SOL    HW227738   3.822   3.961  17.222  0.3726  0.5379  0.1881
 5369SOL     OW27739   3.838   2.318   7.182  0.3426  0.1637  0.2039
 5369SOL    HW127740   3.757   2.272   7.206  0.1470  0.0990 -0.5981
 5369SOL    HW227741   3.812   2.405   7.213  0.3275  0.2456 -0.0417
 5370SOL     OW27742   2.612   1.825   4.902  0.2169 -0.0076 -0.3775
 5370SOL    HW127743   2.571   1.853   4.984 -0.1011 -0.5754 -0.3436
 5370SOL    HW227744   2.704   1.849   4.912  0.2747 -0.0815 -0.7454
 5371SOL     OW27745   1.113   0.374   7.275 -0.0778 -0.3359  0.0048
 5371SOL    HW127746   1.100   0.467   7.295  0.0189 -0.5343  1.0300
 5371SOL    HW227747   1.135   0.329   7.357  0.1995 -0.6950 -0.2644
 5372SOL     OW27748   3.414   0.167  12.010 -0.2914  0.5767 -0.8988
 5372SOL    HW127749   3.407   0.074  11.988  3.3045 -0.3105  1.7444
 5372SOL    HW227750   3.416   0.166  12.106 -0.6046  1.0900 -0.8848
 5373SOL     OW27751   4.311   4.198   6.304  0.0348  0.2046 -0.1580
 5373SOL    HW127752   4.239   4.202   6.241  0.8625 -3.4365 -1.3215
 5373SOL    HW227753   4.371   4.270   6.284  0.7478 -1.1340 -2.8350
 5374SOL     OW27754   4.369   1.093   4.956 -0.5962 -0.2387  0.2224
 5374SOL    HW127755   4.295   1.153   4.943 -0.1502  0.0536 -1.0314
 5374SOL    HW227756   4.321   1.011   4.969 -0.5480 -0.3929 -0.5716
 5375SOL     OW27757   1.619   1.489   6.204 -0.0445  0.4289  0.7711
 5375SOL    HW127758   1.671   1.466   6.127 -0.9304 -0.1732  0.3526
 5375SOL    HW227759   1.672   1.445   6.271  1.4348  0.1723 -0.5712
 5376SOL     OW27760   4.684   3.493   9.831 -0.4037  0.3232  0.0022
 5376SOL    HW127761   4.648   3.406   9.813  2.5781 -0.2668 -3.0928
 5376SOL    HW227762   4.609   3.552   9.822  0.8153  1.8868  0.1526
 5377SOL     OW27763   1.488   1.165   3.986 -0.2716 -0.1231  0.0151
 5377SOL    HW127764   1.453   1.226   3.921 -1.7865  0.4337  1.3478
 5377SOL    HW227765   1.421   1.096   3.983  0.2954 -0.6765  0.1961
 5378SOL     OW27766   3.495   1.841   6.905  0.5700 -0.0640  0.1126
 5378SOL    HW127767   3.515   1.772   6.968  0.0013  0.8007  1.2447
 5378SOL    HW227768   3.410   1.878   6.931 -0.6915 -0.5537 -3.2712
 5379SOL     OW27769   1.399   4.472   5.965 -0.2666 -0.7540  0.6558
 5379SOL    HW127770   1.456   4.531   5.916  0.8005 -2.2563  0.1062
 5379SOL    HW227771   1.319   4.477   5.912  0.4772  2.3022 -0.1644
 5380SOL     OW27772   4.569   2.226   7.689 -0.3360 -0.3043 -0.6164
 5380SOL    HW127773   4.498   2.180   7.644 -1.3660  0.4498  0.2381
 5380SOL    HW227774   4.585   2.163   7.758  0.2564 -0.0981 -0.5696
 5381SOL     OW27775   0.206   0.187   3.724 -0.5189  0.0526 -0.4230
 5381SOL    HW127776   0.150   0.250   3.679 -1.3379 -0.1254  0.3504
 5381SOL    HW227777   0.142   0.152   3.786  0.3718  2.6280  1.9416
 5382SOL     OW27778   3.450   3.282   1.467  0.0496 -0.3195 -0.5808
 5382SOL    HW127779   3.510   3.347   1.501  2.8278 -2.3397 -1.5685
 5382SOL    HW227780   3.422   3.232   1.543  1.3363 -0.2655 -0.0892
 5383SOL     OW27781   3.831   3.874   4.361 -0.8650  0.0909 -0.1809
 5383SOL    HW127782   3.808   3.791   4.401  1.1161 -0.7342 -0.7574
 5383SOL    HW227783   3.807   3.851   4.271  0.8987 -1.0052 -0.3730
 5384SOL     OW27784   3.220   0.061  16.345 -0.0557 -0.1505 -0.2981
 5384SOL    HW127785   3.139   0.043  16.296 -0.5197  1.9964 -0.3072
 5384SOL    HW227786   3.201   0.142  16.392 -2.1186  0.0030 -1.4096
 5385SOL     OW27787   2.986   3.923  11.068 -0.3072 -0.4413 -0.3124
 5385SOL    HW127788   3.034   3.840  11.068 -1.0104 -0.8737  4.9904
 5385SOL    HW227789   2.911   3.896  11.121  1.3316 -0.9476  1.7434
 5386SOL     OW27790   0.761   0.402   8.620 -0.5392  0.0034  0.2371
 5386SOL    HW127791   0.797   0.427   8.705  0.2984  0.1823 -0.1691
 5386SOL    HW227792   0.734   0.484   8.579  1.7814  1.1628  0.9976
 5387SOL     OW27793   1.355   0.434   1.574 -0.3499  0.4406 -0.6538
 5387SOL    HW127794   1.342   0.351   1.528  1.4102 -1.1492  1.6885
 5387SOL    HW227795   1.446   0.421   1.604 -0.7468  0.9589  0.7938
 5388SOL     OW27796   1.946   3.106   0.535 -0.2475 -0.8729 -0.2479
 5388SOL    HW127797   1.945   3.099   0.440 -0.3116 -0.1575 -0.3015
 5388SOL    HW227798   1.942   3.201   0.551 -1.9074 -1.4496  2.8692
 5389SOL     OW27799   2.077   1.979   8.716 -0.1729 -0.1864  0.5051
 5389SOL    HW127800   2.072   2.042   8.644  0.6688 -0.8719 -0.1555
 5389SOL    HW227801   1.984   1.982   8.739  0.1995  1.0803  1.8187
 5390SOL     OW27802   1.192   1.568  14.856 -0.0029  0.6062  0.1124
 5390SOL    HW127803   1.193   1.574  14.760 -2.1854 -1.8306 -0.0766
 5390SOL    HW227804   1.246   1.490  14.866 -1.6044 -0.4152  0.8940
 5391SOL     OW27805   2.427   0.315   9.584  0.8102 -0.0275 -0.2613
 5391SOL    HW127806   2.418   0.220   9.576  0.5315  0.0272 -0.5955
 5391SOL    HW227807   2.344   0.359   9.601  1.7360  1.8124 -0.5233
 5392SOL     OW27808   0.265   2.798   4.619 -0.2294 -0.6524  0.0213
 5392SOL    HW127809   0.276   2.780   4.526 -0.5639 -0.7076 -0.0070
 5392SOL    HW227810   0.174   2.826   4.625  0.1611  0.4540  0.9344
 5393SOL     OW27811   1.462   1.929   6.141  0.7575 -0.5192  0.2285
 5393SOL    HW127812   1.495   1.857   6.195 -1.7437 -1.8353 -0.0026
 5393SOL    HW227813   1.540   1.983   6.152  2.0395 -2.6154  1.4927
 5394SOL     OW27814   2.854   3.009   4.957  0.5715 -0.1942  0.6211
 5394SOL    HW127815   2.817   2.950   5.022 -1.9831  0.9939  0.2606
 5394SOL    HW227816   2.802   3.083   4.986  1.0273  0.7773 -1.0133
 5395SOL     OW27817   1.697   3.419   7.978  0.1997 -0.1930 -0.2830
 5395SOL    HW127818   1.762   3.490   7.970  0.7128 -0.6063  0.2735
 5395SOL    HW227819   1.619   3.474   7.970  1.4071  1.7111  0.8876
 5396SOL     OW27820   0.935   2.466   8.093  0.3721 -0.2648  0.1746
 5396SOL    HW127821   0.956   2.410   8.018 -1.4588 -0.8631  0.1184
 5396SOL    HW227822   0.897   2.538   8.042  0.0333 -0.2451  0.4546
 5397SOL     OW27823   3.131   0.943   8.722  0.2818  0.2849 -0.4213
 5397SOL    HW127824   3.154   0.863   8.674  0.9802  1.2313 -1.6833
 5397SOL    HW227825   3.217   0.960   8.761  0.2196  0.0243 -0.1758
 5398SOL     OW27826   1.649   3.335   7.380  0.0549 -0.1774 -0.1054
 5398SOL    HW127827   1.664   3.415   7.329 -2.3660 -0.3385 -1.0705
 5398SOL    HW227828   1.664   3.371   7.467 -1.1603  0.4237 -0.1460
 5399SOL     OW27829   4.473   3.959   1.790  0.3114  0.9442  0.1150
 5399SOL    HW127830   4.527   3.905   1.732 -1.5178  0.0362 -0.7423
 5399SOL    HW227831   4.483   4.044   1.748  1.4400  0.8187  0.1178
 5400SOL     OW27832   1.607   4.078   3.587 -0.1445 -0.5047  0.3526
 5400SOL    HW127833   1.540   4.122   3.533  0.5783  1.8554  1.3579
 5400SOL    HW227834   1.678   4.138   3.563 -2.1532  1.8169  0.1216
 5401SOL     OW27835   2.140   1.334  11.014 -0.1739  0.1744 -0.2150
 5401SOL    HW127836   2.106   1.407  11.065 -1.1412 -0.9071  0.6861
 5401SOL    HW227837   2.105   1.258  11.061 -0.2881 -0.3057 -1.0743
 5402SOL     OW27838   1.653   1.378   2.453  0.2442  0.2707  0.2591
 5402SOL    HW127839   1.561   1.355   2.467  0.0071  0.0125 -1.7140
 5402SOL    HW227840   1.699   1.309   2.501 -0.4755  0.2573  0.9397
 5403SOL     OW27841   3.371   0.858   8.958  0.2429 -0.6824 -0.4147
 5403SOL    HW127842   3.349   0.950   8.947 -2.0876 -1.6227 -3.4686
 5403SOL    HW227843   3.444   0.867   9.020  0.2869  2.5739 -0.9308
 5404SOL     OW27844   0.579   2.235   6.070  0.2820  0.7975  0.0181
 5404SOL    HW127845   0.616   2.146   6.070  1.5627  1.3210  2.4701
 5404SOL    HW227846   0.522   2.214   5.996  0.7107  0.1021 -0.1224
 5405SOL     OW27847   1.885   0.544   5.906 -0.4668  0.0987  0.5944
 5405SOL    HW127848   1.935   0.547   5.825 -1.7816 -2.1357 -0.3003
 5405SOL    HW227849   1.799   0.526   5.869 -0.9753  1.9832  0.8534
 5406SOL     OW27850   0.156   4.735  10.680  0.0384 -0.5349 -0.6782
 5406SOL    HW127851   0.065   0.012  10.706 -0.0249  0.4593 -1.4180
 5406SOL    HW227852   0.197   4.698  10.758  1.6147 -0.7696 -1.6111
 5407SOL     OW27853   0.948   4.185   5.514 -0.1277 -0.2758  0.1593
 5407SOL    HW127854   0.968   4.143   5.431  0.7569  0.1214  0.1684
 5407SOL    HW227855   0.857   4.163   5.534 -1.1494  2.3199 -1.6464
 5408SOL     OW27856   3.569   0.825  16.815 -0.1046 -0.3933  0.7661
 5408SOL    HW127857   3.524   0.877  16.882 -1.5393 -0.6933  0.0276
 5408SOL    HW227858   3.572   0.888  16.743  2.0363 -1.3076  0.0724
 5409SOL     OW27859   0.449   3.751  15.762 -0.9983 -0.4019  0.1234
 5409SOL    HW127860   0.436   3.846  15.761 -0.1336 -0.3072 -1.4424
 5409SOL    HW227861   0.482   3.741  15.672 -0.7657 -1.0182  0.2812
 5410SOL     OW27862   4.181   0.007   9.007 -0.5049 -0.1667  0.1308
 5410SOL    HW127863   4.216   0.011   8.918 -1.7722 -0.1876 -0.3642
 5410SOL    HW227864   4.256   4.702   9.051 -0.9736 -0.0140  1.0759
 5411SOL     OW27865   1.300   3.889   3.773  0.6638  0.7597  0.1943
 5411SOL    HW127866   1.258   3.803   3.777  1.3995  0.3940  0.0994
 5411SOL    HW227867   1.329   3.890   3.682 -1.7008  0.7406 -0.5375
 5412SOL     OW27868   3.110   3.007   7.834  0.6613  0.5334 -0.1351
 5412SOL    HW127869   3.108   2.985   7.927 -0.7424 -0.7204 -0.4648
 5412SOL    HW227870   3.197   2.976   7.812  0.1017 -0.2955 -1.1545
 5413SOL     OW27871   3.901   1.846   4.554 -0.4944  0.0784  0.2232
 5413SOL    HW127872   3.908   1.826   4.648  0.2242  0.6995  0.3090
 5413SOL    HW227873   3.810   1.819   4.545 -0.2437 -1.4778  2.3298
 5414SOL     OW27874   4.034   3.076   5.886  0.1698  0.1616 -0.5757
 5414SOL    HW127875   4.023   3.165   5.920 -0.8333  0.4694 -1.7401
 5414SOL    HW227876   3.941   3.053   5.882  0.5864 -1.8619  0.8757
 5415SOL     OW27877   2.220   3.758   1.957  0.9124 -0.0791 -0.6723
 5415SOL    HW127878   2.239   3.690   1.893  2.2475 -1.4410  1.1615
 5415SOL    HW227879   2.286   3.732   2.021  1.1236 -0.5236 -1.0681
 5416SOL     OW27880   4.203   2.021   9.721  0.1972 -0.3264 -0.4799
 5416SOL    HW127881   4.258   1.943   9.717  0.8422  0.0326  1.3307
 5416SOL    HW227882   4.195   2.055   9.631  1.4748 -1.0448 -0.8478
 5417SOL     OW27883   2.138   1.067   7.794 -0.6991 -0.2955  0.2857
 5417SOL    HW127884   2.186   1.147   7.776  0.3456 -0.8384  0.6796
 5417SOL    HW227885   2.102   1.089   7.880  0.1386 -1.5421  0.9648
 5418SOL     OW27886   4.523   1.798  15.886 -0.1935  0.6971  0.3189
 5418SOL    HW127887   4.458   1.857  15.848 -1.0349 -0.4731 -0.0455
 5418SOL    HW227888   4.582   1.786  15.812  0.4364  1.6247  0.6624
 5419SOL     OW27889   3.405   3.951   2.104 -0.6357 -0.5594 -0.3878
 5419SOL    HW127890   3.386   3.876   2.160  1.6625 -1.4048 -0.7461
 5419SOL    HW227891   3.354   3.929   2.026 -1.2351 -0.2169 -0.0887
 5420SOL     OW27892   4.579   3.898   8.656  0.6278  0.4766 -0.0655
 5420SOL    HW127893   4.583   3.994   8.649 -2.6849  0.6735  1.0459
 5420SOL    HW227894   4.652   3.874   8.713  1.2219  0.4287 -0.8401
 5421SOL     OW27895   0.786   3.951   8.126  0.2947  0.2033 -0.0200
 5421SOL    HW127896   0.878   3.934   8.146  0.2592 -0.8083 -0.7154
 5421SOL    HW227897   0.791   4.046   8.115 -1.8166  0.1512 -1.3731
 5422SOL     OW27898   1.331   2.478  16.948 -0.1208  0.0221  0.5913
 5422SOL    HW127899   1.271   2.469  16.873 -0.9016 -0.1696  1.2391
 5422SOL    HW227900   1.299   2.563  16.979 -0.0522  0.3498 -0.2381
 5423SOL     OW27901   3.695   1.249  15.218  0.2297 -0.3963  0.5006
 5423SOL    HW127902   3.770   1.223  15.164  0.4527 -0.5204  0.8681
 5423SOL    HW227903   3.748   1.282  15.290  1.2277 -0.3936 -0.2324
 5424SOL     OW27904   2.184   2.654   0.197  0.3106  0.2833  0.3966
 5424SOL    HW127905   2.168   2.659   0.291  0.0015 -1.2689  0.4346
 5424SOL    HW227906   2.092   2.639   0.173  0.5702 -0.7896  0.0678
 5425SOL     OW27907   4.431   3.930  14.726 -0.3783  0.4191 -0.1086
 5425SOL    HW127908   4.493   3.961  14.792 -0.6524  0.1107  0.2970
 5425SOL    HW227909   4.489   3.873  14.675 -2.5638 -0.6054 -1.4651
 5426SOL     OW27910   3.954   2.518   6.194  0.6697  0.6363  0.4064
 5426SOL    HW127911   3.918   2.476   6.116 -0.0627  1.3972  0.3346
 5426SOL    HW227912   3.919   2.605   6.176 -0.0642  0.4863  1.0945
 5427SOL     OW27913   3.136   1.357   4.995 -0.1142  0.3821 -0.0102
 5427SOL    HW127914   3.198   1.391   5.060  1.4631  1.6597 -2.1742
 5427SOL    HW227915   3.197   1.367   4.922 -2.8003 -0.3077 -2.3468
 5428SOL     OW27916   1.312   3.952   6.224 -0.3763 -0.0577 -0.2837
 5428SOL    HW127917   1.235   3.990   6.265 -0.1270 -0.2930  0.4071
 5428SOL    HW227918   1.338   4.030   6.175  0.6735  1.0710  2.1090
 5429SOL     OW27919   0.262   2.865   3.519 -0.0958 -0.3600 -0.5228
 5429SOL    HW127920   0.322   2.848   3.592 -0.8478  1.8435  0.6294
 5429SOL    HW227921   0.301   2.941   3.476  3.2249 -0.5655  2.0918
 5430SOL     OW27922   1.988   3.108   3.206  0.3649  0.2469  0.1458
 5430SOL    HW127923   1.959   3.151   3.287  1.4392 -0.0729  0.6986
 5430SOL    HW227924   2.067   3.063   3.236  1.8978  1.8264 -1.5652
 5431SOL     OW27925   2.568   3.223  16.860 -0.2039 -0.6304 -0.3053
 5431SOL    HW127926   2.549   3.296  16.801 -0.3109 -0.5032 -0.1153
 5431SOL    HW227927   2.653   3.247  16.896  0.2807 -0.4869 -1.5602
 5432SOL     OW27928   1.486   0.306  13.094 -0.0669  0.0994  0.0129
 5432SOL    HW127929   1.569   0.335  13.055  0.0296  0.6263  0.6167
 5432SOL    HW227930   1.478   0.217  13.058 -0.1615  0.1767 -0.1567
 5433SOL     OW27931   4.715   0.694   6.156  0.5299 -0.2320  0.1663
 5433SOL    HW127932   0.050   0.693   6.220  0.1012 -0.0414  0.6426
 5433SOL    HW227933   4.724   0.616   6.101 -1.6730  0.4349 -1.1279
 5434SOL     OW27934   4.174   0.367   7.546  0.3651  0.4854 -0.4765
 5434SOL    HW127935   4.165   0.415   7.628  1.1642 -0.1331 -0.0222
 5434SOL    HW227936   4.263   0.333   7.554  0.2674  0.3502  0.0461
 5435SOL     OW27937   1.186   4.622  12.993  0.3651 -0.2536  0.2104
 5435SOL    HW127938   1.215   4.534  12.969  0.7592  0.0205 -0.3231
 5435SOL    HW227939   1.101   4.622  12.949  0.3206  0.7595  0.2919
 5436SOL     OW27940   4.235   1.464   0.418 -0.3104  0.3682 -0.1320
 5436SOL    HW127941   4.250   1.391   0.358 -3.3083 -0.1994 -0.1934
 5436SOL    HW227942   4.163   1.516   0.381 -2.0599 -3.2485 -1.8506
 5437SOL     OW27943   2.724   0.038   8.196 -0.0199  0.1219  0.0541
 5437SOL    HW127944   2.720   0.042   8.100 -0.5691  0.3119  0.0874
 5437SOL    HW227945   2.808   4.729   8.211  0.6448  2.0840  2.1726
 5438SOL     OW27946   2.306   2.638   2.766 -0.1436  0.3855  0.4226
 5438SOL    HW127947   2.328   2.648   2.859  0.2307 -0.2494  0.4015
 5438SOL    HW227948   2.268   2.551   2.780  1.5775 -0.8073 -2.3087
 5439SOL     OW27949   4.685   2.953  13.629 -0.4873  0.1177 -0.2246
 5439SOL    HW127950   4.617   2.951  13.561 -1.3556  2.4571  0.5734
 5439SOL    HW227951   0.028   2.967  13.578 -1.6294  0.5052 -1.8851
 5440SOL     OW27952   4.722   2.253   3.613  0.8582 -0.2344  0.0805
 5440SOL    HW127953   4.699   2.170   3.571  0.5125 -0.4807  0.7572
 5440SOL    HW227954   4.681   2.307   3.545 -0.5478  1.9287  2.6355
 5441SOL     OW27955   1.951   2.092  14.375  0.0778 -0.0467 -0.0996
 5441SOL    HW127956   1.946   2.098  14.279  0.4057  0.0960 -0.1096
 5441SOL    HW227957   2.044   2.077  14.390  0.5679  0.4930 -2.4937
 5442SOL     OW27958   2.122   2.143  15.917 -0.3096  0.5107  0.0239
 5442SOL    HW127959   2.199   2.142  15.860 -2.9072  0.5847 -3.5156
 5442SOL    HW227960   2.064   2.081  15.872 -1.3173  0.8394  0.8730
 5443SOL     OW27961   3.822   2.481   2.077 -0.6543  0.0030  0.5016
 5443SOL    HW127962   3.797   2.563   2.035  1.2424  0.9299  1.1805
 5443SOL    HW227963   3.852   2.430   2.002 -1.2359  2.3778 -1.3353
 5444SOL     OW27964   3.077   2.379  15.925 -0.0651 -0.2400  0.7002
 5444SOL    HW127965   3.160   2.399  15.967  0.8801 -0.2730 -1.1554
 5444SOL    HW227966   3.102   2.320  15.853  2.0823 -0.1693  1.4005
 5445SOL     OW27967   2.403   3.801   4.263 -0.3460  0.3162 -0.0096
 5445SOL    HW127968   2.485   3.783   4.310  0.0395 -1.0564 -1.2136
 5445SOL    HW227969   2.339   3.824   4.330 -0.9533  0.0258 -0.4944
 5446SOL     OW27970   4.333   3.432   3.017 -0.1343  0.4628  0.0042
 5446SOL    HW127971   4.347   3.355   3.073 -1.6185 -0.2248 -0.5826
 5446SOL    HW227972   4.284   3.490   3.075  1.3083  0.7375  0.9457
 5447SOL     OW27973   0.118   0.520   4.587  0.6153  0.6024 -0.4557
 5447SOL    HW127974   0.079   0.592   4.638  1.6748  1.5005 -0.9190
 5447SOL    HW227975   0.107   0.439   4.637  1.1216  0.6305 -0.3038
 5448SOL     OW27976   1.338   4.221   3.211 -0.2298  0.3558 -0.1373
 5448SOL    HW127977   1.291   4.295   3.171 -1.2664  0.2379  0.8543
 5448SOL    HW227978   1.326   4.150   3.147 -0.0088  0.6427 -0.4970
 5449SOL     OW27979   0.683   3.867   7.395  0.5068 -0.8106 -0.6010
 5449SOL    HW127980   0.612   3.813   7.360 -0.1519 -1.0422  1.1133
 5449SOL    HW227981   0.643   3.902   7.475  3.1403  1.9034 -0.4649
 5450SOL     OW27982   3.184   3.616  10.887 -0.3247  0.2579 -0.4716
 5450SOL    HW127983   3.161   3.665  10.966 -1.8056 -1.8850  0.4350
 5450SOL    HW227984   3.258   3.571  10.928 -0.1989  1.9948  1.2155
 5451SOL     OW27985   2.734   2.344   4.033  0.1476  0.1973  0.0273
 5451SOL    HW127986   2.654   2.359   4.083  1.2716  1.4026  1.4669
 5451SOL    HW227987   2.713   2.383   3.947  2.9277  1.2064 -0.1937
 5452SOL     OW27988   1.665   3.300  13.247 -0.2880 -0.4002 -0.2106
 5452SOL    HW127989   1.605   3.228  13.267  0.9932 -1.0527  1.3281
 5452SOL    HW227990   1.685   3.283  13.154  0.8930 -1.4248  0.2188
 5453SOL     OW27991   3.304   2.766   6.642  0.4151  0.4086 -0.2308
 5453SOL    HW127992   3.314   2.768   6.547 -1.2833  3.4231 -0.3698
 5453SOL    HW227993   3.336   2.676   6.652 -1.1868 -0.0035  1.0904
 5454SOL     OW27994   3.628   4.361  13.325  0.4744  0.0537  0.1341
 5454SOL    HW127995   3.671   4.432  13.275 -0.9863  1.9338  1.5553
 5454SOL    HW227996   3.558   4.411  13.366 -0.4843 -0.1607 -1.2458
 5455SOL     OW27997   2.699   4.549   2.517  0.2981 -0.0547 -0.1214
 5455SOL    HW127998   2.693   4.636   2.556 -1.5668 -0.6668  0.9497
 5455SOL    HW227999   2.609   4.520   2.527  0.3792 -0.2508  0.0225
 5456SOL     OW28000   1.682   4.015   6.078 -0.0345 -0.2988 -0.5382
 5456SOL    HW128001   1.626   3.943   6.105  2.3981 -1.4434  1.4682
 5456SOL    HW228002   1.649   4.080   6.139  0.0764 -1.4879  0.7973
 5457SOL     OW28003   0.241   3.657   7.383  0.0322  0.0592 -0.6328
 5457SOL    HW128004   0.274   3.576   7.345  0.1281 -0.3498  0.3307
 5457SOL    HW228005   0.158   3.677   7.340 -0.4167  1.5891  0.9291
 5458SOL     OW28006   1.543   1.532   9.223  0.1401 -0.2288  0.3140
 5458SOL    HW128007   1.604   1.480   9.171  0.4742  2.1998 -1.6948
 5458SOL    HW228008   1.573   1.613   9.181 -2.1955  1.9587  2.8571
 5459SOL     OW28009   4.374   2.810   7.263 -0.3300 -0.2717 -0.5938
 5459SOL    HW128010   4.445   2.862   7.302 -0.8262 -0.6323  0.7940
 5459SOL    HW228011   4.300   2.870   7.250 -1.0974 -1.2846 -0.8330
 5460SOL     OW28012   1.173   3.600   5.100 -0.6946  0.2328 -0.0962
 5460SOL    HW128013   1.262   3.632   5.091 -0.7532  0.2924 -0.4692
 5460SOL    HW228014   1.189   3.506   5.104  1.3372  0.5957  0.0943
 5461SOL     OW28015   2.225   1.785   4.569  0.1744  0.1245 -0.4998
 5461SOL    HW128016   2.253   1.702   4.530 -1.5677 -0.1785 -1.0962
 5461SOL    HW228017   2.306   1.809   4.614 -1.4896 -0.3179  2.7143
 5462SOL     OW28018   1.661   4.199  12.077  0.1033  0.3288 -0.4013
 5462SOL    HW128019   1.743   4.209  12.029 -0.2341  0.2258 -0.9955
 5462SOL    HW228020   1.674   4.112  12.115 -0.3342 -0.1389 -1.3277
 5463SOL     OW28021   0.038   1.252   6.650 -0.0136  0.3575  0.1697
 5463SOL    HW128022   0.076   1.276   6.735  0.0605  1.3384 -0.1327
 5463SOL    HW228023   4.686   1.261   6.687 -0.1750  2.3116 -0.6746
 5464SOL     OW28024   4.690   2.173   2.880  0.3704 -0.6817 -0.4312
 5464SOL    HW128025   4.687   2.256   2.833 -1.7727 -1.2744 -1.3705
 5464SOL    HW228026   4.705   2.213   2.966  2.2254 -2.9098  0.2774
 5465SOL     OW28027   0.057   1.702   6.916 -0.9535  0.2195 -0.6609
 5465SOL    HW128028   0.038   1.703   6.822  0.0126  1.1416 -0.8397
 5465SOL    HW228029   0.055   1.796   6.932 -1.8759 -0.0638  0.8783
 5466SOL     OW28030   4.316   3.977  16.536  0.6749  0.0795 -0.0484
 5466SOL    HW128031   4.353   4.043  16.478 -1.6670  0.7522 -0.7795
 5466SOL    HW228032   4.289   4.032  16.609  0.5191  0.5586 -0.4673
 5467SOL     OW28033   2.145   1.554   9.364  0.3752  0.4958 -0.5567
 5467SOL    HW128034   2.059   1.594   9.355 -0.3682 -1.0554 -0.3313
 5467SOL    HW228035   2.191   1.614   9.423 -2.1141 -0.0047  1.8839
 5468SOL     OW28036   4.378   3.936   0.851  0.0806 -0.1881  0.5563
 5468SOL    HW128037   4.343   3.856   0.891  0.1842  0.1803  1.3921
 5468SOL    HW228038   4.426   3.904   0.775 -0.0719  1.4307 -0.2213
 5469SOL     OW28039   4.687   0.209   1.458 -0.1031  0.3393  0.5923
 5469SOL    HW128040   0.022   0.214   1.394 -1.2017  0.4837 -0.6424
 5469SOL    HW228041   4.694   0.115   1.478  2.4906  0.7272  1.4490
 5470SOL     OW28042   1.358   1.394  15.631  0.2644  0.4705 -0.3093
 5470SOL    HW128043   1.365   1.490  15.628 -1.9606  0.6748  0.3882
 5470SOL    HW228044   1.281   1.376  15.577 -0.2763  1.0913  0.2456
 5471SOL     OW28045   1.694   1.526   3.794 -0.7356  0.4046 -0.5027
 5471SOL    HW128046   1.715   1.473   3.871  0.3587  3.5005  1.3151
 5471SOL    HW228047   1.598   1.520   3.790 -0.5799 -1.8325 -0.6383
 5472SOL     OW28048   1.235   1.342   7.735  0.2554 -0.0616  0.3905
 5472SOL    HW128049   1.219   1.414   7.797 -0.2977  1.0296 -1.0160
 5472SOL    HW228050   1.157   1.289   7.752  1.3716 -2.0013 -0.6286
 5473SOL     OW28051   1.441   0.029   5.545  0.2100 -0.0202 -0.2999
 5473SOL    HW128052   1.367   4.727   5.498 -0.2655 -0.3875  0.7548
 5473SOL    HW228053   1.509   4.722   5.493 -0.6468 -2.1579  0.3361
 5474SOL     OW28054   1.611   2.677   9.396  0.0934  0.3880  0.4397
 5474SOL    HW128055   1.534   2.620   9.392  1.1497 -1.0712  1.0326
 5474SOL    HW228056   1.594   2.708   9.307  0.6839  1.5514  0.7450
 5475SOL     OW28057   4.405   2.130   8.630 -0.5584  0.2171 -0.6311
 5475SOL    HW128058   4.413   2.217   8.592 -1.7549 -0.0675 -1.5470
 5475SOL    HW228059   4.418   2.143   8.723 -2.1345  0.0469 -0.3862
 5476SOL     OW28060   1.078   3.254   1.508  0.1628  0.1289 -0.0950
 5476SOL    HW128061   1.046   3.327   1.455 -1.0342 -0.6173 -0.4034
 5476SOL    HW228062   1.171   3.243   1.487  0.3339 -1.3961  1.4309
 5477SOL     OW28063   2.861   4.120   8.826  0.0309 -0.2730  0.2092
 5477SOL    HW128064   2.902   4.148   8.744  0.2141 -1.6533 -0.1648
 5477SOL    HW228065   2.793   4.183   8.852 -0.8193 -1.3961  0.6821
 5478SOL     OW28066   2.098   0.742   8.097  0.5369 -0.2030 -0.0845
 5478SOL    HW128067   2.053   0.708   8.019  0.1185 -0.1540  0.1354
 5478SOL    HW228068   2.029   0.721   8.159  0.8174 -0.1113  0.2629
 5479SOL     OW28069   2.850   2.557   1.550 -0.5048 -0.0992  0.7990
 5479SOL    HW128070   2.881   2.486   1.607  0.9243  1.8424  2.4368
 5479SOL    HW228071   2.884   2.526   1.466 -1.1936  1.0264  0.1181
 5480SOL     OW28072   2.407   3.145   2.541  0.1605 -0.2038 -0.4485
 5480SOL    HW128073   2.385   3.140   2.634  0.5334  1.8246 -0.2631
 5480SOL    HW228074   2.500   3.126   2.542  0.1189 -0.4264 -1.2888
 5481SOL     OW28075   0.507   3.946   5.334 -0.2042 -0.0405 -0.5155
 5481SOL    HW128076   0.437   3.884   5.316  1.0587 -2.0722  1.5769
 5481SOL    HW228077   0.459   4.028   5.321  1.3456  0.7362 -1.3961
 5482SOL     OW28078   1.777   3.065  13.023  0.0552  0.4457  0.5130
 5482SOL    HW128079   1.807   3.003  13.090  0.1893  0.9617  0.9346
 5482SOL    HW228080   1.753   3.013  12.946  0.1681 -0.2357  0.9376
 5483SOL     OW28081   0.206   3.883   3.698 -0.0003 -0.0730  0.9591
 5483SOL    HW128082   0.195   3.790   3.678 -0.2097  0.1552  0.0099
 5483SOL    HW228083   0.287   3.912   3.656 -0.9998  2.6037  0.8290
 5484SOL     OW28084   2.344   1.369   2.224  0.3757 -0.5282  0.2047
 5484SOL    HW128085   2.360   1.340   2.314 -0.8420  0.6640  0.7921
 5484SOL    HW228086   2.371   1.295   2.169 -1.0013 -0.5175 -0.4888
 5485SOL     OW28087   3.013   4.038   6.263 -0.1043 -0.5004 -0.1123
 5485SOL    HW128088   3.063   4.024   6.343 -0.0956 -2.1893 -0.3958
 5485SOL    HW228089   3.076   4.046   6.192 -1.4817 -0.0355 -1.2923
 5486SOL     OW28090   2.236   1.957   6.030  0.4471 -0.0226 -0.1335
 5486SOL    HW128091   2.233   2.051   6.012 -2.3792 -0.0028  0.4666
 5486SOL    HW228092   2.277   1.954   6.116  0.1947 -1.0948 -0.0513
 5487SOL     OW28093   4.117   0.300   6.468 -0.4249  0.4069 -0.3542
 5487SOL    HW128094   4.088   0.285   6.378 -1.6342 -0.5471  0.1981
 5487SOL    HW228095   4.036   0.275   6.512  0.0615 -0.7809 -0.1277
 5488SOL     OW28096   2.108   3.371   6.865 -0.1262  0.2095 -0.2842
 5488SOL    HW128097   2.119   3.278   6.848  2.6013  0.7237 -1.2689
 5488SOL    HW228098   2.042   3.394   6.800 -0.7307 -0.5868  0.0343
 5489SOL     OW28099   3.432   2.992   1.840 -0.0106 -0.0140 -0.3008
 5489SOL    HW128100   3.339   2.971   1.826 -0.1350 -0.9417  2.0039
 5489SOL    HW228101   3.469   2.940   1.910 -0.1314  1.0665  0.5639
 5490SOL     OW28102   4.072   1.223  12.652  0.2238  0.2820  0.0416
 5490SOL    HW128103   4.012   1.294  12.630 -0.4690 -0.6732 -1.1461
 5490SOL    HW228104   4.063   1.164  12.577  0.2455  2.2315 -1.4820
 5491SOL     OW28105   0.894   0.276  10.143  0.4159  0.1581  0.0331
 5491SOL    HW128106   0.803   0.286  10.116 -0.4887 -2.4499  2.1807
 5491SOL    HW228107   0.935   0.214  10.083 -0.1159 -1.3654  1.2362
 5492SOL     OW28108   2.711   0.484  14.307  0.5882  0.0633 -0.3955
 5492SOL    HW128109   2.737   0.570  14.275 -0.0284  1.1844  2.2006
 5492SOL    HW228110   2.618   0.492  14.327  0.4700  0.5235 -1.1152
 5493SOL     OW28111   1.051   2.228   4.579  0.4052  0.4422 -0.7475
 5493SOL    HW128112   1.060   2.276   4.661 -0.8163 -3.8762  1.9086
 5493SOL    HW228113   1.118   2.163   4.602 -1.7438 -1.4787  0.0655
 5494SOL     OW28114   4.167   4.096  15.331 -0.2520  0.2842  0.1368
 5494SOL    HW128115   4.086   4.051  15.306 -0.9024  1.6011 -0.0801
 5494SOL    HW228116   4.183   4.074  15.423  1.5697 -0.5576 -0.3673
 5495SOL     OW28117   4.604   4.513   4.503  0.3713 -0.3123 -0.0558
 5495SOL    HW128118   4.626   4.423   4.478  1.6370 -0.5731  1.9994
 5495SOL    HW228119   4.509   4.516   4.494  0.5790  1.5038 -1.6194
 5496SOL     OW28120   4.667   3.978   3.652  0.2170  0.1597 -0.3067
 5496SOL    HW128121   4.722   3.938   3.584  0.2168  0.5497 -0.5370
 5496SOL    HW228122   4.635   3.899   3.694 -1.0957  0.1544 -1.3409
 5497SOL     OW28123   3.073   0.748   8.946  0.3669  0.2925 -0.5755
 5497SOL    HW128124   3.065   0.830   8.897  0.3190 -0.2096 -1.4210
 5497SOL    HW228125   3.101   0.778   9.032  0.9577  1.5238 -1.1999
 5498SOL     OW28126   2.470   2.715   6.079  0.5372  0.5721  0.5522
 5498SOL    HW128127   2.406   2.649   6.053  0.0074  1.8444 -1.4145
 5498SOL    HW228128   2.522   2.670   6.145  2.1962 -1.0113 -1.8394
 5499SOL     OW28129   0.746   0.624   2.410  0.4406  0.1982 -0.6242
 5499SOL    HW128130   0.673   0.671   2.369  0.4986  0.7873 -0.0413
 5499SOL    HW228131   0.813   0.690   2.429  0.4802  0.0185 -0.1441
 5500SOL     OW28132   4.574   2.383   5.688 -0.1189  0.0318  0.0645
 5500SOL    HW128133   4.629   2.398   5.764 -0.1516  1.0000 -0.1059
 5500SOL    HW228134   4.634   2.335   5.631 -0.8725 -0.5768 -0.2255
 5501SOL     OW28135   0.941   1.953  17.363 -0.4233  0.5333  0.1671
 5501SOL    HW128136   0.971   1.972  17.274  1.7655 -3.4555  0.0425
 5501SOL    HW228137   1.021   1.958  17.414 -0.0024  1.6569 -0.6052
 5502SOL     OW28138   4.557   3.332   5.298 -0.0875 -0.2657  0.3314
 5502SOL    HW128139   4.650   3.310   5.296 -0.4040 -1.4328 -1.6048
 5502SOL    HW228140   4.552   3.376   5.383  0.5195 -0.5901  0.5307
 5503SOL     OW28141   1.696   0.603   4.689  0.0731  0.0222  0.7109
 5503SOL    HW128142   1.677   0.693   4.717  1.1404  0.7545 -0.9250
 5503SOL    HW228143   1.688   0.632   4.598 -0.5688 -2.0801  0.1053
 5504SOL     OW28144   4.299   1.589  13.061  0.2321 -0.4091  0.7063
 5504SOL    HW128145   4.247   1.669  13.069  1.0658  0.1618  0.4918
 5504SOL    HW228146   4.382   1.622  13.095 -0.3858 -0.4177  2.2091
 5505SOL     OW28147   1.416   4.177  12.238  0.1687 -0.0682  0.1061
 5505SOL    HW128148   1.421   4.230  12.317 -1.2289  0.1528  0.0472
 5505SOL    HW228149   1.496   4.198  12.191 -0.3544 -0.4237 -0.9377
 5506SOL     OW28150   4.583   0.765   9.257 -0.1089 -0.0917  0.4980
 5506SOL    HW128151   4.516   0.833   9.267  0.1828  0.6652 -2.6877
 5506SOL    HW228152   4.527   0.688   9.252  1.6623 -1.4156  1.0408
 5507SOL     OW28153   3.714   1.217  16.876 -0.6299 -0.2739 -0.3148
 5507SOL    HW128154   3.691   1.303  16.841 -0.2385 -0.1921 -0.3766
 5507SOL    HW228155   3.797   1.193  16.833  0.1980  0.6184  0.7834
 5508SOL     OW28156   0.101   3.190   1.432 -0.0209 -0.1621  0.6297
 5508SOL    HW128157   0.184   3.232   1.412 -0.0694 -1.0595 -1.5382
 5508SOL    HW228158   0.106   3.105   1.387  0.6661 -0.6274  1.5937
 5509SOL     OW28159   2.047   3.039   0.964  0.9307 -0.9772  0.3272
 5509SOL    HW128160   1.952   3.028   0.965  0.7918  0.2084  1.2227
 5509SOL    HW228161   2.072   2.964   0.911  1.4985 -1.1736  0.8779
 5510SOL     OW28162   3.515   3.904   5.462  0.3095  0.4624 -0.6392
 5510SOL    HW128163   3.601   3.919   5.422  0.7937 -0.5665 -0.0196
 5510SOL    HW228164   3.502   3.814   5.432 -0.3034 -0.5970  2.7712
 5511SOL     OW28165   1.684   1.025  11.432 -0.8531 -0.2495 -0.5608
 5511SOL    HW128166   1.763   0.975  11.410  0.6955  2.5336 -1.3499
 5511SOL    HW228167   1.676   1.012  11.526 -0.5915 -2.5641 -0.8600
 5512SOL     OW28168   0.680   4.394  16.934 -0.1396  0.2334 -0.1354
 5512SOL    HW128169   0.623   4.317  16.944  1.2526 -0.9469 -1.1538
 5512SOL    HW228170   0.659   4.438  17.016  0.6597  1.7265 -0.7290
 5513SOL     OW28171   2.336   1.892   6.270  0.0848 -0.0138 -0.6556
 5513SOL    HW128172   2.365   1.920   6.357  2.7940 -0.6378 -1.3365
 5513SOL    HW228173   2.249   1.862   6.294  0.1702 -0.6690 -1.1711
 5514SOL     OW28174   3.660   0.087   2.669  0.2218 -0.4609 -0.1198
 5514SOL    HW128175   3.637   0.002   2.705 -1.1962  1.4357  3.4922
 5514SOL    HW228176   3.720   0.125   2.734 -0.4624 -0.0981  0.3026
 5515SOL     OW28177   0.088   3.329   7.990  0.3874  0.1910 -0.2142
 5515SOL    HW128178   0.145   3.286   8.053  1.3933 -0.4195 -1.5445
 5515SOL    HW228179   0.142   3.349   7.913  0.0385 -2.3609 -1.1144
 5516SOL     OW28180   1.021   2.139  16.918 -0.6633  0.9809  0.3075
 5516SOL    HW128181   1.045   2.228  16.945  0.8741  0.8664 -0.6867
 5516SOL    HW228182   1.028   2.149  16.824 -2.1961  0.1104  0.0953
 5517SOL     OW28183   3.909   4.064   6.336  0.4970  0.0534 -0.6591
 5517SOL    HW128184   3.984   4.006   6.345  0.1221 -0.2461  0.4719
 5517SOL    HW228185   3.867   4.047   6.251 -2.8464  0.7489  0.8519
 5518SOL     OW28186   4.171   2.715   3.864 -0.0699  0.0145 -0.2504
 5518SOL    HW128187   4.098   2.728   3.803 -0.8689  0.9459  0.9130
 5518SOL    HW228188   4.127   2.673   3.937 -0.6078 -0.9587 -1.1327
 5519SOL     OW28189   3.536   2.874   5.353 -0.0695  0.3174 -0.0163
 5519SOL    HW128190   3.613   2.840   5.308  0.2064  1.3440 -0.3309
 5519SOL    HW228191   3.468   2.814   5.322 -0.6621  0.4827  0.9665
 5520SOL     OW28192   1.388   0.053  12.936  0.2971  0.1549  0.7834
 5520SOL    HW128193   1.467   0.018  12.978  0.3259  0.9106  1.3511
 5520SOL    HW228194   1.328   4.715  12.941  0.1833  0.1837 -0.1740
 5521SOL     OW28195   3.926   1.103   2.603 -0.5224 -0.1425  0.5630
 5521SOL    HW128196   3.878   1.179   2.571  1.2968  1.0308  0.6381
 5521SOL    HW228197   3.861   1.042   2.637  1.0209 -0.9358  2.1315
 5522SOL     OW28198   1.258   0.759   8.200  0.4526  0.1841 -0.1921
 5522SOL    HW128199   1.326   0.765   8.133  0.1694 -0.3404 -0.5306
 5522SOL    HW228200   1.211   0.682   8.167  2.0526 -0.9222  0.1452
 5523SOL     OW28201   0.361   0.546  11.125 -0.4026 -0.2697  0.4348
 5523SOL    HW128202   0.424   0.482  11.158 -0.6970 -1.2811 -0.9455
 5523SOL    HW228203   0.409   0.628  11.121  0.4772 -0.7291  1.6069
 5524SOL     OW28204   3.777   1.906   8.630 -0.3987 -0.0986  0.3101
 5524SOL    HW128205   3.855   1.906   8.685  0.6947  2.0682 -1.2479
 5524SOL    HW228206   3.727   1.961   8.691 -0.7459 -0.3342  0.2421
 5525SOL     OW28207   2.762   0.982   8.434  0.2880 -0.4070  0.5398
 5525SOL    HW128208   2.747   0.891   8.406  0.0922 -0.0373 -0.5447
 5525SOL    HW228209   2.828   1.006   8.369 -1.7596 -0.5879 -1.6282
 5526SOL     OW28210   4.063   1.071   5.864 -0.6675 -0.6012  0.2936
 5526SOL    HW128211   3.967   1.066   5.863 -0.7437  1.0426 -2.0746
 5526SOL    HW228212   4.076   1.137   5.932  0.5002 -2.0213  1.4392
 5527SOL     OW28213   2.171   3.621   3.623  0.1606  0.4698  0.1156
 5527SOL    HW128214   2.165   3.533   3.659 -1.4345  0.2405 -0.7067
 5527SOL    HW228215   2.251   3.649   3.668  0.8651  0.6464 -1.2437
 5528SOL     OW28216   1.394   1.083   8.201 -0.0525  0.2165 -0.0013
 5528SOL    HW128217   1.439   1.137   8.136  2.0339 -1.0480  0.4142
 5528SOL    HW228218   1.310   1.078   8.155 -0.1908 -0.2516  0.3063
 5529SOL     OW28219   4.005   3.509   5.480  0.4390 -0.9614 -0.4466
 5529SOL    HW128220   4.033   3.418   5.467  0.4007 -1.2216  1.2769
 5529SOL    HW228221   4.089   3.553   5.465  0.1226 -0.1967  0.0407
 5530SOL     OW28222   0.900   1.859   2.799 -0.6466 -0.2938 -0.6896
 5530SOL    HW128223   0.898   1.854   2.704  0.9265  2.7294 -0.9093
 5530SOL    HW228224   0.893   1.767   2.824  0.1946 -0.2220 -0.1780
 5531SOL     OW28225   4.543   4.027  11.312  0.0537 -0.0466  0.0553
 5531SOL    HW128226   4.514   4.022  11.221 -0.4689  0.6286  0.1866
 5531SOL    HW228227   4.499   3.951  11.350  3.3921 -2.2146 -0.3564
 5532SOL     OW28228   2.422   3.691   2.145  0.0068 -0.5618 -0.0823
 5532SOL    HW128229   2.378   3.677   2.228 -1.3438 -1.6178 -0.9739
 5532SOL    HW228230   2.503   3.732   2.174  0.2118 -2.0133  1.4393
 5533SOL     OW28231   0.892   3.457   7.184  0.2112 -0.4454 -0.2054
 5533SOL    HW128232   0.953   3.387   7.207 -0.2153 -0.1025  1.9241
 5533SOL    HW228233   0.833   3.464   7.258  1.0894  1.4243  0.3221
 5534SOL     OW28234   2.488   1.332  14.432  0.2485 -0.3680  0.0725
 5534SOL    HW128235   2.581   1.349  14.416  0.4512  0.1053  1.7164
 5534SOL    HW228236   2.463   1.382  14.510  2.2837  2.1862 -0.9127
 5535SOL     OW28237   0.435   0.185   0.072 -0.2281  0.2745 -0.1156
 5535SOL    HW128238   0.347   0.217   0.056  0.2271 -0.1975 -3.4383
 5535SOL    HW228239   0.439   0.213   0.164 -1.4200  1.7653 -0.5207
 5536SOL     OW28240   4.310   3.649   0.976 -0.2445  0.0525 -0.0966
 5536SOL    HW128241   4.340   3.683   1.060  0.9321 -0.7315 -0.1927
 5536SOL    HW228242   4.223   3.617   1.000  0.5287 -1.2489  0.9873
 5537SOL     OW28243   3.427   0.407   5.687 -0.1992 -0.1095 -0.0467
 5537SOL    HW128244   3.488   0.476   5.715 -1.0269 -0.2088  2.0076
 5537SOL    HW228245   3.383   0.379   5.767 -0.0567 -1.0762 -0.3160
 5538SOL     OW28246   1.176   1.896  16.591 -0.1822 -0.3160 -0.3527
 5538SOL    HW128247   1.201   1.937  16.673  0.3541 -0.7088 -0.3241
 5538SOL    HW228248   1.105   1.953  16.559  1.0460  0.3578 -1.8884
 5539SOL     OW28249   2.034   2.261   6.171 -0.0996 -0.1815 -0.3379
 5539SOL    HW128250   2.017   2.206   6.095  1.0442 -0.6708 -0.2343
 5539SOL    HW228251   1.950   2.305   6.185  1.1690  2.1323 -0.1069
 5540SOL     OW28252   3.582   1.124   4.597 -0.2162 -0.1873 -0.1452
 5540SOL    HW128253   3.626   1.043   4.570 -0.5944 -0.9141  1.4019
 5540SOL    HW228254   3.548   1.091   4.680  3.3221  0.2603  1.5005
 5541SOL     OW28255   1.780   3.683  15.487 -0.5381 -0.7876  0.1413
 5541SOL    HW128256   1.717   3.724  15.427  1.0249 -0.0837 -1.0478
 5541SOL    HW228257   1.756   3.594  15.464 -1.4270 -0.8985  1.4881
 5542SOL     OW28258   0.582   1.750  16.094  0.3468 -0.1497 -0.0424
 5542SOL    HW128259   0.517   1.681  16.101 -0.3473  0.6398  1.4344
 5542SOL    HW228260   0.527   1.810  16.044 -1.5465 -0.1733  2.0037
 5543SOL     OW28261   3.666   0.765  13.944 -0.3434 -0.6459  0.2326
 5543SOL    HW128262   3.587   0.794  13.991 -0.9224  1.6151 -2.1348
 5543SOL    HW228263   3.660   0.805  13.857 -1.6834  0.7154  0.9497
 5544SOL     OW28264   4.217   0.284   9.121 -0.2430  0.4848 -0.3417
 5544SOL    HW128265   4.286   0.262   9.183 -2.4567 -1.1191  1.5907
 5544SOL    HW228266   4.201   0.200   9.077  3.0378 -0.5115  0.3612
 5545SOL     OW28267   0.854   3.079  12.191  0.4281  0.2877 -0.6558
 5545SOL    HW128268   0.932   3.125  12.160 -0.4242  0.6398 -2.2525
 5545SOL    HW228269   0.792   3.125  12.134 -0.5556 -2.0218 -1.4240
 5546SOL     OW28270   0.991   3.675   4.188 -0.1187 -0.1311  0.2337
 5546SOL    HW128271   0.933   3.722   4.248 -2.5895 -1.0614 -1.4311
 5546SOL    HW228272   1.002   3.730   4.111  0.9791  0.3804  0.7642
 5547SOL     OW28273   3.691   0.493   8.180 -0.6772 -0.0495 -0.0930
 5547SOL    HW128274   3.695   0.494   8.085 -1.1721  1.8324 -0.1068
 5547SOL    HW228275   3.696   0.401   8.206 -0.1703  0.2994  1.0737
 5548SOL     OW28276   3.294   0.650   0.470  0.2074 -0.2469  0.6306
 5548SOL    HW128277   3.275   0.680   0.381  1.1713 -2.5514 -0.3671
 5548SOL    HW228278   3.229   0.580   0.480 -0.7512  0.3160 -1.5837
 5549SOL     OW28279   1.255   0.345   8.022  0.3091 -0.2349 -0.4122
 5549SOL    HW128280   1.343   0.383   8.023 -0.2793  1.1040  1.8903
 5549SOL    HW228281   1.228   0.378   8.108  1.9503 -0.4208  0.1842
 5550SOL     OW28282   4.526   0.998   8.724  0.1294  0.4355 -0.1594
 5550SOL    HW128283   4.604   1.048   8.747  0.8622 -0.9690  0.3931
 5550SOL    HW228284   4.573   0.916   8.711  1.4309  1.2198 -0.4177
 5551SOL     OW28285   2.713   2.650   1.921 -0.1994  0.3665  0.6835
 5551SOL    HW128286   2.790   2.653   1.977 -0.0249 -0.2742  0.4763
 5551SOL    HW228287   2.669   2.577   1.966  0.8768 -0.8149 -0.1802
 5552SOL     OW28288   1.557   2.474   3.227 -0.3863 -0.2430  0.3617
 5552SOL    HW128289   1.586   2.564   3.211  2.5268 -1.3130 -0.3819
 5552SOL    HW228290   1.630   2.433   3.273 -0.6287  1.7528  2.5724
 5553SOL     OW28291   4.722   2.838  15.188 -0.5512  0.5536 -0.0814
 5553SOL    HW128292   4.695   2.765  15.132  3.7343  1.3972 -3.1857
 5553SOL    HW228293   0.075   2.804  15.197 -0.2294  0.7265 -2.6124
 5554SOL     OW28294   4.129   3.820   5.032  0.7494 -0.2309 -0.3149
 5554SOL    HW128295   4.041   3.786   5.016  1.3963 -0.2163 -3.9464
 5554SOL    HW228296   4.172   3.735   5.023  0.8510  0.1156 -3.0567
 5555SOL     OW28297   3.212   2.655   7.176  0.4847 -0.2835 -0.0843
 5555SOL    HW128298   3.138   2.645   7.117  1.6531 -0.3536 -1.5152
 5555SOL    HW228299   3.279   2.677   7.112 -0.2533 -0.5530 -0.9481
 5556SOL     OW28300   4.307   2.940   9.053 -0.2547 -0.3161 -0.3466
 5556SOL    HW128301   4.380   3.000   9.039 -1.7223  1.9348  1.7496
 5556SOL    HW228302   4.319   2.930   9.147 -0.5797 -1.2941 -0.4071
 5557SOL     OW28303   2.441   4.183   5.785  0.3252  0.2636  0.8174
 5557SOL    HW128304   2.459   4.249   5.718  1.1853  0.7524  1.5296
 5557SOL    HW228305   2.367   4.219   5.833 -0.0629  1.3173 -0.5802
 5558SOL     OW28306   0.938   2.190   4.287  0.0386  0.2684 -0.0452
 5558SOL    HW128307   1.009   2.223   4.343 -0.4450 -0.4839  1.0248
 5558SOL    HW228308   0.877   2.168   4.357 -0.0631  0.6407 -0.0210
 5559SOL     OW28309   3.080   1.629   3.243 -0.0094 -0.5751  0.0221
 5559SOL    HW128310   3.118   1.708   3.281 -1.3145  0.8971 -1.7213
 5559SOL    HW228311   2.986   1.646   3.249  0.2495 -0.1486  2.7580
 5560SOL     OW28312   0.574   3.141   3.251 -0.1939 -0.2014  0.2955
 5560SOL    HW128313   0.652   3.189   3.276 -0.4242 -0.3872  1.3709
 5560SOL    HW228314   0.529   3.199   3.189  0.5911 -0.0532 -0.1317
 5561SOL     OW28315   0.503   1.748   4.390 -0.6312 -0.0375 -0.4975
 5561SOL    HW128316   0.449   1.726   4.314 -2.5071  1.6080  0.3713
 5561SOL    HW228317   0.545   1.825   4.353  0.8891  0.2404  1.8241
 5562SOL     OW28318   0.132   3.183  16.639  0.0150 -0.6195  0.1503
 5562SOL    HW128319   0.174   3.189  16.553 -2.3536  0.4050 -0.9180
 5562SOL    HW228320   0.105   3.273  16.658 -0.9314 -0.7508 -0.5701
 5563SOL     OW28321   1.527   1.934  12.145 -0.3860  0.0732  0.3028
 5563SOL    HW128322   1.610   1.934  12.098 -0.4009 -1.5538  0.2852
 5563SOL    HW228323   1.532   2.012  12.201  0.3160 -0.8713  1.5597
 5564SOL     OW28324   0.345   0.563   5.600  0.6197  0.5551  0.4220
 5564SOL    HW128325   0.276   0.615   5.641  0.4768  1.0500 -0.4424
 5564SOL    HW228326   0.425   0.610   5.623  0.0844  1.2163  0.9229
 5565SOL     OW28327   1.029   3.425   0.658 -0.6071  0.0241 -0.0680
 5565SOL    HW128328   1.124   3.413   0.657 -0.8065 -1.5321  0.0923
 5565SOL    HW228329   1.014   3.519   0.668  1.1609  0.2400  0.4678
 5566SOL     OW28330   1.962   0.530   7.591  0.2097 -0.1692  0.8570
 5566SOL    HW128331   1.961   0.621   7.619 -1.7319  0.3719 -1.0302
 5566SOL    HW228332   2.053   0.507   7.611  0.4638  0.4458  0.3882
 5567SOL     OW28333   4.309   1.967  12.814  0.0145  0.7541  0.1766
 5567SOL    HW128334   4.271   1.980  12.727  1.0480  0.1496 -0.3594
 5567SOL    HW228335   4.349   1.881  12.804 -1.1895  0.3245 -0.9715
 5568SOL     OW28336   1.442   1.163   9.363 -0.5400  0.0852 -0.4947
 5568SOL    HW128337   1.435   1.227   9.434  1.2644 -1.2671  0.8930
 5568SOL    HW228338   1.390   1.212   9.299  0.6621 -1.0536 -2.3327
 5569SOL     OW28339   3.118   2.173   1.116 -0.6849 -0.0818  0.6558
 5569SOL    HW128340   3.029   2.201   1.095  0.5680  3.4848  0.1890
 5569SOL    HW228341   3.160   2.258   1.125  1.0866 -0.8163 -0.6534
 5570SOL     OW28342   1.028   4.119   2.967  0.4603 -0.0003 -0.1821
 5570SOL    HW128343   1.045   4.211   2.943 -0.6809  0.3907  0.5204
 5570SOL    HW228344   1.073   4.068   2.900  2.1301 -0.1235  1.0490
 5571SOL     OW28345   1.488   2.823  12.890  0.0102 -0.2806 -0.2935
 5571SOL    HW128346   1.451   2.814  12.802  0.6350 -0.2314 -0.5588
 5571SOL    HW228347   1.439   2.892  12.935  1.1508 -0.6892  1.5648
 5572SOL     OW28348   3.687   3.983   1.605  0.0289  0.8281  0.1924
 5572SOL    HW128349   3.684   3.901   1.556  5.1058  0.1011  1.1431
 5572SOL    HW228350   3.629   4.034   1.548  0.7495  0.7376 -0.6178
 5573SOL     OW28351   0.925   2.533  11.586 -0.7656 -0.1312 -0.6370
 5573SOL    HW128352   0.969   2.618  11.594  1.5055 -1.2284 -1.3284
 5573SOL    HW228353   0.974   2.478  11.647  0.8652 -0.8023 -2.5434
 5574SOL     OW28354   1.678   2.107   9.157  0.3872 -0.0270  0.6248
 5574SOL    HW128355   1.772   2.111   9.140 -0.1188  0.9834 -1.8685
 5574SOL    HW228356   1.639   2.140   9.076  1.8172 -1.9956 -0.8598
 5575SOL     OW28357   0.296   4.605   5.207  0.1596  0.0841 -0.2041
 5575SOL    HW128358   0.339   4.678   5.162 -0.9604  2.3740  2.4428
 5575SOL    HW228359   0.215   4.599   5.156  0.4916  1.2315 -0.8556
 5576SOL     OW28360   1.001   4.059  13.921  0.7314 -0.2208  0.4017
 5576SOL    HW128361   0.978   3.970  13.897  2.2667 -0.8628  1.2905
 5576SOL    HW228362   0.916   4.103  13.919  1.2569  0.7298 -1.4059
 5577SOL     OW28363   3.824   0.772  17.191 -0.3576  0.8274 -0.2103
 5577SOL    HW128364   3.802   0.850  17.242  2.7558  1.0548  0.8420
 5577SOL    HW228365   3.761   0.704  17.213  0.9256 -0.6503 -1.0453
 5578SOL     OW28366   2.294   1.848   9.397 -0.3982  0.1655 -1.4197
 5578SOL    HW128367   2.349   1.908   9.347 -0.3219 -0.0513 -1.6012
 5578SOL    HW228368   2.207   1.886   9.407 -1.5084 -2.1274 -2.2628
 5579SOL     OW28369   0.340   2.366   5.758 -0.2554 -0.3317 -0.0179
 5579SOL    HW128370   0.411   2.321   5.802  0.6944  1.4517  0.2577
 5579SOL    HW228371   0.342   2.319   5.675 -0.3098  1.1899 -0.8889
 5580SOL     OW28372   2.467   1.201   4.836  0.4480 -0.6936  0.9110
 5580SOL    HW128373   2.402   1.151   4.886 -0.7440  0.5470  0.5832
 5580SOL    HW228374   2.457   1.167   4.747  2.1894 -1.9602  1.1887
 5581SOL     OW28375   2.282   3.389   1.707 -0.1777  0.2046  0.0928
 5581SOL    HW128376   2.221   3.326   1.668 -0.4212 -0.2597  1.2142
 5581SOL    HW228377   2.221   3.460   1.728  0.9866  1.3288 -0.3457
 5582SOL     OW28378   2.934   4.415  13.197  0.4535 -0.0772  0.0838
 5582SOL    HW128379   2.995   4.487  13.183 -0.2858  0.3240 -1.1207
 5582SOL    HW228380   2.995   4.347  13.225 -0.5026 -1.1702 -0.4941
 5583SOL     OW28381   0.377   2.184  14.262  0.0581  0.2801  0.2699
 5583SOL    HW128382   0.464   2.152  14.237 -0.9879 -1.4875 -1.0807
 5583SOL    HW228383   0.322   2.187  14.184  0.8498 -0.1876 -0.3110
 5584SOL     OW28384   4.573   3.676   7.437  0.6392 -0.0761 -0.0666
 5584SOL    HW128385   4.631   3.705   7.367 -1.3099  0.6119 -1.4057
 5584SOL    HW228386   4.490   3.718   7.413  0.4855  0.8163  2.0020
 5585SOL     OW28387   1.190   3.844  11.564  0.6940  0.1506  0.1708
 5585SOL    HW128388   1.185   3.764  11.513 -2.0213 -0.1330  0.8545
 5585SOL    HW228389   1.151   3.821  11.649  2.3507  0.9057  1.1452
 5586SOL     OW28390   2.863   2.122   8.496  0.2417 -0.5818  0.0995
 5586SOL    HW128391   2.905   2.207   8.483  1.3976 -0.8817  1.9931
 5586SOL    HW228392   2.929   2.079   8.550  0.0599 -0.5502  0.3418
 5587SOL     OW28393   0.228   2.358   2.126  0.0659 -0.1723  0.1403
 5587SOL    HW128394   0.313   2.398   2.141 -0.3697  0.1026  1.8504
 5587SOL    HW228395   0.246   2.277   2.175  0.6112 -0.1530 -0.0306
 5588SOL     OW28396   2.515   4.727  15.623 -0.6374 -0.5170 -0.6046
 5588SOL    HW128397   2.451   0.053  15.589  0.2537  0.5610 -0.3178
 5588SOL    HW228398   2.595   0.038  15.599  0.9435 -2.0067  1.6276
 5589SOL     OW28399   2.925   4.519   3.112  0.5717  0.1403  0.3552
 5589SOL    HW128400   2.860   4.507   3.043  0.2332  0.5629  0.6025
 5589SOL    HW228401   3.001   4.465   3.094  0.9523  1.3861 -1.7562
 5590SOL     OW28402   4.003   0.951   5.482 -0.4996  0.1850 -0.2504
 5590SOL    HW128403   4.072   1.005   5.522  0.2808 -1.6655  0.9091
 5590SOL    HW228404   4.050   0.875   5.447 -2.8170 -1.4186  0.1489
 5591SOL     OW28405   1.783   1.213   8.115 -0.8693 -0.0623  0.5104
 5591SOL    HW128406   1.693   1.233   8.088 -1.2265  0.8458  2.3686
 5591SOL    HW228407   1.784   1.241   8.206  0.1502  3.4988 -0.5956
 5592SOL     OW28408   0.546   4.378   9.437 -0.2547  0.3505 -0.9733
 5592SOL    HW128409   0.573   4.438   9.507  0.4748 -0.3476 -0.6537
 5592SOL    HW228410   0.627   4.336   9.406  0.4074  0.1318  1.0160
 5593SOL     OW28411   2.436   3.033   7.210  0.5448 -0.0756  0.0266
 5593SOL    HW128412   2.469   3.035   7.300  0.0519  0.4272  0.1945
 5593SOL    HW228413   2.366   2.967   7.215 -0.2081  0.7483  0.4924
 5594SOL     OW28414   0.204   2.452   1.466 -0.1410  0.3179  0.3283
 5594SOL    HW128415   0.126   2.424   1.513 -1.1063  1.9827 -0.2626
 5594SOL    HW228416   0.273   2.403   1.510 -0.5043 -2.3017 -2.0107
 5595SOL     OW28417   2.071   0.675   5.486  0.6301 -1.0284 -0.6636
 5595SOL    HW128418   2.086   0.679   5.580 -1.4002  0.9862 -0.4145
 5595SOL    HW228419   2.015   0.751   5.470  1.6234 -0.0121  0.7282
 5596SOL     OW28420   2.171   3.185  15.179  0.5430  0.1451 -0.0721
 5596SOL    HW128421   2.141   3.248  15.113  0.7642  0.7348  0.3820
 5596SOL    HW228422   2.090   3.177  15.228 -0.5261  0.3764 -1.7838
 5597SOL     OW28423   2.695   3.982  15.523  0.5122 -0.1154 -0.2844
 5597SOL    HW128424   2.779   3.976  15.569 -0.0297  0.6461  0.8151
 5597SOL    HW228425   2.675   3.889  15.516 -0.7348  0.1633 -0.3965
 5598SOL     OW28426   1.675   2.261  10.866  0.3639 -0.9820 -0.4954
 5598SOL    HW128427   1.743   2.320  10.897  2.3500 -2.0178 -2.8539
 5598SOL    HW228428   1.608   2.264  10.934 -1.0966 -1.8236 -1.8947
 5599SOL     OW28429   0.606   2.173   1.648  0.3468  0.4122 -0.0581
 5599SOL    HW128430   0.624   2.114   1.721  2.6876 -0.3895 -1.2624
 5599SOL    HW228431   0.694   2.196   1.616 -0.1363  1.6366 -0.4965
 5600SOL     OW28432   3.934   3.063   7.322 -0.1137  0.7754  0.1179
 5600SOL    HW128433   3.857   3.068   7.378 -0.9128 -0.7067 -0.8388
 5600SOL    HW228434   3.910   3.041   7.232  1.3830 -2.0104  0.4006
 5601SOL     OW28435   3.143   0.806  13.667 -1.0757 -0.1948 -0.0281
 5601SOL    HW128436   3.154   0.752  13.588 -1.4855  0.8092 -0.7643
 5601SOL    HW228437   3.099   0.879  13.624  0.6863  1.1967  0.5302
 5602SOL     OW28438   2.711   0.684   9.566 -0.3103  0.0899  0.2471
 5602SOL    HW128439   2.688   0.591   9.574  0.0251  0.2435  2.9285
 5602SOL    HW228440   2.793   0.668   9.520 -1.7109 -2.4678 -1.3878
 5603SOL     OW28441   1.402   3.233   6.925 -0.2095 -0.0399 -0.0987
 5603SOL    HW128442   1.427   3.163   6.985 -0.3361  0.6436  0.7595
 5603SOL    HW228443   1.411   3.183   6.844  0.6044  1.1203 -0.7150
 5604SOL     OW28444   4.385   4.533  10.209  0.1581 -0.1529  0.0628
 5604SOL    HW128445   4.327   4.459  10.188  0.7775  0.1528 -2.7578
 5604SOL    HW228446   4.333   4.580  10.273  0.0919 -1.1740  0.7688
 5605SOL     OW28447   2.171   0.978   8.201 -0.5173  0.2217  0.0198
 5605SOL    HW128448   2.267   0.981   8.197 -0.5151  0.0292 -0.0449
 5605SOL    HW228449   2.140   0.905   8.149  2.0255 -1.0490  0.2955
 5606SOL     OW28450   4.362   0.632   7.610 -0.2469  0.4442  0.3702
 5606SOL    HW128451   4.309   0.664   7.537 -2.0510  2.1298  2.4043
 5606SOL    HW228452   4.439   0.689   7.603 -0.4531  0.6409 -0.2486
 5607SOL     OW28453   0.018   3.005  17.709  0.1410  0.5608 -0.1612
 5607SOL    HW128454   4.700   2.960  17.644  0.1647 -1.2993  1.1040
 5607SOL    HW228455   0.104   2.967  17.693 -0.8427 -0.9070 -1.8399
 5608SOL     OW28456   3.653   4.317   5.276  0.2856  0.4386  0.3873
 5608SOL    HW128457   3.625   4.391   5.329  3.0309  0.1599  2.2276
 5608SOL    HW228458   3.606   4.244   5.318 -0.6164 -0.7650 -2.7391
 5609SOL     OW28459   1.232   4.713   8.012  0.0662 -0.3936  0.1802
 5609SOL    HW128460   1.226   0.007   8.103 -2.5759 -1.6812  0.4381
 5609SOL    HW228461   1.277   4.629   8.019  0.8644 -0.1811 -2.4507
 5610SOL     OW28462   0.984   4.416   4.979  0.3731  0.5383  0.2659
 5610SOL    HW128463   1.006   4.452   4.893 -1.5823 -0.8948 -0.8316
 5610SOL    HW228464   0.897   4.377   4.970  0.3119  0.8098 -0.2941
 5611SOL     OW28465   1.886   2.191   1.324  0.0048 -0.0376  0.1044
 5611SOL    HW128466   1.910   2.098   1.319  0.1424 -0.0047  0.1535
 5611SOL    HW228467   1.891   2.213   1.231 -0.9041  0.1961  0.1146
 5612SOL     OW28468   3.590   3.601   4.848  0.2720  0.3235 -0.5178
 5612SOL    HW128469   3.614   3.677   4.795  0.5090  0.5292 -0.1106
 5612SOL    HW228470   3.580   3.641   4.934 -1.1633  0.2057 -0.6386
 5613SOL     OW28471   0.724   3.047   0.797  0.3616 -0.1139  0.2009
 5613SOL    HW128472   0.650   3.047   0.858 -0.8002  0.7471 -1.1841
 5613SOL    HW228473   0.669   3.021   0.722 -1.0282  0.8527  0.8783
 5614SOL     OW28474   3.247   3.193  11.518  0.2539 -0.7347  0.5173
 5614SOL    HW128475   3.330   3.241  11.510  0.7774 -1.5144  1.3469
 5614SOL    HW228476   3.185   3.261  11.544 -0.1398 -1.7413  2.1756
 5615SOL     OW28477   1.534   2.769   3.107 -0.4926 -0.0899 -0.2809
 5615SOL    HW128478   1.586   2.828   3.161 -0.2260 -0.9792  0.4531
 5615SOL    HW228479   1.446   2.803   3.119 -0.6458 -0.5787  0.0136
 5616SOL     OW28480   2.377   4.298   6.625 -0.8277 -0.3951 -0.2625
 5616SOL    HW128481   2.411   4.210   6.608 -1.0552 -0.7347  1.0641
 5616SOL    HW228482   2.384   4.288   6.720 -1.2467  2.8090  0.0920
 5617SOL     OW28483   3.612   4.592  11.054  0.2576  0.8688  0.2126
 5617SOL    HW128484   3.545   4.629  10.995 -2.1538 -2.2801  1.0048
 5617SOL    HW228485   3.656   4.537  10.989  0.3639  0.7388  0.3963
 5618SOL     OW28486   4.216   3.799   7.056 -0.0709 -0.1046 -0.2719
 5618SOL    HW128487   4.175   3.854   6.988 -0.1217  0.5090  0.2574
 5618SOL    HW228488   4.290   3.851   7.087 -0.4949 -0.4681  1.3017
 5619SOL     OW28489   3.368   0.669  16.912 -0.3956 -0.1412 -0.5799
 5619SOL    HW128490   3.428   0.716  16.853 -1.1449  0.3877 -0.9165
 5619SOL    HW228491   3.388   0.714  16.994 -0.3441 -0.1660 -0.5791
 5620SOL     OW28492   4.052   2.614  14.559 -0.1333  0.3456  0.2864
 5620SOL    HW128493   4.003   2.646  14.483 -0.0524  1.2276  0.6020
 5620SOL    HW228494   3.987   2.553  14.596  0.9916 -0.4405  0.9660
 5621SOL     OW28495   1.253   3.789   0.018  0.6673 -0.6615  0.1883
 5621SOL    HW128496   1.224   3.862  17.707  2.1129 -0.3868 -0.2248
 5621SOL    HW228497   1.191   3.720  17.735  1.0205 -1.7605  2.3053
 5622SOL     OW28498   2.467   1.021  15.677  0.0111 -0.0078 -0.3648
 5622SOL    HW128499   2.439   0.968  15.752  0.5226 -1.1179 -0.9518
 5622SOL    HW228500   2.442   0.964  15.604 -3.7759  4.3816 -2.5196
 5623SOL     OW28501   0.341   1.266  14.857  0.5324  0.5588  0.4410
 5623SOL    HW128502   0.275   1.329  14.830  0.2013  0.3505  0.7590
 5623SOL    HW228503   0.293   1.183  14.855  0.7518  0.4528 -0.4625
 5624SOL     OW28504   4.079   1.186   1.246  0.3026 -0.3421  0.5603
 5624SOL    HW128505   4.033   1.238   1.181  2.0293 -1.2484 -1.3832
 5624SOL    HW228506   4.073   1.249   1.317 -0.8096 -0.2146  0.3457
 5625SOL     OW28507   3.891   3.499   2.152 -0.1119 -0.2278 -0.3302
 5625SOL    HW128508   3.982   3.496   2.182  0.0333  2.1558 -0.4740
 5625SOL    HW228509   3.849   3.417   2.177 -1.4169  0.0572 -1.6299
 5626SOL     OW28510   3.634   0.033   8.997  0.1101 -0.6533  0.0597
 5626SOL    HW128511   3.725   0.052   9.019  0.0802 -0.9872  0.4727
 5626SOL    HW228512   3.583   0.067   9.070 -0.0996 -3.1088  1.0622
 5627SOL     OW28513   4.022   3.281  17.679 -0.2085 -0.5420  0.5252
 5627SOL    HW128514   4.020   3.270  17.584 -1.3672 -2.2660  0.7423
 5627SOL    HW228515   4.116   3.289  17.691  0.0540 -2.4908 -0.1460
 5628SOL     OW28516   0.953   4.562   6.479  0.2028  1.0272 -0.0590
 5628SOL    HW128517   0.901   4.542   6.557 -0.6000 -1.9827 -1.3722
 5628SOL    HW228518   0.916   4.500   6.417  2.4783  1.1332 -1.5336
 5629SOL     OW28519   4.332   3.954   8.917  0.2641  0.0860 -0.8458
 5629SOL    HW128520   4.345   3.961   9.011  2.2549  0.0432 -1.0961
 5629SOL    HW228521   4.424   3.966   8.890  0.6457 -0.4999  0.2072
 5630SOL     OW28522   1.922   2.595   0.091  0.5633 -0.2440  0.2665
 5630SOL    HW128523   1.876   2.653   0.031  1.1610 -0.7444 -0.6885
 5630SOL    HW228524   1.864   2.519   0.085 -0.2771  0.3653  0.7966
 5631SOL     OW28525   1.738   2.291   1.765  0.7554 -0.2001  0.2321
 5631SOL    HW128526   1.693   2.362   1.811 -0.0769 -0.8466  0.4338
 5631SOL    HW228527   1.722   2.320   1.675  0.0277  0.1374  0.4662
 5632SOL     OW28528   4.034   2.319   8.988 -0.3432 -0.5446  0.3053
 5632SOL    HW128529   4.072   2.407   8.986  0.2349 -0.7980  0.0866
 5632SOL    HW228530   4.042   2.295   8.896  1.3186 -0.4507  0.4212
 5633SOL     OW28531   2.608   3.144   0.486  0.1535  0.5124 -0.6386
 5633SOL    HW128532   2.542   3.078   0.505 -0.6772  1.7589  0.8566
 5633SOL    HW228533   2.555   3.204   0.435  1.4964  0.7600 -1.7467
 5634SOL     OW28534   0.682   3.694   8.248 -1.2954  0.2364  0.0588
 5634SOL    HW128535   0.731   3.773   8.228  0.4713 -0.6855  0.7861
 5634SOL    HW228536   0.602   3.719   8.294 -0.5614  0.5825  1.1419
 5635SOL     OW28537   1.157   1.925   1.225  0.1062 -0.1924  0.3400
 5635SOL    HW128538   1.103   1.951   1.151  0.1560 -1.5074 -0.1601
 5635SOL    HW228539   1.183   1.839   1.191 -3.2083 -1.1289  0.2223
 5636SOL     OW28540   4.242   3.986   1.946  0.3739 -0.4191 -0.2568
 5636SOL    HW128541   4.257   4.079   1.956 -1.2590 -0.2546  0.8286
 5636SOL    HW228542   4.314   3.978   1.885  1.4123 -0.5259  0.9901
 5637SOL     OW28543   0.642   1.372  16.960 -0.0279 -0.0056  0.3783
 5637SOL    HW128544   0.642   1.437  17.030  0.4519 -1.3181  1.6088
 5637SOL    HW228545   0.636   1.293  17.015  0.9640  0.5890  1.3237
 5638SOL     OW28546   1.737   1.802   8.249  0.0383 -0.1138  0.0357
 5638SOL    HW128547   1.792   1.730   8.218 -1.0826 -0.5889 -0.8886
 5638SOL    HW228548   1.678   1.811   8.175  0.0294  1.4682  0.2429
 5639SOL     OW28549   3.126   3.987  16.369 -0.5039  0.1208  0.5283
 5639SOL    HW128550   3.123   4.064  16.426  1.9891  0.9345 -0.4334
 5639SOL    HW228551   3.216   4.003  16.342 -0.9712 -0.1953 -1.2268
 5640SOL     OW28552   2.694   3.445   0.561 -0.1200  0.6766  0.2754
 5640SOL    HW128553   2.713   3.484   0.476 -1.6279  0.5811 -0.1067
 5640SOL    HW228554   2.690   3.353   0.536  1.1711  0.7824 -0.3262
 5641SOL     OW28555   0.316   2.447  16.365 -0.4919  0.3427 -0.6840
 5641SOL    HW128556   0.281   2.377  16.420  3.4884 -0.9509  0.2119
 5641SOL    HW228557   0.272   2.421  16.285 -1.2782  1.8136 -0.7304
 5642SOL     OW28558   2.779   1.186  13.581  0.4330  0.0213 -0.1057
 5642SOL    HW128559   2.705   1.130  13.561 -0.0980  0.8383 -0.4358
 5642SOL    HW228560   2.783   1.164  13.674 -2.5060 -0.6131 -0.1444
 5643SOL     OW28561   2.274   0.564   2.478  0.2815 -0.1065 -0.2378
 5643SOL    HW128562   2.342   0.517   2.526  0.0075  0.1948  0.4557
 5643SOL    HW228563   2.260   0.639   2.536  0.1976  0.2707 -0.7405
 5644SOL     OW28564   0.876   0.078  11.848  0.5254 -0.1024  0.7074
 5644SOL    HW128565   0.859   4.725  11.817  4.5115 -0.0020 -1.8691
 5644SOL    HW228566   0.853   0.066  11.940  1.5461 -1.5538  0.7770
 5645SOL     OW28567   1.049   1.845  11.563 -0.1153  0.2471  0.0496
 5645SOL    HW128568   1.005   1.928  11.544 -0.9347 -0.1044  0.4425
 5645SOL    HW228569   0.982   1.778  11.564  0.1602 -0.0125  1.3861
 5646SOL     OW28570   2.875   4.281   7.927 -0.4868 -0.1703 -0.8368
 5646SOL    HW128571   2.848   4.195   7.894 -0.6367 -0.4150 -0.0887
 5646SOL    HW228572   2.968   4.284   7.904 -0.2304  0.6980  0.2909
 5647SOL     OW28573   2.611   4.543   6.041 -0.4784 -0.2052  0.3477
 5647SOL    HW128574   2.588   4.611   6.104 -0.1443  1.2435 -1.0887
 5647SOL    HW228575   2.646   4.585   5.963  1.0210 -2.3542 -0.1252
 5648SOL     OW28576   2.671   2.940   6.744 -0.3017  0.0317 -0.0229
 5648SOL    HW128577   2.649   2.972   6.831 -2.6345  0.2424 -0.6955
 5648SOL    HW228578   2.728   3.014   6.723 -0.9673  0.4215 -0.4738
 5649SOL     OW28579   0.897   2.494   3.224  0.2111  0.0897 -1.0144
 5649SOL    HW128580   0.921   2.559   3.158 -1.5345  1.1804 -0.5770
 5649SOL    HW228581   0.894   2.542   3.307 -1.2987 -0.6831 -0.6298
 5650SOL     OW28582   2.199   2.822   7.007  0.2172 -0.2248  0.0906
 5650SOL    HW128583   2.200   2.729   6.985 -2.3206 -0.4569  1.0147
 5650SOL    HW228584   2.118   2.830   7.058  0.2326  1.4321 -0.1259
 5651SOL     OW28585   1.902   4.236   9.978 -0.4782 -0.4035  0.0186
 5651SOL    HW128586   1.931   4.327   9.966 -1.2382 -0.3464 -1.3566
 5651SOL    HW228587   1.830   4.245  10.040  0.5467  0.3282  1.1204
 5652SOL     OW28588   0.933   0.048  15.249  0.4772 -0.2146  0.0780
 5652SOL    HW128589   0.895   4.696  15.243 -0.3281  0.1869 -0.7820
 5652SOL    HW228590   0.958   0.064  15.158  0.2436  0.6638  0.1748
 5653SOL     OW28591   2.574   4.551  14.574  0.4076  0.1296 -0.5818
 5653SOL    HW128592   2.499   4.517  14.623 -0.8292  1.8627 -1.3095
 5653SOL    HW228593   2.621   4.468  14.565  0.5944  0.0908  0.6936
 5654SOL     OW28594   4.474   0.138   7.883 -0.3496 -0.0142  0.4617
 5654SOL    HW128595   4.437   0.209   7.831  0.9211 -0.0662 -0.5249
 5654SOL    HW228596   4.522   0.084   7.820 -0.8317  0.0142  0.0663
 5655SOL     OW28597   2.734   3.206   1.612  0.2638 -0.2608  0.2921
 5655SOL    HW128598   2.787   3.279   1.578 -0.1368 -1.2794 -2.4605
 5655SOL    HW228599   2.662   3.248   1.659 -0.1766  2.4530 -2.7912
 5656SOL     OW28600   2.082   1.508   4.398  0.1389  0.3250  0.2706
 5656SOL    HW128601   2.092   1.510   4.303  0.9941  0.9601  0.3669
 5656SOL    HW228602   2.164   1.461   4.414  0.7385  1.8066  1.5845
 5657SOL     OW28603   0.044   2.979   7.262  0.8514  0.4236  0.0549
 5657SOL    HW128604   4.734   3.059   7.234  0.4412 -0.2852 -1.2942
 5657SOL    HW228605   4.724   2.959   7.337  0.0907  2.8158  0.1324
 5658SOL     OW28606   2.648   0.055   2.664 -0.3152  0.3666  0.4111
 5658SOL    HW128607   2.579   0.116   2.690 -0.9848 -0.0579 -0.3650
 5658SOL    HW228608   2.696   0.113   2.604  0.7373  1.3394  2.1936
 5659SOL     OW28609   3.857   0.324   8.849 -0.3619 -0.0274 -0.0668
 5659SOL    HW128610   3.907   0.402   8.874  0.5179 -0.9147  0.9611
 5659SOL    HW228611   3.846   0.264   8.923 -0.1694  2.0116  1.6013
 5660SOL     OW28612   3.345   4.574   6.613  0.3159 -0.0644 -0.0987
 5660SOL    HW128613   3.372   4.647   6.558  1.2349 -0.3397 -0.0154
 5660SOL    HW228614   3.250   4.589   6.609  0.2241 -1.1396 -1.9649
 5661SOL     OW28615   0.117   3.214   2.098 -0.0859 -0.2741 -0.0110
 5661SOL    HW128616   0.136   3.121   2.109  2.6909 -0.0660 -3.1314
 5661SOL    HW228617   0.062   3.229   2.175  0.2012 -0.4644  0.2285
 5662SOL     OW28618   3.221   4.461   4.061  0.3042  0.7541 -0.1799
 5662SOL    HW128619   3.302   4.504   4.032  0.5259  0.8006  0.5173
 5662SOL    HW228620   3.172   4.519   4.120  1.1297  0.3590  0.8945
 5663SOL     OW28621   4.063   2.529  15.830 -0.1427 -0.2927 -0.5265
 5663SOL    HW128622   4.083   2.466  15.899 -2.3149  1.5150  1.7311
 5663SOL    HW228623   4.109   2.607  15.861 -0.4142 -0.0056 -0.8349
 5664SOL     OW28624   1.896   3.131   4.714  0.5451 -0.4769 -0.4492
 5664SOL    HW128625   1.898   3.125   4.810 -1.1053  2.0523 -0.2321
 5664SOL    HW228626   1.986   3.153   4.693  0.2887 -0.6273 -1.6716
 5665SOL     OW28627   4.239   3.196   9.433  0.2279 -0.3461 -0.0090
 5665SOL    HW128628   4.204   3.155   9.512  1.2337  1.0181  1.1368
 5665SOL    HW228629   4.319   3.149   9.408  0.4640  0.1740 -0.2284
 5666SOL     OW28630   0.218   1.953   0.046 -0.0807  0.3466  0.1530
 5666SOL    HW128631   0.180   1.866   0.035 -2.3369  1.3999 -0.4434
 5666SOL    HW228632   0.292   1.953  17.728 -1.4061  1.3532 -1.4886
 5667SOL     OW28633   1.716   2.000   1.903 -0.4808  0.3491  0.2335
 5667SOL    HW128634   1.632   2.001   1.856 -0.0493  0.1560 -0.5354
 5667SOL    HW228635   1.702   2.076   1.959  0.4489  0.3407  0.4662
 5668SOL     OW28636   4.241   1.912   6.162 -0.2286  0.1621 -0.0453
 5668SOL    HW128637   4.201   1.932   6.247 -1.6138  0.4298 -0.7523
 5668SOL    HW228638   4.312   1.852   6.187 -1.1328 -1.3215 -1.0267
 5669SOL     OW28639   0.739   2.239   7.054 -0.1129 -0.5277  0.1404
 5669SOL    HW128640   0.771   2.184   7.126  0.7103 -2.3866 -1.6688
 5669SOL    HW228641   0.795   2.317   7.065 -2.2303  0.9337  0.4880
 5670SOL     OW28642   2.154   4.448   4.122 -0.8728  0.2095 -0.3067
 5670SOL    HW128643   2.111   4.494   4.051 -0.1463 -0.6115 -1.2795
 5670SOL    HW228644   2.209   4.388   4.071  0.2841  1.6512 -0.7500
 5671SOL     OW28645   2.356   1.717  12.684  1.6054  0.4894  0.9634
 5671SOL    HW128646   2.412   1.648  12.647  0.4022  0.1238 -0.1712
 5671SOL    HW228647   2.387   1.790  12.631  0.2534  0.2151 -0.1989
 5672SOL     OW28648   2.056   3.903   9.993 -0.7899  0.7304 -0.3692
 5672SOL    HW128649   2.086   3.987  10.027 -1.1861  0.8333 -0.2691
 5672SOL    HW228650   2.035   3.866  10.079 -0.6394 -2.6348 -1.7500
 5673SOL     OW28651   4.269   4.478   6.009  0.6291  0.0375  0.1469
 5673SOL    HW128652   4.330   4.477   6.083  1.9780  0.1120 -0.9812
 5673SOL    HW228653   4.245   4.385   6.016 -4.5180  1.3447  0.1498
 5674SOL     OW28654   3.845   3.746   1.318  0.0652 -0.2232  0.0450
 5674SOL    HW128655   3.899   3.808   1.269 -0.4013  0.5587  0.5269
 5674SOL    HW228656   3.895   3.714   1.393 -0.3943 -2.1515 -0.4588
 5675SOL     OW28657   2.842   2.276  12.819 -0.1188 -0.3700 -0.1594
 5675SOL    HW128658   2.877   2.279  12.908 -2.7403 -0.6412  0.8795
 5675SOL    HW228659   2.786   2.198  12.823 -0.7996  0.0302 -1.8637
 5676SOL     OW28660   2.998   0.096   5.489 -0.7375 -0.4174  0.0236
 5676SOL    HW128661   2.983   0.182   5.450  1.7894  0.3601  0.8285
 5676SOL    HW228662   3.061   0.117   5.557 -0.4987 -3.0903  0.6397
 5677SOL     OW28663   4.433   0.042   0.881 -0.5667  0.5960  0.0179
 5677SOL    HW128664   4.394   0.127   0.860  1.6862  1.6122 -0.0548
 5677SOL    HW228665   4.521   0.047   0.845 -0.8418 -0.4147 -0.7751
 5678SOL     OW28666   0.349   4.547   9.759  0.1045  0.0348  0.2311
 5678SOL    HW128667   0.269   4.597   9.777  0.9507  1.7843 -0.8775
 5678SOL    HW228668   0.364   4.498   9.841 -2.5081 -0.3143  0.5110
 5679SOL     OW28669   1.739   2.298   5.081 -0.1419 -0.4770 -0.1427
 5679SOL    HW128670   1.779   2.384   5.095 -3.6000  0.8436  1.5934
 5679SOL    HW228671   1.654   2.328   5.050  0.2583  0.5986 -0.1870
 5680SOL     OW28672   0.497   3.180   2.941  0.3303 -0.2963  0.2338
 5680SOL    HW128673   0.528   3.270   2.938  1.9922 -0.8839 -0.7599
 5680SOL    HW228674   0.553   3.143   2.872 -0.9674 -2.0597  0.1298
 5681SOL     OW28675   3.559   3.733   3.849  0.6655 -0.0279 -0.0433
 5681SOL    HW128676   3.638   3.721   3.798  1.8989 -0.2004  1.9103
 5681SOL    HW228677   3.530   3.820   3.823 -1.8554 -0.4927  1.1191
 5682SOL     OW28678   1.296   1.198   6.054  0.1890 -0.2618 -0.5088
 5682SOL    HW128679   1.336   1.205   5.967  0.2202  1.4109 -0.3553
 5682SOL    HW228680   1.360   1.137   6.093 -1.4734 -1.7767 -0.1748
 5683SOL     OW28681   1.169   4.091  12.345 -0.3250  0.3316 -0.4547
 5683SOL    HW128682   1.239   4.122  12.288  0.9943  0.1915  1.0834
 5683SOL    HW228683   1.217   4.029  12.400  2.1131  1.9150 -0.8021
 5684SOL     OW28684   3.548   3.513   5.515 -0.1431 -0.1129  0.5658
 5684SOL    HW128685   3.640   3.492   5.500 -0.0413  2.3167 -2.1894
 5684SOL    HW228686   3.555   3.546   5.604  3.1834  1.8894 -0.4344
 5685SOL     OW28687   3.078   4.082  14.594 -0.2362  0.0413  0.1973
 5685SOL    HW128688   3.071   4.176  14.607 -0.3441  0.1213 -0.4531
 5685SOL    HW228689   3.172   4.067  14.606 -0.2706 -0.8137 -0.5718
 5686SOL     OW28690   2.576   3.468   4.233 -0.4225 -0.4144 -0.0619
 5686SOL    HW128691   2.541   3.535   4.291 -0.3917  0.1627 -0.7165
 5686SOL    HW228692   2.495   3.422   4.211 -0.3797 -0.1434 -0.7871
 5687SOL     OW28693   0.567   0.199   6.931 -0.3517  0.0517  0.8878
 5687SOL    HW128694   0.570   0.142   7.008 -1.3228 -0.0270  0.8698
 5687SOL    HW228695   0.483   0.184   6.887 -0.9302 -0.6167  2.2139
 5688SOL     OW28696   2.077   0.368  16.054 -0.1108 -0.0675 -0.1473
 5688SOL    HW128697   2.146   0.310  16.022 -1.7129 -1.9498 -0.2227
 5688SOL    HW228698   2.018   0.361  15.979 -0.7653  1.1516  0.2544
 5689SOL     OW28699   2.050   2.340   9.990  0.2501  0.1900 -0.1249
 5689SOL    HW128700   2.096   2.288  10.057  1.2362  0.5007 -0.5619
 5689SOL    HW228701   1.978   2.285   9.959  1.1715 -1.3006  0.3459
 5690SOL     OW28702   1.652   2.954   6.141 -0.5231 -0.3907 -0.0309
 5690SOL    HW128703   1.703   3.002   6.206 -0.9903  1.7641 -1.2598
 5690SOL    HW228704   1.563   2.985   6.159 -0.4911  0.5788 -1.5880
 5691SOL     OW28705   2.670   3.677   3.443  0.0025  0.1371 -0.4773
 5691SOL    HW128706   2.609   3.750   3.436  2.3613  2.1245 -0.2793
 5691SOL    HW228707   2.742   3.715   3.494  0.6438 -1.0892 -0.4708
 5692SOL     OW28708   0.419   3.796  14.449  0.4189  0.9833 -0.1050
 5692SOL    HW128709   0.506   3.802  14.488 -0.1379  2.7736  0.8520
 5692SOL    HW228710   0.373   3.840  14.520 -0.4937 -0.0069 -0.0732
 5693SOL     OW28711   2.989   1.366   5.320  0.1560  0.2325  0.2397
 5693SOL    HW128712   3.024   1.276   5.318  1.7004  0.8135  0.6748
 5693SOL    HW228713   3.057   1.413   5.368  0.9862  0.1795 -0.8735
 5694SOL     OW28714   0.881   4.613  10.188  0.6049  0.4485 -0.6139
 5694SOL    HW128715   0.922   4.695  10.160  0.0024  0.4060 -1.6030
 5694SOL    HW228716   0.828   4.589  10.112 -0.4690 -1.6492  0.7838
 5695SOL     OW28717   2.490   4.079   8.224 -0.7733  0.0315 -0.8110
 5695SOL    HW128718   2.488   4.167   8.185  2.2489  0.9845  1.2446
 5695SOL    HW228719   2.579   4.054   8.200 -1.1675 -1.0813 -1.0798
 5696SOL     OW28720   2.934   4.543  17.509  0.5433 -0.5741  0.0013
 5696SOL    HW128721   3.019   4.517  17.542 -0.0202 -1.1116  1.0123
 5696SOL    HW228722   2.941   4.518  17.416  1.5519  2.8318 -0.8307
 5697SOL     OW28723   0.000   3.280   1.672  0.0921 -0.1534 -0.5786
 5697SOL    HW128724   0.054   3.248   1.744  1.1216  0.0953 -1.2257
 5697SOL    HW228725   0.051   3.237   1.603  0.5094 -0.7457  0.1090
 5698SOL     OW28726   0.645   4.440   5.841  0.1555 -0.2075 -0.5109
 5698SOL    HW128727   0.561   4.485   5.840  0.7238  0.8475 -2.4038
 5698SOL    HW228728   0.678   4.470   5.925 -0.0616 -0.4943 -0.3250
 5699SOL     OW28729   3.733   1.049   5.443 -0.6661  0.4560  0.2492
 5699SOL    HW128730   3.819   1.007   5.440 -0.4366  0.8793  1.0753
 5699SOL    HW228731   3.754   1.139   5.467  1.2097  0.1374 -0.1591
 5700SOL     OW28732   0.164   0.910   5.164 -0.1585  0.5339 -0.0779
 5700SOL    HW128733   0.145   0.978   5.100  1.2663  1.6770  0.7164
 5700SOL    HW228734   0.077   0.877   5.189  0.3867  1.2887  2.7938
 5701SOL     OW28735   4.394   2.415   8.514  0.1244 -0.1010 -0.7611
 5701SOL    HW128736   4.338   2.479   8.559 -1.1215 -1.4758 -0.3560
 5701SOL    HW228737   4.340   2.399   8.437 -0.9882  1.5004 -0.3191
 5702SOL     OW28738   0.514   0.805   6.095 -0.2050  0.1103  0.6087
 5702SOL    HW128739   0.524   0.710   6.095 -1.4153 -0.0200  1.2051
 5702SOL    HW228740   0.579   0.848   6.150  1.2423  1.1274 -1.8546
 5703SOL     OW28741   1.551   2.673   3.819 -0.0500  0.1046  0.1546
 5703SOL    HW128742   1.505   2.757   3.817  0.8858  0.5783 -1.5033
 5703SOL    HW228743   1.509   2.629   3.745  1.1934 -0.7907 -0.0177
 5704SOL     OW28744   2.485   1.124  12.022 -0.3050  0.1986 -0.2440
 5704SOL    HW128745   2.489   1.048  12.080 -1.9686  0.3248  0.0282
 5704SOL    HW228746   2.402   1.166  12.046  0.7391  1.7147  0.7142
 5705SOL     OW28747   4.562   2.426   3.479 -0.4722  0.2773  0.1513
 5705SOL    HW128748   4.534   2.498   3.535  2.4418  0.8192  0.9027
 5705SOL    HW228749   4.490   2.426   3.415 -0.2432  0.1280 -0.1042
 5706SOL     OW28750   2.544   1.010   6.711 -0.2526  0.0211  0.4083
 5706SOL    HW128751   2.529   0.919   6.738 -1.3476 -0.1129 -0.6474
 5706SOL    HW228752   2.622   1.010   6.656 -0.4360  1.4313  0.1552
 5707SOL     OW28753   3.036   0.484   2.232  0.1641 -0.1776  0.0992
 5707SOL    HW128754   3.011   0.415   2.171  0.4721  0.8794 -1.2134
 5707SOL    HW228755   2.988   0.450   2.308 -0.4844 -0.5591 -0.4824
 5708SOL     OW28756   1.625   2.877   8.385 -0.5032 -0.6953 -0.2168
 5708SOL    HW128757   1.635   2.926   8.467  1.2280 -1.6039  0.1304
 5708SOL    HW228758   1.718   2.886   8.363 -0.0518 -0.8630  1.5641
 5709SOL     OW28759   3.794   4.597   1.789  0.4375  0.1497  0.2457
 5709SOL    HW128760   3.878   4.643   1.789 -0.5946  2.0407  2.6837
 5709SOL    HW228761   3.775   4.589   1.695  0.4949  1.9931  0.0732
 5710SOL     OW28762   0.746   0.853   6.262 -1.0549  0.0349 -0.0322
 5710SOL    HW128763   0.808   0.843   6.334  0.5469  1.0019 -1.2834
 5710SOL    HW228764   0.738   0.948   6.253 -0.2261  0.2325  1.3336
 5711SOL     OW28765   0.219   3.739   6.336  0.4404 -0.8293 -0.2062
 5711SOL    HW128766   0.256   3.663   6.291 -1.0141  0.3146 -3.3281
 5711SOL    HW228767   0.273   3.812   6.306 -1.9311  0.4922 -1.1961
 5712SOL     OW28768   0.528   3.406   2.709 -0.1003  0.1959  0.2912
 5712SOL    HW128769   0.527   3.497   2.681  0.1247  0.0991 -0.0390
 5712SOL    HW228770   0.562   3.429   2.796 -0.7091  2.6870 -0.1481
 5713SOL     OW28771   3.042   4.275   9.808  0.3449  0.4313 -0.1981
 5713SOL    HW128772   2.976   4.324   9.858  0.3384 -0.1721  0.3891
 5713SOL    HW228773   3.089   4.243   9.885 -1.1307 -1.7475 -0.1765
 5714SOL     OW28774   3.925   4.257   8.111 -0.0648 -0.5534  0.0375
 5714SOL    HW128775   4.004   4.294   8.151  0.6350 -2.3502  0.3112
 5714SOL    HW228776   3.958   4.170   8.087  0.7873  0.5358 -2.8010
 5715SOL     OW28777   3.141   2.534   6.448  0.0771 -0.4431 -0.2968
 5715SOL    HW128778   3.188   2.598   6.395  1.0638 -0.3657  0.6706
 5715SOL    HW228779   3.190   2.453   6.434  0.2865 -0.3881  0.1094
 5716SOL     OW28780   4.479   3.843   8.410 -0.2767 -0.0576  0.0451
 5716SOL    HW128781   4.519   3.876   8.490  1.2629 -1.5841 -0.1127
 5716SOL    HW228782   4.394   3.815   8.443 -0.5827 -0.7200 -1.2918
 5717SOL     OW28783   1.610   3.194  15.557  0.5630 -0.0093  0.3820
 5717SOL    HW128784   1.669   3.125  15.588 -1.2491 -1.4535  0.6331
 5717SOL    HW228785   1.602   3.176  15.463 -1.0119  0.5539  0.4019
 5718SOL     OW28786   0.086   4.571  16.916 -0.0330 -0.1766  0.3106
 5718SOL    HW128787   0.156   4.533  16.969 -0.9562  0.2056  1.7792
 5718SOL    HW228788   0.013   4.538  16.969 -0.3560 -0.9684 -0.6021
 5719SOL     OW28789   0.479   1.749   9.293  0.5231  0.1202 -0.0165
 5719SOL    HW128790   0.510   1.838   9.310  1.8736  0.1664 -2.7737
 5719SOL    HW228791   0.452   1.722   9.381 -2.0442  1.2844 -0.4656
 5720SOL     OW28792   0.235   3.502  16.435  0.5303  0.1180  0.4511
 5720SOL    HW128793   0.198   3.414  16.436  1.3151 -0.1805  2.8375
 5720SOL    HW228794   0.276   3.504  16.348 -1.5445  3.9462 -0.4172
 5721SOL     OW28795   4.632   4.621   9.795 -0.2501  0.1878 -0.4284
 5721SOL    HW128796   4.715   4.665   9.811  0.0419 -1.0892  1.5910
 5721SOL    HW228797   4.596   4.617   9.884 -1.3195  0.7205 -0.8336
 5722SOL     OW28798   2.123   2.394   5.026 -0.0149  0.1033 -0.1345
 5722SOL    HW128799   2.096   2.342   5.102 -1.7274  0.0843 -0.7573
 5722SOL    HW228800   2.208   2.353   5.012 -0.2049 -0.6816  0.9908
 5723SOL     OW28801   3.276   3.569   1.445 -0.3996 -0.1335 -0.9771
 5723SOL    HW128802   3.250   3.479   1.463 -0.7506  0.2016  0.2160
 5723SOL    HW228803   3.348   3.589   1.505 -0.1751 -0.4062 -1.1561
 5724SOL     OW28804   0.242   3.445   2.783 -0.1431  0.1274  0.2289
 5724SOL    HW128805   0.264   3.460   2.692 -0.0155 -1.8911 -0.0755
 5724SOL    HW228806   0.246   3.350   2.795 -0.4121 -0.0119 -0.8004
 5725SOL     OW28807   0.946   0.185   9.331 -0.0866 -0.0812  0.3506
 5725SOL    HW128808   0.887   0.252   9.364 -0.5487 -1.1751  1.7481
 5725SOL    HW228809   0.892   0.159   9.256  0.5651 -1.4152  0.3334
 5726SOL     OW28810   1.998   0.589  10.006 -0.3977  0.1011  0.0200
 5726SOL    HW128811   2.049   0.567  10.084 -0.6977  2.9659  1.0497
 5726SOL    HW228812   1.917   0.553  10.042 -0.4157 -3.1215 -3.2820
 5727SOL     OW28813   0.413   4.129   4.069 -0.1465  0.4054  0.0989
 5727SOL    HW128814   0.462   4.134   4.151 -1.1795  1.4845  0.6600
 5727SOL    HW228815   0.457   4.186   4.006 -0.6456 -0.8840 -1.4267
 5728SOL     OW28816   1.483   0.210   5.737 -0.5027 -0.0009 -0.0385
 5728SOL    HW128817   1.481   0.171   5.649  0.7990  1.4966 -0.7432
 5728SOL    HW228818   1.395   0.181   5.760 -0.4075  0.2465  0.6388
 5729SOL     OW28819   0.587   3.999   7.616  0.0285  0.0868 -0.1346
 5729SOL    HW128820   0.605   4.019   7.708 -3.2124  1.1075  0.2898
 5729SOL    HW228821   0.492   4.015   7.617 -0.1076 -0.8420  4.0053
 5730SOL     OW28822   0.245   2.941   2.439  0.1959  0.0866  0.3380
 5730SOL    HW128823   0.196   2.862   2.462 -0.1075 -0.1939 -1.2478
 5730SOL    HW228824   0.337   2.921   2.456  0.6579  0.6053 -1.5569
 5731SOL     OW28825   1.058   1.440   4.984  0.3875  0.6919 -0.0668
 5731SOL    HW128826   1.030   1.466   4.896  0.0592 -0.0914 -0.1925
 5731SOL    HW228827   1.005   1.362   5.004 -2.6855  3.2877  1.9248
 5732SOL     OW28828   0.468   2.628   8.167 -0.1190 -0.2070  0.3076
 5732SOL    HW128829   0.544   2.625   8.224 -2.6164  0.1726  3.6296
 5732SOL    HW228830   0.413   2.692   8.211  1.3147  1.0918  0.1926
 5733SOL     OW28831   1.340   3.842   8.582  0.2669 -0.1652  0.6620
 5733SOL    HW128832   1.331   3.846   8.677  1.6625 -0.8117  0.8308
 5733SOL    HW228833   1.251   3.841   8.548  0.6271 -0.6016 -0.2515
 5734SOL     OW28834   2.892   4.266   4.562  0.2872  0.0139  0.1411
 5734SOL    HW128835   2.916   4.339   4.619  0.9845  0.4279 -0.6662
 5734SOL    HW228836   2.800   4.274   4.587  0.0429  0.7616 -0.9999
 5735SOL     OW28837   3.536   1.530  12.548  0.1422 -0.4459 -0.2836
 5735SOL    HW128838   3.449   1.569  12.543 -0.4395 -1.8660 -1.0538
 5735SOL    HW228839   3.544   1.527  12.644 -0.1578  1.7080 -0.2047
 5736SOL     OW28840   0.261   1.158   8.750 -0.3956 -0.2415 -0.4148
 5736SOL    HW128841   0.350   1.161   8.785 -0.4819  0.1979 -0.2340
 5736SOL    HW228842   0.223   1.233   8.796  0.3138  0.9760 -1.8260
 5737SOL     OW28843   0.502   4.103   4.619  0.2574  0.1743 -0.3231
 5737SOL    HW128844   0.585   4.069   4.652  0.1669 -0.3468 -0.6260
 5737SOL    HW228845   0.491   4.055   4.537 -0.6964  0.1352 -0.1762
 5738SOL     OW28846   2.733   4.424  11.481  0.4321 -0.3676 -0.3220
 5738SOL    HW128847   2.657   4.368  11.496  0.9222 -1.2232 -1.0326
 5738SOL    HW228848   2.772   4.384  11.404  0.5863 -1.9079  0.5503
 5739SOL     OW28849   2.967   3.835   1.243  0.0197 -0.2079 -0.2985
 5739SOL    HW128850   3.004   3.811   1.158  0.9481 -0.3982  0.1639
 5739SOL    HW228851   2.884   3.876   1.219  0.9755  1.7881 -0.2145
 5740SOL     OW28852   0.116   2.955   1.308  0.6441 -0.2993 -0.2207
 5740SOL    HW128853   0.138   2.888   1.373  0.8073 -1.3366 -1.3487
 5740SOL    HW228854   0.075   2.904   1.238 -0.3187 -0.8517  0.7502
 5741SOL     OW28855   4.678   2.371   9.591 -0.0339  0.2303  0.0989
 5741SOL    HW128856   4.594   2.356   9.635  0.8917 -0.3550  1.6692
 5741SOL    HW228857   4.669   2.331   9.504  0.1957 -1.2407  0.7424
 5742SOL     OW28858   2.315   1.487   7.058 -0.0847  0.4699 -0.1225
 5742SOL    HW128859   2.357   1.412   7.018 -1.4549 -0.3079 -0.0932
 5742SOL    HW228860   2.302   1.465   7.150 -0.1732 -1.5212 -0.6308
 5743SOL     OW28861   0.531   1.454  16.729  0.2184 -0.5091  0.6680
 5743SOL    HW128862   0.571   1.402  16.799 -1.4858  0.4546  2.3352
 5743SOL    HW228863   0.568   1.535  16.765 -0.2780 -0.2028  0.4897
 5744SOL     OW28864   0.911   4.475   3.824 -0.0085 -0.5286  0.1086
 5744SOL    HW128865   0.873   4.432   3.900  2.2408 -1.1405  0.8640
 5744SOL    HW228866   1.006   4.477   3.835 -0.0513  3.2042 -0.2839
 5745SOL     OW28867   1.692   2.248  10.576 -0.6053  0.1481 -0.0011
 5745SOL    HW128868   1.658   2.260  10.665 -2.4458  0.1482 -0.7081
 5745SOL    HW228869   1.752   2.174  10.585  0.8979  1.4872  1.0515
 5746SOL     OW28870   3.048   2.623   4.376 -0.0849 -0.3539  0.6844
 5746SOL    HW128871   3.117   2.568   4.339 -0.3306  0.3174 -0.7810
 5746SOL    HW228872   2.972   2.593   4.327  0.0041  0.2625  0.1681
 5747SOL     OW28873   4.612   1.846   5.715 -0.3418  0.1232  0.2834
 5747SOL    HW128874   4.695   1.861   5.760  0.7843 -1.1808 -1.3265
 5747SOL    HW228875   4.631   1.807   5.629 -1.8184 -0.9334  0.4405
 5748SOL     OW28876   3.144   1.240  10.436 -0.6133  0.4534 -0.1383
 5748SOL    HW128877   3.214   1.261  10.498  1.5128  0.4588 -2.5195
 5748SOL    HW228878   3.066   1.277  10.476 -1.0220 -1.6085  0.9651
 5749SOL     OW28879   2.210   3.174   0.558  0.3378 -0.0558  0.2968
 5749SOL    HW128880   2.222   3.185   0.653 -0.9993  2.1270  0.2103
 5749SOL    HW228881   2.124   3.132   0.551  0.1076 -0.0359  2.8490
 5750SOL     OW28882   4.461   1.940   7.663  0.2814  0.3725 -0.1461
 5750SOL    HW128883   4.440   1.847   7.664  0.3502  0.3586 -0.0620
 5750SOL    HW228884   4.384   1.990   7.636 -0.2279 -0.4762 -0.2710
 5751SOL     OW28885   4.528   0.102   8.314 -0.0376 -0.5007  0.3676
 5751SOL    HW128886   4.557   0.185   8.353 -0.2942  0.8398 -2.3106
 5751SOL    HW228887   4.573   0.102   8.229 -3.0810  1.6692 -1.2504
 5752SOL     OW28888   2.099   0.327   6.401  0.0082 -0.2193 -0.0182
 5752SOL    HW128889   2.115   0.389   6.330 -0.1633  0.4416  0.5188
 5752SOL    HW228890   2.149   0.375   6.467  0.0833 -0.4834  0.1190
 5753SOL     OW28891   2.691   2.490  15.954 -0.1080 -0.4993 -0.0298
 5753SOL    HW128892   2.680   2.425  15.885  1.1668 -1.4721  0.6791
 5753SOL    HW228893   2.658   2.563  15.902  2.8664 -0.1214 -1.3643
 5754SOL     OW28894   4.712   0.278   4.301  0.3990  0.1982 -0.0889
 5754SOL    HW128895   4.717   0.202   4.243 -2.1803 -0.1518  0.1091
 5754SOL    HW228896   4.697   0.355   4.246  2.0024  1.0650  0.7017
 5755SOL     OW28897   3.474   2.443   2.626 -0.2377 -0.0896  0.4349
 5755SOL    HW128898   3.381   2.443   2.603 -0.0380 -0.4624 -0.4130
 5755SOL    HW228899   3.456   2.402   2.710 -0.7245  3.2824  1.9548
 5756SOL     OW28900   4.329   1.749  13.344 -0.0883  0.0914 -0.1259
 5756SOL    HW128901   4.319   1.712  13.432  1.9370 -0.1104  0.0299
 5756SOL    HW228902   4.244   1.726  13.307  0.5303 -0.9465 -0.9108
 5757SOL     OW28903   1.887   1.015   8.946  0.0169 -0.0440 -0.0358
 5757SOL    HW128904   1.892   1.093   8.891 -0.2646  0.4386  0.6229
 5757SOL    HW228905   1.946   0.965   8.890 -0.1952 -0.6174  0.2570
 5758SOL     OW28906   1.263   3.722  15.597 -0.4339 -0.2635  0.4891
 5758SOL    HW128907   1.174   3.725  15.563  0.0251  0.0276 -0.7002
 5758SOL    HW228908   1.255   3.756  15.686 -1.3962 -2.3253  1.1866
 5759SOL     OW28909   1.744   2.599   3.057  0.5918 -0.3063  0.0219
 5759SOL    HW128910   1.713   2.530   2.998 -2.0675  0.4092  0.6135
 5759SOL    HW228911   1.671   2.660   3.053  0.1824 -0.7218  1.0119
 5760SOL     OW28912   3.890   2.876  11.714  0.7047  0.3838 -0.1354
 5760SOL    HW128913   3.904   2.791  11.673  0.7004  1.5897 -2.6219
 5760SOL    HW228914   3.900   2.922  11.631 -0.6004  0.0515 -0.4785
 5761SOL     OW28915   1.330   2.720   3.332  0.3307  0.1782 -0.0216
 5761SOL    HW128916   1.332   2.625   3.317  2.4784  0.4225 -1.3258
 5761SOL    HW228917   1.276   2.749   3.259 -0.4486 -1.2098 -0.0078
 5762SOL     OW28918   4.684   1.018   2.087  0.0943 -0.7928  0.2427
 5762SOL    HW128919   4.592   1.024   2.061  0.4641  0.6245 -0.7278
 5762SOL    HW228920   4.683   1.083   2.158  0.8869 -0.5472  0.0228
 5763SOL     OW28921   3.006   4.099   1.339  0.0340 -0.1172  0.0533
 5763SOL    HW128922   3.031   4.131   1.425 -0.3867  1.9937 -0.6049
 5763SOL    HW228923   3.043   4.011   1.336 -1.3264 -0.6563 -0.9720
 5764SOL     OW28924   0.316   2.385  17.736  0.1309 -0.2878 -0.1514
 5764SOL    HW128925   0.259   2.462  17.725  2.7625  2.0168  2.2298
 5764SOL    HW228926   0.308   2.375   0.088 -2.3822  1.4136 -0.1807
 5765SOL     OW28927   4.208   3.224  11.492 -0.0729 -0.3121  0.2985
 5765SOL    HW128928   4.294   3.199  11.458  0.5520  0.2365  1.4945
 5765SOL    HW228929   4.238   3.293  11.551 -1.0489  2.0668 -1.9676
 5766SOL     OW28930   2.904   4.644   6.164  0.0292  0.1083 -0.1464
 5766SOL    HW128931   2.835   4.709   6.174 -0.1421 -0.2691  1.1656
 5766SOL    HW228932   2.891   4.595   6.245  0.2109  1.0816  0.4709
 5767SOL     OW28933   2.820   4.530   2.142  0.1362 -0.3345  0.4309
 5767SOL    HW128934   2.737   4.557   2.102 -0.6916  0.8277  2.9309
 5767SOL    HW228935   2.839   4.598   2.206  0.8902 -0.2936  0.1591
 5768SOL     OW28936   3.826   2.687   8.564  0.4399  0.2915  0.7478
 5768SOL    HW128937   3.756   2.677   8.628 -1.5910 -2.1679 -1.8741
 5768SOL    HW228938   3.887   2.635   8.616  1.4475 -0.5692 -1.3085
 5769SOL     OW28939   2.920   1.607   6.322 -0.3512 -0.2160 -0.3894
 5769SOL    HW128940   2.999   1.636   6.276 -1.9877  0.8670 -2.5228
 5769SOL    HW228941   2.882   1.694   6.337  2.0951  0.6046  1.1821
 5770SOL     OW28942   4.383   0.918   9.895  0.2005 -0.3234 -0.9859
 5770SOL    HW128943   4.327   0.978   9.944 -0.7923 -1.4086 -0.7933
 5770SOL    HW228944   4.320   0.879   9.834 -0.7275  2.1504 -1.6123
 5771SOL     OW28945   0.083   2.446   5.081  0.6299 -0.6466  0.5928
 5771SOL    HW128946   4.733   2.405   5.096 -0.9764  2.1298 -1.1045
 5771SOL    HW228947   0.133   2.438   5.162  1.1974 -1.2640  0.1855
 5772SOL     OW28948   1.451   0.241   4.124  0.2378  0.2395 -0.0995
 5772SOL    HW128949   1.534   0.285   4.138  0.2296  0.7743 -1.6585
 5772SOL    HW228950   1.453   0.183   4.200 -0.8336  0.1544 -0.1240
 5773SOL     OW28951   1.504   2.251   8.919 -0.4481 -0.1220  0.4245
 5773SOL    HW128952   1.452   2.295   8.985  0.7369 -0.7370  1.7637
 5773SOL    HW228953   1.531   2.325   8.865 -0.3841 -1.2452 -1.0914
 5774SOL     OW28954   0.725   4.620   8.366  0.1328 -0.1465  0.3482
 5774SOL    HW128955   0.778   4.699   8.356  0.4518 -0.5164 -0.9196
 5774SOL    HW228956   0.651   4.658   8.412 -1.8696 -0.3239 -2.7263
 5775SOL     OW28957   0.162   1.303   6.887  0.0875 -0.0013 -0.3126
 5775SOL    HW128958   0.234   1.361   6.911  1.3811 -1.8062  0.2166
 5775SOL    HW228959   0.093   1.342   6.940 -0.4039 -0.6411 -0.4806
 5776SOL     OW28960   3.399   0.562   0.047 -0.4053 -0.7648  0.3470
 5776SOL    HW128961   3.421   0.502   0.118 -0.2455 -2.0676 -0.7963
 5776SOL    HW228962   3.393   0.650   0.083  1.3899  0.1751 -1.6324
 5777SOL     OW28963   4.468   0.899  17.641 -0.3175  0.1553  0.0756
 5777SOL    HW128964   4.469   0.835  17.712 -1.1145  1.7061  1.4728
 5777SOL    HW228965   4.511   0.852  17.569 -1.9605 -2.6751  0.9497
 5778SOL     OW28966   2.155   0.546  15.854  0.1861  0.1271 -0.3917
 5778SOL    HW128967   2.092   0.550  15.926  1.1264  0.7080  0.3968
 5778SOL    HW228968   2.160   0.638  15.827  1.2408 -0.2827 -1.5961
 5779SOL     OW28969   0.038   3.961   7.078 -0.5120  0.3207  0.4912
 5779SOL    HW128970   0.053   3.937   6.986 -0.3277 -2.7870  1.3143
 5779SOL    HW228971   0.019   4.053   7.058 -2.0710  0.0145  0.5311
 5780SOL     OW28972   1.955   2.632   6.597 -0.2570 -0.6735 -0.1236
 5780SOL    HW128973   1.927   2.573   6.526  1.8051 -0.5031 -1.0794
 5780SOL    HW228974   2.045   2.639   6.567 -0.7260 -0.3748 -1.4756
 5781SOL     OW28975   1.614   1.040   9.719  0.6169 -0.5770  0.2157
 5781SOL    HW128976   1.617   1.136   9.713 -0.4911 -0.6059 -0.7302
 5781SOL    HW228977   1.703   1.018   9.692  0.3114  0.2608 -1.4433
 5782SOL     OW28978   3.918   0.009  11.638  0.3857 -0.1295  0.0185
 5782SOL    HW128979   3.846   0.023  11.700 -1.1064 -0.8792 -1.5504
 5782SOL    HW228980   3.891   0.080  11.580  1.3737  0.9039  0.8407
 5783SOL     OW28981   3.172   3.631   8.015  0.0769  0.3707  0.6609
 5783SOL    HW128982   3.099   3.690   7.995  0.6293  0.9886  0.4620
 5783SOL    HW228983   3.161   3.565   7.946 -0.1508  1.8584 -0.7291
 5784SOL     OW28984   1.990   2.098   2.910 -0.8386  0.3036  0.1819
 5784SOL    HW128985   1.947   2.072   2.829 -0.1716  0.3349 -0.1781
 5784SOL    HW228986   2.075   2.113   2.870 -2.5463  2.8482 -2.4412
 5785SOL     OW28987   3.130   1.933  10.760 -0.6994  0.2033 -0.1810
 5785SOL    HW128988   3.187   1.974  10.695 -4.5831  2.9481 -1.7886
 5785SOL    HW228989   3.041   1.934  10.726 -1.2649  1.2623  1.3483
 5786SOL     OW28990   1.484   0.874   8.798  0.1181 -0.0658 -0.2840
 5786SOL    HW128991   1.485   0.958   8.843 -2.0931 -0.0323 -0.3320
 5786SOL    HW228992   1.394   0.844   8.803  0.2732  0.0502  3.7586
 5787SOL     OW28993   3.575   0.217   6.740  0.1238  0.1286 -0.6131
 5787SOL    HW128994   3.538   0.219   6.828  3.1000  2.9393  0.5552
 5787SOL    HW228995   3.645   0.153   6.752 -0.6709 -0.6240  0.0253
 5788SOL     OW28996   1.608   0.645   6.140  0.3475 -0.1371  0.3354
 5788SOL    HW128997   1.634   0.567   6.190 -0.8303  0.7387  2.3235
 5788SOL    HW228998   1.564   0.606   6.065  1.9871 -1.3813  0.0145
 5789SOL     OW28999   0.033   0.427   2.115  0.0541 -0.6839 -0.6830
 5789SOL    HW129000   0.109   0.473   2.151 -0.8272 -1.9487  2.8064
 5789SOL    HW229001   4.702   0.494   2.132 -0.3035 -0.9553 -1.0184
 5790SOL     OW29002   0.806   1.169   6.643 -0.4971  0.0343  0.1393
 5790SOL    HW129003   0.835   1.245   6.694  0.0516 -0.2991  0.3192
 5790SOL    HW229004   0.857   1.176   6.563  0.3074 -0.9421  0.5617
 5791SOL     OW29005   2.124   2.021   9.128  0.1480  0.6604 -0.2420
 5791SOL    HW129006   2.143   2.029   9.222  1.7018  0.0427 -0.4905
 5791SOL    HW229007   2.047   2.077   9.134  0.5310  1.0967  0.5969
 5792SOL     OW29008   1.780   2.788  17.691 -0.2813 -0.3240 -0.1757
 5792SOL    HW129009   1.843   2.850  17.727 -1.4824  1.4665 -1.1522
 5792SOL    HW229010   1.719   2.857  17.664 -1.5516 -1.6087 -0.6004
 5793SOL     OW29011   1.234   0.899   9.982  0.7307 -0.0592 -0.0683
 5793SOL    HW129012   1.307   0.886   9.922 -1.2943  2.2525 -3.0619
 5793SOL    HW229013   1.250   0.827  10.043  0.7090  2.0168  2.4031
 5794SOL     OW29014   2.686   1.829   8.797  0.0209 -0.0492  0.1478
 5794SOL    HW129015   2.600   1.838   8.838 -0.1578  0.5869 -0.3804
 5794SOL    HW229016   2.704   1.737   8.817 -2.9790 -0.5235  0.7656
 5795SOL     OW29017   2.666   2.463  13.466 -0.4853 -0.5552 -0.4271
 5795SOL    HW129018   2.707   2.498  13.387  1.6059 -0.0308  0.8820
 5795SOL    HW229019   2.696   2.373  13.448 -1.1422 -0.2501 -3.0070
 5796SOL     OW29020   0.398   1.402   6.645  0.8973  0.0558 -0.1877
 5796SOL    HW129021   0.424   1.361   6.729 -1.8775 -1.3351 -0.0162
 5796SOL    HW229022   0.484   1.409   6.603  1.0257  0.6328  0.1683
 5797SOL     OW29023   3.648   1.792   1.945  0.2959  0.0421  0.5617
 5797SOL    HW129024   3.601   1.842   1.878 -0.4602 -0.8182  0.4567
 5797SOL    HW229025   3.702   1.860   1.984  1.1869 -0.2785 -0.1033
 5798SOL     OW29026   2.769   0.152   3.728 -0.1735  0.2224 -0.0161
 5798SOL    HW129027   2.764   0.200   3.645 -1.2823 -0.0531 -0.1021
 5798SOL    HW229028   2.764   0.059   3.705  1.4979  0.0215  0.4114
 5799SOL     OW29029   0.329   0.357   4.483  0.1187 -0.0990  0.0061
 5799SOL    HW129030   0.263   0.423   4.506  1.8873  1.4826  0.5104
 5799SOL    HW229031   0.360   0.386   4.398  2.1812 -1.7254  0.2173
 5800SOL     OW29032   3.761   0.523  11.511 -0.3932 -0.0954 -0.3438
 5800SOL    HW129033   3.743   0.601  11.563 -0.4387 -1.6658  2.0038
 5800SOL    HW229034   3.721   0.448  11.555 -3.8866  1.9410 -0.0459
 5801SOL     OW29035   0.880   0.960   3.965 -0.1358 -0.5049 -0.3990
 5801SOL    HW129036   0.792   0.992   3.946  0.1248 -0.4997 -1.5998
 5801SOL    HW229037   0.854   0.870   3.984  0.4837 -0.3934  1.0140
 5802SOL     OW29038   2.090   0.264  10.585  0.1379  0.2021 -0.7685
 5802SOL    HW129039   2.075   0.345  10.634  0.5932 -0.7675  0.9666
 5802SOL    HW229040   2.174   0.286  10.545 -0.0460  1.4153 -0.4817
 5803SOL     OW29041   1.395   3.396   3.877 -0.1679  0.0870 -0.2878
 5803SOL    HW129042   1.459   3.325   3.885 -0.7359 -0.2708  1.1004
 5803SOL    HW229043   1.443   3.478   3.883 -2.3967  1.3337  0.4125
 5804SOL     OW29044   0.798   0.131   1.771  0.1291  1.3097  0.2127
 5804SOL    HW129045   0.735   0.157   1.703  0.7326 -1.4641 -1.4022
 5804SOL    HW229046   0.762   0.180   1.845 -1.8292  1.5206 -0.8977
 5805SOL     OW29047   4.692   1.903  10.889 -0.3222  0.3747  0.3952
 5805SOL    HW129048   4.730   1.818  10.863 -0.8539 -0.3267  1.9278
 5805SOL    HW229049   4.612   1.860  10.921 -0.5495 -0.1917 -0.9113
 5806SOL     OW29050   4.342   3.014   5.048 -0.0972  0.5215  0.0796
 5806SOL    HW129051   4.295   2.943   5.091 -2.1347 -0.1325 -3.2626
 5806SOL    HW229052   4.275   3.032   4.982 -0.2607  1.2582  0.4429
 5807SOL     OW29053   1.935   2.395   5.622  0.2868  0.4141 -0.2869
 5807SOL    HW129054   1.888   2.400   5.539  1.8160  2.3859 -1.0278
 5807SOL    HW229055   2.027   2.378   5.602 -0.1039  0.2231 -1.8467
 5808SOL     OW29056   4.620   2.911  10.652 -0.4605 -0.2439  0.1905
 5808SOL    HW129057   4.577   2.961  10.722 -1.4849 -0.8591  0.0050
 5808SOL    HW229058   4.684   2.855  10.696  0.3687  0.6252  0.0855
 5809SOL     OW29059   0.534   4.241   3.075 -0.1843 -0.2277 -0.0411
 5809SOL    HW129060   0.469   4.171   3.066 -0.6709  0.2186  0.0059
 5809SOL    HW229061   0.539   4.277   2.987 -1.7816 -0.3349 -0.1784
 5810SOL     OW29062   4.269   4.496   2.828 -0.3101 -0.1787  0.2841
 5810SOL    HW129063   4.286   4.585   2.858 -2.6865  0.3206  0.1462
 5810SOL    HW229064   4.177   4.491   2.852  0.1350 -1.5610  1.7345
 5811SOL     OW29065   2.346   0.382   5.915 -0.3643  0.2778 -0.5238
 5811SOL    HW129066   2.432   0.385   5.873 -0.7432  3.0741 -1.0723
 5811SOL    HW229067   2.279   0.387   5.847  0.1996  1.8827 -0.9544
 5812SOL     OW29068   1.838   3.265   5.879 -0.3321  0.4584  0.3274
 5812SOL    HW129069   1.824   3.270   5.785  0.3166 -0.0035  0.2021
 5812SOL    HW229070   1.848   3.172   5.899  0.1769  0.8275  1.8406
 5813SOL     OW29071   3.241   3.607   5.393 -0.7275  0.1790  0.4319
 5813SOL    HW129072   3.209   3.578   5.479 -1.3064 -0.4879 -0.0101
 5813SOL    HW229073   3.212   3.534   5.337 -1.4033 -1.0239  2.3448
 5814SOL     OW29074   1.255   0.002  15.133 -0.3488  0.3791  0.3749
 5814SOL    HW129075   1.225   0.088  15.163 -0.5136  0.8684 -1.2014
 5814SOL    HW229076   1.347   0.010  15.161 -0.4758 -4.4658  2.1108
 5815SOL     OW29077   1.491   3.202   9.457 -0.2540  0.3336 -0.3932
 5815SOL    HW129078   1.571   3.155   9.433 -1.9068 -2.7359  0.0587
 5815SOL    HW229079   1.480   3.260   9.382  2.2225  0.4569 -0.6401
 5816SOL     OW29080   0.690   2.992   8.214  0.4433  0.4302 -0.0943
 5816SOL    HW129081   0.772   2.943   8.212 -0.1556 -0.5186 -1.6270
 5816SOL    HW229082   0.686   3.027   8.303 -0.1657  0.3423 -0.0853
 5817SOL     OW29083   1.527   2.779   2.709  0.5084  0.0913 -0.7788
 5817SOL    HW129084   1.511   2.824   2.626 -2.0252 -1.2023 -0.9840
 5817SOL    HW229085   1.588   2.845   2.742  1.8326 -1.0291 -0.9936
 5818SOL     OW29086   0.414   2.678   3.994  0.2717  0.2481  0.4347
 5818SOL    HW129087   0.452   2.591   3.976  0.4958  0.1298  1.4795
 5818SOL    HW229088   0.444   2.699   4.082  1.3335  1.1018 -0.1363
 5819SOL     OW29089   0.147   4.064   0.932  0.1884 -0.2599 -0.7840
 5819SOL    HW129090   0.149   4.141   0.988 -1.0446 -0.4390 -0.5083
 5819SOL    HW229091   0.078   4.094   0.873  0.7223 -1.4266 -2.0201
 5820SOL     OW29092   0.858   1.368   4.762  0.2936  0.7743  0.1979
 5820SOL    HW129093   0.789   1.316   4.720 -0.1620  1.3146  0.2687
 5820SOL    HW229094   0.886   1.295   4.817 -1.3131  1.1503  1.5128
 5821SOL     OW29095   3.810   4.114   0.538  0.5933  0.1142  0.4118
 5821SOL    HW129096   3.861   4.046   0.493 -0.7471 -0.0019 -0.9146
 5821SOL    HW229097   3.880   4.177   0.556  3.3982 -2.5619 -0.9485
 5822SOL     OW29098   0.546   4.260   7.769  0.3135  0.2503 -0.0027
 5822SOL    HW129099   0.624   4.300   7.729  1.4593 -1.5048  0.4881
 5822SOL    HW229100   0.559   4.285   7.860 -0.1759  1.1146 -0.1631
 5823SOL     OW29101   3.784   4.592  13.845 -0.3550  0.4293 -0.2210
 5823SOL    HW129102   3.862   4.648  13.845  0.0563 -0.1450 -0.9502
 5823SOL    HW229103   3.727   4.645  13.900  0.6702  0.2229  1.0306
 5824SOL     OW29104   1.091   3.118   6.499  0.5207  0.1263 -0.9369
 5824SOL    HW129105   1.147   3.192   6.520 -0.3747  0.1305  1.4349
 5824SOL    HW229106   1.005   3.157   6.483  1.0738  1.7230 -0.0190
 5825SOL     OW29107   2.216   0.531  12.139 -0.3988 -0.2831  0.0692
 5825SOL    HW129108   2.254   0.444  12.140 -0.2313 -0.2002  1.3126
 5825SOL    HW229109   2.286   0.578  12.186  0.3531 -3.5298  2.1560
 5826SOL     OW29110   2.976   1.321   4.287  0.2212  0.0705  0.5389
 5826SOL    HW129111   2.925   1.316   4.206 -0.1967  1.1947  0.7237
 5826SOL    HW229112   3.038   1.250   4.272 -0.4942 -0.4093 -0.1412
 5827SOL     OW29113   1.734   0.841   1.532 -0.0015 -0.2835 -0.3846
 5827SOL    HW129114   1.754   0.748   1.527  3.8048  0.6188 -1.8372
 5827SOL    HW229115   1.663   0.836   1.468  0.4370 -2.5642 -0.6812
 5828SOL     OW29116   0.665   3.416   5.748  0.1880  0.1442 -0.3652
 5828SOL    HW129117   0.747   3.413   5.798 -0.8057 -0.3027  1.2534
 5828SOL    HW229118   0.619   3.356   5.806  1.2492  0.4004  0.7485
 5829SOL     OW29119   3.477   2.870  14.580 -0.0392  0.5871 -0.1425
 5829SOL    HW129120   3.543   2.840  14.643 -1.3431  0.7857  1.3086
 5829SOL    HW229121   3.415   2.898  14.647 -0.6881 -1.0715 -0.0509
 5830SOL     OW29122   4.308   3.682   2.776  0.0926 -0.1653  0.5406
 5830SOL    HW129123   4.285   3.661   2.866 -0.1086 -0.9624  0.3061
 5830SOL    HW229124   4.240   3.742   2.746 -0.2097 -0.5024  0.5560
 5831SOL     OW29125   1.292   3.290   2.259 -0.2305 -0.0031  0.1337
 5831SOL    HW129126   1.380   3.262   2.284 -0.2412 -0.4931 -0.3859
 5831SOL    HW229127   1.288   3.257   2.169 -0.2600 -0.6260  0.3594
 5832SOL     OW29128   3.601   3.254  16.021  0.6418 -0.5111 -0.0025
 5832SOL    HW129129   3.653   3.240  16.100 -1.2183 -2.5947  0.8565
 5832SOL    HW229130   3.515   3.255  16.064  0.9485  2.5055  0.5256
 5833SOL     OW29131   1.048   3.593   5.340  0.6027  0.2385 -0.4461
 5833SOL    HW129132   0.958   3.567   5.318  1.2708 -2.7518  0.2836
 5833SOL    HW229133   1.086   3.600   5.253 -0.2832  2.0861 -0.6705
 5834SOL     OW29134   1.856   2.735   4.927  0.1708  0.0444  0.0816
 5834SOL    HW129135   1.810   2.665   4.973 -1.3264  2.4275  2.2083
 5834SOL    HW229136   1.790   2.774   4.869  0.6102  0.9572  0.1945
 5835SOL     OW29137   0.983   0.951   3.321 -0.1807 -0.2641  0.2445
 5835SOL    HW129138   0.963   0.932   3.413  0.9112  0.2288  0.5818
 5835SOL    HW229139   0.962   0.870   3.275 -0.4043 -0.2051  0.2429
 5836SOL     OW29140   4.489   3.151   9.076  0.1370  0.2622 -0.4336
 5836SOL    HW129141   4.578   3.122   9.098  0.8288  0.7181 -2.6003
 5836SOL    HW229142   4.460   3.199   9.153 -1.8129  1.0757 -1.6734
 5837SOL     OW29143   3.371   3.729   2.249  0.3275 -0.6084 -0.1637
 5837SOL    HW129144   3.425   3.688   2.316  1.5974  0.5871 -0.4696
 5837SOL    HW229145   3.287   3.727   2.294 -0.0798  0.5580 -0.8847
 5838SOL     OW29146   4.641   1.901   8.047  0.4165 -0.6882  0.1470
 5838SOL    HW129147   4.691   1.822   8.066  1.5720  0.0317  0.1216
 5838SOL    HW229148   4.666   1.910   7.955  0.1943 -0.6871  0.0870
 5839SOL     OW29149   3.151   4.235   3.515  0.2767 -0.6192  0.0966
 5839SOL    HW129150   3.243   4.251   3.495  0.4672 -1.9534 -0.1083
 5839SOL    HW229151   3.154   4.166   3.582 -0.0003  0.5039  1.2448
 5840SOL     OW29152   1.357   4.042   7.180 -0.1860 -0.2482  0.4024
 5840SOL    HW129153   1.442   4.042   7.137 -0.3496  2.4077  0.0851
 5840SOL    HW229154   1.297   4.040   7.105  0.7926  0.7044 -0.4038
 5841SOL     OW29155   1.068   1.222  11.084 -0.2832  0.1599  0.3710
 5841SOL    HW129156   1.134   1.268  11.137  0.5099 -0.2930 -0.2168
 5841SOL    HW229157   1.109   1.231  10.998 -2.1020 -1.2954 -0.6357
 5842SOL     OW29158   4.487   3.177   2.460  0.1456  0.5687 -0.0071
 5842SOL    HW129159   4.427   3.103   2.451  0.8863 -0.2322  1.7613
 5842SOL    HW229160   4.417   3.243   2.463  0.6797  1.1154  0.3366
 5843SOL     OW29161   3.637   2.866  14.793  0.1468  0.8025  0.0266
 5843SOL    HW129162   3.683   2.786  14.817 -2.2767 -0.6342 -0.1581
 5843SOL    HW229163   3.599   2.890  14.878  0.8717  0.4821  0.4378
 5844SOL     OW29164   1.850   3.567   4.677 -0.3532 -0.4085 -0.7231
 5844SOL    HW129165   1.836   3.479   4.643 -0.6722 -0.6828  0.1294
 5844SOL    HW229166   1.841   3.612   4.593  1.9451  1.7204  0.1836
 5845SOL     OW29167   4.193   2.079   9.037  0.3086 -0.4030  0.1491
 5845SOL    HW129168   4.105   2.118   9.033  0.6694  0.2587 -1.5410
 5845SOL    HW229169   4.175   1.996   9.082  0.1772 -0.9700 -0.9427
 5846SOL     OW29170   2.308   2.120  12.572 -0.1157  0.1917 -0.0697
 5846SOL    HW129171   2.339   2.206  12.542  1.8812 -1.0019 -1.4284
 5846SOL    HW229172   2.391   2.074  12.582  0.7472  2.3238  2.9634
 5847SOL     OW29173   3.906   2.950   2.602 -0.0480 -0.0293 -0.2128
 5847SOL    HW129174   3.928   2.902   2.682 -1.0838  1.1824  0.8248
 5847SOL    HW229175   3.963   2.901   2.543 -1.1627 -1.5962  0.0228
 5848SOL     OW29176   0.481   1.979   5.462  0.2110 -0.0872  0.0326
 5848SOL    HW129177   0.531   1.946   5.387 -0.9157 -0.6343 -0.4686
 5848SOL    HW229178   0.507   1.929   5.540  0.9512 -0.0682 -0.2005
 5849SOL     OW29179   1.699   0.826   1.891 -0.2465 -0.0543 -0.8893
 5849SOL    HW129180   1.787   0.797   1.864  0.0524 -1.1839  1.3086
 5849SOL    HW229181   1.696   0.808   1.985  0.4616  0.1660 -0.8207
 5850SOL     OW29182   0.401   2.562  11.580 -0.2056  0.0292 -0.3057
 5850SOL    HW129183   0.409   2.595  11.670 -0.5913 -0.3522 -0.1303
 5850SOL    HW229184   0.471   2.497  11.578 -0.7069 -0.5713  1.4547
 5851SOL     OW29185   0.766   0.573   7.575 -0.6096 -0.0764  0.0261
 5851SOL    HW129186   0.742   0.481   7.575  0.9444 -0.4818  2.6806
 5851SOL    HW229187   0.806   0.581   7.662  1.1879 -0.1003 -0.7930
 5852SOL     OW29188   1.961   0.944   2.303  0.1878 -0.0636 -0.0870
 5852SOL    HW129189   1.914   0.985   2.231 -0.6514  0.0126  0.5057
 5852SOL    HW229190   1.937   1.000   2.377  0.6765 -0.0603  0.0685
 5853SOL     OW29191   1.302   2.128   5.531  0.5049 -0.3599 -0.1024
 5853SOL    HW129192   1.316   2.197   5.596 -1.7692 -0.4765  0.5245
 5853SOL    HW229193   1.241   2.085   5.592  1.5744 -1.8131 -0.0663
 5854SOL     OW29194   1.030   3.220   2.929 -0.1264 -0.0672 -0.1898
 5854SOL    HW129195   0.975   3.287   2.971  0.7500  0.6997 -0.2810
 5854SOL    HW229196   1.003   3.150   2.988 -1.3972  1.1365  0.6650
 5855SOL     OW29197   1.230   1.896   6.458  0.4363  0.4130 -0.4750
 5855SOL    HW129198   1.226   1.891   6.363 -0.0906  0.5117 -0.4596
 5855SOL    HW229199   1.137   1.911   6.476  0.3547 -4.1864  3.1098
 5856SOL     OW29200   4.417   2.708   8.868  0.1629 -0.0806 -0.0252
 5856SOL    HW129201   4.436   2.791   8.909 -1.5530 -0.3715  1.3693
 5856SOL    HW229202   4.496   2.653   8.868 -0.0595 -0.4061 -0.1416
 5857SOL     OW29203   2.787   0.685   3.346  0.4621 -0.6457 -0.2703
 5857SOL    HW129204   2.876   0.659   3.371  0.9666 -0.7187 -2.1230
 5857SOL    HW229205   2.763   0.741   3.420  4.7033  0.9981 -0.1148
 5858SOL     OW29206   1.193   0.713   2.577  0.3232  0.4491  0.2618
 5858SOL    HW129207   1.227   0.626   2.558 -3.1833 -0.9019  0.1923
 5858SOL    HW229208   1.201   0.760   2.494  1.3948 -0.2291 -0.0207
 5859SOL     OW29209   4.201   2.717  14.184  0.2235  0.2196  0.3636
 5859SOL    HW129210   4.246   2.743  14.264  0.3780 -0.0279  0.3581
 5859SOL    HW229211   4.109   2.718  14.212  0.6258 -0.9236  1.6647
 5860SOL     OW29212   2.512   3.183   4.561  0.3631  0.0244  0.3616
 5860SOL    HW129213   2.453   3.258   4.566  0.8331  0.4001  0.1720
 5860SOL    HW229214   2.484   3.121   4.629  0.4943  2.4575  2.5991
 5861SOL     OW29215   4.453   2.114   7.977 -0.1722 -0.0077  0.2093
 5861SOL    HW129216   4.534   2.079   7.941  0.4791  1.6315  0.0702
 5861SOL    HW229217   4.412   2.031   8.000 -0.4083 -0.2780 -1.1450
 5862SOL     OW29218   4.105   3.184  13.894  0.4933  0.5207 -0.2561
 5862SOL    HW129219   4.087   3.265  13.846  2.2595  0.2405 -1.3568
 5862SOL    HW229220   4.081   3.115  13.833 -1.6700 -1.4846  2.8271
 5863SOL     OW29221   4.713   4.350   7.827  0.3556 -0.2441 -0.2666
 5863SOL    HW129222   0.030   4.270   7.819 -0.8193 -1.0328 -0.1840
 5863SOL    HW229223   4.703   4.374   7.734  0.4705 -0.3300 -0.3008
 5864SOL     OW29224   0.637   0.062  17.261 -0.0531 -0.4558 -0.4338
 5864SOL    HW129225   0.643   0.154  17.233 -1.1627  0.3638  1.9905
 5864SOL    HW229226   0.635   0.084  17.354  1.0887  1.9748 -0.9725
 5865SOL     OW29227   2.184   0.852   3.371 -0.6109 -0.6177 -0.0906
 5865SOL    HW129228   2.106   0.797   3.383 -0.7132  0.1149  2.5737
 5865SOL    HW229229   2.158   0.908   3.298  0.1469 -2.4515 -1.7460
 5866SOL     OW29230   3.725   4.117   4.444 -0.4147  0.0808  0.1950
 5866SOL    HW129231   3.785   4.043   4.434  0.2398  0.7193 -0.5567
 5866SOL    HW229232   3.637   4.082   4.428 -1.0242  1.7925 -0.2458
 5867SOL     OW29233   1.640   0.173   6.416 -0.0613  0.6799  0.5621
 5867SOL    HW129234   1.627   0.093   6.365 -0.1433  1.6935 -1.0105
 5867SOL    HW229235   1.733   0.190   6.400  0.2654  0.1657  1.9271
 5868SOL     OW29236   3.248   0.502  16.569 -0.0911 -0.1222 -0.2553
 5868SOL    HW129237   3.164   0.530  16.607  0.8447  0.4777  1.3719
 5868SOL    HW229238   3.290   0.584  16.545  3.7604 -1.1845  2.8332
 5869SOL     OW29239   0.337   1.966   6.076 -0.3733 -0.4259  0.3596
 5869SOL    HW129240   0.292   2.045   6.106 -0.6700  0.3447 -2.0883
 5869SOL    HW229241   0.350   1.929   6.163  0.1010 -0.1595  0.4002
 5870SOL     OW29242   1.515   3.397   9.949  0.1905 -0.3598 -0.1560
 5870SOL    HW129243   1.437   3.446   9.922  0.2290  0.4700  1.2369
 5870SOL    HW229244   1.534   3.355   9.865 -0.9617  0.4477 -0.8379
 5871SOL     OW29245   0.543   1.883   5.017 -0.2942 -0.0089 -0.0153
 5871SOL    HW129246   0.505   1.942   4.952  0.1342 -0.7789 -0.9595
 5871SOL    HW229247   0.521   1.795   4.986  2.0956 -0.2867 -0.8947
 5872SOL     OW29248   2.996   2.878   3.707 -0.0784  0.0867  0.1337
 5872SOL    HW129249   3.036   2.960   3.736  0.6500  0.3601 -1.6127
 5872SOL    HW229250   3.060   2.850   3.641  1.6195  1.6403  1.1332
 5873SOL     OW29251   1.981   2.569   0.394 -0.2918 -0.3030 -0.0211
 5873SOL    HW129252   1.914   2.626   0.356 -0.5134 -0.8652 -0.4772
 5873SOL    HW229253   2.010   2.634   0.458  0.9544 -0.6061 -0.2789
 5874SOL     OW29254   3.919   1.358   3.699  0.2180  0.3610 -0.2691
 5874SOL    HW129255   3.958   1.294   3.640  2.4420 -0.1849  1.7995
 5874SOL    HW229256   3.863   1.407   3.639 -0.3606 -0.2290 -0.2013
 5875SOL     OW29257   3.286   0.410   2.428 -0.2774 -0.0956 -0.2750
 5875SOL    HW129258   3.344   0.336   2.443  0.1927 -0.3953 -3.4514
 5875SOL    HW229259   3.262   0.395   2.336  1.6737  0.1054 -0.8222
 5876SOL     OW29260   0.437   0.164   9.099  0.0928  0.1717 -0.2239
 5876SOL    HW129261   0.353   0.207   9.117  0.9046  1.0516  1.4910
 5876SOL    HW229262   0.468   0.231   9.037 -1.2136  0.6842 -0.3349
 5877SOL     OW29263   2.040   1.170   8.033  0.4053 -0.3717 -0.5175
 5877SOL    HW129264   2.100   1.141   8.102 -0.2834  0.9199  0.6412
 5877SOL    HW229265   1.957   1.186   8.078  0.4124 -0.8574 -0.3397
 5878SOL     OW29266   1.663   1.646  14.159 -0.0855  0.0333  0.1696
 5878SOL    HW129267   1.576   1.664  14.194  0.0314  2.5481 -0.8261
 5878SOL    HW229268   1.658   1.676  14.068  0.9582 -1.6501 -0.4515
 5879SOL     OW29269   1.155   1.128  16.940  0.2991 -0.1321 -0.2627
 5879SOL    HW129270   1.188   1.045  16.906  0.4717  0.2017 -0.9112
 5879SOL    HW229271   1.174   1.187  16.867 -0.6418 -0.8525 -1.0952
 5880SOL     OW29272   1.019   3.472   4.007  0.0312 -0.0056  0.1567
 5880SOL    HW129273   1.022   3.533   4.080  0.4997 -0.3892  0.4588
 5880SOL    HW229274   0.925   3.462   3.992  0.1562  1.1204 -1.3752
 5881SOL     OW29275   2.121   4.275   5.871  0.4240 -0.7330  0.6915
 5881SOL    HW129276   2.094   4.264   5.962  1.2179 -0.5049  0.9476
 5881SOL    HW229277   2.088   4.195   5.828  0.4252 -1.4618  2.0525
 5882SOL     OW29278   3.018   0.482   3.120  0.2533 -0.1769  0.1104
 5882SOL    HW129279   3.013   0.433   3.202  0.2121 -0.9252 -0.3465
 5882SOL    HW229280   3.103   0.523   3.139  0.1426 -0.2567  0.7717
 5883SOL     OW29281   4.449   0.988   6.922  0.5185  0.3097 -0.2830
 5883SOL    HW129282   4.419   0.960   7.009  1.9389 -0.5158 -0.0503
 5883SOL    HW229283   4.410   1.076   6.924 -1.0897 -0.4172  0.8940
 5884SOL     OW29284   3.283   1.906   1.065 -0.2795 -0.3899 -0.3606
 5884SOL    HW129285   3.268   1.982   1.008  2.1622  0.5080  0.1722
 5884SOL    HW229286   3.231   1.937   1.139 -1.0573  0.7351 -1.3734
 5885SOL     OW29287   0.716   0.377   1.647  0.3809  0.5731 -0.5809
 5885SOL    HW129288   0.789   0.425   1.684  0.0341 -1.2161  2.4895
 5885SOL    HW229289   0.649   0.445   1.654 -0.3770 -0.2151 -0.1960
 5886SOL     OW29290   1.013   0.777   4.215 -0.6220 -0.8048  0.2470
 5886SOL    HW129291   0.998   0.863   4.176  0.2214 -0.6933  0.1759
 5886SOL    HW229292   0.968   0.787   4.298  1.0689  1.9298  0.8139
 5887SOL     OW29293   2.478   2.836   0.975  0.4483 -0.1431  0.6604
 5887SOL    HW129294   2.422   2.909   1.001 -0.2237  0.2684 -1.9640
 5887SOL    HW229295   2.556   2.883   0.949 -0.0324  1.1719  1.5916
 5888SOL     OW29296   3.299   0.204   2.174  0.2661 -0.6474 -0.0527
 5888SOL    HW129297   3.315   0.149   2.097  2.1120  1.6352 -1.3099
 5888SOL    HW229298   3.291   0.289   2.130  2.6653 -0.4703 -0.1341
 5889SOL     OW29299   3.621   2.302   3.089 -1.0408 -0.3122 -0.1050
 5889SOL    HW129300   3.691   2.326   3.148 -0.4071  1.7518 -1.6920
 5889SOL    HW229301   3.639   2.358   3.013  0.1293  1.2810  1.3605
 5890SOL     OW29302   1.544   2.839   7.772  0.3234  0.3781  0.0059
 5890SOL    HW129303   1.624   2.891   7.766  1.5401 -1.2150  2.5773
 5890SOL    HW229304   1.542   2.820   7.866 -2.4644 -1.9964 -0.5197
 5891SOL     OW29305   4.663   3.684   5.222 -0.0969 -0.3492  0.1476
 5891SOL    HW129306   4.708   3.635   5.291  2.7287  0.3163 -1.2531
 5891SOL    HW229307   4.660   3.617   5.154  0.2539 -0.2959  0.0828
 5892SOL     OW29308   2.955   0.273   5.302  0.2460 -0.0276 -0.3747
 5892SOL    HW129309   3.024   0.318   5.253 -2.1282  1.7179 -2.1338
 5892SOL    HW229310   2.931   0.214   5.231 -0.5571 -1.5320  1.1495
 5893SOL     OW29311   2.588   1.655   0.090 -0.0858 -0.3625  0.5652
 5893SOL    HW129312   2.675   1.661   0.050 -0.4237 -0.8607 -0.2325
 5893SOL    HW229313   2.596   1.713   0.166 -0.2512 -3.3104  2.8586
 5894SOL     OW29314   4.108   1.941   2.664 -0.1670 -0.0960 -0.0135
 5894SOL    HW129315   4.104   2.017   2.606 -1.0762 -1.9205 -2.3356
 5894SOL    HW229316   4.113   1.875   2.595  0.0387  0.0079 -0.0969
 5895SOL     OW29317   2.097   4.549   6.077 -0.0676  0.1930  0.4975
 5895SOL    HW129318   2.004   4.565   6.087 -0.8954 -3.8517 -0.7280
 5895SOL    HW229319   2.108   4.590   5.992  0.1369 -1.5590 -0.3224
 5896SOL     OW29320   4.232   3.594   6.280 -0.1230  0.2937 -0.3617
 5896SOL    HW129321   4.166   3.554   6.223 -0.8877 -0.1410  0.8435
 5896SOL    HW229322   4.196   3.683   6.283 -0.7059  0.0868 -1.3422
 5897SOL     OW29323   1.563   2.817   5.698  0.1283 -0.0479 -0.8980
 5897SOL    HW129324   1.494   2.753   5.680  2.1708 -1.7923 -2.5412
 5897SOL    HW229325   1.624   2.767   5.752  1.1165  2.7391  0.5634
 5898SOL     OW29326   2.374   2.957   8.479 -0.2542 -0.3282 -0.1273
 5898SOL    HW129327   2.333   2.994   8.401  2.3888  0.8290 -0.9628
 5898SOL    HW229328   2.348   2.865   8.475 -0.1215 -0.4598  1.6556
 5899SOL     OW29329   4.626   1.151   3.778  0.0815  0.3021 -0.2676
 5899SOL    HW129330   4.599   1.091   3.708  0.1859  0.1234 -0.1554
 5899SOL    HW229331   4.719   1.160   3.760  0.4103 -0.5287  0.9943
 5900SOL     OW29332   2.377   0.223   3.269 -0.3114  0.6081 -0.1642
 5900SOL    HW129333   2.299   0.224   3.324 -1.3293  2.3549 -1.6531
 5900SOL    HW229334   2.335   0.232   3.183 -3.6256  0.4756  1.4319
 5901SOL     OW29335   0.040   4.345   3.500 -0.0763 -0.1264  0.0326
 5901SOL    HW129336   0.054   4.432   3.462  0.2462  0.1847  0.8731
 5901SOL    HW229337   0.084   4.293   3.433  1.1025 -0.5690  1.1532
 5902SOL     OW29338   2.571   3.531   8.064 -0.7341 -0.3896  0.2087
 5902SOL    HW129339   2.570   3.469   8.137 -2.3038 -1.1943 -0.5002
 5902SOL    HW229340   2.546   3.471   7.994 -0.4260  1.3846 -1.4211
 5903SOL     OW29341   2.400   3.744   6.511 -0.0540  0.3960 -0.1699
 5903SOL    HW129342   2.428   3.835   6.521  0.6935  0.1821 -0.3005
 5903SOL    HW229343   2.310   3.761   6.484 -1.3526 -0.2763  3.7538
 5904SOL     OW29344   3.567   0.337  14.684 -0.2585  0.4402  0.0688
 5904SOL    HW129345   3.643   0.391  14.661  0.7551  0.2968  2.9955
 5904SOL    HW229346   3.531   0.406  14.740 -1.7300 -0.9256  0.7912
 5905SOL     OW29347   4.521   1.139   8.006  0.2187  0.6842  0.0813
 5905SOL    HW129348   4.478   1.128   8.091 -2.5315  1.6310 -1.1895
 5905SOL    HW229349   4.523   1.045   7.986  0.8338  0.5072  0.9760
 5906SOL     OW29350   2.538   3.574   1.663  0.2204 -0.0888  0.1402
 5906SOL    HW129351   2.538   3.570   1.758 -1.5738 -2.8161  0.0264
 5906SOL    HW229352   2.469   3.508   1.651  2.1778 -1.8722 -1.4425
 5907SOL     OW29353   0.357   4.190  12.533  0.4520 -0.6179 -0.1680
 5907SOL    HW129354   0.338   4.150  12.618  0.6480  0.2978  0.3021
 5907SOL    HW229355   0.340   4.283  12.546  1.1582 -0.4322 -0.5695
 5908SOL     OW29356   0.833   0.983  13.095 -0.5104 -0.2075 -0.6354
 5908SOL    HW129357   0.917   0.964  13.052  0.8606  2.4721  0.9137
 5908SOL    HW229358   0.867   0.947  13.177  1.2915  0.1274 -1.2269
 5909SOL     OW29359   1.226   0.747  10.612  0.4178  0.4251 -0.3220
 5909SOL    HW129360   1.284   0.767  10.686 -1.6901 -0.7937  1.6810
 5909SOL    HW229361   1.289   0.739  10.540 -0.1406 -2.4710 -0.5104
 5910SOL     OW29362   0.440   2.246  13.928 -0.5477  0.0323  0.5330
 5910SOL    HW129363   0.356   2.237  13.972 -0.0847  0.0732  1.4202
 5910SOL    HW229364   0.502   2.219  13.996 -0.4423 -1.6892 -0.2426
 5911SOL     OW29365   2.818   1.963   8.291 -0.0551  0.5023  0.0572
 5911SOL    HW129366   2.727   1.978   8.265  0.5251  3.3876 -0.3470
 5911SOL    HW229367   2.834   2.035   8.352 -1.6156 -0.2017  1.2899
 5912SOL     OW29368   3.446   3.547   8.633  0.4110  0.2930 -0.4436
 5912SOL    HW129369   3.527   3.539   8.685 -0.8456 -2.7172  1.0482
 5912SOL    HW229370   3.480   3.530   8.545 -2.5461  1.3190 -1.7495
 5913SOL     OW29371   0.244   2.666   4.862  0.6978 -0.0862  0.4569
 5913SOL    HW129372   0.235   2.668   4.767  0.9882  0.3252  0.4400
 5913SOL    HW229373   0.153   2.685   4.885 -0.1697 -2.4259 -1.0733
 5914SOL     OW29374   4.017   3.895   6.828 -0.4431  0.1904  0.5399
 5914SOL    HW129375   3.945   3.832   6.832  0.3939 -0.7468  0.9966
 5914SOL    HW229376   3.980   3.980   6.804 -0.7545  0.0569  0.5462
 5915SOL     OW29377   4.184   3.908   7.366 -0.2692 -0.3217  0.3299
 5915SOL    HW129378   4.145   3.831   7.325  0.7712 -0.5116 -0.2902
 5915SOL    HW229379   4.250   3.857   7.413  0.7410 -1.8381 -2.7842
 5916SOL     OW29380   3.092   0.479   6.774 -0.3846  0.0434  0.0445
 5916SOL    HW129381   3.136   0.507   6.693  2.2398 -0.7923  1.1843
 5916SOL    HW229382   3.005   0.507   6.747  0.3133  2.0860 -0.0971
 5917SOL     OW29383   2.804   2.209  11.449 -0.8770  0.6996 -0.1844
 5917SOL    HW129384   2.826   2.264  11.524  1.2636  1.7948 -1.5924
 5917SOL    HW229385   2.840   2.125  11.476  0.9036  1.1853 -1.0837
 5918SOL     OW29386   0.608   2.847   3.504  0.3865 -0.5019 -0.4469
 5918SOL    HW129387   0.543   2.847   3.573 -3.0460 -1.1764 -3.6604
 5918SOL    HW229388   0.554   2.846   3.425 -1.9406 -0.3367  1.1499
 5919SOL     OW29389   4.020   4.084   5.025  0.0596  0.4270  0.0301
 5919SOL    HW129390   4.005   4.112   5.116 -2.6417 -1.2446  0.0763
 5919SOL    HW229391   4.071   4.004   5.038 -4.1172 -1.9136  1.8385
 5920SOL     OW29392   3.988   2.302   9.254  0.1268 -0.1117  0.1241
 5920SOL    HW129393   4.025   2.295   9.166  3.5185  0.7102  1.5049
 5920SOL    HW229394   3.976   2.209   9.272  2.9602 -0.4262  0.3416
 5921SOL     OW29395   3.538   1.500   6.213  0.0283 -0.3401  0.1000
 5921SOL    HW129396   3.578   1.506   6.300  2.0940  0.2527 -0.9011
 5921SOL    HW229397   3.618   1.487   6.162 -0.6110 -0.3900 -0.8822
 5922SOL     OW29398   3.456   3.358  13.067 -0.1746  0.3611  0.2354
 5922SOL    HW129399   3.442   3.292  13.135  1.7549 -1.9140 -1.5392
 5922SOL    HW229400   3.369   3.347  13.029 -0.5718  2.8234  0.4654
 5923SOL     OW29401   2.022   3.325   8.678  0.1940  0.1493  0.2621
 5923SOL    HW129402   1.949   3.276   8.639 -0.5676  1.6180 -0.1412
 5923SOL    HW229403   2.096   3.304   8.621 -0.2958  1.6477 -0.9302
 5924SOL     OW29404   0.675   0.943   5.218 -0.1335  0.7311 -0.6243
 5924SOL    HW129405   0.638   1.032   5.216 -1.1288  0.3635  1.2128
 5924SOL    HW229406   0.609   0.890   5.174 -0.4452  1.2065 -0.7322
 5925SOL     OW29407   3.536   0.301   2.937  0.2307 -0.5869  0.7741
 5925SOL    HW129408   3.529   0.379   2.992  2.6059 -0.4809  0.9221
 5925SOL    HW229409   3.504   0.332   2.851 -2.3562 -0.1191  1.8943
 5926SOL     OW29410   4.145   1.058   2.462  0.6305  0.1391  0.5375
 5926SOL    HW129411   4.191   1.023   2.538  2.8198  2.8423  0.4389
 5926SOL    HW229412   4.061   1.078   2.502  0.1726  0.4806 -0.5893
 5927SOL     OW29413   2.120   3.326  15.788  0.1278 -0.2299  0.6537
 5927SOL    HW129414   2.096   3.418  15.791 -1.0176 -0.5290  0.8243
 5927SOL    HW229415   2.143   3.312  15.879  1.4913  0.9594  0.4887
 5928SOL     OW29416   2.075   0.058   2.994 -0.0162  0.3724  0.0844
 5928SOL    HW129417   2.165   0.058   3.027 -0.5384  0.0957  1.5103
 5928SOL    HW229418   2.076   4.721   2.931  1.4012 -0.5515  1.1741
 5929SOL     OW29419   4.463   4.187   8.274  0.2730 -0.2408  0.0289
 5929SOL    HW129420   4.539   4.183   8.332  0.1240 -1.7437  0.1114
 5929SOL    HW229421   4.467   4.282   8.265 -5.2926 -0.0051 -0.1890
 5930SOL     OW29422   3.963   2.699  14.309  0.3946  0.5960  0.0638
 5930SOL    HW129423   3.916   2.782  14.301 -0.4493  0.0583 -0.5186
 5930SOL    HW229424   3.902   2.633  14.276 -1.9352  2.2375  1.1071
 5931SOL     OW29425   2.749   1.124  15.563 -0.0158 -0.3870  0.1192
 5931SOL    HW129426   2.665   1.150  15.600 -0.3746  2.2127 -2.5159
 5931SOL    HW229427   2.720   1.132  15.472 -1.4891 -0.6617  0.5735
 5932SOL     OW29428   1.446   2.742  14.908 -0.0024  0.3715 -0.2012
 5932SOL    HW129429   1.490   2.824  14.930 -0.3809  0.6123 -0.3453
 5932SOL    HW229430   1.353   2.761  14.921  0.5721  3.9058 -1.4670
 5933SOL     OW29431   1.476   0.566  12.460 -1.1629  0.4759 -0.3866
 5933SOL    HW129432   1.483   0.608  12.546  0.1716 -0.8772  0.1694
 5933SOL    HW229433   1.398   0.512  12.467 -0.3492 -0.5071  1.0558
 5934SOL     OW29434   3.965   1.183   6.811  0.3777 -0.1987  0.0291
 5934SOL    HW129435   4.049   1.159   6.771  0.3344 -0.8390  0.3319
 5934SOL    HW229436   3.909   1.112   6.779  0.9699  0.5520 -2.6956
 5935SOL     OW29437   1.635   0.111   4.636 -0.9801 -0.1811  0.0802
 5935SOL    HW129438   1.577   0.061   4.692 -2.0610 -1.6022 -2.3190
 5935SOL    HW229439   1.578   0.182   4.605 -2.7909 -2.0350 -0.8166
 5936SOL     OW29440   0.718   0.919  14.620  0.1970  0.4862  0.4323
 5936SOL    HW129441   0.703   0.957  14.533  1.4439 -1.9982 -0.8789
 5936SOL    HW229442   0.677   0.835  14.600  0.6110  0.4886 -0.4418
 5937SOL     OW29443   2.873   3.421   0.772  0.2118  0.0255 -1.1713
 5937SOL    HW129444   2.812   3.429   0.699 -1.7434 -1.1642  0.3131
 5937SOL    HW229445   2.951   3.403   0.720 -1.0095 -1.2790 -2.5494
 5938SOL     OW29446   2.178   4.640   9.808  0.0349 -0.1913  0.6678
 5938SOL    HW129447   2.210   4.577   9.743 -1.0145  1.0960 -1.0617
 5938SOL    HW229448   2.130   4.583   9.868 -0.0551  0.3742  1.1302
 5939SOL     OW29449   1.755   3.499  10.141  0.4849 -0.2151 -0.1897
 5939SOL    HW129450   1.676   3.501  10.196 -1.0645 -0.9836 -2.3677
 5939SOL    HW229451   1.734   3.437  10.071  1.4895 -1.5215  0.6550
 5940SOL     OW29452   3.133   0.982   7.082 -0.8572  0.1179 -0.3631
 5940SOL    HW129453   3.121   1.033   7.002  0.1975 -0.7734 -1.0980
 5940SOL    HW229454   3.228   0.970   7.085 -0.8583 -0.1447 -1.2486
 5941SOL     OW29455   1.888   0.050   6.227 -0.1717  0.7634 -0.3359
 5941SOL    HW129456   1.844   4.703   6.247 -0.6151  1.2998  0.9239
 5941SOL    HW229457   1.902   0.047   6.132 -1.1373  0.6584 -0.4748
 5942SOL     OW29458   2.202   3.529  14.623  0.8942  0.0986  0.7155
 5942SOL    HW129459   2.164   3.474  14.554  0.9631 -0.2639  0.9686
 5942SOL    HW229460   2.130   3.548  14.683  0.8224 -0.6669  0.8715
 5943SOL     OW29461   0.587   1.144   2.609 -0.5928 -0.0678  0.7772
 5943SOL    HW129462   0.623   1.082   2.672 -1.1710 -0.7301  0.4595
 5943SOL    HW229463   0.503   1.157   2.652 -1.8561  1.4097 -2.1285
 5944SOL     OW29464   1.976   2.920   9.116 -0.3568  0.5023  0.0362
 5944SOL    HW129465   2.011   3.005   9.087 -0.6192 -0.3498 -2.7475
 5944SOL    HW229466   2.034   2.853   9.079 -1.6961 -0.9309  0.5401
 5945SOL     OW29467   2.985   0.494   0.125 -0.6355 -0.3850 -0.6033
 5945SOL    HW129468   2.909   0.529   0.171 -0.3563 -0.5803  0.0063
 5945SOL    HW229469   3.021   0.430   0.186 -0.1374  1.7836  1.3942
 5946SOL     OW29470   0.385   4.017   3.108  0.2133 -0.4718 -0.1266
 5946SOL    HW129471   0.300   3.981   3.134 -0.4240 -0.3904 -2.1283
 5946SOL    HW229472   0.444   3.956   3.152  0.7695 -1.8511 -2.8437
 5947SOL     OW29473   0.818   0.779  12.240 -0.6946  0.8423 -0.0884
 5947SOL    HW129474   0.851   0.816  12.157 -2.5425  0.9410 -0.7685
 5947SOL    HW229475   0.819   0.684  12.233  1.3803  0.8066  0.7198
 5948SOL     OW29476   2.905   2.331  13.082  0.2706  0.4101 -0.1798
 5948SOL    HW129477   2.891   2.416  13.125 -0.9790  1.1143 -1.9644
 5948SOL    HW229478   2.997   2.308  13.095  0.2438  0.2820 -0.2192
 5949SOL     OW29479   4.387   0.265  10.950  0.1151 -0.5135 -0.5457
 5949SOL    HW129480   4.318   0.322  10.986 -0.6467 -2.0550  0.4500
 5949SOL    HW229481   4.423   0.222  11.028 -1.1759 -1.4388 -0.4464
 5950SOL     OW29482   2.910   1.909   6.096 -0.8043  0.5839  0.4347
 5950SOL    HW129483   2.834   1.854   6.115 -2.2097  1.5602 -2.4137
 5950SOL    HW229484   2.976   1.858   6.143  1.1834  2.9358  0.1997
 5951SOL     OW29485   2.526   1.939  12.505 -0.4360  0.0508  0.1234
 5951SOL    HW129486   2.580   1.905  12.576 -0.4494 -1.1756 -0.4551
 5951SOL    HW229487   2.483   1.862  12.469 -0.6658  0.5198 -0.6035
 5952SOL     OW29488   2.066   2.579   6.888  0.6159  0.2956  0.2680
 5952SOL    HW129489   2.038   2.659   6.843 -0.3680 -0.0660  0.2234
 5952SOL    HW229490   2.109   2.534   6.815 -1.2609 -0.8255 -0.1463
 5953SOL     OW29491   3.307   3.466   6.722 -0.2393  0.3450  0.1332
 5953SOL    HW129492   3.351   3.446   6.639  2.4301  1.5030  1.2614
 5953SOL    HW229493   3.217   3.483   6.693  0.1905  0.7688 -0.9609
 5954SOL     OW29494   4.308   2.736   1.293 -0.0550  0.3693  0.1274
 5954SOL    HW129495   4.376   2.802   1.280 -0.4888  0.6373 -0.7563
 5954SOL    HW229496   4.299   2.705   1.203 -0.8624 -1.5606  0.8898
 5955SOL     OW29497   4.630   2.426   1.233 -0.1012 -0.2419 -0.4219
 5955SOL    HW129498   4.669   2.513   1.240  0.4390 -0.6933  2.3300
 5955SOL    HW229499   4.595   2.418   1.322  0.3491 -0.4377 -0.2625
 5956SOL     OW29500   1.431   2.072   5.904 -0.2078 -0.6818  0.3522
 5956SOL    HW129501   1.515   2.046   5.864 -0.1173  0.8553 -0.4473
 5956SOL    HW229502   1.438   2.030   5.990  1.9133 -0.4310  0.3070
 5957SOL     OW29503   0.143   4.117   6.582  0.1580  0.5382  0.0238
 5957SOL    HW129504   0.143   4.053   6.654  0.1412  0.9978  0.4291
 5957SOL    HW229505   0.093   4.081   6.508 -1.3108  0.2930  1.1312
 5958SOL     OW29506   0.280   0.071   7.947  0.1153 -0.2484 -0.0907
 5958SOL    HW129507   0.279   0.157   7.905  1.6259 -0.1441  0.0880
 5958SOL    HW229508   0.370   0.064   7.978 -0.0002  0.6574  0.4324
 5959SOL     OW29509   4.480   3.075   4.083  0.0777  0.4502  0.1510
 5959SOL    HW129510   4.469   3.008   4.151  1.8130  0.5695  0.5525
 5959SOL    HW229511   4.392   3.091   4.049  0.1613 -1.1267 -0.8468
 5960SOL     OW29512   1.385   0.629   7.726  0.5736 -0.3677 -0.3819
 5960SOL    HW129513   1.469   0.584   7.739  1.4217  0.8173 -1.8295
 5960SOL    HW229514   1.323   0.558   7.742 -1.4294  1.8414  1.6300
 5961SOL     OW29515   2.192   1.757   8.751  0.6916  0.1647 -0.1954
 5961SOL    HW129516   2.253   1.761   8.677  0.2732 -2.9678 -0.7313
 5961SOL    HW229517   2.151   1.843   8.746  1.6583  0.6178 -0.3013
 5962SOL     OW29518   2.993   3.603   4.915 -0.3456 -0.0181  0.1845
 5962SOL    HW129519   3.061   3.670   4.906 -0.4827 -0.0928 -1.4258
 5962SOL    HW229520   2.967   3.586   4.824 -2.1857  2.3070  0.2922
 5963SOL     OW29521   1.152   1.283  15.498 -0.1484  0.3017  0.3656
 5963SOL    HW129522   1.199   1.222  15.440 -0.6776  1.5483 -1.3839
 5963SOL    HW229523   1.138   1.357  15.439  0.4966  0.7544  0.7773
 5964SOL     OW29524   4.070   1.276  14.244 -0.0996  0.1047  0.4022
 5964SOL    HW129525   4.047   1.233  14.162  1.0868  2.2019 -1.0349
 5964SOL    HW229526   4.153   1.319  14.223 -0.6114  2.4561  3.2153
 5965SOL     OW29527   2.067   2.700   7.894 -0.3202 -0.1319  0.2701
 5965SOL    HW129528   2.114   2.741   7.822 -3.1100  0.8435 -0.9851
 5965SOL    HW229529   2.134   2.651   7.942 -0.8468 -1.8352 -0.7408
 5966SOL     OW29530   3.992   0.385   9.465  0.2676  0.3011 -0.0837
 5966SOL    HW129531   4.056   0.335   9.514 -2.9520 -3.0413  0.6781
 5966SOL    HW229532   3.912   0.339   9.490 -0.2756 -0.6582 -3.4649
 5967SOL     OW29533   1.357   2.149   2.480  0.4852  0.3848  0.0747
 5967SOL    HW129534   1.373   2.132   2.573 -0.9376 -0.4740  0.1619
 5967SOL    HW229535   1.307   2.230   2.491 -0.7580 -0.1950 -1.3705
 5968SOL     OW29536   3.730   3.339   8.468 -0.0664 -0.2280  0.4304
 5968SOL    HW129537   3.792   3.391   8.417 -0.5930  0.2668  0.2936
 5968SOL    HW229538   3.710   3.407   8.533  0.1838  1.5403 -1.3402
 5969SOL     OW29539   4.167   3.919   7.815  0.0369  0.8763  0.1453
 5969SOL    HW129540   4.236   3.859   7.846 -0.4494 -0.6436 -1.7426
 5969SOL    HW229541   4.203   4.005   7.797  1.0911  0.7881  1.7981
 5970SOL     OW29542   0.892   4.477  17.428 -0.7362  0.2177 -0.4636
 5970SOL    HW129543   0.896   4.566  17.394  1.8122 -0.2677 -1.4219
 5970SOL    HW229544   0.986   4.468  17.445 -1.0893 -2.5273  0.0489
 5971SOL     OW29545   4.545   1.230   3.303  0.5811  0.1749 -0.2512
 5971SOL    HW129546   4.551   1.176   3.382 -2.8099  0.1053 -0.0625
 5971SOL    HW229547   4.552   1.317   3.344 -0.8677  0.5559 -0.8369
 5972SOL     OW29548   1.530   1.758   1.624  0.0890  0.0105 -0.1578
 5972SOL    HW129549   1.445   1.766   1.580 -0.9299 -3.0092  1.2482
 5972SOL    HW229550   1.534   1.838   1.675  0.1453 -0.1410  0.0725
 5973SOL     OW29551   2.909   3.532  12.918  0.2081  0.8140 -0.2365
 5973SOL    HW129552   2.870   3.445  12.916  1.9565  0.0134  0.7162
 5973SOL    HW229553   2.990   3.520  12.868 -0.9667 -1.0415 -1.6812
 5974SOL     OW29554   3.191   4.574  13.912 -0.3562 -0.2323 -0.7169
 5974SOL    HW129555   3.257   4.609  13.973 -2.7443  0.6682  1.3603
 5974SOL    HW229556   3.170   4.644  13.850 -0.0578  0.2713 -0.2492
 5975SOL     OW29557   0.207   1.244   3.502 -0.1211 -0.3198 -0.1958
 5975SOL    HW129558   0.192   1.210   3.414  0.3431  0.9653 -0.7717
 5975SOL    HW229559   0.162   1.329   3.493 -1.5115 -1.0748 -0.3538
 5976SOL     OW29560   0.103   3.894   6.821 -0.2575 -0.1816  0.9058
 5976SOL    HW129561   0.161   3.818   6.825  0.2234  0.0993 -0.4182
 5976SOL    HW229562   0.035   3.865   6.761  1.0214  0.3521 -0.8029
 5977SOL     OW29563   1.032   2.349   5.455  0.0940 -0.1026 -0.3976
 5977SOL    HW129564   0.982   2.270   5.439 -0.8172  0.3679  0.1506
 5977SOL    HW229565   0.999   2.388   5.374  0.2291 -3.8384 -2.2398
 5978SOL     OW29566   1.782   3.555   5.049  0.5992  0.4475  0.2185
 5978SOL    HW129567   1.741   3.518   4.972  1.9976 -1.0020  0.1719
 5978SOL    HW229568   1.701   3.587   5.090 -0.2508 -0.3020 -0.8950
 5979SOL     OW29569   3.956   4.145   7.105  0.3463  0.3590  0.2141
 5979SOL    HW129570   3.940   4.055   7.134 -0.5713  0.0848 -1.1343
 5979SOL    HW229571   4.029   4.126   7.046  2.2182  0.5612  2.4671
 5980SOL     OW29572   2.693   2.787   2.631  0.0953 -0.6960  0.2839
 5980SOL    HW129573   2.627   2.854   2.647  1.0603  0.4373 -0.3803
 5980SOL    HW229574   2.666   2.725   2.698  0.5510 -1.3921 -0.1666
 5981SOL     OW29575   1.533   0.517   0.699  0.2933  0.3360 -0.0062
 5981SOL    HW129576   1.605   0.493   0.641  0.2007  0.9061 -0.3559
 5981SOL    HW229577   1.584   0.551   0.773  0.7460  0.2208 -0.2658
 5982SOL     OW29578   3.392   1.159   2.033 -0.1715  0.1246 -0.0948
 5982SOL    HW129579   3.383   1.063   2.031  1.9552 -0.1606  2.5259
 5982SOL    HW229580   3.382   1.201   1.948 -1.2952  2.2290  1.0935
 5983SOL     OW29581   4.497   2.593   4.287 -0.1838 -0.5329  0.5120
 5983SOL    HW129582   4.552   2.661   4.248  0.8699 -0.9400  1.2679
 5983SOL    HW229583   4.454   2.554   4.211 -1.0978 -0.1647  0.8459
 5984SOL     OW29584   1.699   1.014   5.185  0.2359  0.0896  0.1623
 5984SOL    HW129585   1.658   1.057   5.110 -1.8880 -0.4459  1.0086
 5984SOL    HW229586   1.663   0.926   5.172 -1.2176  0.7177 -0.0409
 5985SOL     OW29587   2.649   3.482  15.136  0.3335  0.3330  0.1643
 5985SOL    HW129588   2.578   3.502  15.075 -0.4364  0.9108  1.2436
 5985SOL    HW229589   2.612   3.408  15.184 -1.6053  0.4500 -1.1285
 5986SOL     OW29590   0.125   2.815  15.533  0.6218  0.0401  0.3346
 5986SOL    HW129591   0.168   2.870  15.598  2.8073  1.5620 -2.3977
 5986SOL    HW229592   0.179   2.820  15.454 -2.3003  0.1890 -1.6668
 5987SOL     OW29593   3.542   0.505   2.133 -0.1944  0.0313 -0.1270
 5987SOL    HW129594   3.544   0.410   2.126  2.9514  0.2404 -1.7981
 5987SOL    HW229595   3.492   0.533   2.056 -0.1041 -1.4977 -0.7325
 5988SOL     OW29596   0.337   1.683   2.580 -0.0163 -0.3120  0.0397
 5988SOL    HW129597   0.340   1.776   2.603 -0.0650  0.1509 -1.8797
 5988SOL    HW229598   0.421   1.677   2.534 -0.2608  0.1885 -0.4641
 5989SOL     OW29599   3.676   0.127   8.531 -0.2799  0.1827 -0.1209
 5989SOL    HW129600   3.626   0.104   8.610  0.2985  0.7153  0.4048
 5989SOL    HW229601   3.749   0.176   8.570  0.4968  1.1622 -2.7987
 5990SOL     OW29602   0.415   4.294   1.092 -0.8807  0.8813  0.1160
 5990SOL    HW129603   0.418   4.319   1.184 -2.3499  3.7377 -0.6251
 5990SOL    HW229604   0.320   4.281   1.096 -0.9548  1.2407 -0.5186
 5991SOL     OW29605   2.675   4.128   4.916 -0.3195  0.3181  0.5676
 5991SOL    HW129606   2.645   4.037   4.919 -0.0315  0.1050 -2.9129
 5991SOL    HW229607   2.672   4.144   5.010  0.1290 -0.3610  0.6941
 5992SOL     OW29608   4.122   4.573   0.229 -0.5765 -0.2420 -0.5255
 5992SOL    HW129609   4.144   4.605   0.141  0.4427 -2.3937 -1.0495
 5992SOL    HW229610   4.027   4.566   0.236 -0.4509 -0.3263  0.9545
 5993SOL     OW29611   3.622   1.984   4.687 -0.2010 -0.4870  0.0572
 5993SOL    HW129612   3.593   2.020   4.603 -0.6178 -0.1724  0.3421
 5993SOL    HW229613   3.701   2.038   4.701  0.5174 -1.6424  0.4343
 5994SOL     OW29614   2.347   2.179   3.016  0.3262 -0.1255  0.1222
 5994SOL    HW129615   2.282   2.153   2.951 -1.0863  0.4014  1.3293
 5994SOL    HW229616   2.422   2.119   3.012 -1.3141 -1.9980 -2.6286
 5995SOL     OW29617   0.663   1.521   9.479 -0.6440 -0.5516  0.7503
 5995SOL    HW129618   0.610   1.593   9.445 -0.9230 -1.2685 -0.3653
 5995SOL    HW229619   0.681   1.480   9.394  2.2274 -0.9671  1.5449
 5996SOL     OW29620   0.087   3.984   7.366 -0.4124  0.5087 -0.2018
 5996SOL    HW129621   0.088   3.896   7.405 -1.2712  0.2671 -0.7127
 5996SOL    HW229622   0.087   3.966   7.272 -0.2435 -0.6028  0.0032
 5997SOL     OW29623   1.778   2.572   8.657  0.1517  0.4744  0.3601
 5997SOL    HW129624   1.776   2.498   8.718 -0.9314  0.0486 -0.1995
 5997SOL    HW229625   1.868   2.564   8.625 -0.3111 -0.4220 -0.7067
 5998SOL     OW29626   1.638   3.925   3.795 -0.4943 -0.6355  0.4695
 5998SOL    HW129627   1.716   3.897   3.747  0.2637  0.7747  0.8523
 5998SOL    HW229628   1.614   3.996   3.735 -1.2554 -0.5788  0.8501
 5999SOL     OW29629   0.341   2.266   6.513  0.1959 -0.1377  0.0428
 5999SOL    HW129630   0.377   2.354   6.530  0.9449 -0.8109  2.0060
 5999SOL    HW229631   0.412   2.217   6.554 -1.0864 -0.9133  1.3400
 6000SOL     OW29632   2.763   0.344  16.027  0.0861  0.0800  0.0061
 6000SOL    HW129633   2.736   0.262  15.988 -1.2858  0.7889 -0.5266
 6000SOL    HW229634   2.840   0.316  16.077 -0.6145 -2.9305 -0.6473
 6001SOL     OW29635   1.419   2.069   6.550  0.1322  0.1326 -0.1978
 6001SOL    HW129636   1.372   1.988   6.527  3.0006 -1.4799 -0.4654
 6001SOL    HW229637   1.395   2.081   6.641  2.4566 -0.1915  0.4559
 6002SOL     OW29638   4.326   2.734  10.615  0.4360  0.0976 -0.4166
 6002SOL    HW129639   4.408   2.698  10.580  0.0056 -2.7451  1.5081
 6002SOL    HW229640   4.323   2.813  10.560 -1.1718  0.3552  0.0455
 6003SOL     OW29641   3.386   1.190   1.093 -0.0509  0.2232 -0.5532
 6003SOL    HW129642   3.395   1.285   1.087 -1.6859  0.4831  0.9662
 6003SOL    HW229643   3.337   1.175   1.012  1.2529 -2.8430 -0.7877
 6004SOL     OW29644   2.734   3.017   5.879 -0.3304  0.1788  0.0833
 6004SOL    HW129645   2.810   2.965   5.904 -0.2613  0.7870  1.1807
 6004SOL    HW229646   2.765   3.107   5.892 -0.9054 -0.1693  3.7952
 6005SOL     OW29647   0.461   0.448   2.551  0.5323  0.0529  0.1864
 6005SOL    HW129648   0.374   0.458   2.589  0.2729  2.4038 -1.0108
 6005SOL    HW229649   0.454   0.354   2.535  1.6485  0.3932 -2.2832
 6006SOL     OW29650   0.553   1.711   2.228  0.4425 -0.4076  0.3708
 6006SOL    HW129651   0.501   1.748   2.158  0.2116  0.2742  0.9039
 6006SOL    HW229652   0.546   1.616   2.217 -3.5379  0.3195 -3.1582
 6007SOL     OW29653   0.177   3.229  16.372  0.0946  0.5272 -0.4932
 6007SOL    HW129654   0.173   3.134  16.378 -0.5244  0.5654 -0.3364
 6007SOL    HW229655   0.176   3.233  16.276  1.2575 -1.0133 -0.5594
 6008SOL     OW29656   1.323   1.453   4.203  0.0267  0.2937 -0.6791
 6008SOL    HW129657   1.331   1.535   4.251 -1.9310 -0.9721  1.7977
 6008SOL    HW229658   1.417   1.431   4.206  0.5229  2.4694 -0.3683
 6009SOL     OW29659   0.712   1.666   7.747  0.5479  0.1450 -0.3838
 6009SOL    HW129660   0.723   1.583   7.702  2.5037  0.4275 -0.4217
 6009SOL    HW229661   0.646   1.650   7.815  0.2992  0.4535 -0.5529
 6010SOL     OW29662   1.719   0.470   7.259  0.6466  0.2314  0.1249
 6010SOL    HW129663   1.676   0.555   7.250  0.7615  0.3684  0.8830
 6010SOL    HW229664   1.643   0.415   7.275  2.1125 -1.6348  0.6527
 6011SOL     OW29665   2.522   1.805   3.631 -0.1895 -0.1310  0.0530
 6011SOL    HW129666   2.493   1.716   3.650 -1.3379  0.3168  0.3390
 6011SOL    HW229667   2.446   1.856   3.656  0.5196  1.2942 -0.6981
 6012SOL     OW29668   0.174   2.759   9.018  0.2462 -0.0757 -0.2084
 6012SOL    HW129669   0.182   2.843   8.973  0.8027 -0.8662 -1.5552
 6012SOL    HW229670   0.178   2.698   8.945  1.8032  1.8109 -1.6982
 6013SOL     OW29671   1.067   1.502  10.184 -0.5450 -0.2401  0.2974
 6013SOL    HW129672   1.004   1.492  10.113 -0.3212 -2.4240  0.4189
 6013SOL    HW229673   1.128   1.431  10.165  1.3937  1.7651 -1.0226
 6014SOL     OW29674   0.879   3.167   6.740  0.3502 -0.1659 -0.4386
 6014SOL    HW129675   0.911   3.081   6.714  1.6749 -0.2127  1.2999
 6014SOL    HW229676   0.961   3.216   6.743  3.0652 -4.7245  0.1952
 6015SOL     OW29677   0.667   0.731  12.661  0.1369  0.1957 -0.3283
 6015SOL    HW129678   0.674   0.778  12.745 -1.1437  0.2209 -0.2356
 6015SOL    HW229679   0.684   0.802  12.599 -0.2684  1.0937  0.5734
 6016SOL     OW29680   0.812   1.214   9.144  0.0549 -0.0918 -0.5084
 6016SOL    HW129681   0.907   1.198   9.151  0.0107 -0.2029 -0.1609
 6016SOL    HW229682   0.778   1.131   9.177  0.5310 -0.3580 -0.6839
 6017SOL     OW29683   0.823   3.194   6.308 -0.3185  0.1635  0.3720
 6017SOL    HW129684   0.865   3.209   6.223  0.5897  1.8699  1.1340
 6017SOL    HW229685   0.808   3.099   6.302  2.0926 -0.0618 -1.8914
 6018SOL     OW29686   2.806   1.407   7.644 -0.3494  0.2956  0.4700
 6018SOL    HW129687   2.745   1.477   7.667 -1.3178  0.1226 -1.5774
 6018SOL    HW229688   2.851   1.393   7.727  0.8347 -0.5826 -0.3270
 6019SOL     OW29689   3.989   4.590  13.508  0.3459 -0.3205  0.5452
 6019SOL    HW129690   4.042   4.517  13.477  2.1095  1.2722 -0.2455
 6019SOL    HW229691   3.969   4.561  13.597 -1.0486  1.6536  0.8865
 6020SOL     OW29692   2.621   3.015   7.002  0.1803 -0.6811  0.1623
 6020SOL    HW129693   2.562   3.010   7.077 -2.2587 -2.2927 -1.8739
 6020SOL    HW229694   2.659   3.103   7.003  0.0884 -0.6505  0.8343
 6021SOL     OW29695   0.190   1.679   4.547 -0.4208  0.1724  0.5468
 6021SOL    HW129696   0.224   1.700   4.460 -0.2890  0.5590  0.6932
 6021SOL    HW229697   0.173   1.767   4.580 -0.9033 -0.3194  1.6249
 6022SOL     OW29698   1.507   3.203   6.455 -0.1741 -0.2672 -0.4474
 6022SOL    HW129699   1.514   3.118   6.498  0.3598  0.7990  1.5871
 6022SOL    HW229700   1.477   3.172   6.370  0.9100  1.2091 -1.3503
 6023SOL     OW29701   0.034   4.501   0.977  0.1665 -0.3280 -0.3958
 6023SOL    HW129702   0.066   4.567   0.916  0.4266 -1.7536 -1.7823
 6023SOL    HW229703   4.685   4.479   0.939  0.2720  0.2646 -0.9688
 6024SOL     OW29704   1.723   2.419   5.973  0.7628  0.0086 -0.6501
 6024SOL    HW129705   1.718   2.514   5.984 -0.2896  0.0461 -1.4773
 6024SOL    HW229706   1.802   2.402   5.922  1.3013  0.1677  0.1270
 6025SOL     OW29707   2.147   2.826  15.268  0.3123 -0.4816  0.1935
 6025SOL    HW129708   2.093   2.862  15.338  1.5502 -1.4938  1.6648
 6025SOL    HW229709   2.083   2.810  15.199  0.7280  1.1772 -0.5831
 6026SOL     OW29710   3.943   4.709   3.493 -0.5497  0.2318  0.1815
 6026SOL    HW129711   4.004   4.638   3.513  1.2814  1.5601 -0.6532
 6026SOL    HW229712   3.975   0.006   3.409 -2.8927 -0.7611 -1.1087
 6027SOL     OW29713   0.721   0.308   3.528 -0.0463  0.4142 -0.1109
 6027SOL    HW129714   0.634   0.284   3.559  0.2193 -2.1494 -1.3438
 6027SOL    HW229715   0.782   0.246   3.569 -0.7343 -0.7827 -0.9029
 6028SOL     OW29716   2.681   2.032   5.535 -0.4210 -0.8949  0.3312
 6028SOL    HW129717   2.701   2.080   5.615  1.9611 -0.6214 -0.4101
 6028SOL    HW229718   2.597   2.071   5.512 -0.5005 -1.1315  0.2219
 6029SOL     OW29719   3.242   1.109   8.913 -0.0291  0.1122  0.7183
 6029SOL    HW129720   3.217   1.153   8.994  0.5158 -1.2711  1.6326
 6029SOL    HW229721   3.164   1.128   8.860  1.0554 -1.0971 -1.3134
 6030SOL     OW29722   1.689   1.062   6.512 -0.3945  0.4874 -0.2373
 6030SOL    HW129723   1.671   1.118   6.588  0.2083  0.8272 -0.3420
 6030SOL    HW229724   1.602   1.030   6.490 -0.4049  0.0097  0.5248
 6031SOL     OW29725   4.108   0.406  10.020 -0.0162 -0.3848  0.3364
 6031SOL    HW129726   4.030   0.445   9.981 -0.5374 -0.3915  1.3636
 6031SOL    HW229727   4.097   0.433  10.111 -1.6813 -2.8031  0.8652
 6032SOL     OW29728   0.924   1.498   6.282  0.3850 -0.6209  0.0001
 6032SOL    HW129729   0.899   1.542   6.201 -0.5551  2.9196  2.2185
 6032SOL    HW229730   1.016   1.477   6.266  0.7742 -0.6885  2.2981
 6033SOL     OW29731   1.887   3.417   6.688  0.2871 -0.2425 -0.8140
 6033SOL    HW129732   1.877   3.360   6.612  2.4845 -0.2996 -1.0601
 6033SOL    HW229733   1.792   3.420   6.700  0.3934  0.5589 -0.1782
 6034SOL     OW29734   4.465   3.734  10.892 -0.6086  0.1314  0.4238
 6034SOL    HW129735   4.524   3.808  10.881 -0.2641 -0.3567 -1.0734
 6034SOL    HW229736   4.424   3.716  10.807  1.5926 -1.9507 -0.2185
 6035SOL     OW29737   3.197   3.257   3.183  0.2571  0.4307 -0.2314
 6035SOL    HW129738   3.155   3.172   3.166 -0.1509  0.6924 -0.5550
 6035SOL    HW229739   3.286   3.229   3.206 -0.5405 -1.2122  0.8473
 6036SOL     OW29740   3.552   3.779  14.221  0.0401  0.1277 -0.2893
 6036SOL    HW129741   3.573   3.699  14.172 -2.2258 -0.1860 -0.7457
 6036SOL    HW229742   3.563   3.751  14.312  0.6886 -2.8345 -1.2908
 6037SOL     OW29743   3.588   0.756   8.487  0.5669  0.2628  0.4709
 6037SOL    HW129744   3.626   0.750   8.400 -0.5369 -1.0446  0.0902
 6037SOL    HW229745   3.629   0.839   8.513  2.2188 -0.8793  1.4889
 6038SOL     OW29746   3.015   1.546   7.450 -0.1205  0.5450  0.3453
 6038SOL    HW129747   2.968   1.463   7.443 -1.5049  1.2982  0.6676
 6038SOL    HW229748   2.945   1.608   7.472 -0.1288  0.3565  0.8383
 6039SOL     OW29749   1.307   2.144   3.122 -0.3662  0.1675 -0.0844
 6039SOL    HW129750   1.365   2.168   3.194  1.4257  1.1266 -1.8527
 6039SOL    HW229751   1.280   2.057   3.151  0.3989  0.4103  1.3776
 6040SOL     OW29752   3.947   3.499   2.698  0.3437 -0.1340  0.0440
 6040SOL    HW129753   4.012   3.451   2.749 -1.0547 -0.9485  1.0286
 6040SOL    HW229754   3.921   3.578   2.745 -0.8191 -0.5528  0.1103
 6041SOL     OW29755   1.452   3.343  11.190 -0.3881 -0.1751 -0.4306
 6041SOL    HW129756   1.411   3.394  11.120 -0.9429 -0.9549 -0.6801
 6041SOL    HW229757   1.525   3.308  11.138 -0.7887  1.3819 -2.0366
 6042SOL     OW29758   0.555   1.673  15.734  0.3364  0.4670  0.2370
 6042SOL    HW129759   0.582   1.585  15.708 -0.3001 -0.4964  2.7754
 6042SOL    HW229760   0.476   1.672  15.787  1.1687  0.4626  1.4805
 6043SOL     OW29761   1.439   3.949  16.173  0.2765  0.1725 -0.6784
 6043SOL    HW129762   1.395   3.957  16.257 -1.4560  0.7508 -1.6394
 6043SOL    HW229763   1.373   3.897  16.126  0.2547  0.3907 -0.8869
 6044SOL     OW29764   3.084   2.157   4.016 -0.0389 -0.0270  0.2351
 6044SOL    HW129765   3.080   2.110   4.100  1.5814 -1.2517 -0.3891
 6044SOL    HW229766   3.071   2.082   3.958  2.0602 -0.0171 -0.2595
 6045SOL     OW29767   4.028   3.791   7.612  0.2349  0.0212 -0.2603
 6045SOL    HW129768   4.093   3.833   7.555  0.5609 -2.7163 -1.9217
 6045SOL    HW229769   4.052   3.836   7.693 -1.3473 -0.9159  0.7269
 6046SOL     OW29770   3.864   4.148   2.731 -0.0376  0.0041 -0.3949
 6046SOL    HW129771   3.779   4.174   2.768  0.0050  0.4079 -0.5759
 6046SOL    HW229772   3.847   4.057   2.708  1.7442  0.0659 -1.9833
 6047SOL     OW29773   3.880   3.933   7.278 -0.1590 -0.5690  0.1594
 6047SOL    HW129774   3.887   3.939   7.374  1.6531 -0.0101 -0.0153
 6047SOL    HW229775   3.944   3.864   7.262  0.5643  0.6663 -2.1245
 6048SOL     OW29776   0.663   3.592   3.520 -0.4870 -0.0759 -0.5023
 6048SOL    HW129777   0.580   3.546   3.506 -0.7903  0.7661 -1.5090
 6048SOL    HW229778   0.633   3.681   3.501 -1.4698 -0.3088 -0.0228
 6049SOL     OW29779   4.655   0.487   6.848  0.4822  0.3953 -0.0952
 6049SOL    HW129780   4.593   0.537   6.902  0.3050  1.3794 -1.1949
 6049SOL    HW229781   4.693   0.561   6.801  1.4669  1.1298  1.9055
 6050SOL     OW29782   4.587   0.430   1.032 -0.0142  0.0714  0.3485
 6050SOL    HW129783   4.514   0.486   1.006 -0.9794 -1.7202 -0.8246
 6050SOL    HW229784   4.569   0.426   1.126 -0.3936  1.6383  0.3437
 6051SOL     OW29785   2.690   1.188   5.319  0.3207 -0.0980 -0.4362
 6051SOL    HW129786   2.613   1.160   5.370 -1.1004  2.9860 -0.8842
 6051SOL    HW229787   2.763   1.156   5.372 -1.2527 -1.0378  1.1720
 6052SOL     OW29788   2.891   3.033   9.088  0.7698  0.1028 -0.5509
 6052SOL    HW129789   2.817   3.069   9.136  0.8160 -0.3141 -0.1646
 6052SOL    HW229790   2.848   2.984   9.018 -1.1510  0.3857  0.4292
 6053SOL     OW29791   1.440   0.714   3.722  0.2459 -0.2459  0.0080
 6053SOL    HW129792   1.532   0.692   3.706 -0.0609  0.1003 -2.2380
 6053SOL    HW229793   1.421   0.668   3.804 -1.5995 -2.8952 -1.9125
 6054SOL     OW29794   1.019   2.082   7.803  0.2570  1.0484  0.1657
 6054SOL    HW129795   0.987   2.004   7.848  1.3421  0.8866  0.6673
 6054SOL    HW229796   1.046   2.039   7.722 -0.7544  1.4431 -0.3796
 6055SOL     OW29797   0.490   3.751  12.201  0.4982 -0.3981  0.3440
 6055SOL    HW129798   0.536   3.805  12.137 -0.2488 -2.2772 -1.7796
 6055SOL    HW229799   0.473   3.818  12.267 -2.0854  0.8490 -1.5937
 6056SOL     OW29800   3.397   1.127   4.405 -0.2228 -0.4474 -0.1444
 6056SOL    HW129801   3.465   1.119   4.338  1.0330  0.8735  0.9578
 6056SOL    HW229802   3.445   1.125   4.488 -0.7922  2.6009  0.2799
 6057SOL     OW29803   1.310   3.149   2.533  0.5669 -0.0197 -0.2124
 6057SOL    HW129804   1.325   3.136   2.627  0.9995 -4.4412 -0.8839
 6057SOL    HW229805   1.366   3.083   2.492 -1.1584 -2.3718  1.1990
 6058SOL     OW29806   1.097   3.273   3.858 -0.0849  0.3378  0.2279
 6058SOL    HW129807   1.085   3.358   3.900 -1.8701  0.6456 -0.8931
 6058SOL    HW229808   1.181   3.291   3.814  1.1078 -1.5960  1.7084
 6059SOL     OW29809   3.521   2.091  10.221 -0.4954  0.8003 -0.3180
 6059SOL    HW129810   3.469   2.063  10.146  1.2463  2.8938 -2.3214
 6059SOL    HW229811   3.577   2.145  10.166  0.1534 -1.5972 -1.9820
 6060SOL     OW29812   4.701   3.336   0.794 -0.6669 -0.1232  0.2910
 6060SOL    HW129813   4.623   3.384   0.821 -1.8419 -0.8734 -1.7280
 6060SOL    HW229814   0.034   3.399   0.815 -1.8767  1.9538 -1.9498
 6061SOL     OW29815   2.565   1.719  11.859  0.2280  0.1445 -0.2915
 6061SOL    HW129816   2.641   1.745  11.807 -0.0722 -0.5334 -1.0574
 6061SOL    HW229817   2.600   1.713  11.948  2.9629 -0.7325 -1.4219
 6062SOL     OW29818   0.057   3.554   3.425  0.8928 -0.2728 -0.5076
 6062SOL    HW129819   0.071   3.462   3.404  1.5109 -0.1252 -0.7332
 6062SOL    HW229820   0.101   3.595   3.351 -0.7097 -1.6551 -2.2449
 6063SOL     OW29821   2.932   1.049  14.914  0.2742 -0.0908  0.2734
 6063SOL    HW129822   3.008   1.106  14.923  0.5918 -0.5174  0.2644
 6063SOL    HW229823   2.878   1.099  14.852  0.2664 -2.5742 -1.7305
 6064SOL     OW29824   1.481   1.244   2.749  0.0616  0.1350 -0.2642
 6064SOL    HW129825   1.444   1.291   2.673  1.5203  0.4459 -0.7867
 6064SOL    HW229826   1.541   1.188   2.700 -0.0744 -1.9691  2.0310
 6065SOL     OW29827   2.605   4.367  12.751  0.1281 -0.6834 -0.3963
 6065SOL    HW129828   2.562   4.401  12.829  0.5696  0.4831 -0.6579
 6065SOL    HW229829   2.698   4.370  12.774  0.1326  0.7378 -0.6041
 6066SOL     OW29830   3.390   4.088   9.022 -0.0244 -0.3282  0.3379
 6066SOL    HW129831   3.387   4.166   8.967  0.2888  1.0150  2.2387
 6066SOL    HW229832   3.315   4.047   8.979  1.3478 -1.3010 -1.1311
 6067SOL     OW29833   3.648   0.940  11.815  0.4611 -0.6207  0.9052
 6067SOL    HW129834   3.557   0.923  11.840 -0.8012  1.9721 -1.9301
 6067SOL    HW229835   3.692   0.955  11.899  0.7699  0.6718  0.5118
 6068SOL     OW29836   0.513   2.664   7.201  0.3740  0.1514  0.0941
 6068SOL    HW129837   0.495   2.716   7.280  0.4579  0.3209  0.0012
 6068SOL    HW229838   0.436   2.679   7.146  1.3339  1.3852 -0.9206
 6069SOL     OW29839   4.056   4.250   2.965 -0.0178 -0.6887 -0.1692
 6069SOL    HW129840   4.031   4.265   2.874 -0.7457 -0.7813  0.0137
 6069SOL    HW229841   4.128   4.194   2.939 -0.6700 -1.1011 -1.0797
 6070SOL     OW29842   3.656   1.440  16.740 -0.2224  0.3829 -0.6300
 6070SOL    HW129843   3.662   1.535  16.737  0.6755  0.3158 -0.9210
 6070SOL    HW229844   3.576   1.419  16.691 -0.0728  0.5299 -0.9298
 6071SOL     OW29845   0.427   1.284  16.059 -0.2421 -0.0277  0.3652
 6071SOL    HW129846   0.457   1.193  16.066 -0.7115 -0.0995  1.4171
 6071SOL    HW229847   0.344   1.275  16.106  0.2841 -0.1811  1.2655
 6072SOL     OW29848   1.075   2.325  17.584 -0.3474 -0.0201 -0.3675
 6072SOL    HW129849   1.119   2.377  17.517 -3.2549  2.2504 -0.4734
 6072SOL    HW229850   0.990   2.319  17.541  0.0588  0.9991 -1.3263
 6073SOL     OW29851   4.443   3.158   5.941 -0.0264 -0.2975 -0.2709
 6073SOL    HW129852   4.531   3.138   5.911  0.1496  1.2169 -0.7656
 6073SOL    HW229853   4.431   3.240   5.893 -0.6526  0.4859  1.2180
 6074SOL     OW29854   4.180   3.052  15.576  0.1226  0.9425 -0.2088
 6074SOL    HW129855   4.226   3.104  15.510  2.5328 -2.5995 -1.2859
 6074SOL    HW229856   4.132   2.990  15.522 -0.0642  0.2500  0.7409
 6075SOL     OW29857   0.375   0.547   4.888  0.1776  0.3904 -0.5181
 6075SOL    HW129858   0.470   0.546   4.879  0.2834 -0.2659  0.6559
 6075SOL    HW229859   0.369   0.576   4.978 -0.5534  1.5791 -0.9482
 6076SOL     OW29860   2.532   0.148  11.833  0.5196 -0.0689  0.4563
 6076SOL    HW129861   2.556   0.231  11.791 -2.4041  0.9232  0.7778
 6076SOL    HW229862   2.530   0.090  11.757 -0.1617  1.3789 -0.6154
 6077SOL     OW29863   2.568   1.987   6.161 -0.2152 -0.7093 -0.7796
 6077SOL    HW129864   2.492   1.932   6.181 -0.2746 -0.4130 -0.1703
 6077SOL    HW229865   2.634   1.929   6.198  0.4928  0.7574  0.2701
 6078SOL     OW29866   3.268   2.980  11.689 -0.3317  0.0469  0.5035
 6078SOL    HW129867   3.239   3.044  11.623  0.1571 -1.3364 -1.0561
 6078SOL    HW229868   3.219   3.004  11.767 -1.3725  1.7215 -0.6527
 6079SOL     OW29869   3.758   1.246  12.819  0.2220  0.3127  0.4800
 6079SOL    HW129870   3.837   1.195  12.837  0.8268  1.1248  0.1036
 6079SOL    HW229871   3.804   1.302  12.757  3.0279  0.6946  2.9551
 6080SOL     OW29872   4.491   4.204   7.183  0.1507  0.6771  1.0518
 6080SOL    HW129873   4.560   4.178   7.123 -1.2811 -2.7627  0.8706
 6080SOL    HW229874   4.444   4.270   7.132 -0.8168 -1.0708 -0.3355
 6081SOL     OW29875   4.423   0.283   5.503  0.1855  0.0256  0.0963
 6081SOL    HW129876   4.456   0.304   5.415  0.9983  0.0856  0.4169
 6081SOL    HW229877   4.446   0.367   5.543  2.6121 -0.9912  0.8338
 6082SOL     OW29878   0.892   0.205   5.733 -0.0815 -0.2310  0.2517
 6082SOL    HW129879   0.926   0.253   5.808  2.3889 -0.9451 -0.4204
 6082SOL    HW229880   0.893   0.119   5.775  1.7600 -0.3534 -0.0314
 6083SOL     OW29881   1.432   3.141   6.182  0.1899  0.0396 -0.3507
 6083SOL    HW129882   1.430   3.206   6.112 -2.3490 -0.6342 -0.8996
 6083SOL    HW229883   1.342   3.109   6.186  0.7239 -1.5202 -0.6251
 6084SOL     OW29884   2.872   3.761   3.628  0.0096  0.2126 -0.5280
 6084SOL    HW129885   2.883   3.856   3.629  0.2377  0.1625  2.5057
 6084SOL    HW229886   2.887   3.729   3.717  1.2452 -1.4715 -1.3183
 6085SOL     OW29887   0.968   1.673   4.076 -0.0373  0.1776  0.0530
 6085SOL    HW129888   0.950   1.694   3.984  0.1467 -0.7126 -0.1858
 6085SOL    HW229889   0.914   1.596   4.092 -1.7592  1.7962  1.9666
 6086SOL     OW29890   4.041   4.570  17.632 -0.7399 -0.4304 -0.4884
 6086SOL    HW129891   3.992   4.508  17.686  2.8933 -1.9167  1.0729
 6086SOL    HW229892   4.131   4.538  17.629 -0.3284  0.9195 -2.4773
 6087SOL     OW29893   3.250   0.531   5.466 -0.0629 -0.0405  0.0694
 6087SOL    HW129894   3.338   0.534   5.428 -0.4046  0.5528 -0.6540
 6087SOL    HW229895   3.291   0.534   5.553  3.2144 -2.5486 -1.3598
 6088SOL     OW29896   2.680   4.349   0.754  0.3553  0.3300  0.0392
 6088SOL    HW129897   2.767   4.389   0.746 -0.7046  2.4934 -0.7871
 6088SOL    HW229898   2.703   4.257   0.767 -1.3063 -0.1362 -0.2945
 6089SOL     OW29899   3.782   0.269   9.835 -0.2850  0.0469  0.3995
 6089SOL    HW129900   3.691   0.244   9.847  0.2768 -1.8525  0.8131
 6089SOL    HW229901   3.791   0.352   9.880  0.1299 -1.2859  2.7601
 6090SOL     OW29902   3.074   4.338  14.642 -0.4644  0.4915  0.1185
 6090SOL    HW129903   3.110   4.411  14.591 -0.6771 -1.6001 -3.0366
 6090SOL    HW229904   3.113   4.349  14.729  0.4173 -2.1716  0.0615
 6091SOL     OW29905   1.258   1.891  13.226 -0.0418  0.3822  0.1676
 6091SOL    HW129906   1.286   1.873  13.316  2.2058  0.5377 -0.5043
 6091SOL    HW229907   1.341   1.929  13.197 -0.7991 -0.5715 -3.2848
 6092SOL     OW29908   2.285   0.628   4.002 -0.0686 -0.0684  0.3743
 6092SOL    HW129909   2.275   0.719   3.976  0.5038 -0.1735 -0.2113
 6092SOL    HW229910   2.359   0.633   4.064  1.0323 -2.1308 -0.7790
 6093SOL     OW29911   3.328   0.332   7.657  0.6000  0.4281 -0.3897
 6093SOL    HW129912   3.285   0.300   7.578 -1.7324  0.0984  0.9956
 6093SOL    HW229913   3.367   0.252   7.692  2.2748  1.1355 -0.6619
 6094SOL     OW29914   3.352   4.196  13.087 -0.5432  0.0903  0.1320
 6094SOL    HW129915   3.291   4.123  13.080  0.1630 -0.4231 -0.6191
 6094SOL    HW229916   3.393   4.168  13.169 -2.9376  0.8597  1.6047
 6095SOL     OW29917   3.935   0.950   4.703  0.0511 -0.0098  0.2029
 6095SOL    HW129918   3.908   1.035   4.737 -0.1765  0.0864 -0.2256
 6095SOL    HW229919   3.971   0.914   4.784 -2.0280 -0.8787  0.7472
 6096SOL     OW29920   1.341   3.096   3.054  0.2708 -0.0879 -0.1041
 6096SOL    HW129921   1.377   3.185   3.048 -0.9220  0.5339  1.7515
 6096SOL    HW229922   1.288   3.095   3.134  0.7850  0.4836  0.2536
 6097SOL     OW29923   2.258   0.928   5.346 -0.1118 -0.3412 -1.0141
 6097SOL    HW129924   2.322   0.986   5.304 -1.4734  1.5148 -0.4958
 6097SOL    HW229925   2.176   0.977   5.348 -0.7487 -1.4983  1.3954
 6098SOL     OW29926   2.605   2.633   0.261  0.4191 -0.3201 -0.9995
 6098SOL    HW129927   2.590   2.692   0.188  1.3374 -0.2009 -1.0865
 6098SOL    HW229928   2.638   2.556   0.215 -0.1694 -1.6468  0.7919
 6099SOL     OW29929   0.430   2.582   6.852  0.1258  0.5405  0.1896
 6099SOL    HW129930   0.442   2.510   6.913  1.6475 -0.3768 -1.1958
 6099SOL    HW229931   0.519   2.616   6.853 -0.5149  2.2355 -0.4400
 6100SOL     OW29932   4.500   1.439   5.796  0.5094 -0.1838  0.2851
 6100SOL    HW129933   4.455   1.501   5.853  0.2476  0.0185 -0.1369
 6100SOL    HW229934   4.441   1.366   5.817 -0.0732  0.7740  1.9928
 6101SOL     OW29935   2.024   3.540   9.382 -0.5363 -0.3286  0.7916
 6101SOL    HW129936   2.042   3.457   9.424 -0.6276 -0.4881  0.5172
 6101SOL    HW229937   1.981   3.508   9.302 -0.1936  1.2644 -0.0402
 6102SOL     OW29938   2.113   2.403  12.067  0.1802 -0.0148 -0.8627
 6102SOL    HW129939   2.165   2.481  12.089  2.7548 -1.8833 -0.2866
 6102SOL    HW229940   2.096   2.364  12.153  0.5222 -0.3764 -0.9563
 6103SOL     OW29941   0.246   0.641   2.148 -0.1063 -0.4548 -0.2042
 6103SOL    HW129942   0.184   0.698   2.193  1.4290  0.2714  0.9945
 6103SOL    HW229943   0.300   0.703   2.099  1.2803 -1.4673  0.0259
 6104SOL     OW29944   2.766   1.449   3.310 -0.1377  0.2773 -0.2081
 6104SOL    HW129945   2.808   1.410   3.386 -0.8194 -0.9894 -0.4936
 6104SOL    HW229946   2.744   1.538   3.337  1.9397  0.5235  0.6905
 6105SOL     OW29947   4.564   2.069   6.305  0.4159  0.2253 -0.7123
 6105SOL    HW129948   4.598   2.154   6.277 -0.7033  0.4175 -1.5025
 6105SOL    HW229949   4.592   2.006   6.238  0.2158  0.4113 -0.9705
 6106SOL     OW29950   3.769   1.684   3.667 -0.4909 -0.1596  0.1494
 6106SOL    HW129951   3.743   1.600   3.629  0.7430 -0.5224  0.0844
 6106SOL    HW229952   3.823   1.713   3.594 -3.6841 -0.9707 -2.5429
 6107SOL     OW29953   2.522   4.134   4.086  0.1607 -0.0938 -0.0146
 6107SOL    HW129954   2.581   4.120   4.012 -1.4261 -0.1860 -1.2696
 6107SOL    HW229955   2.554   4.084   4.161  1.5261  1.4825  0.4622
 6108SOL     OW29956   0.008   2.346   9.119  0.4071 -0.5136  0.2092
 6108SOL    HW129957   0.101   2.324   9.108 -0.1872 -2.5719 -0.7336
 6108SOL    HW229958   4.707   2.266   9.081 -3.0636  1.3163 -0.1683
 6109SOL     OW29959   4.031   1.361   8.973  0.0204  0.1309  0.1790
 6109SOL    HW129960   4.073   1.317   8.899  1.0902  0.5722  0.5177
 6109SOL    HW229961   4.073   1.446   8.957 -1.0210  0.5247 -0.4348
 6110SOL     OW29962   1.347   3.574   6.765  0.0213  0.1572 -0.2793
 6110SOL    HW129963   1.386   3.637   6.705  1.3233  0.3705  0.7981
 6110SOL    HW229964   1.394   3.595   6.846  0.0169  1.2765 -0.5686
 6111SOL     OW29965   1.180   4.192   4.453  0.1724  0.4418 -0.3309
 6111SOL    HW129966   1.197   4.262   4.516  3.3481 -0.7710  0.1372
 6111SOL    HW229967   1.251   4.134   4.478 -0.2095 -0.3031 -0.9585
 6112SOL     OW29968   0.031   0.037   4.162 -0.3111 -0.1512  0.2460
 6112SOL    HW129969   0.105   4.735   4.211 -0.9645 -1.0265  0.5559
 6112SOL    HW229970   4.708   4.697   4.161 -0.7744  0.2294 -0.8757
 6113SOL     OW29971   3.795   2.059   4.363  0.0874  0.4149 -0.5509
 6113SOL    HW129972   3.834   1.995   4.423 -0.5876  1.1543  0.6602
 6113SOL    HW229973   3.793   2.016   4.277  1.0397  0.8347 -0.7798
 6114SOL     OW29974   1.442   0.291   4.501  0.5258  0.1886 -0.1528
 6114SOL    HW129975   1.358   0.246   4.508 -0.5124  2.5415  2.5960
 6114SOL    HW229976   1.470   0.253   4.418  0.8260 -1.2446  0.6181
 6115SOL     OW29977   2.494   2.176   7.092 -0.0212 -0.0783  0.3735
 6115SOL    HW129978   2.500   2.082   7.073 -0.1112 -0.4951  2.3269
 6115SOL    HW229979   2.583   2.199   7.068 -0.4222  1.0885  0.0070
 6116SOL     OW29980   0.461   0.818   5.806 -0.1571 -0.2379  0.1079
 6116SOL    HW129981   0.497   0.849   5.724 -1.4764 -1.4054 -0.9166
 6116SOL    HW229982   0.535   0.808   5.866  1.3238  1.7986 -1.4271
 6117SOL     OW29983   3.127   1.786   8.004  0.2034 -0.0951 -0.5443
 6117SOL    HW129984   3.169   1.734   8.072 -3.1806 -0.0663  1.6231
 6117SOL    HW229985   3.071   1.856   8.040 -0.6900 -0.7895 -0.5817
 6118SOL     OW29986   1.974   3.078   1.780  0.0981 -0.0878 -1.0136
 6118SOL    HW129987   2.025   3.122   1.712  0.3704  1.4470  0.1838
 6118SOL    HW229988   2.018   3.121   1.854  1.4565 -0.5164 -1.5810
 6119SOL     OW29989   1.388   0.607   6.790  0.2594  0.2047 -0.3164
 6119SOL    HW129990   1.473   0.627   6.830  0.1123 -0.2846  0.2335
 6119SOL    HW229991   1.403   0.515   6.769  0.6942  0.0438  0.7117
 6120SOL     OW29992   3.806   0.617  14.914  0.5009  0.3618 -0.3429
 6120SOL    HW129993   3.804   0.555  14.841  2.0861  1.8912 -1.6805
 6120SOL    HW229994   3.748   0.682  14.875  1.9774  1.8453 -0.0505
 6121SOL     OW29995   4.225   2.017  13.532 -0.0134 -0.0999  0.1881
 6121SOL    HW129996   4.207   2.001  13.625 -0.1789  0.3546  0.2344
 6121SOL    HW229997   4.321   2.013  13.525  0.0000 -0.7822  0.7009
 6122SOL     OW29998   4.058   0.915   7.617 -0.2002  0.5069  0.1115
 6122SOL    HW129999   4.056   1.010   7.622 -0.9310  0.6752 -2.9783
 6122SOL    HW230000   3.970   0.895   7.586  0.4620 -0.5734 -1.1016
 6123SOL     OW30001   1.445   2.117   3.342 -0.0337 -0.7480 -0.0938
 6123SOL    HW130002   1.428   2.171   3.419  0.0436  0.9828 -1.2986
 6123SOL    HW230003   1.535   2.147   3.329 -0.1399  1.3156  3.7997
 6124SOL     OW30004   4.691   0.272   6.643 -0.2102 -0.4669 -0.5846
 6124SOL    HW130005   4.659   0.329   6.714 -2.0587  0.3714 -2.1083
 6124SOL    HW230006   0.049   0.290   6.646  0.0179 -1.4314 -2.1153
 6125SOL     OW30007   2.003   2.314   3.591  0.0996 -0.0315  0.5262
 6125SOL    HW130008   2.038   2.276   3.511  3.7858 -1.9289  2.9763
 6125SOL    HW230009   2.080   2.316   3.649  0.3147 -1.6744  0.3183
 6126SOL     OW30010   0.297   1.980   7.871  0.8595 -0.6706  0.6407
 6126SOL    HW130011   0.311   2.074   7.855 -1.9013 -0.6879 -1.9621
 6126SOL    HW230012   0.305   1.968   7.965 -1.8009 -1.4736  0.7732
 6127SOL     OW30013   1.515   1.955  13.180 -0.5050 -0.3677  0.1425
 6127SOL    HW130014   1.558   2.038  13.160 -0.2693 -0.2058  1.3476
 6127SOL    HW230015   1.589   1.900  13.203 -0.4102  0.3778  1.5657
 6128SOL     OW30016   4.453   0.555   7.004  0.4670  0.0827 -0.2526
 6128SOL    HW130017   4.442   0.544   7.098 -0.6844 -0.6714 -0.4747
 6128SOL    HW230018   4.363   0.546   6.972  0.8444  0.7016 -1.4995
 6129SOL     OW30019   0.171   1.933  11.912 -0.5772 -0.3237  0.2661
 6129SOL    HW130020   0.143   1.891  11.831  1.6654 -0.8879 -0.2151
 6129SOL    HW230021   0.255   1.888  11.926 -0.3784  0.4908  1.7592
 6130SOL     OW30022   3.991   1.329   4.551  0.7567 -0.1306 -0.3057
 6130SOL    HW130023   4.042   1.401   4.587  1.0452 -0.4605 -0.0630
 6130SOL    HW230024   3.957   1.283   4.628  0.5173  1.2400  0.4072
 6131SOL     OW30025   4.142   2.298  13.029  0.0595  0.4561  0.3521
 6131SOL    HW130026   4.153   2.393  13.035  0.7684  0.5995 -2.8728
 6131SOL    HW230027   4.147   2.278  13.122 -0.2060  1.4226  0.5766
 6132SOL     OW30028   4.347   0.594   0.979 -0.2243 -0.1452  0.1668
 6132SOL    HW130029   4.287   0.539   1.029 -2.0082  2.2296  0.6383
 6132SOL    HW230030   4.291   0.669   0.958  2.6743  0.8517 -4.0592
 6133SOL     OW30031   3.093   4.645   0.610  0.3203  0.3378 -0.2765
 6133SOL    HW130032   3.093   4.588   0.687  1.9117  0.1606 -0.4008
 6133SOL    HW230033   3.055   4.728   0.641 -2.7228 -1.1106 -0.1659
 6134SOL     OW30034   0.353   1.179   7.199  1.0606 -0.2597  0.1510
 6134SOL    HW130035   0.371   1.252   7.140  1.2441 -0.3264  0.1274
 6134SOL    HW230036   0.323   1.217   7.282  1.1956 -2.9752  1.4549
 6135SOL     OW30037   0.264   1.709  11.008  0.3641 -0.1371  0.2830
 6135SOL    HW130038   0.234   1.647  10.941  2.9344  0.5229 -1.4688
 6135SOL    HW230039   0.356   1.684  10.999  0.0640 -1.6443  1.3870
 6136SOL     OW30040   2.357   2.256   9.632  0.8555 -0.6085 -0.2564
 6136SOL    HW130041   2.421   2.288   9.695  2.6300 -0.5355 -2.0837
 6136SOL    HW230042   2.371   2.163   9.650  2.7855 -0.2127  0.3070
 6137SOL     OW30043   3.211   4.194   5.649  0.4946 -0.5997 -0.1824
 6137SOL    HW130044   3.295   4.210   5.692 -0.0896  0.8861  0.4176
 6137SOL    HW230045   3.212   4.250   5.572  1.7029  0.0481  0.3205
 6138SOL     OW30046   4.528   3.558   1.977 -0.0228 -0.2161 -0.3949
 6138SOL    HW130047   4.505   3.635   2.030 -0.4797  0.2516 -1.2789
 6138SOL    HW230048   4.456   3.557   1.914 -1.2279  1.1531  0.9549
 6139SOL     OW30049   2.028   1.575   8.348 -0.1365 -0.1481  0.2329
 6139SOL    HW130050   2.061   1.491   8.378  1.2299 -0.0645 -1.0357
 6139SOL    HW230051   1.952   1.589   8.404  1.2080  0.8786  1.8082
 6140SOL     OW30052   1.924   1.879   5.894 -0.7353 -0.7727  0.3118
 6140SOL    HW130053   1.958   1.794   5.865  1.6626  0.7693 -1.4141
 6140SOL    HW230054   2.005   1.925   5.871 -0.2029 -2.1441 -0.5159
 6141SOL     OW30055   2.715   3.064   6.338  0.0549  0.1258 -0.2710
 6141SOL    HW130056   2.643   3.101   6.390  0.0812  0.5908 -0.5719
 6141SOL    HW230057   2.680   3.033   6.255 -0.6771  1.6271 -0.5169
 6142SOL     OW30058   0.856   1.775  16.140 -0.0021 -0.1400 -0.3603
 6142SOL    HW130059   0.763   1.767  16.118 -0.1169  1.0968 -0.3543
 6142SOL    HW230060   0.886   1.812  16.057  0.0803  0.4694 -0.0626
 6143SOL     OW30061   0.420   1.185   8.360 -0.2102 -0.3947  0.1947
 6143SOL    HW130062   0.374   1.266   8.385  2.1825  1.6590 -2.0567
 6143SOL    HW230063   0.490   1.177   8.424 -1.9990 -1.2253  2.0563
 6144SOL     OW30064   0.399   1.317   6.106 -0.1848 -0.2125  0.3503
 6144SOL    HW130065   0.379   1.223   6.104 -2.7572  0.3527  0.0500
 6144SOL    HW230066   0.364   1.353   6.188  0.3716 -0.2730  0.6148
 6145SOL     OW30067   2.046   1.821   8.063  0.2648  0.5477  0.1737
 6145SOL    HW130068   1.972   1.881   8.074 -3.4429 -4.1108  0.6616
 6145SOL    HW230069   2.060   1.825   7.968 -1.8601 -2.1370 -0.2835
 6146SOL     OW30070   0.503   2.838  17.503 -0.2534  0.4856  0.2578
 6146SOL    HW130071   0.451   2.766  17.470 -1.9832  1.7149  0.3286
 6146SOL    HW230072   0.526   2.791  17.584 -0.1298  1.6640  0.9112
 6147SOL     OW30073   0.707   3.589   6.105  0.4699  0.0811 -0.6457
 6147SOL    HW130074   0.758   3.653   6.154 -0.3530  0.1112  0.1851
 6147SOL    HW230075   0.626   3.635   6.082 -0.1960 -0.5272  0.4644
 6148SOL     OW30076   0.390   1.501   8.651  0.3059  0.3876  0.0050
 6148SOL    HW130077   0.318   1.493   8.713  0.3506 -1.6760 -0.2122
 6148SOL    HW230078   0.357   1.434   8.591 -2.1763  1.1682  0.4628
 6149SOL     OW30079   1.200   2.671   0.063 -0.1689 -0.3289  0.4627
 6149SOL    HW130080   1.147   2.740   0.022 -1.4393 -0.7934  1.3462
 6149SOL    HW230081   1.285   2.688   0.022 -0.5845 -3.6758 -1.7908
 6150SOL     OW30082   2.137   3.495   3.100 -0.3038  0.1931  0.4698
 6150SOL    HW130083   2.225   3.459   3.106  0.1768  1.0728 -1.4946
 6150SOL    HW230084   2.118   3.520   3.191 -1.3505  0.9234  0.0517
 6151SOL     OW30085   1.667   0.609   3.637  0.0064 -0.0269 -0.0365
 6151SOL    HW130086   1.648   0.623   3.544  0.7215 -0.9832 -0.3328
 6151SOL    HW230087   1.760   0.621   3.618 -0.3888  2.2116 -0.5634
 6152SOL     OW30088   3.905   0.192  15.893  0.2253  0.6551  0.4391
 6152SOL    HW130089   3.818   0.152  15.887 -0.8618  3.1167 -0.4758
 6152SOL    HW230090   3.900   0.242  15.811  1.3474 -0.8979 -0.5773
 6153SOL     OW30091   1.264   4.321   9.015 -0.0735 -0.0043 -0.5183
 6153SOL    HW130092   1.187   4.280   9.054  0.3667  0.2535  0.6092
 6153SOL    HW230093   1.262   4.410   9.049 -0.1189  0.0804 -0.7450
 6154SOL     OW30094   3.854   3.484   1.873  0.0132  0.3322 -0.1795
 6154SOL    HW130095   3.763   3.456   1.875  0.5703 -1.3717  1.4940
 6154SOL    HW230096   3.869   3.518   1.961 -1.9835  0.3578  0.1396
 6155SOL     OW30097   3.985   0.618   3.353 -0.0889  0.2437  0.5971
 6155SOL    HW130098   4.048   0.575   3.296  1.5058 -0.4452  2.8738
 6155SOL    HW230099   3.957   0.692   3.299  0.3791 -0.3084 -0.3941
 6156SOL     OW30100   1.892   2.564   3.273  0.4576 -0.5005 -0.0788
 6156SOL    HW130101   1.858   2.574   3.184 -1.0277 -1.4600  0.3777
 6156SOL    HW230102   1.811   2.587   3.318 -0.6642 -1.1145 -1.7694
 6157SOL     OW30103   3.171   0.488   8.888 -0.0303  0.4662 -0.2509
 6157SOL    HW130104   3.139   0.577   8.902 -0.9591  0.2573 -1.0222
 6157SOL    HW230105   3.186   0.483   8.793  0.7174 -2.2688 -0.0048
 6158SOL     OW30106   3.747   4.695  12.301  0.2153  0.1462 -0.3586
 6158SOL    HW130107   3.667   4.650  12.275 -0.0026  0.1221  0.3369
 6158SOL    HW230108   3.791   4.637  12.363  1.0640  1.0511 -0.1034
 6159SOL     OW30109   3.600   1.794   9.033 -0.7394 -0.0846 -0.7149
 6159SOL    HW130110   3.657   1.776   9.109 -1.9541  1.0067  0.4576
 6159SOL    HW230111   3.555   1.710   9.024 -0.2744 -0.5576  1.2163
 6160SOL     OW30112   2.474   3.545  14.917 -0.3876 -0.0526  0.6562
 6160SOL    HW130113   2.479   3.459  14.876  0.2436 -0.1333  0.9025
 6160SOL    HW230114   2.433   3.580  14.838 -1.7086 -5.0589 -0.8744
 6161SOL     OW30115   1.341   4.246  10.633 -0.4100 -0.4406  0.2498
 6161SOL    HW130116   1.282   4.288  10.571  0.8641 -0.0974 -0.7180
 6161SOL    HW230117   1.276   4.253  10.704 -0.8354 -0.6175 -0.1209
 6162SOL     OW30118   4.109   4.543   2.145 -0.5678 -0.5738  0.5449
 6162SOL    HW130119   4.097   4.622   2.198  1.5960  0.8220 -1.0343
 6162SOL    HW230120   4.023   4.550   2.105  0.2369  0.7139 -0.9691
 6163SOL     OW30121   0.605   4.555  17.186 -0.0169 -0.3112 -0.2728
 6163SOL    HW130122   0.612   4.511  17.271 -0.5032 -0.5382 -0.3493
 6163SOL    HW230123   0.615   4.646  17.215 -2.3237  0.1186 -0.7664
 6164SOL     OW30124   2.414   2.045   2.363  0.2014  0.3581 -0.0636
 6164SOL    HW130125   2.466   2.028   2.441  1.4445 -1.5914 -1.3129
 6164SOL    HW230126   2.467   2.110   2.318  1.4406 -1.1647 -0.8036
 6165SOL     OW30127   2.271   0.730   8.932 -0.2313  0.1262  0.4303
 6165SOL    HW130128   2.229   0.703   9.014  2.5421 -1.5467  1.2739
 6165SOL    HW230129   2.255   0.657   8.874 -0.9189 -0.7563  1.7327
 6166SOL     OW30130   2.541   1.840   4.248  0.0571 -0.1086  0.0327
 6166SOL    HW130131   2.607   1.849   4.318  0.5570 -1.4802 -0.2762
 6166SOL    HW230132   2.496   1.770   4.295 -2.2878  1.4981  0.2205
 6167SOL     OW30133   2.965   2.960  10.407  0.0224  0.0576 -0.1081
 6167SOL    HW130134   3.024   2.937  10.478 -0.2147 -0.4105 -0.0641
 6167SOL    HW230135   3.028   2.946  10.336  1.1022 -1.9821  1.2610
 6168SOL     OW30136   1.713   3.916   1.427 -0.0782  0.8146 -0.3852
 6168SOL    HW130137   1.788   3.975   1.432  1.9146 -1.7058 -0.5790
 6168SOL    HW230138   1.649   3.964   1.480 -0.6737 -0.4981  0.0684
 6169SOL     OW30139   1.766   1.053   3.074 -0.1178 -0.2898 -0.1292
 6169SOL    HW130140   1.708   1.084   3.144 -0.0788 -1.1755  0.2989
 6169SOL    HW230141   1.709   0.993   3.027  0.3136  1.0778 -2.3899
 6170SOL     OW30142   0.852   4.241   6.113 -0.3893 -0.5015  0.5625
 6170SOL    HW130143   0.927   4.204   6.067 -1.3975  0.7437 -2.0849
 6170SOL    HW230144   0.776   4.229   6.056 -0.4256  1.6854  0.1525
 6171SOL     OW30145   3.919   2.246   2.807  0.2420 -0.3733  0.8357
 6171SOL    HW130146   3.858   2.184   2.847  0.9933 -0.1249  2.3582
 6171SOL    HW230147   3.967   2.272   2.886  2.5154  1.4634 -1.1483
 6172SOL     OW30148   3.879   1.812   4.099 -0.0854 -0.4304 -0.4698
 6172SOL    HW130149   3.858   1.748   4.168 -1.0035  0.6791  0.2930
 6172SOL    HW230150   3.960   1.843   4.140 -0.6210 -0.7674  0.8728
 6173SOL     OW30151   0.069   2.644   2.791  0.1358  0.4213 -0.0566
 6173SOL    HW130152   0.054   2.626   2.884  2.8765  0.8457  0.4611
 6173SOL    HW230153   0.056   2.739   2.789  0.9106  0.4878 -1.8925
 6174SOL     OW30154   3.226   3.672   4.700  0.3653  0.8336 -0.4829
 6174SOL    HW130155   3.177   3.747   4.735  0.3576  0.8351 -0.4968
 6174SOL    HW230156   3.304   3.713   4.664  1.3645 -0.7936 -0.1814
 6175SOL     OW30157   1.640   3.794   4.542 -0.1795 -0.0091 -0.5590
 6175SOL    HW130158   1.562   3.772   4.491  0.2265 -2.3738 -0.1648
 6175SOL    HW230159   1.708   3.731   4.520  0.2374  0.8300 -1.6596
 6176SOL     OW30160   1.134   0.318   6.427  0.8216 -0.4841 -0.0005
 6176SOL    HW130161   1.084   0.324   6.509  0.5764  0.3688 -0.2054
 6176SOL    HW230162   1.062   0.319   6.364  1.1631 -3.7127 -0.4407
 6177SOL     OW30163   0.424   1.913   6.335 -0.1044  0.4661 -0.6865
 6177SOL    HW130164   0.501   1.958   6.372  0.5266  0.3498 -1.8556
 6177SOL    HW230165   0.356   1.924   6.401  1.0289  0.5928  0.4800
 6178SOL     OW30166   1.091   3.693   6.750  0.4204  0.3743  0.2013
 6178SOL    HW130167   1.180   3.676   6.720 -0.2512 -0.5834 -1.2697
 6178SOL    HW230168   1.082   3.636   6.826 -2.6287  0.6326  0.0542
 6179SOL     OW30169   2.773   1.382  15.041  0.2878  0.4518  0.3602
 6179SOL    HW130170   2.750   1.300  15.085  1.4195 -0.8104 -1.3936
 6179SOL    HW230171   2.811   1.439  15.108  0.4402  4.3841 -3.0574
 6180SOL     OW30172   0.882   1.455   2.402  0.1757  0.5413 -0.1096
 6180SOL    HW130173   0.796   1.418   2.381  0.0639  0.2917  0.7884
 6180SOL    HW230174   0.938   1.380   2.423 -0.3454 -0.2006 -1.3424
 6181SOL     OW30175   1.874   2.038  12.252 -0.0021 -0.4480 -0.1354
 6181SOL    HW130176   1.921   2.029  12.335 -0.5221 -0.5561  0.1459
 6181SOL    HW230177   1.876   1.947  12.223  0.8823 -0.2980 -0.5286
 6182SOL     OW30178   1.383   2.395   6.933  0.1497 -0.3285  0.5947
 6182SOL    HW130179   1.399   2.439   6.849 -2.4964 -0.4329  0.0275
 6182SOL    HW230180   1.438   2.449   6.990  0.8495  0.9947 -1.3235
 6183SOL     OW30181   0.108   2.989   5.310 -0.1644  0.2981  0.0900
 6183SOL    HW130182   0.151   2.961   5.229  2.4816  0.5103  1.4194
 6183SOL    HW230183   0.116   2.912   5.367 -0.4810  0.8198  0.8406
 6184SOL     OW30184   2.653   4.415   8.383  0.1539  0.3420 -0.1243
 6184SOL    HW130185   2.728   4.462   8.420  1.2143 -0.8950 -0.7172
 6184SOL    HW230186   2.697   4.389   8.302  0.9326  0.6992  0.1790
 6185SOL     OW30187   4.337   0.225   6.158  0.1062 -0.5874 -0.2359
 6185SOL    HW130188   4.275   0.286   6.118 -0.3110 -1.0697 -0.3186
 6185SOL    HW230189   4.272   0.155   6.163 -0.9156  0.4951  1.8854
 6186SOL     OW30190   2.386   3.135   6.169 -0.3388  0.2224  0.2593
 6186SOL    HW130191   2.316   3.070   6.175  0.9673 -1.2139 -0.0752
 6186SOL    HW230192   2.461   3.087   6.135 -0.3667 -0.5257  1.2758
 6187SOL     OW30193   3.106   1.636   1.974  0.2425 -0.3213 -0.6503
 6187SOL    HW130194   3.199   1.657   1.965  0.7374 -2.3511 -0.1974
 6187SOL    HW230195   3.079   1.696   1.905 -2.0148  0.4117  0.8781
 6188SOL     OW30196   2.334   1.101   2.813  0.6724 -0.2965 -0.0061
 6188SOL    HW130197   2.302   1.120   2.901  3.3568  2.7306  0.3110
 6188SOL    HW230198   2.430   1.097   2.817  0.7242  0.1284 -0.8649
 6189SOL     OW30199   3.757   1.450   3.456  0.0431 -0.2697 -0.6251
 6189SOL    HW130200   3.717   1.508   3.392 -0.3951  0.8564  0.6630
 6189SOL    HW230201   3.761   1.370   3.403 -1.3622  0.4599 -1.8356
 6190SOL     OW30202   2.170   3.456  15.063 -0.1124 -0.2432 -0.0917
 6190SOL    HW130203   2.197   3.415  14.981 -0.3445  1.0308 -0.7915
 6190SOL    HW230204   2.161   3.546  15.034  0.2842  0.2837  1.4102
 6191SOL     OW30205   0.268   0.973   6.779  0.1404 -0.5080  0.1673
 6191SOL    HW130206   0.220   0.910   6.726  0.1330  1.3139 -1.9556
 6191SOL    HW230207   0.201   1.000   6.842  1.3572 -0.5723  1.4950
 6192SOL     OW30208   0.319   3.059   6.617 -0.5824  0.3995  0.0475
 6192SOL    HW130209   0.414   3.062   6.629 -0.7240  0.1648  1.2191
 6192SOL    HW230210   0.287   3.089   6.702 -0.4171 -1.6929  0.8504
 6193SOL     OW30211   3.652   0.881   0.566  0.3651 -0.1760  0.9962
 6193SOL    HW130212   3.588   0.812   0.582 -2.0360  1.2988 -2.2570
 6193SOL    HW230213   3.604   0.946   0.514  0.9782  0.3463  1.0784
 6194SOL     OW30214   0.782   3.415  16.724 -0.0194 -0.0574  0.2379
 6194SOL    HW130215   0.815   3.414  16.634 -1.4482 -1.9703 -0.2736
 6194SOL    HW230216   0.781   3.509  16.740  1.3128 -0.3238  1.8286
 6195SOL     OW30217   2.625   2.609   2.804  0.2436  0.1280  0.3880
 6195SOL    HW130218   2.693   2.632   2.868 -0.0167 -0.7763  0.9866
 6195SOL    HW230219   2.557   2.563   2.854 -0.6092 -0.2268 -1.1025
 6196SOL     OW30220   0.403   3.300   1.390 -0.1497  0.4208  0.1742
 6196SOL    HW130221   0.382   3.386   1.426  0.3863  0.4841  0.3513
 6196SOL    HW230222   0.388   3.253   1.473 -2.3433 -2.2671 -1.7523
 6197SOL     OW30223   1.969   1.254   3.712 -0.2596 -0.1705  0.4581
 6197SOL    HW130224   1.886   1.217   3.682  0.9734 -2.9181  0.4074
 6197SOL    HW230225   1.990   1.325   3.651  2.0004 -1.1131  0.1502
 6198SOL     OW30226   1.327   3.053  11.121 -0.1912  0.1523 -0.0859
 6198SOL    HW130227   1.345   3.140  11.086  1.6030  1.2492  3.5237
 6198SOL    HW230228   1.239   3.075  11.153 -0.6335 -1.4649 -0.2094
 6199SOL     OW30229   3.416   2.935   5.064 -0.3141 -0.1803 -0.5666
 6199SOL    HW130230   3.348   2.987   5.106  0.3350  0.6509 -0.5418
 6199SOL    HW230231   3.434   2.867   5.129 -1.7035  0.4516  0.4747
 6200SOL     OW30232   2.338   2.353   7.571  0.6410 -0.1245 -0.2224
 6200SOL    HW130233   2.357   2.352   7.477  0.6818  0.9134 -0.2190
 6200SOL    HW230234   2.243   2.359   7.578  1.0543  1.0026  4.4687
 6201SOL     OW30235   3.124   3.808   1.453  0.5086 -0.2714  0.6322
 6201SOL    HW130236   3.181   3.731   1.441 -0.1658 -0.4371 -1.5479
 6201SOL    HW230237   3.068   3.802   1.376  0.6474  1.8189  0.3648
 6202SOL     OW30238   2.275   4.342   8.307  0.3482  0.2281 -0.6466
 6202SOL    HW130239   2.183   4.367   8.313  0.3100 -0.0200 -0.1699
 6202SOL    HW230240   2.320   4.391   8.376 -0.3766 -0.3375  0.2396
 6203SOL     OW30241   4.393   4.192  16.701 -0.2726 -0.1786 -0.4367
 6203SOL    HW130242   4.346   4.251  16.643 -1.0488 -1.4296 -1.0985
 6203SOL    HW230243   4.468   4.249  16.715  0.7160 -1.9198  1.3450
 6204SOL     OW30244   0.335   3.652  11.862 -0.1919  0.3603  0.3231
 6204SOL    HW130245   0.248   3.617  11.843 -0.2673  0.3599  0.6779
 6204SOL    HW230246   0.307   3.743  11.873 -2.2445 -0.1501 -0.6453
 6205SOL     OW30247   1.455   4.018   2.359 -0.0473 -0.5052 -0.1329
 6205SOL    HW130248   1.477   4.079   2.430 -0.1876  1.4521 -1.7594
 6205SOL    HW230249   1.530   4.027   2.300  0.5530  1.9840  1.0070
 6206SOL     OW30250   1.031   1.701   5.360  0.4425 -0.1825  0.5201
 6206SOL    HW130251   0.981   1.694   5.278  0.2014  0.5982  0.6021
 6206SOL    HW230252   0.992   1.780   5.398  1.2860  0.7900 -0.6478
 6207SOL     OW30253   4.702   4.007   2.457  0.2160 -0.1036  0.2817
 6207SOL    HW130254   0.041   4.036   2.406 -0.9557  0.1395 -1.3083
 6207SOL    HW230255   4.686   4.077   2.520  0.4303  0.8188 -0.7052
 6208SOL     OW30256   4.377   3.814   2.530  0.1850 -0.4818 -0.2098
 6208SOL    HW130257   4.302   3.827   2.588  1.2021 -0.9259  1.1977
 6208SOL    HW230258   4.450   3.817   2.591  0.6388  1.7061 -0.8639
 6209SOL     OW30259   3.917   1.215  10.562  0.1393  0.0018 -0.3944
 6209SOL    HW130260   3.955   1.127  10.558  0.6295  0.2123 -0.4707
 6209SOL    HW230261   3.972   1.256  10.628 -0.4768  0.9044 -0.4476
 6210SOL     OW30262   0.723   3.058   7.197  0.2012  0.3511 -0.0417
 6210SOL    HW130263   0.809   3.072   7.156  0.1273 -4.0451 -1.6717
 6210SOL    HW230264   0.711   2.977   7.148  0.1949  0.2204  0.1771
 6211SOL     OW30265   4.510   2.481  17.094  0.3490 -0.5736  0.0027
 6211SOL    HW130266   4.420   2.448  17.097  0.0330  0.3442  0.6034
 6211SOL    HW230267   4.529   2.455  17.004  0.8328 -1.4970  0.3690
 6212SOL     OW30268   3.128   0.147   8.627  0.3693 -0.4327 -0.0931
 6212SOL    HW130269   3.161   0.221   8.576 -0.8146 -0.3728 -0.7745
 6212SOL    HW230270   3.206   0.094   8.613 -0.3294 -1.7477  1.0017
 6213SOL     OW30271   0.011   1.278   5.772  0.1651  0.2758  1.0057
 6213SOL    HW130272   4.689   1.353   5.763 -0.4653 -0.2207  0.9986
 6213SOL    HW230273   4.702   1.235   5.845 -0.4764  1.0580  1.0672
 6214SOL     OW30274   2.756   3.777   1.484 -0.2426  0.0599  0.4688
 6214SOL    HW130275   2.801   3.695   1.467  2.0602  1.6385 -1.0169
 6214SOL    HW230276   2.826   3.842   1.494 -0.6023  0.3666  0.9839
 6215SOL     OW30277   2.810   3.048   7.980  0.0923  0.0838  0.8461
 6215SOL    HW130278   2.773   2.967   8.015 -1.0937 -0.5424 -1.8104
 6215SOL    HW230279   2.883   3.050   8.041 -0.3260 -1.1967  1.4018
 6216SOL     OW30280   0.313   1.195   5.107  0.1072  0.0110  0.0838
 6216SOL    HW130281   0.223   1.204   5.139 -0.3311  0.0969 -1.1712
 6216SOL    HW230282   0.297   1.198   5.012  2.7736  1.7991 -0.2835
 6217SOL     OW30283   2.709   1.025   4.618  0.9345 -0.0386 -0.7358
 6217SOL    HW130284   2.751   1.000   4.700 -1.9633  2.4991  1.5098
 6217SOL    HW230285   2.748   0.952   4.569  1.8644 -0.9553  1.3591
 6218SOL     OW30286   2.191   3.417   2.277 -0.4531 -0.1547 -0.1727
 6218SOL    HW130287   2.155   3.398   2.363  0.6173  1.9027  0.7470
 6218SOL    HW230288   2.149   3.502   2.268 -1.0742 -0.5064 -0.5735
 6219SOL     OW30289   2.903   1.080   3.035  0.5339  0.6757  0.0845
 6219SOL    HW130290   2.965   1.052   3.102  1.2544  0.0458 -0.8480
 6219SOL    HW230291   2.851   1.000   3.026  0.7617  0.8145 -2.5222
 6220SOL     OW30292   4.233   2.502   4.540  0.8875  0.3304  0.2873
 6220SOL    HW130293   4.320   2.542   4.542  1.2390 -0.4609  0.6142
 6220SOL    HW230294   4.241   2.451   4.621 -0.9709  0.1143  0.3349
 6221SOL     OW30295   4.544   0.654  10.873 -0.2017  0.0250  0.7488
 6221SOL    HW130296   4.508   0.585  10.819  0.5914  0.4760 -0.3478
 6221SOL    HW230297   4.491   0.658  10.953  0.5539  2.5803  1.1372
 6222SOL     OW30298   2.243   4.079   3.207  0.0073  0.4383  0.7213
 6222SOL    HW130299   2.325   4.128   3.206  0.5210 -0.4103  1.3348
 6222SOL    HW230300   2.232   4.047   3.118 -1.0340  0.8121  0.7100
 6223SOL     OW30301   4.116   0.533   6.311  0.3304  0.0165 -0.6013
 6223SOL    HW130302   4.148   0.456   6.358  1.7742  0.9160 -0.1150
 6223SOL    HW230303   4.186   0.547   6.246 -0.4734 -0.4356 -1.5598
 6224SOL     OW30304   3.556   0.782   0.093  0.0212 -0.2401 -0.1730
 6224SOL    HW130305   3.546   0.843   0.020 -1.7564 -0.5475 -0.1955
 6224SOL    HW230306   3.495   0.811   0.161  0.1063  2.6351 -1.3493
 6225SOL     OW30307   1.942   4.420  13.339  0.3798 -0.0153  0.1173
 6225SOL    HW130308   2.007   4.350  13.345 -0.3022 -0.6482 -0.0262
 6225SOL    HW230309   1.870   4.392  13.395  0.0389  1.1052  0.2412
 6226SOL     OW30310   3.410   4.204   4.136  0.0383 -0.0906 -0.4584
 6226SOL    HW130311   3.441   4.173   4.051 -1.9015 -1.8678 -0.5172
 6226SOL    HW230312   3.346   4.267   4.103  0.0481 -1.4942 -3.1776
 6227SOL     OW30313   0.535   1.750   6.921 -0.1341  0.6585 -0.2976
 6227SOL    HW130314   0.463   1.741   6.983 -0.6839  3.9469 -0.4180
 6227SOL    HW230315   0.574   1.827   6.963 -0.1068  1.0077 -0.9691
 6228SOL     OW30316   0.190   2.808   1.502 -0.3568 -0.6375  0.2570
 6228SOL    HW130317   0.192   2.758   1.584  1.9536 -0.0834  0.5280
 6228SOL    HW230318   0.285   2.816   1.490 -0.4466  0.3438  0.2043
 6229SOL     OW30319   2.837   0.582   6.725 -0.2102  0.1221  0.5859
 6229SOL    HW130320   2.779   0.554   6.654  0.2723 -1.5261  0.8258
 6229SOL    HW230321   2.777   0.604   6.796  0.8350 -0.2456  1.5919
 6230SOL     OW30322   3.497   1.200   1.341  0.0582  0.2325  0.2388
 6230SOL    HW130323   3.575   1.146   1.331  0.1373  0.3082  0.4551
 6230SOL    HW230324   3.457   1.188   1.254  0.0860 -1.9924  0.5370
 6231SOL     OW30325   3.252   0.152   5.589 -0.5615 -0.0244 -0.3171
 6231SOL    HW130326   3.294   0.095   5.653 -1.2218  0.8693  0.9291
 6231SOL    HW230327   3.304   0.231   5.602 -1.2416  0.1956  1.0855
 6232SOL     OW30328   3.952   0.619   7.956  0.1666  0.0396  0.3539
 6232SOL    HW130329   3.889   0.552   7.930 -1.8221  1.1974  2.1670
 6232SOL    HW230330   3.946   0.677   7.880  0.9716 -0.0591  0.2132
 6233SOL     OW30331   2.650   2.888   8.208 -0.4783 -0.4982  0.1147
 6233SOL    HW130332   2.568   2.838   8.216  0.5406 -1.9929  1.1866
 6233SOL    HW230333   2.696   2.833   8.144  1.8442  2.7111 -0.9338
 6234SOL     OW30334   4.452   2.146   6.854 -0.4194 -0.3887  0.3317
 6234SOL    HW130335   4.371   2.094   6.859  0.3779 -1.4293  2.5155
 6234SOL    HW230336   4.432   2.205   6.927 -0.5654  0.2298 -0.2139
 6235SOL     OW30337   1.156   1.261   6.832  0.3485 -0.3271 -0.2659
 6235SOL    HW130338   1.144   1.309   6.750  2.3876  2.8598  1.3255
 6235SOL    HW230339   1.246   1.234   6.816  0.5601  0.1621  0.1028
 6236SOL     OW30340   3.205   3.565   1.004  0.3916  0.2985 -0.4218
 6236SOL    HW130341   3.203   3.648   1.051  0.3211 -0.3890  0.7746
 6236SOL    HW230342   3.282   3.527   1.046 -1.6357 -3.1552  0.1770
 6237SOL     OW30343   2.984   0.576   9.505 -0.0594 -0.4980 -1.0989
 6237SOL    HW130344   3.045   0.645   9.476 -1.2441  0.6808 -0.7521
 6237SOL    HW230345   3.030   0.545   9.583  0.5331 -0.5889 -1.4807
 6238SOL     OW30346   0.198   4.733   5.731 -0.4243 -0.0085  0.1745
 6238SOL    HW130347   0.217   0.090   5.724 -5.1523  1.0153  0.8984
 6238SOL    HW230348   0.224   4.700   5.645  0.1762 -1.1355  0.7889
 6239SOL     OW30349   4.721   3.456   3.790 -0.2122  0.1393 -0.2739
 6239SOL    HW130350   0.006   3.487   3.878  1.4235 -0.7308 -0.3561
 6239SOL    HW230351   4.637   3.411   3.800  0.7679 -2.1782 -2.4356
 6240SOL     OW30352   0.576   1.041   9.784  0.1397  0.6774 -0.5355
 6240SOL    HW130353   0.519   1.031   9.708 -2.7279 -4.2154  2.2461
 6240SOL    HW230354   0.544   0.970   9.839  1.3035  0.2337 -0.4229
 6241SOL     OW30355   0.152   2.002   1.645  0.3349 -0.4074 -0.0865
 6241SOL    HW130356   0.205   2.034   1.718 -2.2042  0.8616  1.2354
 6241SOL    HW230357   0.179   1.911   1.642  0.2111 -0.3617 -2.4528
 6242SOL     OW30358   1.861   4.453   7.454  0.0243  0.4486  0.3624
 6242SOL    HW130359   1.931   4.406   7.409 -0.3037 -0.1642  0.4899
 6242SOL    HW230360   1.878   4.540   7.419 -3.2975  2.2381  3.2049
 6243SOL     OW30361   0.082   2.948   7.903 -0.3866  0.3509  0.0513
 6243SOL    HW130362   0.094   2.875   7.843  0.3946  0.3558  0.1955
 6243SOL    HW230363   0.130   3.008   7.846 -1.5355  0.7364 -0.4973
 6244SOL     OW30364   0.288   0.144  10.220 -0.4612  0.2651 -0.5073
 6244SOL    HW130365   0.215   0.205  10.208 -0.5792  0.5183  1.5408
 6244SOL    HW230366   0.243   0.063  10.242  3.0878 -1.0436  1.8595
 6245SOL     OW30367   2.467   3.206   1.015 -0.1680 -0.3461  0.1524
 6245SOL    HW130368   2.558   3.177   1.024 -0.1288  0.9744  4.0588
 6245SOL    HW230369   2.417   3.125   1.016 -0.5972 -0.1348 -2.2789
 6246SOL     OW30370   0.901   3.546   7.658 -0.6852 -0.4872  0.2582
 6246SOL    HW130371   0.942   3.586   7.582 -1.0358  0.4071  0.5345
 6246SOL    HW230372   0.873   3.623   7.707  0.5658 -0.3225  0.7053
 6247SOL     OW30373   4.466   0.354   4.454  0.1574  0.1642  0.1102
 6247SOL    HW130374   4.556   0.322   4.457 -0.2100 -0.9177 -0.5336
 6247SOL    HW230375   4.466   0.420   4.524 -1.9676 -0.6809  0.8984
 6248SOL     OW30376   2.529   4.309   2.063 -0.1166 -0.2634  0.4052
 6248SOL    HW130377   2.470   4.317   2.138  1.2749  0.1094  1.4590
 6248SOL    HW230378   2.575   4.393   2.065  0.4274 -0.5821  1.3298
 6249SOL     OW30379   4.626   0.525   4.119 -0.2450  0.2561 -0.4396
 6249SOL    HW130380   4.609   0.618   4.103  1.7753  0.1236 -3.2590
 6249SOL    HW230381   4.549   0.489   4.076 -0.7204 -0.7782  1.2674
 6250SOL     OW30382   0.696   0.983   2.347  0.0419  0.2459 -0.7887
 6250SOL    HW130383   0.609   1.006   2.379  0.7667  1.0621  0.6146
 6250SOL    HW230384   0.661   0.930   2.276 -1.4970  0.6061 -0.2983
 6251SOL     OW30385   3.951   0.071   9.782  0.4637 -0.0288  0.8789
 6251SOL    HW130386   3.876   0.130   9.792 -0.4986 -1.1730  0.4106
 6251SOL    HW230387   3.923   0.016   9.709  0.2105 -0.1352  1.0542
 6252SOL     OW30388   2.837   4.199   1.771  0.4407  0.8062 -0.1219
 6252SOL    HW130389   2.826   4.189   1.866  2.8675 -1.0489 -0.0299
 6252SOL    HW230390   2.753   4.162   1.745  0.4875  0.9086 -0.4193
 6253SOL     OW30391   0.891   1.028   5.741 -0.5836  0.0395  0.1748
 6253SOL    HW130392   0.939   1.060   5.817 -2.9415  1.4055  1.1079
 6253SOL    HW230393   0.854   0.947   5.774  2.3996 -1.5096 -0.2614
 6254SOL     OW30394   2.417   0.041   9.568  0.8090 -0.4199  0.0213
 6254SOL    HW130395   2.392   4.685   9.578  3.5828 -1.1275  0.7327
 6254SOL    HW230396   2.500   0.038   9.520  2.1197  0.6014  2.2261
 6255SOL     OW30397   3.641   3.031   4.961  0.8209 -0.3508 -0.5986
 6255SOL    HW130398   3.718   2.976   4.972  0.3335 -1.1348 -1.0752
 6255SOL    HW230399   3.566   2.975   4.982 -1.1867  1.3243 -3.2472
 6256SOL     OW30400   1.750   2.258   3.327  0.1516 -0.4925  0.7293
 6256SOL    HW130401   1.820   2.254   3.393  1.3015  1.3723 -0.3684
 6256SOL    HW230402   1.794   2.221   3.250 -1.0631 -1.9039  0.7034
 6257SOL     OW30403   3.166   2.911  10.639 -0.0458  0.4518  0.2948
 6257SOL    HW130404   3.233   2.932  10.705  1.9725 -2.5685 -0.8163
 6257SOL    HW230405   3.108   2.855  10.689  0.0960  0.2351  0.2154
 6258SOL     OW30406   1.956   0.413  17.586 -0.3851  0.3299  0.1950
 6258SOL    HW130407   1.978   0.334  17.538  1.2004  0.4702  0.6697
 6258SOL    HW230408   1.921   0.466  17.515  1.1833  1.6710  0.4224
 6259SOL     OW30409   4.253   4.349  11.576  0.3872 -1.0501  0.3250
 6259SOL    HW130410   4.292   4.345  11.489 -0.9833 -0.6529 -0.3049
 6259SOL    HW230411   4.271   4.261  11.610 -0.7958 -1.3900  0.0988
 6260SOL     OW30412   1.440   3.953   1.897 -0.5614  0.2111 -0.5085
 6260SOL    HW130413   1.513   4.015   1.892 -0.5509  0.1858 -0.6648
 6260SOL    HW230414   1.433   3.924   1.806  0.4790  1.3494 -0.9615
 6261SOL     OW30415   1.742   2.892   4.702 -0.4234 -0.6660  0.1893
 6261SOL    HW130416   1.785   2.978   4.705  0.0741 -0.8784 -1.3185
 6261SOL    HW230417   1.736   2.876   4.608  2.7784  1.8275 -0.4582
 6262SOL     OW30418   3.915   0.446  16.037 -0.0053 -0.2641  0.6511
 6262SOL    HW130419   3.969   0.428  16.115  2.0898  1.1314 -0.4680
 6262SOL    HW230420   3.901   0.359  15.999  0.8359  0.0980 -0.4871
 6263SOL     OW30421   0.744   4.500  16.062  0.1844 -0.1415  0.0586
 6263SOL    HW130422   0.760   4.481  16.154 -0.2794  0.0003  0.1683
 6263SOL    HW230423   0.706   4.587  16.071  2.4225  0.8435  0.1563
 6264SOL     OW30424   4.636   4.608   5.391  0.4307  0.3835 -0.1694
 6264SOL    HW130425   4.655   4.676   5.456  0.1404 -0.0589  0.3729
 6264SOL    HW230426   4.704   4.541   5.401  0.5650  0.5630  0.1371
 6265SOL     OW30427   2.447   3.791   3.024 -0.2206 -0.1540 -0.4544
 6265SOL    HW130428   2.474   3.778   3.115 -0.7336  0.9330 -0.1474
 6265SOL    HW230429   2.529   3.796   2.976 -1.0102  0.4530 -1.7411
 6266SOL     OW30430   3.448   0.264   5.982  0.1387 -0.1495 -0.0401
 6266SOL    HW130431   3.451   0.330   6.051 -0.4598 -0.5361  0.3641
 6266SOL    HW230432   3.359   0.275   5.947  0.7830 -1.4130 -2.0749
 6267SOL     OW30433   4.541   4.144   1.399 -0.1274  0.4429  0.0870
 6267SOL    HW130434   4.629   4.179   1.386 -1.0975  2.0794 -2.1082
 6267SOL    HW230435   4.494   4.195   1.333 -0.1306  0.4119  0.0653
 6268SOL     OW30436   4.421   2.024   7.189  0.3385  0.1238 -0.1130
 6268SOL    HW130437   4.409   2.088   7.260  0.2718 -0.2633  0.2213
 6268SOL    HW230438   4.340   2.027   7.138 -0.0279 -1.7614  0.3657
 6269SOL     OW30439   2.531   3.019   5.172 -0.0506 -0.1527  0.0272
 6269SOL    HW130440   2.589   2.969   5.229  1.3634  0.9614 -0.4441
 6269SOL    HW230441   2.572   3.105   5.185 -1.4527  0.5840 -0.3572
 6270SOL     OW30442   0.560   2.378  16.918 -0.1250 -0.5140 -0.2413
 6270SOL    HW130443   0.513   2.306  16.875  2.2695 -0.9431 -2.1749
 6270SOL    HW230444   0.518   2.443  16.863 -1.9541  0.4025  2.2787
 6271SOL     OW30445   1.570   1.439   2.931  0.6779  0.8665 -0.1401
 6271SOL    HW130446   1.539   1.386   2.858  0.1646  1.4363 -0.3320
 6271SOL    HW230447   1.508   1.512   2.937  0.9163  0.9087  1.8297
 6272SOL     OW30448   3.177   1.208   2.674 -0.3103 -0.2668  0.5993
 6272SOL    HW130449   3.096   1.200   2.724  1.4069  0.2483  3.4740
 6272SOL    HW230450   3.231   1.135   2.704 -3.6865 -2.7397  0.6248
 6273SOL     OW30451   1.523   0.065   5.994 -0.6481 -0.1671  0.7820
 6273SOL    HW130452   1.504   0.145   5.946  0.3264 -0.3336  0.1370
 6273SOL    HW230453   1.451   0.067   6.057 -1.4174  1.7426 -0.1495
 6274SOL     OW30454   4.266   2.319   5.425 -0.1303 -0.2648 -0.4717
 6274SOL    HW130455   4.351   2.354   5.397  0.7434 -2.2506 -0.2716
 6274SOL    HW230456   4.291   2.251   5.487 -2.2605  1.4854  2.3044
 6275SOL     OW30457   3.104   3.733  16.281  0.0111 -0.4970 -0.1745
 6275SOL    HW130458   3.114   3.824  16.311  0.0798 -0.0280 -1.6163
 6275SOL    HW230459   3.039   3.747  16.212  1.0671  0.2740 -1.0091
 6276SOL     OW30460   0.937   2.727   6.502  0.2870  0.1997 -0.3450
 6276SOL    HW130461   0.957   2.677   6.581 -0.8194  0.5998  0.1957
 6276SOL    HW230462   0.849   2.693   6.484 -0.9747  2.4689  1.3985
 6277SOL     OW30463   1.738   1.477   9.965 -0.5700 -0.1681 -0.2192
 6277SOL    HW130464   1.822   1.439   9.993 -1.8282 -2.3733  0.5319
 6277SOL    HW230465   1.678   1.440  10.029 -0.5545  0.7860  0.3446
 6278SOL     OW30466   0.992   2.887   0.212 -0.5772  0.1878 -0.2109
 6278SOL    HW130467   1.041   2.944   0.154 -0.7228  0.2369 -0.2844
 6278SOL    HW230468   0.932   2.843   0.152 -0.9182 -1.0147  0.9913
 6279SOL     OW30469   0.719   3.704   8.894 -1.0741 -0.4437 -0.3282
 6279SOL    HW130470   0.670   3.665   8.822 -0.3105 -2.2271  0.1236
 6279SOL    HW230471   0.730   3.624   8.946  0.0207  0.4812  0.8695
 6280SOL     OW30472   1.550   4.010   1.166  0.7105 -0.2511  0.3854
 6280SOL    HW130473   1.609   4.073   1.124  0.9361 -1.2230 -0.7381
 6280SOL    HW230474   1.598   3.988   1.246  1.9913  2.3322  0.3204
 6281SOL     OW30475   1.653   0.160   9.582  0.0833 -0.7279  0.1907
 6281SOL    HW130476   1.728   0.102   9.592 -1.0248 -2.0062  1.0813
 6281SOL    HW230477   1.591   0.099   9.543  1.0845 -2.4144  1.2456
 6282SOL     OW30478   1.358   2.979   7.633  0.5392 -0.5813  1.0274
 6282SOL    HW130479   1.359   3.066   7.672  0.0655  0.2689 -0.8574
 6282SOL    HW230480   1.431   2.943   7.684  1.3502  2.4345  1.9434
 6283SOL     OW30481   0.318   3.335   7.622  0.1382  0.0317 -0.2484
 6283SOL    HW130482   0.328   3.311   7.529  0.8543 -0.1474 -0.1255
 6283SOL    HW230483   0.381   3.406   7.629  1.4660 -0.7215 -4.1671
 6284SOL     OW30484   1.561   0.062   3.594 -0.0219  0.2623  0.4694
 6284SOL    HW130485   1.501   0.124   3.636  0.7364  0.3621  1.4152
 6284SOL    HW230486   1.642   0.087   3.638  0.1073 -1.2720  1.1039
 6285SOL     OW30487   0.036   0.185   3.944  0.3015 -0.0957 -0.0922
 6285SOL    HW130488   0.052   0.130   4.021  1.4920  0.8351  0.3389
 6285SOL    HW230489   4.678   0.190   3.931  0.0752 -2.9075  0.4584
 6286SOL     OW30490   3.113   3.010   8.819 -0.1202  0.4543 -0.1413
 6286SOL    HW130491   3.031   2.964   8.838  1.1361 -1.6618  0.0887
 6286SOL    HW230492   3.176   2.938   8.813  1.2338  1.4453  2.2523
 6287SOL     OW30493   2.449   4.490   4.312 -0.4835  0.3740  0.1161
 6287SOL    HW130494   2.457   4.473   4.218  0.7674  0.7927  0.1539
 6287SOL    HW230495   2.539   4.499   4.343 -0.5728  0.6826  0.2825
 6288SOL     OW30496   1.172   4.261  14.027 -0.1314  0.0458 -0.2634
 6288SOL    HW130497   1.130   4.183  13.992 -2.4726 -0.1412  2.8840
 6288SOL    HW230498   1.141   4.323  13.962 -0.6386  0.0874  0.0166
 6289SOL     OW30499   4.418   0.264   9.599 -0.0643 -0.1572  0.7032
 6289SOL    HW130500   4.350   0.199   9.615  0.1780 -0.5952 -0.0170
 6289SOL    HW230501   4.478   0.265   9.674 -0.4614  0.7135  1.0110
 6290SOL     OW30502   3.395   1.213   5.369  0.0976 -0.0975  0.6262
 6290SOL    HW130503   3.415   1.305   5.354  1.4423 -0.6160 -0.7224
 6290SOL    HW230504   3.300   1.213   5.379 -0.1718 -0.0487 -2.0287
 6291SOL     OW30505   3.271   0.396   1.998 -0.1104  0.1095 -0.3544
 6291SOL    HW130506   3.242   0.351   1.919 -1.0844  0.1760 -0.0404
 6291SOL    HW230507   3.247   0.483   1.966  3.3389  0.3829 -2.2504
 6292SOL     OW30508   2.789   3.927   7.628 -0.3775 -0.8649 -0.2665
 6292SOL    HW130509   2.746   3.846   7.655 -1.4375 -0.6176 -1.1799
 6292SOL    HW230510   2.718   3.964   7.574 -2.1717  0.5224  3.0171
 6293SOL     OW30511   3.141   1.675   5.094  0.5454 -0.1830 -0.1932
 6293SOL    HW130512   3.057   1.694   5.137  0.3933 -0.9508 -0.1463
 6293SOL    HW230513   3.196   1.752   5.104 -2.6328  1.7419  2.5358
 6294SOL     OW30514   1.266   2.872  10.900  0.2381  0.5477 -0.7370
 6294SOL    HW130515   1.274   2.901  10.991  2.4587 -1.1680 -0.3953
 6294SOL    HW230516   1.173   2.850  10.903 -0.0341  2.0438  1.8091
 6295SOL     OW30517   2.811   0.509   7.352 -0.3059  0.7081 -0.1332
 6295SOL    HW130518   2.878   0.539   7.291  0.0470  2.4714  1.0971
 6295SOL    HW230519   2.839   0.419   7.370 -1.8165  0.5722  1.5395
 6296SOL     OW30520   3.085   0.023  14.700  0.7561  0.1450 -0.2447
 6296SOL    HW130521   2.993   0.045  14.682  1.0164  1.5523  0.1595
 6296SOL    HW230522   3.092   4.670  14.665 -0.5342 -0.3899  0.8647
 6297SOL     OW30523   1.842   3.986   7.245  0.2550  0.3096 -0.0196
 6297SOL    HW130524   1.920   4.040   7.260  1.8829 -1.6964 -1.2447
 6297SOL    HW230525   1.851   3.922   7.316  0.5131 -1.7299 -1.9098
 6298SOL     OW30526   2.605   0.390   4.392  0.2207  0.2018 -0.0305
 6298SOL    HW130527   2.514   0.395   4.365 -0.1448  1.3596  1.4091
 6298SOL    HW230528   2.604   0.421   4.483  2.9890  1.1196 -0.3192
 6299SOL     OW30529   4.615   0.464   7.376 -0.3574 -0.2370 -0.3218
 6299SOL    HW130530   4.651   0.490   7.292 -0.7771 -2.9301 -1.3094
 6299SOL    HW230531   4.523   0.491   7.365 -0.8097 -0.4894  2.8030
 6300SOL     OW30532   3.855   1.741   6.604  0.4179 -0.3561 -0.0654
 6300SOL    HW130533   3.951   1.748   6.601  0.6109 -1.6333  3.3860
 6300SOL    HW230534   3.841   1.791   6.685 -2.3152 -0.3954 -0.5193
 6301SOL     OW30535   3.632   0.352   4.728  0.3536  0.1147 -0.6831
 6301SOL    HW130536   3.627   0.258   4.708 -0.0669 -0.3122  1.3618
 6301SOL    HW230537   3.670   0.337   4.815 -0.8665  3.4890  0.4005
 6302SOL     OW30538   2.929   0.297  15.336 -0.4496  0.1193 -0.2606
 6302SOL    HW130539   2.873   0.249  15.396 -0.7886  0.3390 -0.4000
 6302SOL    HW230540   3.008   0.244  15.343  1.1256  2.2733 -1.6178
 6303SOL     OW30541   4.155   3.578   2.262 -0.6099  0.3007 -0.3139
 6303SOL    HW130542   4.204   3.627   2.196  2.4110 -2.8585 -0.4209
 6303SOL    HW230543   4.229   3.550   2.315 -0.6841 -0.2496 -0.4996
 6304SOL     OW30544   3.483   2.887   8.524  0.4906  0.0239 -0.7896
 6304SOL    HW130545   3.518   2.842   8.448 -0.0746 -2.0217  0.1632
 6304SOL    HW230546   3.406   2.831   8.527  0.7251 -0.3024 -0.8841
 6305SOL     OW30547   4.314   0.691   3.362  0.1495 -0.4092  0.2662
 6305SOL    HW130548   4.260   0.632   3.309 -0.3550  0.4099 -0.1386
 6305SOL    HW230549   4.360   0.624   3.412  0.0609  0.9595  2.1499
 6306SOL     OW30550   3.302   1.819   4.391 -0.8879  0.0377  0.1330
 6306SOL    HW130551   3.319   1.728   4.368 -0.5135 -0.2479  1.5887
 6306SOL    HW230552   3.319   1.813   4.484 -1.3108 -0.4512  0.1749
 6307SOL     OW30553   4.551   4.316   0.656 -0.4043  0.6369  0.5457
 6307SOL    HW130554   4.470   4.363   0.676 -1.2452 -0.2471 -0.7886
 6307SOL    HW230555   4.595   4.386   0.608  0.8304  0.0333  0.7824
 6308SOL     OW30556   3.005   3.190   2.288 -0.1370  0.3452 -0.4338
 6308SOL    HW130557   3.095   3.218   2.271 -0.2174  0.6495 -0.3457
 6308SOL    HW230558   2.954   3.250   2.234 -1.7261 -1.9134 -1.4380
 6309SOL     OW30559   4.005   3.749  10.509 -0.0479 -0.1451 -0.8288
 6309SOL    HW130560   3.959   3.678  10.554 -3.3809  0.9716 -2.5156
 6309SOL    HW230561   3.965   3.753  10.422 -0.1545 -2.9491 -0.8906
 6310SOL     OW30562   1.097   1.195   7.094  0.4070  0.3214  0.0229
 6310SOL    HW130563   1.112   1.279   7.138 -0.6426  1.0248 -0.9944
 6310SOL    HW230564   1.114   1.220   7.003 -0.5947 -1.1534 -0.5637
 6311SOL     OW30565   1.286   2.896   3.907  0.0153  0.0314  0.5187
 6311SOL    HW130566   1.200   2.936   3.908  0.8359  1.7350  2.0368
 6311SOL    HW230567   1.318   2.922   3.821 -0.2559 -0.1340  0.3689
 6312SOL     OW30568   3.059   1.240   8.774  0.4007 -0.0674 -0.7157
 6312SOL    HW130569   3.066   1.307   8.705 -1.2363 -0.1773 -0.9751
 6312SOL    HW230570   3.001   1.182   8.724 -0.2041  0.2060 -0.3215
 6313SOL     OW30571   2.085   2.271   6.960  0.6026 -0.3602 -0.7363
 6313SOL    HW130572   2.125   2.283   6.874  1.6066 -0.5433 -0.2934
 6313SOL    HW230573   1.994   2.272   6.931  0.3267 -1.6381  0.0825
 6314SOL     OW30574   0.824   3.144   4.022 -0.2710  0.0142  0.5911
 6314SOL    HW130575   0.813   3.237   4.043  0.4009  0.1033  0.5493
 6314SOL    HW230576   0.746   3.135   3.968 -1.4669  3.1791  1.8000
 6315SOL     OW30577   2.795   4.085   2.018  0.2451 -0.3938  0.1386
 6315SOL    HW130578   2.849   4.039   2.083  0.3779  1.4329  1.2998
 6315SOL    HW230579   2.759   4.152   2.075  1.0348  0.4715 -0.3875
 6316SOL     OW30580   0.772   4.146   5.256 -0.0515  0.0086  0.4963
 6316SOL    HW130581   0.815   4.093   5.190  0.5465  1.5494 -0.3612
 6316SOL    HW230582   0.713   4.081   5.292 -0.1927  0.8098  1.7259
 6317SOL     OW30583   3.569   2.215  13.613 -0.2000 -0.5761  0.2411
 6317SOL    HW130584   3.575   2.229  13.707  0.6112  0.1237  0.0828
 6317SOL    HW230585   3.498   2.151  13.616  1.0333 -1.7993  2.8774
 6318SOL     OW30586   0.085   0.640  17.446 -0.0173  0.6423 -0.3099
 6318SOL    HW130587   0.143   0.572  17.413  1.5000  2.3600 -1.2150
 6318SOL    HW230588   0.096   0.714  17.385  1.5786  0.7665  0.1381
 6319SOL     OW30589   1.142   4.315   3.481  0.1571 -0.1237 -0.2741
 6319SOL    HW130590   1.062   4.358   3.512  0.8544  1.9537 -1.3321
 6319SOL    HW230591   1.127   4.227   3.514 -3.9599  1.0251  0.9987
 6320SOL     OW30592   0.145   2.265   6.694 -0.1539 -0.3081 -0.0311
 6320SOL    HW130593   0.218   2.274   6.633  0.6453 -0.3824  0.9382
 6320SOL    HW230594   0.098   2.197   6.645  0.9476 -0.2475 -1.1807
 6321SOL     OW30595   3.299   1.039   3.898 -0.5782 -0.0037  0.2339
 6321SOL    HW130596   3.381   0.994   3.877 -0.2694  0.8190 -0.3447
 6321SOL    HW230597   3.258   0.981   3.962 -0.5399  0.2565  0.4953
 6322SOL     OW30598   3.823   0.009   2.388 -0.2853 -0.2150  0.0640
 6322SOL    HW130599   3.731   0.015   2.359 -0.0746  1.9752 -0.1468
 6322SOL    HW230600   3.838   4.652   2.400 -0.2675 -0.0857  1.0607
 6323SOL     OW30601   3.748   4.357  17.192  0.0113  0.4369 -0.2811
 6323SOL    HW130602   3.664   4.311  17.185  0.7851 -0.8330 -1.2073
 6323SOL    HW230603   3.737   4.447  17.224  0.5875  0.2152  0.5325
 6324SOL     OW30604   0.207   3.302   4.083 -0.0519 -0.0044 -0.1158
 6324SOL    HW130605   0.163   3.381   4.051 -1.2067 -0.7459 -0.3784
 6324SOL    HW230606   0.166   3.232   4.032 -1.8437  0.1986  1.0359
 6325SOL     OW30607   1.476   1.594   5.606  0.1470 -0.2454 -0.5697
 6325SOL    HW130608   1.452   1.545   5.685  0.6301  0.5964  0.0917
 6325SOL    HW230609   1.396   1.568   5.560 -1.1234  1.9699  0.4377
 6326SOL     OW30610   3.922   3.907   2.037 -0.2708  0.8751 -0.5311
 6326SOL    HW130611   3.837   3.927   2.077 -0.3975 -0.8342  0.0732
 6326SOL    HW230612   3.916   3.957   1.956  3.0168 -1.6000 -2.3217
 6327SOL     OW30613   1.292   0.007  11.267 -0.2675 -0.4209  0.0484
 6327SOL    HW130614   1.268   4.717  11.356  0.8694 -1.7141 -0.0205
 6327SOL    HW230615   1.360   0.073  11.282  0.8734 -1.0827 -2.1968
 6328SOL     OW30616   4.361   1.951  15.724 -0.6519 -0.2717 -0.2075
 6328SOL    HW130617   4.353   1.998  15.640 -0.0870 -0.7167 -0.5086
 6328SOL    HW230618   4.287   1.993  15.768  0.5383  2.1490 -0.5219
 6329SOL     OW30619   3.047   2.701   3.192  0.1444 -0.5437 -0.0322
 6329SOL    HW130620   3.000   2.783   3.180  0.7131 -0.3063 -0.6535
 6329SOL    HW230621   2.982   2.648   3.239 -1.0355  0.4786 -0.4928
 6330SOL     OW30622   3.298   3.682  15.116 -0.1408 -0.1838 -0.4912
 6330SOL    HW130623   3.305   3.711  15.207 -1.6104 -2.3890  0.3250
 6330SOL    HW230624   3.389   3.685  15.090  0.3419 -1.0026  1.0802
 6331SOL     OW30625   1.290   4.594   9.144  0.3298 -0.1106  0.3551
 6331SOL    HW130626   1.242   4.676   9.152 -0.5942 -0.6108 -0.0318
 6331SOL    HW230627   1.350   4.614   9.072 -1.3353  0.2600 -0.9516
 6332SOL     OW30628   3.010   0.390   3.387 -0.1711 -0.2338  0.3438
 6332SOL    HW130629   3.081   0.344   3.432 -0.4446 -0.7970  0.1989
 6332SOL    HW230630   3.039   0.477   3.414 -1.3845 -0.7842  3.3942
 6333SOL     OW30631   4.433   4.094  11.077 -0.4243 -0.2921 -0.0886
 6333SOL    HW130632   4.369   4.164  11.091  0.5379  0.6868 -0.5244
 6333SOL    HW230633   4.474   4.118  10.994  0.8763  1.7496  1.1329
 6334SOL     OW30634   1.727   2.157   6.086  0.1930 -0.1226 -0.7571
 6334SOL    HW130635   1.730   2.169   6.181 -0.2176  0.3405 -0.8058
 6334SOL    HW230636   1.714   2.249   6.063 -0.3880  0.1792  0.7824
 6335SOL     OW30637   2.455   1.088   8.669 -0.1514  0.2022 -0.0112
 6335SOL    HW130638   2.413   1.094   8.755  1.3197 -0.4094  0.7328
 6335SOL    HW230639   2.481   0.997   8.667  0.4440  0.3558  0.9229
 6336SOL     OW30640   1.261   3.542   1.377 -0.4415 -0.2692  0.8061
 6336SOL    HW130641   1.169   3.546   1.350  0.2057  0.7995 -1.2512
 6336SOL    HW230642   1.278   3.449   1.395 -0.1624 -0.6770 -1.5771
 6337SOL     OW30643   2.528   0.522   5.267  0.0123  0.2458  0.1265
 6337SOL    HW130644   2.475   0.524   5.346  0.1277  0.2668  0.2035
 6337SOL    HW230645   2.574   0.438   5.269  0.9100  0.6912 -1.7693
 6338SOL     OW30646   0.116   2.069   4.933 -0.2504 -0.3052  0.4530
 6338SOL    HW130647   0.084   2.087   5.021 -0.7832 -2.4994  0.7105
 6338SOL    HW230648   0.151   1.981   4.945  0.9754  0.3957  1.9005
 6339SOL     OW30649   4.698   3.453  17.305  0.3421  0.4762 -0.1837
 6339SOL    HW130650   0.035   3.396  17.283  0.7013  0.5381  0.8860
 6339SOL    HW230651   0.007   3.536  17.325  1.2201  0.2250 -1.1070
 6340SOL     OW30652   2.626   2.241   2.312  0.0190  0.2780  0.0539
 6340SOL    HW130653   2.551   2.296   2.291 -0.1670  0.2963  0.7593
 6340SOL    HW230654   2.658   2.283   2.391 -1.3748 -2.3204  1.9915
 6341SOL     OW30655   0.349   3.252  17.568  0.1763 -0.4213  0.6262
 6341SOL    HW130656   0.372   3.283  17.481  0.9643 -0.8148  0.6945
 6341SOL    HW230657   0.310   3.167  17.547 -0.1962  0.2995 -1.5505
 6342SOL     OW30658   3.636   2.876   7.243 -0.0816 -0.1674  0.1728
 6342SOL    HW130659   3.662   2.961   7.280  2.4552 -0.5654 -0.7350
 6342SOL    HW230660   3.671   2.885   7.154 -0.6251  1.2923  0.0963
 6343SOL     OW30661   2.930   1.202   2.778  0.3489  0.1004  0.1856
 6343SOL    HW130662   2.838   1.228   2.782 -0.1936 -1.5600 -1.7996
 6343SOL    HW230663   2.937   1.127   2.836  2.0510  0.3217  0.2547
 6344SOL     OW30664   0.047   3.541   4.053  0.3043  0.0727 -0.8305
 6344SOL    HW130665   4.697   3.560   4.089 -0.5122 -2.5813 -1.3707
 6344SOL    HW230666   0.096   3.615   4.089  0.9270 -1.3783  1.3486
 6345SOL     OW30667   1.284   3.641   8.804  0.0692  0.1719  0.2868
 6345SOL    HW130668   1.379   3.651   8.797 -0.0773  1.1620 -0.1882
 6345SOL    HW230669   1.265   3.734   8.817 -4.4376 -0.6568 -0.1940
 6346SOL     OW30670   2.037   3.445   5.709 -0.0109 -0.0640 -0.3413
 6346SOL    HW130671   2.010   3.500   5.783 -2.0508  0.8230 -1.7575
 6346SOL    HW230672   1.965   3.383   5.710  1.2265 -1.5096 -2.2350
 6347SOL     OW30673   0.009   3.435  16.635 -0.3230 -0.6704 -0.1242
 6347SOL    HW130674   0.035   3.489  16.559 -1.4757  0.5358  0.3494
 6347SOL    HW230675   4.651   3.452  16.632  0.1615  2.1180 -0.3252
 6348SOL     OW30676   2.591   3.767   7.764  0.4336  0.0947 -0.1272
 6348SOL    HW130677   2.607   3.778   7.858 -0.5129  0.2883  0.0083
 6348SOL    HW230678   2.500   3.738   7.770  0.5529 -0.4588 -1.0739
 6349SOL     OW30679   0.997   4.470   5.827  0.2751  0.2830 -0.0981
 6349SOL    HW130680   0.999   4.516   5.743 -0.4719 -0.4500 -0.5212
 6349SOL    HW230681   0.904   4.457   5.845  1.1670 -5.5961  0.3765
 6350SOL     OW30682   3.454   2.256   4.206  0.0291  0.4929  0.2646
 6350SOL    HW130683   3.526   2.319   4.199 -0.1494  0.8088  1.3087
 6350SOL    HW230684   3.403   2.279   4.128 -0.7611 -0.3351  0.5351
 6351SOL     OW30685   2.130   4.688   8.773 -0.4410  0.3618 -0.0436
 6351SOL    HW130686   2.042   4.683   8.734  0.4953 -0.5087 -2.0425
 6351SOL    HW230687   2.112   4.668   8.865 -0.1867  0.8791  0.1208
 6352SOL     OW30688   3.671   0.741   8.245  0.3625  0.1907  0.1952
 6352SOL    HW130689   3.659   0.655   8.205 -0.8336 -0.0452  1.0626
 6352SOL    HW230690   3.634   0.798   8.177  1.9515  1.8709  0.7498
 6353SOL     OW30691   0.851   4.446  13.487 -0.2743  0.7336  0.2608
 6353SOL    HW130692   0.872   4.354  13.503  0.5517  0.9776  0.5623
 6353SOL    HW230693   0.929   4.485  13.448  1.5648 -1.4161  1.7612
 6354SOL     OW30694   4.293   4.239  16.971  0.0507 -0.4501  0.3190
 6354SOL    HW130695   4.257   4.155  17.000  1.4295 -1.8996 -2.1837
 6354SOL    HW230696   4.334   4.222  16.886  0.5974 -0.4790  0.5883
 6355SOL     OW30697   2.938   2.062   3.132  0.4540  0.0091  0.3773
 6355SOL    HW130698   2.921   2.042   3.224 -0.0380 -0.7994  0.1099
 6355SOL    HW230699   3.029   2.036   3.119  0.6670  1.5099 -1.2236
 6356SOL     OW30700   0.393   1.553  16.127 -0.1647  0.3608 -0.3996
 6356SOL    HW130701   0.421   1.462  16.119 -1.1620 -0.1402  1.7613
 6356SOL    HW230702   0.354   1.560  16.040 -0.5724 -3.1793 -0.5056
 6357SOL     OW30703   1.025   2.807  10.953  0.0864 -0.0287  0.0283
 6357SOL    HW130704   1.024   2.717  10.985  2.7745 -0.0317  0.0536
 6357SOL    HW230705   0.943   2.811  10.903  1.7403  0.9872 -2.6327
 6358SOL     OW30706   4.160   2.588   2.304 -0.4876  0.2171 -0.4482
 6358SOL    HW130707   4.188   2.577   2.213 -0.3924  0.8777 -0.4996
 6358SOL    HW230708   4.231   2.546   2.353  0.6283  1.4382 -1.0008
 6359SOL     OW30709   3.158   3.176   3.536 -0.3988 -0.7102 -0.3599
 6359SOL    HW130710   3.151   3.268   3.512 -0.7072 -0.7262 -0.3327
 6359SOL    HW230711   3.134   3.130   3.455  1.8389  0.0221 -1.4463
 6360SOL     OW30712   4.509   3.596   4.095  0.0707 -0.4586  0.4231
 6360SOL    HW130713   4.441   3.663   4.106 -0.1761 -0.8838  1.4692
 6360SOL    HW230714   4.485   3.514   4.139 -1.4136  0.0439  0.5692
 6361SOL     OW30715   0.323   2.558  12.263 -0.6784  0.3333 -0.5886
 6361SOL    HW130716   0.303   2.550  12.356  0.2733  2.1786 -0.2289
 6361SOL    HW230717   0.404   2.508  12.271 -1.5604 -0.3275  4.2084
 6362SOL     OW30718   1.973   1.170   5.378 -0.1897  0.2445  0.0149
 6362SOL    HW130719   1.879   1.161   5.394 -0.0670  2.4945  2.0232
 6362SOL    HW230720   2.017   1.165   5.462 -0.3255 -0.6201  0.0247
 6363SOL     OW30721   4.002   1.731  11.137  0.2785 -0.2792  0.9130
 6363SOL    HW130722   4.048   1.648  11.145  1.2596  0.1846  0.1047
 6363SOL    HW230723   3.914   1.696  11.123  0.1425 -0.4041  2.1147
 6364SOL     OW30724   4.156   4.372   8.192 -0.1358 -0.6508 -0.4020
 6364SOL    HW130725   4.151   4.457   8.237 -1.1561  0.3876 -2.5044
 6364SOL    HW230726   4.170   4.304   8.258 -0.6185  2.4852  2.9646
 6365SOL     OW30727   1.807   4.213   2.831 -0.0521  0.3493  0.7636
 6365SOL    HW130728   1.882   4.177   2.880  1.0348  0.5830 -0.7284
 6365SOL    HW230729   1.846   4.269   2.764 -0.1241  1.1619  1.4024
 6366SOL     OW30730   2.241   3.970  16.363 -0.2561 -0.3853 -0.6650
 6366SOL    HW130731   2.300   3.992  16.435 -0.2291  0.6989 -1.0226
 6366SOL    HW230732   2.183   3.912  16.413  0.9120 -2.5231 -1.7852
 6367SOL     OW30733   1.499   0.437   8.658  0.3694  0.0977 -0.7062
 6367SOL    HW130734   1.433   0.373   8.686 -0.0278 -0.4002 -2.7745
 6367SOL    HW230735   1.458   0.503   8.603  0.1478  2.4196  2.2525
 6368SOL     OW30736   1.793   3.539  17.433  0.8536 -0.7073  0.3681
 6368SOL    HW130737   1.811   3.446  17.422 -0.0480 -0.8636  0.2384
 6368SOL    HW230738   1.767   3.531  17.525 -0.9125  1.8613  0.0990
 6369SOL     OW30739   3.517   0.080   8.769 -0.3601 -0.8166  0.0355
 6369SOL    HW130740   3.438   0.109   8.813 -1.0292 -1.9101 -0.4361
 6369SOL    HW230741   3.558   0.057   8.853  1.1212  1.6335 -0.0372
 6370SOL     OW30742   1.035   1.105   9.279  0.1683 -0.0376 -0.1048
 6370SOL    HW130743   0.989   1.023   9.263  1.7445 -0.9751  0.2215
 6370SOL    HW230744   1.040   1.113   9.375  1.0648 -2.1451  0.0139
 6371SOL     OW30745   4.435   0.087  13.029  0.0178 -0.2514 -0.4745
 6371SOL    HW130746   4.391   0.140  12.962  1.8434  2.3863  0.4341
 6371SOL    HW230747   4.474   0.159  13.078  0.8507  0.6470 -2.4188
 6372SOL     OW30748   4.098   0.456   8.727 -0.2593 -0.3113  0.2327
 6372SOL    HW130749   4.157   0.397   8.680 -0.6403 -0.9393  0.5395
 6372SOL    HW230750   4.077   0.505   8.648 -0.4940 -0.1466  0.3986
 6373SOL     OW30751   4.441   3.883   1.426 -0.1467 -0.6986  0.7617
 6373SOL    HW130752   4.485   3.967   1.437 -1.2127  0.0289 -0.5055
 6373SOL    HW230753   4.518   3.829   1.439 -1.9718 -3.4454  0.0996
 6374SOL     OW30754   4.045   2.878   9.039  0.0821  0.1268  0.3817
 6374SOL    HW130755   4.141   2.878   9.031  0.6282 -0.3612  7.1618
 6374SOL    HW230756   4.041   2.814   9.110  1.3818 -1.0838 -0.6332
 6375SOL     OW30757   3.579   1.611   8.665 -0.3743 -0.2762 -0.3298
 6375SOL    HW130758   3.536   1.563   8.594 -1.6577  0.1731  0.1344
 6375SOL    HW230759   3.591   1.694   8.619  0.0324  0.0201  0.3150
 6376SOL     OW30760   2.135   0.111   9.461 -0.0924  0.0969 -0.1173
 6376SOL    HW130761   2.098   0.023   9.473  1.6655 -0.3927  1.7333
 6376SOL    HW230762   2.218   0.108   9.508  0.1251 -1.4270 -0.5681
 6377SOL     OW30763   1.164   3.300  17.342  0.4167 -0.3270  0.3756
 6377SOL    HW130764   1.176   3.238  17.269 -0.4461  0.9087 -0.8221
 6377SOL    HW230765   1.239   3.358  17.328 -0.0994  0.1251 -0.5256
 6378SOL     OW30766   3.282   1.397   8.125  0.5943  0.0869  0.4238
 6378SOL    HW130767   3.192   1.426   8.139  0.8115  0.9226  0.0769
 6378SOL    HW230768   3.289   1.342   8.203  1.1478  0.9419  0.9784
 6379SOL     OW30769   0.853   0.868   6.523  0.4494 -0.5328  0.0739
 6379SOL    HW130770   0.918   0.938   6.536  0.1761 -0.1466 -0.6170
 6379SOL    HW230771   0.898   0.797   6.568  1.2408 -0.4649 -0.6172
 6380SOL     OW30772   2.035   3.815   4.402 -0.2065  0.1796  0.1562
 6380SOL    HW130773   2.041   3.734   4.351 -0.4019 -0.1913  0.7249
 6380SOL    HW230774   2.009   3.869   4.327  0.8888  1.9811  1.0619
 6381SOL     OW30775   0.635   0.896  12.896  0.2325  0.5996  0.3787
 6381SOL    HW130776   0.716   0.891  12.946 -0.4252 -2.3758  1.1371
 6381SOL    HW230777   0.583   0.951  12.954 -0.1980  0.6950 -0.0941
 6382SOL     OW30778   1.653   2.477   2.028  0.3230 -0.6651 -0.5034
 6382SOL    HW130779   1.742   2.513   2.022  0.4245 -0.4611  2.3047
 6382SOL    HW230780   1.617   2.527   1.955  1.6852  1.9484  0.6311
 6383SOL     OW30781   1.382   0.256   8.310  0.2773  0.2284 -0.7513
 6383SOL    HW130782   1.472   0.289   8.311  0.7630 -1.0946 -0.0339
 6383SOL    HW230783   1.333   0.337   8.307  0.4569  0.3294 -0.9504
 6384SOL     OW30784   4.633   0.465   1.342 -0.7522 -0.1831 -0.1408
 6384SOL    HW130785   4.728   0.473   1.335 -0.4944 -0.9666  2.5467
 6384SOL    HW230786   4.622   0.560   1.335 -2.0431 -0.1865  1.9040
 6385SOL     OW30787   0.662   3.994   3.812 -0.6098 -0.5330 -0.1499
 6385SOL    HW130788   0.756   3.978   3.818 -0.3367  0.1794 -2.2366
 6385SOL    HW230789   0.653   4.082   3.847  0.0537 -0.4467 -0.2044
 6386SOL     OW30790   1.023   0.476   4.976 -0.0328 -0.0915  0.5068
 6386SOL    HW130791   0.988   0.430   5.053 -0.9177 -1.4642 -0.7321
 6386SOL    HW230792   1.104   0.513   5.012 -0.1558  1.2207 -0.5805
 6387SOL     OW30793   2.894   1.050   2.235 -0.2430  0.0023 -0.0458
 6387SOL    HW130794   2.916   0.996   2.158  2.4461 -0.4996  1.0886
 6387SOL    HW230795   2.798   1.045   2.231 -0.3298  0.6086  1.4977
 6388SOL     OW30796   4.578   0.432  11.341  0.4324  0.3422  0.0083
 6388SOL    HW130797   4.553   0.416  11.432  0.0485  0.9543  0.0078
 6388SOL    HW230798   4.671   0.450  11.354  0.1492 -0.0943  2.7147
 6389SOL     OW30799   0.189   3.203   3.092 -0.4363 -0.1581 -0.1079
 6389SOL    HW130800   0.257   3.143   3.062  0.9247  1.8485 -1.0570
 6389SOL    HW230801   0.132   3.211   3.016 -1.0597 -1.2216  0.2548
 6390SOL     OW30802   0.866   4.050   4.983 -0.5192  0.0828 -0.1098
 6390SOL    HW130803   0.944   4.086   4.942 -0.4047  0.3946  0.3823
 6390SOL    HW230804   0.867   3.955   4.972  0.0258 -0.2767  2.8599
 6391SOL     OW30805   0.678   4.119   1.014  0.0613 -1.0642  0.1403
 6391SOL    HW130806   0.625   4.041   1.032 -2.4424  0.0627 -2.3605
 6391SOL    HW230807   0.614   4.182   1.048  1.0184 -0.1059  0.1424
 6392SOL     OW30808   3.551   4.652   6.928  0.0924  0.3809 -0.1395
 6392SOL    HW130809   3.495   4.587   6.885 -0.9313  1.8460 -1.0025
 6392SOL    HW230810   3.628   4.595   6.935  1.3974  1.8306 -2.5872
 6393SOL     OW30811   3.910   1.167   9.619  0.1259  0.1334 -0.4029
 6393SOL    HW130812   3.853   1.172   9.695  1.7183 -1.9550  0.9307
 6393SOL    HW230813   3.937   1.076   9.634 -1.2253 -0.3354 -0.8067
 6394SOL     OW30814   3.611   4.569   9.343 -0.3232  0.4260 -0.2046
 6394SOL    HW130815   3.611   4.495   9.403  2.5298  0.2422 -0.4124
 6394SOL    HW230816   3.661   4.536   9.268  1.4852  0.1444  1.1321
 6395SOL     OW30817   1.730   0.865   6.159 -0.4953 -0.1888 -0.5218
 6395SOL    HW130818   1.670   0.792   6.176  0.8711 -1.7845 -2.4698
 6395SOL    HW230819   1.818   0.830   6.144 -0.3449 -0.3793  0.7849
 6396SOL     OW30820   0.666   1.563   4.657  0.5776 -0.5220 -0.6112
 6396SOL    HW130821   0.576   1.531   4.664 -0.0279  1.3056 -0.2496
 6396SOL    HW230822   0.717   1.512   4.720 -2.6346 -0.8889  1.6819
 6397SOL     OW30823   4.453   0.473   3.509 -0.0590 -0.1045 -0.0330
 6397SOL    HW130824   4.469   0.393   3.459 -1.3837  1.1604 -2.5146
 6397SOL    HW230825   4.483   0.438   3.593 -0.3097  0.1228  0.1517
 6398SOL     OW30826   4.538   2.114   3.230  0.2320 -0.3502  0.2986
 6398SOL    HW130827   4.604   2.169   3.187 -0.4672 -0.1466 -0.5043
 6398SOL    HW230828   4.467   2.168   3.197  0.9355  0.6030  0.3564
 6399SOL     OW30829   3.727   4.671   5.681  0.3166  0.1656  0.3370
 6399SOL    HW130830   3.651   4.630   5.723  0.9946 -0.6940  0.7208
 6399SOL    HW230831   3.791   4.682   5.751  0.4214 -0.7916  0.3842
 6400SOL     OW30832   3.487   2.522   9.463  0.5439  0.0638 -0.1842
 6400SOL    HW130833   3.403   2.479   9.476 -0.0063  0.6761 -1.7453
 6400SOL    HW230834   3.537   2.465   9.405  1.0902  2.1377 -1.7632
 6401SOL     OW30835   4.507   1.144   1.216 -0.7541  0.1048 -0.4367
 6401SOL    HW130836   4.425   1.098   1.197  0.2907 -1.4506 -1.1882
 6401SOL    HW230837   4.499   1.125   1.309 -0.4594  3.1602  0.2090
 6402SOL     OW30838   0.315   3.736   0.601  0.3589  0.1869  0.2927
 6402SOL    HW130839   0.224   3.762   0.614 -0.4573 -1.6853 -1.6544
 6402SOL    HW230840   0.306   3.642   0.614  0.0347  0.2999  0.8817
 6403SOL     OW30841   0.896   1.812   7.117  0.2842 -0.1580  0.0215
 6403SOL    HW130842   0.924   1.762   7.194  0.1627 -1.6307 -0.8808
 6403SOL    HW230843   0.971   1.871   7.117  0.4553 -0.3747 -0.7322
 6404SOL     OW30844   0.033   0.218  11.520 -0.4797  0.0089  0.2362
 6404SOL    HW130845   0.008   0.126  11.512 -0.8729  0.0714  0.7525
 6404SOL    HW230846   0.123   0.232  11.488 -1.7043  2.5369 -2.1174
 6405SOL     OW30847   0.401   2.941  14.981  0.1941 -0.1201  0.2260
 6405SOL    HW130848   0.313   2.923  14.949 -0.3885  1.8201  0.7982
 6405SOL    HW230849   0.385   3.019  15.033  1.0995  0.1129  0.1635
 6406SOL     OW30850   0.519   0.811  16.957  0.1607 -0.0937 -0.3439
 6406SOL    HW130851   0.460   0.887  16.953 -0.3667 -0.4685  0.4364
 6406SOL    HW230852   0.599   0.860  16.937  2.0140 -3.2106 -0.4916
 6407SOL     OW30853   3.221   2.294   6.420  0.1025  0.2827 -0.4041
 6407SOL    HW130854   3.172   2.223   6.378  0.2700 -0.3359  0.4594
 6407SOL    HW230855   3.276   2.250   6.485 -1.2997 -0.7771  0.0670
 6408SOL     OW30856   1.945   1.275   4.955  0.4935 -0.1965 -0.2122
 6408SOL    HW130857   1.906   1.196   4.919 -1.6519  0.3206  1.0081
 6408SOL    HW230858   1.963   1.322   4.874  3.7298  0.1228  0.6928
 6409SOL     OW30859   4.220   0.484   5.812 -0.4409  0.3891  0.5803
 6409SOL    HW130860   4.241   0.560   5.758  0.4497 -1.5295 -1.7537
 6409SOL    HW230861   4.298   0.429   5.813 -1.9110 -1.6630  2.0745
 6410SOL     OW30862   3.683   4.487   5.056 -0.1066 -0.6230 -0.3047
 6410SOL    HW130863   3.766   4.473   5.011 -1.0238  0.0779 -2.1978
 6410SOL    HW230864   3.684   4.432   5.135  0.5226  2.4883  1.8487
 6411SOL     OW30865   4.001   4.480   4.974  0.6271 -0.4865  0.3494
 6411SOL    HW130866   4.056   4.545   4.930 -0.7993 -1.3917 -2.7562
 6411SOL    HW230867   4.020   4.498   5.066  0.9402 -0.0287  0.1959
 6412SOL     OW30868   4.027   2.287   4.532 -0.1333 -0.6607  0.2403
 6412SOL    HW130869   4.075   2.289   4.614  2.6944  0.1227 -1.4047
 6412SOL    HW230870   4.092   2.259   4.467 -0.1278 -0.1053  0.0031
 6413SOL     OW30871   3.342   2.488   4.543 -0.8830  0.3868  0.3942
 6413SOL    HW130872   3.284   2.561   4.565  3.6909  4.2049 -0.4794
 6413SOL    HW230873   3.297   2.456   4.465 -1.2866 -1.1068  1.2231
 6414SOL     OW30874   0.399   1.956   4.056 -0.3018  0.0108 -0.1410
 6414SOL    HW130875   0.493   1.937   4.050 -0.8137 -2.1147 -1.3811
 6414SOL    HW230876   0.400   2.041   4.011 -1.1002 -0.0852 -0.3479
 6415SOL     OW30877   0.444   3.767   6.656  0.2517 -0.8021  0.3518
 6415SOL    HW130878   0.373   3.712   6.622 -1.4580 -0.2921  3.0786
 6415SOL    HW230879   0.485   3.709   6.720  0.3138 -0.4729  0.6122
 6416SOL     OW30880   4.352   1.683   7.811  0.1774 -0.0292 -0.1620
 6416SOL    HW130881   4.362   1.743   7.885 -1.6668 -0.1157  0.1515
 6416SOL    HW230882   4.400   1.607   7.843  1.8637  1.1657  0.1465
 6417SOL     OW30883   2.899   3.853   4.690 -0.2689 -0.0646  0.6547
 6417SOL    HW130884   2.982   3.867   4.735  0.0311  1.6582 -0.4701
 6417SOL    HW230885   2.908   3.758   4.683  0.4495 -0.0555  1.4056
 6418SOL     OW30886   3.318   2.939  10.867  0.1679  0.0410 -0.3263
 6418SOL    HW130887   3.315   2.903  10.955 -1.7875  1.2357  0.0927
 6418SOL    HW230888   3.363   3.019  10.892 -1.6778  0.3416  2.0190
 6419SOL     OW30889   3.698   3.674  11.307  0.2557  0.4545 -0.5270
 6419SOL    HW130890   3.669   3.675  11.398 -0.0499 -1.0608 -0.6116
 6419SOL    HW230891   3.706   3.769  11.295  1.4445  0.3186 -0.8057
 6420SOL     OW30892   2.879   2.684   5.480  0.2860 -0.0927 -0.3869
 6420SOL    HW130893   2.855   2.592   5.488 -0.1459  0.1258  0.7981
 6420SOL    HW230894   2.857   2.711   5.569  1.7641  3.9063 -1.2405
 6421SOL     OW30895   0.209   0.311  15.586  0.1740  0.2242  0.4222
 6421SOL    HW130896   0.201   0.284  15.494 -1.2230 -0.0361  0.6354
 6421SOL    HW230897   0.213   0.406  15.579 -3.4863  0.4679  2.2218
 6422SOL     OW30898   3.524   3.693   5.972  0.3151  0.2978  0.0327
 6422SOL    HW130899   3.495   3.645   5.894 -1.4054  3.1421 -1.0823
 6422SOL    HW230900   3.438   3.729   5.995  0.6369 -0.1538  1.8876
 6423SOL     OW30901   1.364   3.423   7.599 -0.1334 -0.2003  1.0133
 6423SOL    HW130902   1.393   3.501   7.646  0.6131 -0.1122  0.3946
 6423SOL    HW230903   1.270   3.433   7.579  0.3974  0.2285 -1.3586
 6424SOL     OW30904   1.338   3.537  17.425 -0.8977  0.3099  0.2270
 6424SOL    HW130905   1.254   3.566  17.389 -0.2624  0.7422 -0.9190
 6424SOL    HW230906   1.390   3.611  17.394 -1.2983 -0.3591 -2.1019
 6425SOL     OW30907   3.763   3.865  13.237 -0.3821 -0.0118 -0.2566
 6425SOL    HW130908   3.766   3.937  13.300 -1.1132  0.4360 -0.7375
 6425SOL    HW230909   3.749   3.927  13.166 -1.0838  2.2822  1.8990
 6426SOL     OW30910   2.089   2.573   6.289  0.1163 -0.2179 -0.6114
 6426SOL    HW130911   2.107   2.596   6.198 -0.2319  1.0038 -0.3764
 6426SOL    HW230912   2.173   2.538   6.318 -1.0449 -2.7090 -0.2462
 6427SOL     OW30913   2.023   0.500   6.826 -0.1347  0.4277  0.4307
 6427SOL    HW130914   1.969   0.543   6.893  1.4297 -1.2831  2.7702
 6427SOL    HW230915   1.953   0.458   6.776  0.1542  0.4447  0.0080
 6428SOL     OW30916   4.639   2.086   3.940  0.8676  0.2206 -0.1906
 6428SOL    HW130917   4.584   2.010   3.960  0.7790  0.0361 -1.1416
 6428SOL    HW230918   4.661   2.109   4.031  1.1355 -0.5562 -0.0543
 6429SOL     OW30919   1.654   0.067   3.175  0.4302  0.1141 -0.4228
 6429SOL    HW130920   1.747   0.083   3.193 -0.3226  0.5235  3.0399
 6429SOL    HW230921   1.617   0.107   3.253  2.5840 -1.7924  1.5808
 6430SOL     OW30922   2.509   2.584   6.950 -0.1996 -0.1125 -0.8124
 6430SOL    HW130923   2.451   2.579   7.026 -0.4768  0.1238 -1.0102
 6430SOL    HW230924   2.572   2.643   6.992 -0.0008 -1.1905  0.4116
 6431SOL     OW30925   2.677   4.124  14.085 -0.2257  0.2079 -0.4440
 6431SOL    HW130926   2.726   4.093  14.009 -0.8937 -0.8798 -0.4373
 6431SOL    HW230927   2.668   4.043  14.136 -0.5667  0.1617 -0.5797
 6432SOL     OW30928   4.735   3.245   2.896 -0.0304  0.8745 -0.1008
 6432SOL    HW130929   4.644   3.233   2.869  0.0559  0.8153 -0.3624
 6432SOL    HW230930   0.045   3.268   2.815 -1.5083  0.2881 -1.0849
 6433SOL     OW30931   1.070   1.954  15.385 -0.4199  0.6469 -0.3262
 6433SOL    HW130932   1.042   1.906  15.463  3.3452 -1.7490 -0.4298
 6433SOL    HW230933   1.083   2.041  15.422  0.4866 -0.3063  1.5926
 6434SOL     OW30934   3.435   3.786   6.624  0.2743 -0.4437 -0.2099
 6434SOL    HW130935   3.473   3.749   6.703 -1.8450 -2.6911 -0.2607
 6434SOL    HW230936   3.462   3.878   6.626 -1.6731  0.1472 -0.8973
 6435SOL     OW30937   0.789   4.036   2.895 -0.0740  0.3948  0.2629
 6435SOL    HW130938   0.737   4.113   2.871 -2.3139 -0.0688  3.5838
 6435SOL    HW230939   0.878   4.070   2.902 -0.4738  1.4455  0.2073
 6436SOL     OW30940   2.595   1.395  17.619  0.2735 -0.5257  0.0439
 6436SOL    HW130941   2.586   1.312  17.667  1.1291  0.1303  1.3286
 6436SOL    HW230942   2.507   1.423  17.645 -0.0726  0.4361 -2.2100
 6437SOL     OW30943   0.843   2.935   6.291 -0.6784 -0.2033 -0.1472
 6437SOL    HW130944   0.784   2.884   6.235 -1.4615  0.1672  0.3520
 6437SOL    HW230945   0.906   2.868   6.319 -3.0776 -2.4005 -0.0128
 6438SOL     OW30946   3.166   1.551   5.468  0.1306  0.2265 -0.1521
 6438SOL    HW130947   3.137   1.641   5.456 -2.9015 -0.7438  0.0690
 6438SOL    HW230948   3.259   1.558   5.447  0.1164 -0.0143 -0.2989
 6439SOL     OW30949   4.037   0.544   8.476 -0.5430 -0.3090  0.0217
 6439SOL    HW130950   3.966   0.488   8.444 -1.9181  0.7087  1.2990
 6439SOL    HW230951   4.093   0.556   8.399  0.1646 -1.3976  0.3620
 6440SOL     OW30952   2.021   1.565   1.957 -0.1059  0.0678 -0.1311
 6440SOL    HW130953   2.038   1.561   1.862  1.5019 -2.5974  0.2717
 6440SOL    HW230954   1.936   1.521   1.965  0.1620 -0.1573  1.3347
 6441SOL     OW30955   1.479   0.902   1.387  0.8799  0.0806  0.3462
 6441SOL    HW130956   1.475   0.994   1.414  0.7305  0.3022 -0.4505
 6441SOL    HW230957   1.389   0.885   1.360  0.2341 -0.3652  2.8044
 6442SOL     OW30958   4.509   0.520   8.533 -0.6760  0.4675 -0.4353
 6442SOL    HW130959   4.556   0.450   8.487  0.7446  0.7196  0.6322
 6442SOL    HW230960   4.472   0.572   8.461 -2.7465 -1.3373 -0.6906
 6443SOL     OW30961   1.729   2.606   3.487 -0.9604  0.1857 -0.3860
 6443SOL    HW130962   1.672   2.568   3.554 -0.4127 -0.8286 -0.5025
 6443SOL    HW230963   1.807   2.608   3.542 -1.8638 -1.8041  0.9757
 6444SOL     OW30964   2.619   1.077   6.200 -0.2109  0.3068 -0.1425
 6444SOL    HW130965   2.614   0.999   6.255  0.4489  0.5874  0.3208
 6444SOL    HW230966   2.664   1.032   6.128 -1.0720 -0.6529 -0.0703
 6445SOL     OW30967   3.765   0.039   4.268 -0.3095  0.0666 -0.1818
 6445SOL    HW130968   3.689   4.718   4.262 -2.1249  2.7348 -2.6712
 6445SOL    HW230969   3.770   0.075   4.180  0.2157 -0.0918 -0.2168
 6446SOL     OW30970   0.097   1.385   4.450  0.5440  0.4218  0.1519
 6446SOL    HW130971   0.007   1.359   4.470  0.2501 -0.0819 -1.8015
 6446SOL    HW230972   0.103   1.467   4.498  1.3203  1.0195 -0.9648
 6447SOL     OW30973   1.274   1.760   1.489  0.3335 -0.3420  0.3848
 6447SOL    HW130974   1.234   1.727   1.409 -0.2220  1.0976  0.0622
 6447SOL    HW230975   1.217   1.728   1.558 -0.1518 -0.9778 -0.3115
 6448SOL     OW30976   4.105   4.333   1.957  0.4656  0.1071 -0.0737
 6448SOL    HW130977   4.186   4.283   1.967 -1.3424 -2.7361  0.1693
 6448SOL    HW230978   4.103   4.384   2.038  0.6050 -1.6874  1.0500
 6449SOL     OW30979   3.981   2.133   2.326  0.5725  0.1734 -0.1955
 6449SOL    HW130980   3.930   2.210   2.351  0.8755  0.9253 -1.8818
 6449SOL    HW230981   4.049   2.142   2.393  0.2446 -0.2825  0.1970
 6450SOL     OW30982   1.091   0.862   9.079  0.2274  0.2736  0.6422
 6450SOL    HW130983   1.162   0.820   9.031  1.3403 -0.4308  2.9054
 6450SOL    HW230984   1.123   0.870   9.169  0.8022  0.2601  0.4391
 6451SOL     OW30985   3.116   4.301   0.452  0.2763 -0.3139  0.2529
 6451SOL    HW130986   3.205   4.299   0.419  0.4944  0.2101  0.8230
 6451SOL    HW230987   3.074   4.237   0.394  2.1876 -1.1665 -0.1697
 6452SOL     OW30988   0.495   1.014  16.151 -0.1745 -0.1705 -0.2135
 6452SOL    HW130989   0.588   1.009  16.128 -0.1563 -0.4804 -0.0745
 6452SOL    HW230990   0.499   1.065  16.232  0.5467 -1.1987  0.4022
 6453SOL     OW30991   2.633   3.505   4.637  0.2748 -0.2477  0.0997
 6453SOL    HW130992   2.577   3.460   4.574 -0.0059  0.9947 -0.5483
 6453SOL    HW230993   2.584   3.507   4.719  1.1271 -0.2195  0.6068
 6454SOL     OW30994   1.787   1.909   9.322  0.0834  0.1218 -0.1207
 6454SOL    HW130995   1.712   1.923   9.263  0.6682 -0.8412 -1.0882
 6454SOL    HW230996   1.753   1.941   9.405 -2.4565  0.7960 -1.4163
 6455SOL     OW30997   2.558   2.618  15.281 -0.2787  0.0971 -0.0897
 6455SOL    HW130998   2.498   2.692  15.286  1.8488  1.8823 -1.3364
 6455SOL    HW230999   2.625   2.656  15.224 -2.3621  2.0040 -1.2384
 6456SOL     OW31000   2.468   1.178   2.115  0.0602  0.0281 -0.1670
 6456SOL    HW131001   2.413   1.103   2.093  0.4051 -0.5674  1.0090
 6456SOL    HW231002   2.529   1.134   2.173  0.6806  0.5303 -0.4411
 6457SOL     OW31003   2.290   0.623   3.187  0.2431  0.5539 -0.1443
 6457SOL    HW131004   2.355   0.607   3.256 -1.4051  3.2777  2.0142
 6457SOL    HW231005   2.226   0.557   3.216 -1.2355  0.9973 -2.4493
 6458SOL     OW31006   0.599   3.720   4.998  0.3899  0.6428 -0.5156
 6458SOL    HW131007   0.557   3.636   4.982  3.5728 -1.1736  0.7722
 6458SOL    HW231008   0.528   3.784   4.999 -1.0111 -0.9476  0.9542
 6459SOL     OW31009   2.611   3.709   4.464  0.6760  0.1907  0.0386
 6459SOL    HW131010   2.646   3.634   4.512  1.0342  0.0103 -0.5094
 6459SOL    HW231011   2.596   3.771   4.536  1.2017  1.0554 -0.6051
 6460SOL     OW31012   2.179   0.254   4.650 -0.5104  0.0518 -0.1707
 6460SOL    HW131013   2.151   0.183   4.592  2.6442 -0.6261 -0.9059
 6460SOL    HW231014   2.178   0.333   4.595 -1.7776 -0.7266 -1.2495
 6461SOL     OW31015   3.948   3.333   2.490 -0.3416  0.0745  0.4626
 6461SOL    HW131016   3.939   3.415   2.538  0.1723 -1.1368  2.6496
 6461SOL    HW231017   3.880   3.276   2.524 -1.1289  0.7022 -0.0686
 6462SOL     OW31018   3.607   0.201   3.371  0.0704  0.1243  0.0483
 6462SOL    HW131019   3.618   0.122   3.424  0.8951  0.6183  0.6096
 6462SOL    HW231020   3.519   0.193   3.333  1.0397  2.7868 -2.7866
 6463SOL     OW31021   1.042   3.370   2.261 -0.2101 -0.3384  0.2339
 6463SOL    HW131022   1.009   3.317   2.334 -0.2142 -0.5920  0.0478
 6463SOL    HW231023   1.133   3.342   2.252 -0.3238 -0.3136 -0.9557
 6464SOL     OW31024   2.446   1.604   6.096  0.1224  0.4134  0.0776
 6464SOL    HW131025   2.475   1.676   6.152 -1.2622  2.9225 -2.4438
 6464SOL    HW231026   2.451   1.535   6.162 -1.1593 -0.3008 -0.5776
 6465SOL     OW31027   2.879   1.801   3.656  0.0064  0.0567 -0.3582
 6465SOL    HW131028   2.834   1.777   3.737 -0.2413 -0.3312 -0.6154
 6465SOL    HW231029   2.971   1.782   3.676  0.1634  0.4828 -0.6622
 6466SOL     OW31030   3.444   4.490  13.465 -0.0870  0.2738 -0.3438
 6466SOL    HW131031   3.358   4.479  13.504 -0.3661  2.7187 -0.2934
 6466SOL    HW231032   3.496   4.467  13.542  0.9720 -0.1929 -1.1933
 6467SOL     OW31033   4.416   2.364   7.054 -0.4817 -0.2306 -0.4306
 6467SOL    HW131034   4.492   2.383   7.110 -0.1439  1.0443 -1.3183
 6467SOL    HW231035   4.351   2.383   7.122  0.4641 -1.1398  0.7314
 6468SOL     OW31036   3.974   3.303   6.264  0.0899 -0.4460 -0.4214
 6468SOL    HW131037   4.048   3.322   6.322 -1.1626  1.3728  0.5744
 6468SOL    HW231038   4.003   3.355   6.189 -0.3915  1.4404  0.7009
 6469SOL     OW31039   3.256   2.538  10.624  0.3081  0.4305 -0.1828
 6469SOL    HW131040   3.314   2.594  10.675 -1.8506  2.0901  0.4890
 6469SOL    HW231041   3.208   2.488  10.689  1.2219 -0.3198 -0.0863
 6470SOL     OW31042   4.383   0.275   5.841  0.2587 -0.0828  0.5983
 6470SOL    HW131043   4.464   0.255   5.793  0.0979 -0.1641  0.3631
 6470SOL    HW231044   4.356   0.190   5.875  0.7587  0.0689  1.3720
 6471SOL     OW31045   3.904   0.719   8.726  0.0631 -0.0726 -0.0279
 6471SOL    HW131046   3.950   0.666   8.661  0.9237  1.3763 -0.5947
 6471SOL    HW231047   3.938   0.683   8.808 -1.8020  0.0583  0.7921
 6472SOL     OW31048   2.073   0.737   5.775  0.1559 -0.1499 -0.1763
 6472SOL    HW131049   2.090   0.742   5.869  1.4679 -0.3877 -0.4020
 6472SOL    HW231050   1.991   0.787   5.769  2.1129  3.1028 -0.0126
 6473SOL     OW31051   2.755   1.387  14.420  0.3876 -0.1221  0.6995
 6473SOL    HW131052   2.831   1.338  14.451  3.3764  4.0924  0.1579
 6473SOL    HW231053   2.789   1.468  14.382 -2.9024  0.1821 -1.6104
 6474SOL     OW31054   2.858   3.559   7.973 -0.3265 -0.3364  0.2767
 6474SOL    HW131055   2.844   3.471   7.939 -1.0435  0.0432 -0.4064
 6474SOL    HW231056   2.898   3.605   7.899 -1.1478  0.5941  0.4158
 6475SOL     OW31057   1.854   3.081   8.801 -0.2134 -0.4570 -0.8995
 6475SOL    HW131058   1.819   2.998   8.833 -2.2324 -0.1506 -2.3288
 6475SOL    HW231059   1.948   3.064   8.791  0.1989  1.4635 -0.2704
 6476SOL     OW31060   4.480   3.839   3.448 -0.2440 -0.1717  0.0056
 6476SOL    HW131061   4.566   3.881   3.448 -1.2018  1.8068 -0.9224
 6476SOL    HW231062   4.508   3.753   3.478  1.0922  0.0806 -0.5282
 6477SOL     OW31063   0.612   1.681  14.001 -0.4042 -0.1909  0.0648
 6477SOL    HW131064   0.681   1.696  13.937 -1.4533 -1.2926 -1.3266
 6477SOL    HW231065   0.544   1.675  13.933 -0.2706  0.8882 -0.1592
 6478SOL     OW31066   0.706   4.544   2.235 -0.6683  0.1225  0.5335
 6478SOL    HW131067   0.737   4.634   2.221  2.8756 -1.2343 -0.0633
 6478SOL    HW231068   0.690   4.515   2.145 -0.5175 -0.2646  0.6342
 6479SOL     OW31069   0.913   0.174   3.676  0.4011  0.5057  0.1276
 6479SOL    HW131070   0.854   0.170   3.751 -2.0366 -2.5169 -1.9167
 6479SOL    HW231071   0.983   0.118   3.708 -0.7813 -0.2194  1.4425
 6480SOL     OW31072   4.258   0.685   1.881 -0.0758  0.0912  0.2438
 6480SOL    HW131073   4.170   0.657   1.908  0.0284 -1.7069 -1.2710
 6480SOL    HW231074   4.288   0.709   1.969 -1.3112  2.6602 -0.0458
 6481SOL     OW31075   2.487   0.065   0.881  0.5526 -0.1697  0.0808
 6481SOL    HW131076   2.468   4.710   0.857  0.1068 -0.4752  1.5420
 6481SOL    HW231077   2.428   0.107   0.819  1.6183 -0.9198 -1.4463
 6482SOL     OW31078   1.777   1.042  13.800  0.0514 -0.3006  0.0017
 6482SOL    HW131079   1.726   1.082  13.729  2.1046  2.4816  0.0634
 6482SOL    HW231080   1.769   1.115  13.862 -0.8115  0.5601 -1.1274
 6483SOL     OW31081   2.703   2.760   7.069  0.2171  0.0103  0.4275
 6483SOL    HW131082   2.794   2.770   7.043 -0.0361  0.0964 -0.4300
 6483SOL    HW231083   2.676   2.850   7.053 -2.4733 -0.5885  1.5163
 6484SOL     OW31084   0.100   4.150   1.673 -0.0394  0.2321  0.0514
 6484SOL    HW131085   0.143   4.185   1.751 -2.0705  1.0366  0.8207
 6484SOL    HW231086   0.088   4.061   1.707  0.3205  0.9770  2.1268
 6485SOL     OW31087   0.456   4.648   1.673  0.1464 -0.2034  0.6248
 6485SOL    HW131088   0.418   4.728   1.638  1.6702  0.0475 -0.4738
 6485SOL    HW231089   0.482   4.665   1.763  0.3362  0.0701  0.5156
 6486SOL     OW31090   1.862   2.591  10.287  0.4782  0.0531 -0.2894
 6486SOL    HW131091   1.811   2.511  10.293  1.3438 -0.5587 -1.1014
 6486SOL    HW231092   1.793   2.652  10.312  0.4428 -0.6327  1.2767
 6487SOL     OW31093   4.018   2.090   8.309  0.1409 -0.2866 -0.5245
 6487SOL    HW131094   3.949   2.138   8.355  1.2915 -1.0592  2.0032
 6487SOL    HW231095   4.055   2.046   8.386  0.1165 -1.2038 -1.0329
 6488SOL     OW31096   4.090   3.386   7.060  0.2495  0.1310  0.0624
 6488SOL    HW131097   4.062   3.354   6.974 -2.5152 -0.2824  1.1292
 6488SOL    HW231098   4.174   3.428   7.044 -0.3688  1.1200 -0.5800
 6489SOL     OW31099   1.648   4.632   5.369 -0.1482 -0.5925  0.3142
 6489SOL    HW131100   1.612   4.544   5.354  1.7356 -1.2378 -0.5320
 6489SOL    HW231101   1.743   4.617   5.362  0.1947  1.1934  1.0496
 6490SOL     OW31102   2.271   2.277   2.656 -0.2939  0.1305 -0.6525
 6490SOL    HW131103   2.216   2.313   2.725  0.5486 -2.7992  1.5430
 6490SOL    HW231104   2.250   2.186   2.678  1.2074  0.3748  1.6450
 6491SOL     OW31105   0.224   1.572   9.328 -0.0123 -0.2974  0.0254
 6491SOL    HW131106   0.275   1.653   9.331 -2.6974  1.4109 -0.5463
 6491SOL    HW231107   0.240   1.546   9.418 -1.4537  2.2563  1.0186
 6492SOL     OW31108   0.750   3.968   4.705 -0.3457 -0.1593  0.2051
 6492SOL    HW131109   0.834   4.006   4.679 -0.7575  1.1725  0.7877
 6492SOL    HW231110   0.777   3.897   4.764  0.1031 -1.9120 -2.1328
 6493SOL     OW31111   1.017   1.464   8.631 -0.0811 -0.0297  0.0019
 6493SOL    HW131112   0.966   1.410   8.692  0.7168  0.0339  0.7307
 6493SOL    HW231113   1.036   1.539   8.687  0.1813  0.9718 -1.4406
 6494SOL     OW31114   2.732   1.701   6.102  0.2093 -0.0886  0.6404
 6494SOL    HW131115   2.691   1.647   6.169  1.8280  0.9446  2.4696
 6494SOL    HW231116   2.772   1.623   6.063  1.9369  0.6008  1.0213
 6495SOL     OW31117   4.080   1.582   5.971 -0.0579  0.0680 -0.7564
 6495SOL    HW131118   4.062   1.645   6.041  1.0842 -0.2538 -0.1602
 6495SOL    HW231119   4.171   1.603   5.948  0.4825 -1.4620 -0.0318
 6496SOL     OW31120   1.951   4.518   3.652 -0.4394  0.8237 -0.4583
 6496SOL    HW131121   2.012   4.570   3.705 -1.2500  3.2537 -1.8777
 6496SOL    HW231122   1.980   4.429   3.672 -0.1417  0.7535 -1.1996
 6497SOL     OW31123   2.166   2.009   1.464  0.5977  0.3648  0.0255
 6497SOL    HW131124   2.235   2.000   1.399  0.6609 -0.7101  0.2531
 6497SOL    HW231125   2.085   1.999   1.414  1.7903  0.9194 -2.0215
 6498SOL     OW31126   2.899   3.331   4.878 -0.4755 -0.4077  0.4826
 6498SOL    HW131127   2.873   3.279   4.802  0.0854 -1.6754  1.1565
 6498SOL    HW231128   2.862   3.416   4.855 -0.4751 -0.8999 -1.3095
 6499SOL     OW31129   3.233   1.885  12.331 -0.0505 -0.1798  0.2719
 6499SOL    HW131130   3.257   1.811  12.387 -1.8302 -0.1956  1.0028
 6499SOL    HW231131   3.186   1.947  12.386  0.5891  1.0770 -0.5979
 6500SOL     OW31132   3.332   3.545   1.991 -0.5228 -0.0277  0.9139
 6500SOL    HW131133   3.409   3.496   1.961  0.5761  1.4016  1.3907
 6500SOL    HW231134   3.360   3.588   2.072  1.1474 -1.2110  0.9568
 6501SOL     OW31135   1.523   1.383   5.167  0.4904 -0.2156  0.8150
 6501SOL    HW131136   1.453   1.448   5.165  0.4363 -0.3199 -0.4573
 6501SOL    HW231137   1.526   1.354   5.076 -3.2845  1.6955  0.1025
 6502SOL     OW31138   0.587   3.719   2.730  0.2375  0.2369 -0.0687
 6502SOL    HW131139   0.570   3.684   2.643 -0.7512  1.4429 -0.3711
 6502SOL    HW231140   0.556   3.810   2.722  1.0428  0.2855 -2.5840
 6503SOL     OW31141   1.635   1.547   3.488  0.3198 -0.0093 -0.1747
 6503SOL    HW131142   1.616   1.605   3.414  0.1471  0.6253  0.3710
 6503SOL    HW231143   1.599   1.590   3.565 -0.0638 -2.5084  1.0602
 6504SOL     OW31144   2.744   4.071   3.019  0.3757  0.0855 -0.5062
 6504SOL    HW131145   2.651   4.093   3.008  0.5781  0.1324 -1.9934
 6504SOL    HW231146   2.790   4.152   2.999  2.1779 -0.5099  1.2061
 6505SOL     OW31147   3.323   1.902  14.668 -0.4535  0.3635 -0.2324
 6505SOL    HW131148   3.385   1.957  14.718  0.9889 -0.2571 -1.3351
 6505SOL    HW231149   3.241   1.945  14.693 -0.9215 -0.9940  0.5295
 6506SOL     OW31150   3.908   1.614   7.551  0.0253 -0.3876  0.1656
 6506SOL    HW131151   3.860   1.594   7.631 -0.9184 -0.5810 -0.4456
 6506SOL    HW231152   3.987   1.646   7.596  0.3572  0.0688 -0.7432
 6507SOL     OW31153   4.394   4.538  17.326  0.4510  0.0423 -0.4173
 6507SOL    HW131154   4.412   4.444  17.332 -1.3893 -0.2144  1.1310
 6507SOL    HW231155   4.482   4.576  17.332  0.7445 -0.7099  0.2337
 6508SOL     OW31156   2.138   2.475  11.714  0.0743  0.0189  0.6462
 6508SOL    HW131157   2.231   2.456  11.723 -0.1537 -2.3902 -1.8405
 6508SOL    HW231158   2.101   2.414  11.778 -1.8928  0.0964 -0.3981
 6509SOL     OW31159   3.662   3.126   2.051  0.1145  0.2520 -0.4763
 6509SOL    HW131160   3.585   3.074   2.072 -1.3927  2.0719 -1.5108
 6509SOL    HW231161   3.701   3.064   1.990 -0.3420  0.1603 -0.6762
 6510SOL     OW31162   0.395   3.897  17.304  0.3161 -0.0330  0.4595
 6510SOL    HW131163   0.449   3.948  17.364  0.3715  0.9553 -0.4258
 6510SOL    HW231164   0.420   3.937  17.221  2.9545  0.8827  1.6953
 6511SOL     OW31165   1.071   1.321   4.265 -0.0402 -0.2933  0.5955
 6511SOL    HW131166   1.159   1.352   4.243 -0.6127  0.2564 -0.9484
 6511SOL    HW231167   1.066   1.349   4.356 -2.3836 -0.8196  0.6156
 6512SOL     OW31168   2.810   1.891   1.676  0.1886  0.0808 -0.3568
 6512SOL    HW131169   2.894   1.891   1.722  0.1355 -0.1731 -0.2610
 6512SOL    HW231170   2.750   1.845   1.734  3.2793 -2.6159  0.7219
 6513SOL     OW31171   4.378   0.937   1.570  0.1107 -0.2858 -0.0181
 6513SOL    HW131172   4.335   0.995   1.634 -1.0699  0.2573 -1.2868
 6513SOL    HW231173   4.322   0.860   1.582 -1.3618  1.2440  3.1425
 6514SOL     OW31174   4.152   3.920   5.783  0.5847 -0.1394  0.0821
 6514SOL    HW131175   4.167   4.006   5.744  1.1592 -1.1902 -2.0096
 6514SOL    HW231176   4.239   3.882   5.769 -1.3690 -3.4943 -2.9919
 6515SOL     OW31177   2.163   3.768  16.063 -0.3021 -0.0161  0.8858
 6515SOL    HW131178   2.163   3.702  15.993 -0.0478  1.1408 -0.1948
 6515SOL    HW231179   2.144   3.711  16.138 -1.3787  1.4852  1.7414
 6516SOL     OW31180   4.454   4.728  14.958 -0.6212 -0.1676 -0.3720
 6516SOL    HW131181   4.443   0.063  15.021 -1.5096 -0.8058  0.2055
 6516SOL    HW231182   4.520   0.025  14.898  0.8432 -0.7285  0.9126
 6517SOL     OW31183   1.831   2.024   1.620  0.7345  0.5047  0.2648
 6517SOL    HW131184   1.914   2.006   1.663 -0.1286 -0.3327  1.5940
 6517SOL    HW231185   1.784   2.066   1.693 -0.0307 -3.0989  1.8399
 6518SOL     OW31186   0.282   2.708   7.054 -0.0903 -0.2194  0.3119
 6518SOL    HW131187   0.192   2.725   7.028 -0.3152  0.0493  1.2987
 6518SOL    HW231188   0.329   2.693   6.971 -1.9312 -2.9019 -0.2297
 6519SOL     OW31189   0.569   4.597  11.863 -0.3269  0.0746 -0.2739
 6519SOL    HW131190   0.524   4.681  11.873  0.3925  0.6318 -1.7969
 6519SOL    HW231191   0.655   4.608  11.903 -0.5582  2.1433 -0.3317
 6520SOL     OW31192   0.491   4.616   6.833  0.0447 -0.0055 -0.3860
 6520SOL    HW131193   0.426   4.546   6.820 -0.7436  1.0858 -2.2636
 6520SOL    HW231194   0.539   4.582   6.908 -0.1259  1.8813  0.5818
 6521SOL     OW31195   0.630   1.561   7.272  0.4937  0.4741 -0.5536
 6521SOL    HW131196   0.659   1.525   7.357 -2.0347 -1.3778 -0.4657
 6521SOL    HW231197   0.607   1.645   7.310  0.0539  0.5263 -0.9460
 6522SOL     OW31198   0.564   2.878  11.517 -0.2007  0.2912 -0.5226
 6522SOL    HW131199   0.493   2.825  11.552  1.0057 -0.0852  1.3062
 6522SOL    HW231200   0.626   2.816  11.478 -2.3619 -1.8563 -0.5365
 6523SOL     OW31201   2.038   2.252   8.028  0.1687 -0.1134 -0.0160
 6523SOL    HW131202   1.966   2.251   7.965 -1.0746 -0.4539  1.4232
 6523SOL    HW231203   2.106   2.194   7.994 -1.1883 -1.9777  0.4312
 6524SOL     OW31204   4.110   2.086   3.443 -0.3394 -0.0192 -0.1304
 6524SOL    HW131205   4.177   2.019   3.458  0.0985  0.8129  1.5892
 6524SOL    HW231206   4.053   2.059   3.515  0.6835  0.9820  1.0451
 6525SOL     OW31207   3.062   2.540   8.313  0.2781 -0.5792 -0.4755
 6525SOL    HW131208   3.063   2.590   8.231  3.1023 -0.6549 -0.4678
 6525SOL    HW231209   3.019   2.608   8.365 -1.5121 -0.5701 -1.9490
 6526SOL     OW31210   0.429   3.919   8.109 -0.0224 -0.6832 -0.4203
 6526SOL    HW131211   0.474   3.989   8.155 -1.2000  0.4857 -1.0629
 6526SOL    HW231212   0.438   3.850   8.174 -0.2174 -0.6189 -0.3250
 6527SOL     OW31213   0.601   4.641   5.367  0.5399  0.0532 -0.2089
 6527SOL    HW131214   0.678   4.695   5.345  2.8624 -2.7232  1.0641
 6527SOL    HW231215   0.548   4.679   5.297 -0.5567 -0.1381  0.5177
 6528SOL     OW31216   3.166   4.314  11.645  0.2680  0.2478  0.7521
 6528SOL    HW131217   3.184   4.323  11.739  1.5228  0.3240  0.4952
 6528SOL    HW231218   3.245   4.354  11.609 -0.0602  0.0143 -0.2327
 6529SOL     OW31219   3.256   2.865   2.563  0.0386  0.0185  0.7813
 6529SOL    HW131220   3.338   2.818   2.545  1.2842  2.1867  0.8665
 6529SOL    HW231221   3.201   2.842   2.488  0.8630  0.9214 -0.0927
 6530SOL     OW31222   3.733   2.428   9.254  0.1077  0.0497  0.2935
 6530SOL    HW131223   3.815   2.381   9.238 -1.6784 -3.2115  0.7009
 6530SOL    HW231224   3.757   2.520   9.241  4.1530 -0.9661  0.4420
 6531SOL     OW31225   3.000   4.487  11.533  0.1813  0.5126  0.0079
 6531SOL    HW131226   2.911   4.453  11.523  0.3310  0.2540 -0.4332
 6531SOL    HW231227   3.026   4.421  11.597 -0.7114  1.0720  0.9524
 6532SOL     OW31228   3.679   0.154   7.650 -0.1198 -0.0740  0.2980
 6532SOL    HW131229   3.679   0.220   7.719  0.9911 -1.9797  2.1246
 6532SOL    HW231230   3.773   0.160   7.631 -0.1978 -1.7314 -0.6207
 6533SOL     OW31231   4.508   4.109  13.558  0.4270 -0.0461 -0.1193
 6533SOL    HW131232   4.433   4.057  13.586  0.3787  0.6145  0.9542
 6533SOL    HW231233   4.550   4.124  13.643 -2.3016 -0.4397  1.3006
 6534SOL     OW31234   1.694   3.976   6.591  0.4923 -0.2166 -0.0420
 6534SOL    HW131235   1.669   4.039   6.523 -1.7730  0.8617  1.7934
 6534SOL    HW231236   1.697   3.892   6.544 -0.0384 -0.4340  0.3153
 6535SOL     OW31237   1.394   1.298  15.882 -0.3338  0.3131 -0.0568
 6535SOL    HW131238   1.357   1.300  15.794 -0.7466 -1.3072  0.0892
 6535SOL    HW231239   1.455   1.369  15.861 -0.4279  0.4851  0.2652
 6536SOL     OW31240   4.414   4.304   5.791  0.0070  0.0243 -0.3259
 6536SOL    HW131241   4.414   4.225   5.736  0.1951  0.4411 -0.9157
 6536SOL    HW231242   4.348   4.283   5.858  2.0169 -2.8201  0.7514
 6537SOL     OW31243   3.104   3.858   3.916 -0.0693  0.2366 -0.4526
 6537SOL    HW131244   3.027   3.802   3.915  2.4241 -3.2088  0.4155
 6537SOL    HW231245   3.168   3.791   3.942  0.8466  1.8113  1.3799
 6538SOL     OW31246   2.143   4.419   1.564 -0.2251 -0.4645  0.3714
 6538SOL    HW131247   2.068   4.470   1.535 -0.3189 -0.5435  0.4752
 6538SOL    HW231248   2.149   4.367   1.484 -1.2406 -0.6116  0.3943
 6539SOL     OW31249   2.903   2.617   2.161  0.1423 -0.3806  0.4352
 6539SOL    HW131250   2.862   2.645   2.242 -3.5276 -0.2979 -1.4439
 6539SOL    HW231251   2.912   2.524   2.183  2.0688 -0.3986 -0.4265
 6540SOL     OW31252   4.466   1.277   0.966 -0.0374  0.0324 -0.0687
 6540SOL    HW131253   4.382   1.323   0.975  0.2067  0.3531  0.4996
 6540SOL    HW231254   4.491   1.262   1.057 -0.7729 -3.3287 -0.3973
 6541SOL     OW31255   3.122   3.452   3.400  0.3483  0.4465 -0.6278
 6541SOL    HW131256   3.098   3.401   3.323  0.3607  0.2595 -0.5064
 6541SOL    HW231257   3.200   3.492   3.361  1.9330 -0.9786  1.0471
 6542SOL     OW31258   2.797   2.103   8.869 -0.3005  0.3166  0.1842
 6542SOL    HW131259   2.795   2.008   8.875  1.2059  0.2825  0.1522
 6542SOL    HW231260   2.781   2.109   8.775  0.9334 -1.5204 -0.1294
 6543SOL     OW31261   0.041   2.947   8.165  0.1149  0.5222 -0.2502
 6543SOL    HW131262   0.063   2.939   8.072  0.1720 -0.8469 -0.1225
 6543SOL    HW231263   4.702   2.889   8.181 -0.4003  0.8583 -1.4523
 6544SOL     OW31264   2.358   3.691   7.961  0.0694  0.7589 -0.0196
 6544SOL    HW131265   2.443   3.658   7.992 -0.0019 -0.3434 -0.9818
 6544SOL    HW231266   2.340   3.756   8.029  0.4020  0.2738  0.5367
 6545SOL     OW31267   3.382   2.123   7.269 -0.3663 -0.3953  0.7175
 6545SOL    HW131268   3.349   2.210   7.293 -1.7731 -1.3866  2.4145
 6545SOL    HW231269   3.336   2.084   7.343 -0.9451 -1.0392  0.0063
 6546SOL     OW31270   4.415   3.858   6.199 -0.0674  0.0062 -0.7401
 6546SOL    HW131271   4.474   3.867   6.274 -3.0182  0.3938  1.5215
 6546SOL    HW231272   4.476   3.855   6.125 -1.0513  0.7476 -1.5721
 6547SOL     OW31273   1.041   0.558  11.601 -0.2571  0.3540 -0.0413
 6547SOL    HW131274   0.997   0.642  11.615 -1.0884  0.2018 -1.8212
 6547SOL    HW231275   1.091   0.535  11.679 -4.2918  0.1433  2.4914
 6548SOL     OW31276   0.272   1.369   7.459 -0.1989  0.3014 -0.4546
 6548SOL    HW131277   0.261   1.338   7.549  0.7860  1.2066 -0.0231
 6548SOL    HW231278   0.364   1.392   7.473 -0.3355  0.6211 -0.0827
 6549SOL     OW31279   1.067   1.736   5.776 -0.1045  0.2209  0.1379
 6549SOL    HW131280   1.124   1.709   5.847  0.0393 -2.0661 -0.8480
 6549SOL    HW231281   1.138   1.750   5.712 -2.3160  0.9108 -2.1485
 6550SOL     OW31282   1.579   2.148  17.541 -0.0058  0.3137 -0.3003
 6550SOL    HW131283   1.662   2.142  17.493  0.4800  2.6556  0.2771
 6550SOL    HW231284   1.599   2.073  17.598 -0.2424 -0.1360 -0.8039
 6551SOL     OW31285   1.071   3.956   3.177  0.6763 -0.4121  0.3325
 6551SOL    HW131286   1.077   4.019   3.105 -0.9781  1.5735  1.9556
 6551SOL    HW231287   1.124   3.881   3.151  0.7747  0.2023 -1.2245
 6552SOL     OW31288   2.805   2.587   9.077  0.5183  0.6025  0.2334
 6552SOL    HW131289   2.779   2.598   9.169 -1.4071 -0.3078 -0.2051
 6552SOL    HW231290   2.894   2.552   9.084  0.8248  1.3532  0.1018
 6553SOL     OW31291   0.055   3.354   7.306 -0.0613  0.0372 -0.0846
 6553SOL    HW131292   0.054   3.387   7.396  1.6657  0.2335 -0.1398
 6553SOL    HW231293   4.700   3.359   7.277  0.3485  0.1388 -1.3499
 6554SOL     OW31294   1.578   2.605   8.457 -0.5578 -0.0467  0.2031
 6554SOL    HW131295   1.656   2.614   8.512 -0.6969  0.6466  0.2797
 6554SOL    HW231296   1.589   2.681   8.400 -1.7879 -1.4691 -1.9070
 6555SOL     OW31297   3.914   1.069   9.023  0.4067  0.1794  0.2072
 6555SOL    HW131298   3.992   1.034   9.066  1.1394  2.1206  0.4376
 6555SOL    HW231299   3.894   1.005   8.954 -0.0357 -1.5504  1.9223
 6556SOL     OW31300   4.182   0.224   8.586  0.2877  0.4291 -0.0637
 6556SOL    HW131301   4.087   0.217   8.589  0.3928 -0.8615  0.1120
 6556SOL    HW231302   4.195   0.192   8.497 -0.7419 -0.3028  0.0473
 6557SOL     OW31303   1.928   1.253   8.821  0.1820 -0.0615 -0.1148
 6557SOL    HW131304   1.981   1.279   8.896  1.4316 -1.8539 -0.3789
 6557SOL    HW231305   1.978   1.301   8.755  3.7198 -1.5498  1.5243
 6558SOL     OW31306   1.823   1.088   4.839  0.0451  0.4094  0.0168
 6558SOL    HW131307   1.800   1.077   4.747 -2.7155  2.9204  0.3719
 6558SOL    HW231308   1.734   1.084   4.874 -0.1863 -0.0342 -0.6297
 6559SOL     OW31309   4.103   4.413  17.225 -0.0853 -0.0833 -0.0151
 6559SOL    HW131310   4.054   4.467  17.287 -1.1705 -0.9663 -0.0980
 6559SOL    HW231311   4.174   4.473  17.202 -0.1185  0.3970  1.1520
 6560SOL     OW31312   3.450   3.462   5.786  0.2493  0.1332  0.3542
 6560SOL    HW131313   3.418   3.411   5.711  1.6543  0.0485 -0.1796
 6560SOL    HW231314   3.507   3.397   5.827 -0.6344 -1.0514 -0.2859
 6561SOL     OW31315   1.840   2.182   9.896 -0.1816 -0.5445 -0.6319
 6561SOL    HW131316   1.761   2.160   9.847 -0.3990  2.1169 -1.4782
 6561SOL    HW231317   1.846   2.108   9.957 -2.8898 -0.6107 -0.4489
 6562SOL     OW31318   4.202   0.654  11.437 -0.2618 -0.0659 -0.0819
 6562SOL    HW131319   4.220   0.635  11.529  1.5210  0.3397 -0.3458
 6562SOL    HW231320   4.288   0.688  11.412 -0.4337 -0.2319 -0.8851
 6563SOL     OW31321   2.567   0.425  16.271  0.1357 -0.4672  0.1399
 6563SOL    HW131322   2.620   0.487  16.321 -0.1075  0.0324 -0.2268
 6563SOL    HW231323   2.610   0.414  16.186  0.6223  0.4700  0.2649
 6564SOL     OW31324   3.653   0.817   5.584  0.5526 -0.1787  0.7778
 6564SOL    HW131325   3.559   0.815   5.569  0.8039  1.0252 -1.0183
 6564SOL    HW231326   3.685   0.887   5.527 -1.5515 -0.0773 -0.2518
 6565SOL     OW31327   1.673   3.416   5.452  0.3588 -0.0426 -0.2860
 6565SOL    HW131328   1.586   3.405   5.490  0.8664  1.2994  1.2628
 6565SOL    HW231329   1.715   3.345   5.499 -2.8395 -1.8125 -0.0898
 6566SOL     OW31330   3.282   3.250   7.719  0.2544  0.1480 -0.0013
 6566SOL    HW131331   3.327   3.328   7.686 -1.4090  0.1525 -2.2516
 6566SOL    HW231332   3.360   3.214   7.761  1.0065  1.1957 -0.5168
 6567SOL     OW31333   3.561   4.623  11.713  0.3882 -0.0919  0.2338
 6567SOL    HW131334   3.622   4.583  11.651 -0.0050  0.8150 -0.7605
 6567SOL    HW231335   3.489   4.643  11.653 -0.8642 -2.8652  0.8368
 6568SOL     OW31336   3.092   2.577   9.398  0.2755 -0.0562 -0.2542
 6568SOL    HW131337   3.145   2.498   9.411  0.0034 -0.0473  0.9762
 6568SOL    HW231338   3.007   2.536   9.381 -0.1976  1.0534 -0.5108
 6569SOL     OW31339   4.302   3.193  17.322 -0.2170  0.0915  0.2358
 6569SOL    HW131340   4.358   3.115  17.321 -2.2441 -1.3410 -2.3941
 6569SOL    HW231341   4.297   3.206  17.228 -0.3906  2.1278  0.5403
 6570SOL     OW31342   0.220   2.972  13.674  0.0296  0.5777  0.4963
 6570SOL    HW131343   0.204   3.000  13.583  0.8179  1.5706  0.6569
 6570SOL    HW231344   0.313   2.953  13.662  0.1127  0.7250  0.9057
 6571SOL     OW31345   1.276   1.115   0.157 -0.0384  0.7581  0.3355
 6571SOL    HW131346   1.190   1.106   0.198  1.0844 -0.4217  2.4223
 6571SOL    HW231347   1.343   1.103   0.224  0.6016  2.9091  0.0898
 6572SOL     OW31348   0.711   2.427  14.244  0.3642  0.3469  0.1306
 6572SOL    HW131349   0.714   2.371  14.322  0.7193 -0.2630 -0.3228
 6572SOL    HW231350   0.711   2.513  14.288 -0.5755 -0.3942  1.5929
 6573SOL     OW31351   1.778   1.154   1.330 -0.0611  0.1704 -0.1544
 6573SOL    HW131352   1.779   1.242   1.294 -1.6575 -0.2595 -1.2338
 6573SOL    HW231353   1.765   1.188   1.419  0.4808 -0.0014 -0.0099
 6574SOL     OW31354   4.106   0.396   3.534 -0.0048  0.0876  0.3041
 6574SOL    HW131355   4.157   0.413   3.454  0.7684 -0.2565  0.7183
 6574SOL    HW231356   4.020   0.406   3.494  0.2556 -1.8377 -0.7657
 6575SOL     OW31357   2.702   1.710   2.709  0.8641 -0.4185 -0.0817
 6575SOL    HW131358   2.728   1.618   2.702 -0.6138 -0.7983 -0.6012
 6575SOL    HW231359   2.699   1.723   2.804 -2.5579 -3.0982  0.2024
 6576SOL     OW31360   4.625   0.726   7.557  0.0525 -0.4338  0.2356
 6576SOL    HW131361   4.660   0.649   7.511 -0.6996 -1.0849  0.7653
 6576SOL    HW231362   4.689   0.722   7.628 -0.7057 -1.1648  0.8852
 6577SOL     OW31363   2.640   0.697  10.782  0.3260  0.3228 -0.2761
 6577SOL    HW131364   2.605   0.785  10.768 -2.6097 -0.5490  1.3990
 6577SOL    HW231365   2.642   0.695  10.878  0.7063  0.3688 -0.2843
 6578SOL     OW31366   1.114   2.292   6.037  0.1247 -0.0076 -0.0974
 6578SOL    HW131367   1.095   2.306   5.945 -2.7177  1.2094  0.6729
 6578SOL    HW231368   1.032   2.317   6.078 -0.2905 -0.7324 -0.4958
 6579SOL     OW31369   3.784   3.951   9.254 -0.0441  0.2054  0.5541
 6579SOL    HW131370   3.752   4.018   9.314 -0.8306 -1.0956  1.5872
 6579SOL    HW231371   3.822   4.011   9.190 -1.7415 -0.4439 -1.0548
 6580SOL     OW31372   1.331   4.518   2.242  0.2397  0.5720  0.9492
 6580SOL    HW131373   1.342   4.543   2.151 -0.5610 -0.0311  0.6940
 6580SOL    HW231374   1.405   4.567   2.279  0.1850  2.9800 -2.1485
 6581SOL     OW31375   1.485   3.976   1.586  0.1144  0.5284 -0.3539
 6581SOL    HW131376   1.424   3.924   1.535  0.5714  0.4850 -0.8610
 6581SOL    HW231377   1.426   4.044   1.617 -0.5614  0.9750 -2.6496
 6582SOL     OW31378   2.378   3.248   4.873 -0.0914  0.4034 -0.1941
 6582SOL    HW131379   2.462   3.224   4.913 -0.5597 -1.9788 -0.6237
 6582SOL    HW231380   2.370   3.338   4.903 -0.4918  0.6867 -1.1682
 6583SOL     OW31381   1.066   0.303   5.510 -0.0026 -0.0646 -0.5732
 6583SOL    HW131382   1.005   0.248   5.558 -0.9506  0.9207 -0.6616
 6583SOL    HW231383   1.114   0.346   5.581 -1.3715 -0.0075  0.3011
 6584SOL     OW31384   0.604   1.585  12.118 -0.3799  0.2079  0.0524
 6584SOL    HW131385   0.523   1.621  12.153  0.9889  2.0850  1.2356
 6584SOL    HW231386   0.574   1.494  12.117 -1.3260  0.5034  2.4605
 6585SOL     OW31387   3.261   2.682   7.835  0.5180  0.4503  0.2712
 6585SOL    HW131388   3.279   2.772   7.863  1.9736  0.3700 -0.4225
 6585SOL    HW231389   3.342   2.649   7.797  0.1864  0.0625 -0.0997
 6586SOL     OW31390   1.748   1.157  12.900  0.1747 -0.4763 -0.2681
 6586SOL    HW131391   1.706   1.122  12.978  1.1956 -1.4537 -0.1556
 6586SOL    HW231392   1.684   1.220  12.869  0.9649  0.5492  0.1832
 6587SOL     OW31393   4.479   2.152   8.894  0.0218  0.6808 -0.5010
 6587SOL    HW131394   4.415   2.169   8.963 -0.7354  1.0831 -1.3091
 6587SOL    HW231395   4.547   2.104   8.942  1.6923  1.3907 -2.1637
 6588SOL     OW31396   1.817   2.861   6.582 -0.0813 -0.5855 -0.2437
 6588SOL    HW131397   1.833   2.903   6.666 -0.8518 -0.4062 -0.1939
 6588SOL    HW231398   1.868   2.781   6.592  0.2182 -0.3329  0.2643
 6589SOL     OW31399   2.790   3.469   1.559 -0.2953  0.8667 -0.2631
 6589SOL    HW131400   2.706   3.516   1.558 -1.8281 -1.8589 -1.0697
 6589SOL    HW231401   2.826   3.519   1.633 -1.0112  0.5227  0.3212
 6590SOL     OW31402   1.716   4.150   5.053 -0.1930  0.0218 -0.3171
 6590SOL    HW131403   1.643   4.090   5.039 -0.0432 -0.2088 -0.1218
 6590SOL    HW231404   1.781   4.092   5.012  1.0225  0.6033  0.7812
 6591SOL     OW31405   3.439   0.153   1.557  0.0076 -0.0486 -0.1290
 6591SOL    HW131406   3.439   0.117   1.468 -1.8486 -2.2591  0.7597
 6591SOL    HW231407   3.349   0.184   1.555 -0.5294 -1.5853  0.1994
 6592SOL     OW31408   3.448   0.298   6.519 -0.3834 -0.4349  0.4676
 6592SOL    HW131409   3.471   0.260   6.604  0.4836 -1.0254 -0.0359
 6592SOL    HW231410   3.355   0.278   6.506 -0.8381  1.6912  0.5683
 6593SOL     OW31411   3.913   1.451   5.724 -0.0648  0.4158 -0.3382
 6593SOL    HW131412   3.891   1.542   5.743  1.3982  0.9889 -1.4036
 6593SOL    HW231413   3.980   1.443   5.792 -1.7448 -0.9519  1.1417
 6594SOL     OW31414   4.418   2.057  13.253  0.1116  0.1929 -0.1266
 6594SOL    HW131415   4.457   2.130  13.299  2.5460 -0.0460 -1.8011
 6594SOL    HW231416   4.385   2.000  13.322  0.5981 -1.0314 -0.8953
 6595SOL     OW31417   3.350   2.040   7.532  0.1229 -0.4646  0.7265
 6595SOL    HW131418   3.405   1.978   7.579  1.6684 -1.2045 -2.1136
 6595SOL    HW231419   3.370   2.118   7.583 -0.6077 -0.2858  0.7455
 6596SOL     OW31420   2.476   1.533   2.061 -0.2601 -0.0199 -0.7650
 6596SOL    HW131421   2.396   1.502   2.103 -0.0552 -1.8584 -1.7511
 6596SOL    HW231422   2.520   1.576   2.134 -0.9628 -0.5042 -0.0599
 6597SOL     OW31423   3.600   4.095   8.678  0.0612  0.5711  0.6591
 6597SOL    HW131424   3.628   4.186   8.694  2.2755  0.0213 -0.0112
 6597SOL    HW231425   3.533   4.110   8.612  1.1734  1.9175 -0.1708
 6598SOL     OW31426   0.481   3.834   7.038 -0.1584  0.0048 -0.2744
 6598SOL    HW131427   0.476   3.831   7.133 -1.6643  2.0539 -0.2893
 6598SOL    HW231428   0.393   3.805   7.011 -0.9149  0.7916  1.3725
 6599SOL     OW31429   1.122   0.006   4.285 -0.3246 -0.1442  0.0402
 6599SOL    HW131430   1.192   0.004   4.219 -0.6191 -0.6829 -0.2523
 6599SOL    HW231431   1.087   4.654   4.272 -1.7714  0.4987 -0.3706
 6600SOL     OW31432   3.258   3.227   6.870  0.2588  0.0969 -0.5254
 6600SOL    HW131433   3.287   3.308   6.828 -0.6003  1.2069  1.0154
 6600SOL    HW231434   3.279   3.160   6.805 -0.4715  0.4767 -1.1489
 6601SOL     OW31435   0.680   0.651   4.541 -0.4537 -0.5722 -0.2543
 6601SOL    HW131436   0.604   0.700   4.510  0.5150  1.4330  0.5374
 6601SOL    HW231437   0.637   0.591   4.601 -3.6079  1.3595 -0.5895
 6602SOL     OW31438   4.638   4.480   8.500  0.1466 -0.2139 -0.5745
 6602SOL    HW131439   4.617   4.437   8.417 -0.3192  0.0423 -0.5904
 6602SOL    HW231440   4.730   4.501   8.489 -0.1949  0.2330 -2.6508
 6603SOL     OW31441   4.036   2.105   9.926  0.0424  0.4577 -0.2008
 6603SOL    HW131442   4.114   2.141   9.969 -0.6597  1.1952  0.4788
 6603SOL    HW231443   4.078   2.074   9.846  0.7534 -1.7664  1.0383
 6604SOL     OW31444   3.860   1.914   5.613  0.0002 -0.0530  0.2671
 6604SOL    HW131445   3.932   1.973   5.592  1.2781 -1.4593  0.7210
 6604SOL    HW231446   3.786   1.975   5.611  0.2200  0.2715  2.4620
 6605SOL     OW31447   1.276   1.264   9.776 -0.0224  0.3730  0.2916
 6605SOL    HW131448   1.218   1.211   9.831  0.9008 -0.8876  0.0433
 6605SOL    HW231449   1.361   1.221   9.769 -0.4196 -0.5936  1.3653
 6606SOL     OW31450   2.926   4.278   2.890 -0.3236  0.2588  0.3864
 6606SOL    HW131451   3.008   4.248   2.849 -0.6988  0.5396 -0.5691
 6606SOL    HW231452   2.898   4.348   2.830 -1.8047 -1.5437 -1.0223
 6607SOL     OW31453   0.457   2.637   1.587 -0.7779 -0.5368 -0.6355
 6607SOL    HW131454   0.379   2.580   1.588  0.7678 -2.6508 -1.3208
 6607SOL    HW231455   0.459   2.656   1.493  1.1476  0.8515 -0.3069
 6608SOL     OW31456   0.593   4.402   8.540  0.8051  0.0420  0.0285
 6608SOL    HW131457   0.511   4.371   8.501  0.6739 -0.0296  0.3670
 6608SOL    HW231458   0.609   4.345   8.615  0.1634 -0.2579 -0.0593
 6609SOL     OW31459   0.579   3.191   4.963 -0.0014 -0.8477 -0.3396
 6609SOL    HW131460   0.621   3.167   4.881 -2.0348  1.2970 -2.0068
 6609SOL    HW231461   0.639   3.251   5.008 -0.0165 -1.6510  0.7391
 6610SOL     OW31462   1.993   3.775   2.145  0.0070 -0.2975 -0.0662
 6610SOL    HW131463   2.007   3.715   2.218  0.5366  0.4003  0.4065
 6610SOL    HW231464   2.074   3.764   2.096  0.7233  1.3679  0.7181
 6611SOL     OW31465   2.118   0.334   4.907 -0.0917 -0.2816 -0.1970
 6611SOL    HW131466   2.154   0.298   4.826  2.9006  0.8390  0.6451
 6611SOL    HW231467   2.043   0.391   4.892  0.8522  1.0675  0.2145
 6612SOL     OW31468   4.359   1.975  16.746  0.2710 -0.6256 -0.7147
 6612SOL    HW131469   4.352   1.886  16.782 -0.1145 -0.4910 -0.4499
 6612SOL    HW231470   4.291   2.004  16.807  0.1666 -2.9810  0.3058
 6613SOL     OW31471   4.661   4.097   0.800  0.7023  0.1865 -0.5023
 6613SOL    HW131472   4.615   4.163   0.748  2.2944  0.9618 -0.9048
 6613SOL    HW231473   4.597   4.101   0.872  0.3534  2.6826 -0.9381
 6614SOL     OW31474   0.165   2.390   4.278  0.1060  0.3013 -0.3636
 6614SOL    HW131475   0.130   2.333   4.347  0.3654 -0.0489 -0.5224
 6614SOL    HW231476   0.232   2.329   4.249 -0.9879 -0.7552 -0.7000
 6615SOL     OW31477   1.226   4.542   6.486 -0.3116 -0.0047 -0.5807
 6615SOL    HW131478   1.251   4.545   6.394  0.9998  0.0677 -0.2264
 6615SOL    HW231479   1.135   4.565   6.469 -1.1123 -1.8848  1.0758
 6616SOL     OW31480   0.781   4.152  10.324 -0.5301 -0.0505 -0.3996
 6616SOL    HW131481   0.856   4.092  10.327  0.5526  1.4120  1.8381
 6616SOL    HW231482   0.759   4.158  10.417  0.9938  0.0098 -0.0346
 6617SOL     OW31483   1.490   4.140   8.848  0.2714  0.2519 -0.2912
 6617SOL    HW131484   1.579   4.144   8.813  0.9880 -0.9274  1.3499
 6617SOL    HW231485   1.446   4.215   8.810  0.9239  0.5125 -0.5298
 6618SOL     OW31486   1.459   0.881  17.577  0.5203  1.1003  0.1716
 6618SOL    HW131487   1.497   0.809  17.629 -1.3485 -0.1020 -0.1301
 6618SOL    HW231488   1.434   0.827  17.503 -0.3177  0.9876  0.5420
 6619SOL     OW31489   2.588   4.435   3.681  0.9867  0.0412 -0.2829
 6619SOL    HW131490   2.627   4.422   3.768  0.7585  0.2047 -0.1548
 6619SOL    HW231491   2.513   4.378   3.692 -0.2330  2.0382  1.8627
 6620SOL     OW31492   3.795   3.626  13.151  0.4565 -0.2286 -0.4269
 6620SOL    HW131493   3.873   3.612  13.205 -0.4806  1.9189  1.4919
 6620SOL    HW231494   3.776   3.716  13.178  0.1540 -0.2047 -0.7226
 6621SOL     OW31495   3.052   2.153   4.586 -0.0246 -0.7464  0.3870
 6621SOL    HW131496   3.008   2.089   4.530  1.6398  0.4670 -2.3155
 6621SOL    HW231497   3.142   2.128   4.566  0.0704 -0.6669  0.7149
 6622SOL     OW31498   1.154   3.021   6.229 -0.3471  0.0850  0.0702
 6622SOL    HW131499   1.150   3.032   6.324 -0.8095  0.5776 -0.0105
 6622SOL    HW231500   1.102   2.943   6.211  1.1270 -0.9199  0.1848
 6623SOL     OW31501   1.178   1.882   4.522 -0.0815  0.1807 -0.0185
 6623SOL    HW131502   1.207   1.953   4.579  1.2827  0.5387 -1.1718
 6623SOL    HW231503   1.242   1.813   4.541 -0.4546 -0.5287 -1.3399
 6624SOL     OW31504   4.554   2.295   3.821 -0.0768 -0.0820 -0.2068
 6624SOL    HW131505   4.605   2.292   3.740 -1.4899  1.1721 -1.1481
 6624SOL    HW231506   4.598   2.220   3.861 -2.0348 -1.7518 -1.1441
 6625SOL     OW31507   4.441   1.168   8.270 -0.2464 -0.0759  0.1911
 6625SOL    HW131508   4.357   1.199   8.238 -0.4235  0.8432  1.5290
 6625SOL    HW231509   4.423   1.172   8.364  1.0341 -0.3051  0.4522
 6626SOL     OW31510   1.630   3.688  17.267 -0.3153 -0.3361 -0.0165
 6626SOL    HW131511   1.591   3.622  17.211  1.0798 -1.0113 -0.1754
 6626SOL    HW231512   1.692   3.638  17.320  1.1392  0.5108 -0.9141
 6627SOL     OW31513   0.957   2.733   4.397  0.1087 -0.4334 -0.3063
 6627SOL    HW131514   0.967   2.775   4.312  1.3740  4.4708  2.2666
 6627SOL    HW231515   0.961   2.644   4.362 -1.6418 -1.0839  1.1238
 6628SOL     OW31516   1.142   0.578   2.824 -0.3110 -0.5588  0.7487
 6628SOL    HW131517   1.136   0.483   2.824 -0.9884 -0.5255 -1.3657
 6628SOL    HW231518   1.127   0.602   2.732 -0.0707 -2.0339  0.3292
 6629SOL     OW31519   4.617   1.834   6.732 -0.6176 -0.6042 -1.2218
 6629SOL    HW131520   4.586   1.837   6.823 -1.1642 -1.3285 -1.3857
 6629SOL    HW231521   4.617   1.929   6.723 -0.5585 -0.6066 -1.2396
 6630SOL     OW31522   1.255   1.770  14.478  0.0352  0.1177  0.6836
 6630SOL    HW131523   1.227   1.827  14.549 -2.5631  1.2447 -1.2384
 6630SOL    HW231524   1.210   1.689  14.505  0.9297 -0.8991 -0.9179
 6631SOL     OW31525   3.067   0.798   1.697 -0.2618  0.8178  0.5928
 6631SOL    HW131526   3.110   0.866   1.750  1.2079 -1.5252  2.3763
 6631SOL    HW231527   3.053   0.847   1.616 -0.5509 -0.5717 -0.1989
 6632SOL     OW31528   2.588   1.093   7.062 -0.2984  0.0482 -0.1630
 6632SOL    HW131529   2.595   1.015   7.117  1.6932 -0.7830 -1.5816
 6632SOL    HW231530   2.670   1.078   7.014  1.0019 -1.1133  2.4471
 6633SOL     OW31531   1.777   4.712   4.187  0.4992 -0.3998 -0.5050
 6633SOL    HW131532   1.824   0.059   4.195  1.5296 -1.1957  1.6767
 6633SOL    HW231533   1.838   4.652   4.230 -0.3735 -0.9833 -0.0899
 6634SOL     OW31534   4.402   2.447   9.121 -0.2109 -0.2290  0.4021
 6634SOL    HW131535   4.394   2.369   9.176 -0.5468 -1.3578 -1.2344
 6634SOL    HW231536   4.379   2.512   9.187  1.6253 -1.1591  1.9339
 6635SOL     OW31537   4.324   0.166  10.028  0.2803  0.1242  0.0061
 6635SOL    HW131538   4.256   0.234  10.032 -0.0834 -0.1624 -1.1540
 6635SOL    HW231539   4.386   0.216  10.081  0.6151 -0.1201 -0.1542
 6636SOL     OW31540   3.143   0.528  16.869  0.2325  0.1427 -0.0425
 6636SOL    HW131541   3.224   0.577  16.880  0.6715 -0.8756  1.3358
 6636SOL    HW231542   3.113   0.544  16.779 -1.1508  1.2535  0.6184
 6637SOL     OW31543   2.429   3.111   1.941 -0.2049  0.1561 -0.2569
 6637SOL    HW131544   2.476   3.147   2.016 -0.2270 -0.8670  0.2523
 6637SOL    HW231545   2.459   3.020   1.945 -2.2144 -0.5629 -1.6256
 6638SOL     OW31546   1.771   3.259   8.984  0.2601 -0.4570 -0.3416
 6638SOL    HW131547   1.800   3.216   8.904  0.8774 -1.3341  0.3586
 6638SOL    HW231548   1.678   3.273   8.964  0.0182  1.3349  2.0130
 6639SOL     OW31549   0.371   1.754   0.792 -0.4670 -0.0417 -0.4925
 6639SOL    HW131550   0.283   1.776   0.822 -0.4498 -1.6700  0.7470
 6639SOL    HW231551   0.385   1.811   0.717  1.5175 -0.3877 -0.3893
 6640SOL     OW31552   1.494   0.975   4.501  0.1724  0.1843  0.3502
 6640SOL    HW131553   1.401   0.988   4.487 -0.2118 -1.9618  0.9541
 6640SOL    HW231554   1.507   0.885   4.472  2.2434  1.1308 -1.6457
 6641SOL     OW31555   1.211   3.382  17.050 -0.5046 -0.0224 -0.2349
 6641SOL    HW131556   1.178   3.329  16.977  0.1801 -1.5381  0.5429
 6641SOL    HW231557   1.151   3.456  17.046  0.2700  0.5721 -1.1399
 6642SOL     OW31558   3.628   4.014   8.932  0.0303  0.2678  0.4199
 6642SOL    HW131559   3.552   4.065   8.962 -0.5477  0.1988 -0.9141
 6642SOL    HW231560   3.625   4.041   8.840  2.5093  3.7823  1.3795
 6643SOL     OW31561   3.926   1.915   2.843 -0.2606  0.4927  0.5686
 6643SOL    HW131562   3.854   1.911   2.779 -0.3267  1.1154  0.5985
 6643SOL    HW231563   4.000   1.947   2.792  0.0762 -1.4777 -0.1952
 6644SOL     OW31564   2.147   2.442   8.926  0.2146  0.1512  0.1583
 6644SOL    HW131565   2.240   2.420   8.919  0.1800 -0.0953  0.4807
 6644SOL    HW231566   2.144   2.427   9.020 -0.0191  1.1517  0.3140
 6645SOL     OW31567   3.051   3.143  13.173 -0.2504  0.0136 -0.2810
 6645SOL    HW131568   3.111   3.200  13.125 -2.7532  2.3983 -0.6227
 6645SOL    HW231569   3.121   3.109  13.227 -1.0666 -0.5089  0.4417
 6646SOL     OW31570   4.669   4.717   1.725  0.1798  0.4986 -0.4158
 6646SOL    HW131571   4.603   4.658   1.760 -0.8179  0.6752 -2.0010
 6646SOL    HW231572   4.629   0.020   1.648 -0.5556 -0.0395 -0.2975
 6647SOL     OW31573   2.995   3.633   2.154  0.0528 -0.0177 -0.0272
 6647SOL    HW131574   2.922   3.615   2.096  0.0890 -2.5325  0.7430
 6647SOL    HW231575   3.061   3.574   2.118  1.3812  1.1668  0.4647
 6648SOL     OW31576   3.360   2.234   2.785  0.8056 -0.3911 -0.5853
 6648SOL    HW131577   3.351   2.275   2.872 -0.5080 -1.7017 -0.1007
 6648SOL    HW231578   3.266   2.218   2.781  0.8320 -1.0920  1.2798
 6649SOL     OW31579   3.261   2.331   7.590 -0.0647  0.4402  0.5099
 6649SOL    HW131580   3.242   2.320   7.683  1.7810  0.6021  0.8932
 6649SOL    HW231581   3.180   2.377   7.567  0.5690  2.1731  1.7592
 6650SOL     OW31582   3.882   2.248  17.611  0.4304 -0.2448 -0.1002
 6650SOL    HW131583   3.911   2.335  17.637 -0.8064  0.0689  0.2257
 6650SOL    HW231584   3.788   2.262  17.601  0.9350  3.3543  0.3228
 6651SOL     OW31585   4.337   1.829   8.049 -0.1480 -0.2442 -0.3551
 6651SOL    HW131586   4.247   1.858   8.066 -0.3034 -1.2557  0.4834
 6651SOL    HW231587   4.372   1.830   8.138 -1.3636 -1.7692  0.1252
 6652SOL     OW31588   4.206   4.188   6.962 -0.0220  0.4203  0.1161
 6652SOL    HW131589   4.219   4.277   6.996 -1.0107  2.0089 -3.6406
 6652SOL    HW231590   4.292   4.155   6.935 -0.7850 -0.4059 -1.3168
 6653SOL     OW31591   3.284   3.583   7.394  0.1197  0.1043 -0.5833
 6653SOL    HW131592   3.199   3.556   7.360 -0.0195  0.7262 -0.7233
 6653SOL    HW231593   3.277   3.678   7.399 -0.8067  0.0361 -0.5881
 6654SOL     OW31594   4.101   2.622   3.430 -0.3023 -0.1871  0.0562
 6654SOL    HW131595   4.120   2.528   3.436 -0.7390 -0.1858  1.5913
 6654SOL    HW231596   4.041   2.629   3.504 -0.4983  0.9517 -0.2110
 6655SOL     OW31597   4.078   0.641  15.899 -0.0700 -0.1528 -0.5260
 6655SOL    HW131598   4.081   0.687  15.815  1.3404  0.4096 -0.1862
 6655SOL    HW231599   4.050   0.552  15.879 -0.6630 -0.5880  2.2905
 6656SOL     OW31600   4.365   1.733  16.881  0.4026  0.0210 -0.3772
 6656SOL    HW131601   4.358   1.711  16.974  0.4053 -0.9765 -0.6103
 6656SOL    HW231602   4.353   1.646  16.842 -0.9567 -0.0003  0.0945
 6657SOL     OW31603   3.794   0.766  11.635  0.4188  0.2904  0.0478
 6657SOL    HW131604   3.752   0.825  11.697 -1.4741  0.8889 -1.8107
 6657SOL    HW231605   3.807   0.823  11.559  1.5747  2.5089  1.8978
 6658SOL     OW31606   4.635   2.500   8.889  0.5687  0.3042 -0.0088
 6658SOL    HW131607   4.620   2.500   8.984  0.0681  2.9684 -0.0877
 6658SOL    HW231608   4.688   2.421   8.881 -0.0511  0.0814 -1.8438
 6659SOL     OW31609   3.130   4.049   6.017 -0.9995 -0.5978  0.3159
 6659SOL    HW131610   3.127   4.121   5.953 -3.2923 -0.9873 -0.0207
 6659SOL    HW231611   3.048   4.004   5.997  0.1711 -1.4926 -2.4908
 6660SOL     OW31612   4.577   1.565  10.069 -0.3082 -0.3521 -0.0727
 6660SOL    HW131613   4.575   1.660  10.071 -0.8072 -0.3407 -1.5099
 6660SOL    HW231614   4.644   1.535  10.008  0.5397  1.6640 -0.1226
 6661SOL     OW31615   0.646   4.193   1.928  0.2911  0.3439 -0.3552
 6661SOL    HW131616   0.714   4.167   1.989 -1.5686 -0.8399  1.2123
 6661SOL    HW231617   0.571   4.215   1.984 -0.8474 -0.3539 -1.5922
 6662SOL     OW31618   3.866   4.394   6.656 -0.6639 -0.3405  0.2707
 6662SOL    HW131619   3.803   4.439   6.600  0.9905 -1.4538 -2.5479
 6662SOL    HW231620   3.872   4.457   6.727 -2.7852 -0.0866  0.2163
 6663SOL     OW31621   3.965   2.295  15.700 -0.4907 -0.4690  0.5055
 6663SOL    HW131622   4.050   2.255  15.721  0.5264  1.0102 -0.7893
 6663SOL    HW231623   3.980   2.378  15.744  2.3377 -0.6517 -0.1353
 6664SOL     OW31624   1.269   2.395   2.476 -0.1530 -0.4646  0.2979
 6664SOL    HW131625   1.225   2.464   2.526  0.6524  1.0696 -1.1063
 6664SOL    HW231626   1.346   2.443   2.445 -1.9256  1.3837 -1.2087
 6665SOL     OW31627   0.482   4.572  10.122 -0.0765 -0.0933  0.2904
 6665SOL    HW131628   0.479   4.495  10.065 -0.6278  0.0939  0.0622
 6665SOL    HW231629   0.515   4.538  10.205  3.3035 -2.2286 -1.9259
 6666SOL     OW31630   2.797   3.599   2.426  0.1611 -0.4528 -0.0804
 6666SOL    HW131631   2.824   3.658   2.497 -2.5868 -0.8472  1.2751
 6666SOL    HW231632   2.703   3.608   2.441  0.5932  0.4796  2.1431
 6667SOL     OW31633   3.856   1.548  15.248 -0.4675  0.7538  0.0381
 6667SOL    HW131634   3.766   1.580  15.236 -1.3762 -2.4371 -1.6160
 6667SOL    HW231635   3.877   1.522  15.158 -0.1680 -0.3109  0.4262
 6668SOL     OW31636   3.869   1.452   6.823  0.0962  0.2308 -0.3257
 6668SOL    HW131637   3.794   1.452   6.764 -2.5188 -1.9597  2.9772
 6668SOL    HW231638   3.897   1.361   6.813 -1.2625 -0.2576  0.3285
 6669SOL     OW31639   3.541   4.588   5.973 -0.4888  0.2406  0.6497
 6669SOL    HW131640   3.629   4.553   5.962 -0.8159 -0.7576  1.2777
 6669SOL    HW231641   3.490   4.507   5.981 -0.4849  0.0545 -1.1872
 6670SOL     OW31642   0.288   2.280   5.178 -0.0248  0.3700 -0.0892
 6670SOL    HW131643   0.339   2.269   5.097 -1.2795 -0.0320 -0.8286
 6670SOL    HW231644   0.202   2.240   5.171 -0.3134  0.9344  0.2081
 6671SOL     OW31645   3.084   3.661   4.377 -0.1389 -0.3278 -0.0381
 6671SOL    HW131646   3.074   3.738   4.433  2.4651 -1.2678  1.6971
 6671SOL    HW231647   3.177   3.660   4.357 -0.1592  1.5819 -0.1932
 6672SOL     OW31648   4.511   0.426  10.453 -0.3170  0.5730  0.5772
 6672SOL    HW131649   4.572   0.500  10.446  3.6662 -2.6801  1.3549
 6672SOL    HW231650   4.506   0.418  10.548 -0.4245  1.8607  0.6834
 6673SOL     OW31651   4.555   2.043   4.637  0.7108 -0.3321 -0.4483
 6673SOL    HW131652   4.462   2.040   4.659  1.1771 -0.5152  1.4826
 6673SOL    HW231653   4.583   2.120   4.685  0.0027  0.3261 -1.0813
 6674SOL     OW31654   4.242   0.315   3.153  0.0670 -0.2075 -0.2631
 6674SOL    HW131655   4.281   0.251   3.213 -0.0807 -0.5315 -0.5066
 6674SOL    HW231656   4.283   0.283   3.072 -4.0693  0.9042 -2.7910
 6675SOL     OW31657   0.157   2.329   4.821 -0.9509  0.3334 -0.4704
 6675SOL    HW131658   0.145   2.359   4.911 -0.6463 -1.1086  0.0651
 6675SOL    HW231659   0.169   2.236   4.840 -1.8418  0.6349  1.5527
 6676SOL     OW31660   2.315   3.098  10.679  0.5339 -0.3507 -0.4943
 6676SOL    HW131661   2.382   3.047  10.632 -0.2700 -1.9496  0.1060
 6676SOL    HW231662   2.243   3.035  10.687  1.4378 -1.6494 -2.6426
 6677SOL     OW31663   3.821   1.747   7.867  0.0128 -0.1221  0.3025
 6677SOL    HW131664   3.879   1.822   7.853  0.5617 -0.8650 -1.4493
 6677SOL    HW231665   3.742   1.799   7.879  1.0764  1.2522  1.2866
 6678SOL     OW31666   4.104   0.030   2.301 -0.1065 -0.0806 -0.2108
 6678SOL    HW131667   4.027   0.021   2.357  2.7640  0.1564  3.7914
 6678SOL    HW231668   4.176   0.028   2.365 -1.7355  2.1920  1.6712
 6679SOL     OW31669   3.479   1.960   8.813  0.5391 -0.1876 -0.0630
 6679SOL    HW131670   3.503   2.040   8.861  1.4531 -0.8769  0.6274
 6679SOL    HW231671   3.528   1.895   8.864  1.3406 -1.6948 -2.7325
 6680SOL     OW31672   3.276   3.866   7.398  0.5299 -0.2938  0.9278
 6680SOL    HW131673   3.309   3.947   7.436 -0.9917  1.0048 -0.5446
 6680SOL    HW231674   3.319   3.880   7.313  1.1122  0.5490  1.3729
 6681SOL     OW31675   0.678   0.678   0.867  0.0975  0.3005 -0.2286
 6681SOL    HW131676   0.696   0.597   0.916  3.9442  0.3178 -1.5985
 6681SOL    HW231677   0.758   0.727   0.887  0.4847 -0.2004 -0.5488
 6682SOL     OW31678   2.360   0.282   0.696 -0.1176  0.0162 -0.0019
 6682SOL    HW131679   2.426   0.350   0.685 -0.9830  0.8672  0.0744
 6682SOL    HW231680   2.378   0.227   0.620  1.2347  1.3236 -0.6115
 6683SOL     OW31681   3.964   0.053   0.113 -0.6204 -0.5563 -0.0205
 6683SOL    HW131682   3.969   4.719   0.048 -1.2048  0.3605 -1.0543
 6683SOL    HW231683   3.880   0.033   0.153 -1.0132  0.4396 -0.3477
 6684SOL     OW31684   0.127   4.099   7.908  0.1035  0.4661 -0.0056
 6684SOL    HW131685   0.123   4.006   7.887  0.8795 -0.0744  2.1719
 6684SOL    HW231686   0.221   4.117   7.908  0.3181 -0.6727  1.5134
 6685SOL     OW31687   3.700   4.526   3.825 -0.5222  0.2945 -0.5984
 6685SOL    HW131688   3.707   4.621   3.822  1.6308  0.1941  0.9946
 6685SOL    HW231689   3.609   4.510   3.803  0.1523 -2.9488 -1.0286
 6686SOL     OW31690   4.642   1.259   2.800  0.9866 -0.4078  0.0964
 6686SOL    HW131691   4.568   1.320   2.800 -0.3004 -1.9704  2.4224
 6686SOL    HW231692   4.709   1.324   2.822 -0.0033  0.8793 -0.6814
 6687SOL     OW31693   2.433   3.898   3.788 -0.4000 -0.0341  0.6459
 6687SOL    HW131694   2.388   3.948   3.720  0.7829 -0.6052 -0.5603
 6687SOL    HW231695   2.515   3.944   3.802  0.3820 -0.4870 -2.4426
 6688SOL     OW31696   3.136   2.245   8.069  0.2916 -0.3102  0.0712
 6688SOL    HW131697   3.079   2.171   8.049  0.0853 -0.0604 -0.2657
 6688SOL    HW231698   3.195   2.201   8.130  0.0838 -0.4307  0.1829
 6689SOL     OW31699   0.996   2.448   8.464 -0.0849  0.2922  0.5219
 6689SOL    HW131700   0.974   2.519   8.524 -1.7996  1.5312 -1.5791
 6689SOL    HW231701   1.037   2.495   8.392 -0.6005 -0.0578 -0.0055
 6690SOL     OW31702   4.354   4.072   6.532 -0.2637 -0.3200 -0.6148
 6690SOL    HW131703   4.360   4.155   6.580 -0.6766 -0.5567 -0.1523
 6690SOL    HW231704   4.351   4.108   6.443  0.9601  0.6460 -0.2577
 6691SOL     OW31705   0.175   4.505   1.980 -0.5591  0.0061  0.2132
 6691SOL    HW131706   0.099   4.526   2.034 -0.6186  1.5913 -0.4760
 6691SOL    HW231707   0.141   4.544   1.899 -1.9649 -0.0415  0.7880
 6692SOL     OW31708   4.340   1.893   2.412 -0.3337 -0.4652 -0.5429
 6692SOL    HW131709   4.433   1.870   2.418 -0.2003  0.0723 -0.4666
 6692SOL    HW231710   4.292   1.814   2.435  0.2707 -0.9800 -1.0754
 6693SOL     OW31711   1.952   2.760  15.095  0.1236 -0.4143 -0.4156
 6693SOL    HW131712   1.905   2.714  15.165  1.7745  0.1617  1.1067
 6693SOL    HW231713   1.937   2.717  15.011  1.7541  0.5857 -1.2341
 6694SOL     OW31714   3.692   3.259   3.094 -0.0988  0.1756 -0.4493
 6694SOL    HW131715   3.646   3.181   3.125  2.9285 -1.5116 -0.1619
 6694SOL    HW231716   3.783   3.230   3.088  0.5191  1.5709  2.7167
 6695SOL     OW31717   1.096   2.358   3.474 -0.1670  0.4036 -0.1099
 6695SOL    HW131718   1.057   2.278   3.439  0.1847  0.0794  0.2485
 6695SOL    HW231719   1.168   2.365   3.411 -0.4518  0.3302 -0.4423
 6696SOL     OW31720   1.905   2.914   7.624  0.2753  0.6692  0.0448
 6696SOL    HW131721   1.863   2.977   7.566 -0.5958 -1.3275 -1.4981
 6696SOL    HW231722   1.880   2.953   7.708  1.2496  0.5260  0.4088
 6697SOL     OW31723   4.587   3.384  12.787 -0.1663 -0.0461  0.0906
 6697SOL    HW131724   4.645   3.411  12.716  1.3058  0.5584  1.5154
 6697SOL    HW231725   4.646   3.323  12.832 -0.0654  0.7478  1.0416
 6698SOL     OW31726   4.572   3.189   8.086 -0.2051  0.1294  0.3836
 6698SOL    HW131727   4.626   3.117   8.119 -0.0475  1.0627  2.1898
 6698SOL    HW231728   4.634   3.258   8.062  1.8107 -1.9965 -0.4566
 6699SOL     OW31729   1.868   0.632   2.696 -0.6591 -0.5121  0.7112
 6699SOL    HW131730   1.858   0.549   2.648 -1.2664  0.0684 -0.1687
 6699SOL    HW231731   1.776   0.653   2.712 -0.9980 -0.7035 -1.0162
 6700SOL     OW31732   3.871   0.812   3.203  0.1406 -0.2115  0.4454
 6700SOL    HW131733   3.831   0.727   3.181 -0.1534 -0.3091  1.3568
 6700SOL    HW231734   3.857   0.861   3.123  0.2416 -0.2669  0.3934
 6701SOL     OW31735   1.273   3.692  16.860 -0.2777  0.1958 -0.3736
 6701SOL    HW131736   1.349   3.693  16.918 -0.1308 -0.3757 -0.5520
 6701SOL    HW231737   1.201   3.694  16.923  0.7961  1.1961  0.8070
 6702SOL     OW31738   1.657   4.147  16.501 -0.7254  0.0999  0.6280
 6702SOL    HW131739   1.698   4.155  16.587 -0.3023 -2.1249  0.6302
 6702SOL    HW231740   1.583   4.092  16.525 -0.0670 -2.4106 -3.1433
 6703SOL     OW31741   2.185   2.484  11.382 -0.0850  0.4935 -0.4358
 6703SOL    HW131742   2.201   2.390  11.390  2.8377  1.1678  1.6536
 6703SOL    HW231743   2.274   2.520  11.384 -0.1494  0.6676 -0.7703
 6704SOL     OW31744   4.405   4.471   6.257  0.7240  0.3609 -0.7582
 6704SOL    HW131745   4.501   4.475   6.259  0.6529  0.9207  2.1299
 6704SOL    HW231746   4.381   4.551   6.304  0.8908  0.4586 -0.8368
 6705SOL     OW31747   1.406   4.546  11.015  0.5448 -0.4979 -0.1674
 6705SOL    HW131748   1.403   4.624  11.071  1.7262 -0.0380 -0.7524
 6705SOL    HW231749   1.417   4.475  11.079 -0.9423 -0.6981 -0.1180
 6706SOL     OW31750   4.367   3.751  16.849  0.3877 -0.5424  0.1564
 6706SOL    HW131751   4.290   3.803  16.826  1.1573  1.3623  1.9687
 6706SOL    HW231752   4.338   3.679  16.906 -0.5642  0.3953  0.8627
 6707SOL     OW31753   3.367   3.410   9.045 -0.4613 -0.0893  0.4523
 6707SOL    HW131754   3.360   3.385   9.137  2.3586 -0.8299  0.4795
 6707SOL    HW231755   3.425   3.339   9.017  0.6390  0.2242  1.8598
 6708SOL     OW31756   3.846   1.823  12.828  0.2594 -0.2661 -0.0319
 6708SOL    HW131757   3.892   1.902  12.856 -1.3591  1.3378 -1.9203
 6708SOL    HW231758   3.912   1.774  12.780  1.4421  1.3533 -0.0762
 6709SOL     OW31759   4.597   0.815   1.814  0.2499  0.6218 -0.1229
 6709SOL    HW131760   4.581   0.870   1.737 -0.9588 -0.7265 -0.8342
 6709SOL    HW231761   4.688   0.784   1.808 -0.3335 -0.6203 -2.2431
 6710SOL     OW31762   0.707   0.909  11.565 -0.5288 -0.5435  0.7484
 6710SOL    HW131763   0.748   0.975  11.508  0.1845 -0.4209  1.3972
 6710SOL    HW231764   0.623   0.945  11.591  1.4931  2.8945  2.5285
 6711SOL     OW31765   4.268   3.012   1.853  0.2478  0.5459  0.2296
 6711SOL    HW131766   4.251   3.090   1.799 -0.6279 -1.4908 -2.4092
 6711SOL    HW231767   4.264   2.942   1.788  0.4768  2.0220 -1.3741
 6712SOL     OW31768   2.751   0.490   5.040  0.0173  0.3366 -0.2775
 6712SOL    HW131769   2.690   0.425   5.075 -0.0492  0.8558  0.5463
 6712SOL    HW231770   2.826   0.435   5.017 -1.5418 -2.4761  1.3646
 6713SOL     OW31771   1.209   3.017  12.806  0.0492  0.1683  0.3675
 6713SOL    HW131772   1.133   2.978  12.761 -2.7188  2.3916  3.1119
 6713SOL    HW231773   1.229   3.078  12.735 -3.5290  1.8649  0.8275
 6714SOL     OW31774   3.645   2.385   8.438 -0.0087  0.1820 -0.1429
 6714SOL    HW131775   3.626   2.451   8.505 -2.5418  0.8912 -1.5407
 6714SOL    HW231776   3.557   2.383   8.398  0.5545  2.0000 -1.5028
 6715SOL     OW31777   4.651   4.411   1.868 -0.1125 -0.6875  0.2132
 6715SOL    HW131778   4.588   4.474   1.902  2.6741  1.9902  0.3214
 6715SOL    HW231779   4.703   4.399   1.947  0.9858  1.8535 -0.1320
 6716SOL     OW31780   3.612   4.265   2.007 -0.1235 -0.1268  0.4550
 6716SOL    HW131781   3.547   4.232   1.945 -0.3798  2.0731 -0.4769
 6716SOL    HW231782   3.659   4.183   2.017  1.1885  0.5620 -0.1374
 6717SOL     OW31783   4.628   4.075   2.168  0.2457 -0.2297  0.2913
 6717SOL    HW131784   4.617   3.993   2.120 -1.7876  0.6134 -0.6409
 6717SOL    HW231785   4.555   4.067   2.230 -1.0062  2.9975 -0.7871
 6718SOL     OW31786   3.376   4.122   7.468  0.3356 -0.1392  0.1065
 6718SOL    HW131787   3.345   4.188   7.406  2.3744 -0.1647 -0.9588
 6718SOL    HW231788   3.466   4.150   7.485  0.2331  0.4040 -0.2170
 6719SOL     OW31789   0.674   2.184   5.215  0.5426  0.0612 -0.0088
 6719SOL    HW131790   0.622   2.166   5.137 -0.4055 -0.6910  0.7945
 6719SOL    HW231791   0.602   2.208   5.273 -1.5662 -0.8141 -2.2587
 6720SOL     OW31792   4.464   1.162  12.623  0.1313 -0.2951 -0.1819
 6720SOL    HW131793   4.375   1.162  12.659  0.7120  1.4560  1.2589
 6720SOL    HW231794   4.506   1.213  12.692 -2.5273  3.2180 -1.1521
 6721SOL     OW31795   0.229   2.657   4.368  0.0427 -0.0593  0.0036
 6721SOL    HW131796   0.313   2.687   4.333 -0.1593  1.1752  0.5762
 6721SOL    HW231797   0.209   2.574   4.325  1.2695 -0.3561  0.0016
 6722SOL     OW31798   3.274   3.917  10.988  0.2407 -0.1716  0.0854
 6722SOL    HW131799   3.328   3.863  10.930  0.2888  0.5173 -0.5140
 6722SOL    HW231800   3.273   3.998  10.937  1.0676 -0.9254 -1.1169
 6723SOL     OW31801   3.713   4.057  14.132  0.1690 -0.1699  0.1261
 6723SOL    HW131802   3.687   4.114  14.204 -0.5621 -0.5849  0.1950
 6723SOL    HW231803   3.666   3.979  14.163 -1.3887  0.9128  0.4941
 6724SOL     OW31804   0.386   3.432   6.329 -0.3405  0.3399  0.0689
 6724SOL    HW131805   0.478   3.428   6.354 -0.1146  0.9489 -0.6819
 6724SOL    HW231806   0.350   3.350   6.363 -1.0848 -0.1651 -1.9411
 6725SOL     OW31807   0.595   1.363   8.843 -0.8337 -0.0257 -0.4569
 6725SOL    HW131808   0.627   1.347   8.932 -1.7009  0.6822 -0.0205
 6725SOL    HW231809   0.515   1.414   8.855 -1.2066 -0.2235 -2.0170
 6726SOL     OW31810   3.301   1.315  10.634 -0.3453  0.1329  0.3595
 6726SOL    HW131811   3.276   1.266  10.712 -0.0372  0.8954  0.9435
 6726SOL    HW231812   3.371   1.365  10.677 -1.5587  1.7140  0.4993
 6727SOL     OW31813   3.345   2.930  10.452  0.2512 -0.1925 -0.0198
 6727SOL    HW131814   3.264   2.937  10.502 -0.3168  0.3187 -1.0250
 6727SOL    HW231815   3.308   2.925  10.364  0.9664  0.4442 -0.3610
 6728SOL     OW31816   2.408   2.357   8.859  0.9863 -0.1947 -0.0280
 6728SOL    HW131817   2.466   2.361   8.935 -1.0649  0.6701  1.4664
 6728SOL    HW231818   2.388   2.263   8.853 -1.4908  0.2189  2.0662
 6729SOL     OW31819   0.602   4.528   4.526  0.3115 -0.1869 -0.2565
 6729SOL    HW131820   0.547   4.586   4.473  0.4131  0.0407 -0.1148
 6729SOL    HW231821   0.527   4.481   4.562  1.1271 -0.8402  0.6028
 6730SOL     OW31822   4.214   0.588  16.942  0.7446 -0.0409  0.1694
 6730SOL    HW131823   4.153   0.648  16.899  1.1816 -0.8156 -1.5680
 6730SOL    HW231824   4.175   0.595  17.029 -2.6472 -0.8281 -1.2889
 6731SOL     OW31825   0.802   1.722   3.249  0.7076 -0.0116 -0.7297
 6731SOL    HW131826   0.799   1.817   3.248  0.6435 -0.0385 -2.2477
 6731SOL    HW231827   0.867   1.706   3.181  0.9124 -0.5486 -0.4089
 6732SOL     OW31828   0.478   2.399   2.207  0.1136  0.3373 -0.1386
 6732SOL    HW131829   0.467   2.399   2.302 -0.6258  0.0474 -0.2225
 6732SOL    HW231830   0.546   2.466   2.202  0.5438  0.0078  1.2556
 6733SOL     OW31831   1.174   0.752   6.835 -0.1568 -0.2827  0.4650
 6733SOL    HW131832   1.252   0.705   6.805  0.0076 -0.7893  1.6553
 6733SOL    HW231833   1.150   0.701   6.912 -1.8124 -2.6431 -1.6195
 6734SOL     OW31834   1.738   3.216   6.821 -0.6949  0.0932 -0.3920
 6734SOL    HW131835   1.660   3.241   6.869 -1.3282 -1.7798 -0.4676
 6734SOL    HW231836   1.703   3.221   6.732 -1.5773 -0.5655 -0.0802
 6735SOL     OW31837   2.422   1.905   5.817  0.1348  0.4013  0.0479
 6735SOL    HW131838   2.351   1.901   5.882  0.7144 -1.3680  0.5674
 6735SOL    HW231839   2.380   1.887   5.733 -0.2796 -0.1199  0.3713
 6736SOL     OW31840   2.465   2.620   3.829  0.3038  0.2364  0.4171
 6736SOL    HW131841   2.513   2.541   3.805  0.1829 -0.1962  1.6170
 6736SOL    HW231842   2.395   2.583   3.882 -1.2831  0.7891 -1.2932
 6737SOL     OW31843   1.079   4.615   8.858 -0.1540 -0.0202 -0.2251
 6737SOL    HW131844   1.166   4.586   8.829  0.4823 -0.0253  1.7266
 6737SOL    HW231845   1.085   4.683   8.925 -3.4146 -0.7395  0.7690
 6738SOL     OW31846   3.976   1.982   7.840 -0.5281 -0.5114 -0.0487
 6738SOL    HW131847   3.970   2.077   7.841 -0.8527 -0.5389  0.5465
 6738SOL    HW231848   4.018   1.961   7.924  0.4292  0.0569 -0.3879
 6739SOL     OW31849   0.154   0.819  10.326 -0.1978  0.0696  0.4765
 6739SOL    HW131850   0.073   0.864  10.300  0.4513 -0.4110 -2.4516
 6739SOL    HW231851   0.218   0.875  10.282 -1.1865 -1.0353 -2.3578
 6740SOL     OW31852   4.079   4.658   2.583 -0.0289 -0.1730 -1.0814
 6740SOL    HW131853   4.027   4.601   2.526 -2.6517  1.5351 -0.3713
 6740SOL    HW231854   4.163   4.650   2.537  0.2062  1.6026 -0.9613
 6741SOL     OW31855   1.505   4.668   7.780  0.1435 -0.1469  0.1585
 6741SOL    HW131856   1.450   4.606   7.828  0.0304 -1.2691 -1.4185
 6741SOL    HW231857   1.575   4.605   7.761  1.5047  1.1188  0.9319
 6742SOL     OW31858   0.772   4.471   4.258  0.2492  0.7682 -0.1972
 6742SOL    HW131859   0.791   4.558   4.223  0.1229  0.5108 -0.9152
 6742SOL    HW231860   0.755   4.487   4.351  0.8228  0.1272  0.0207
 6743SOL     OW31861   0.157   4.425  11.228 -0.1786 -0.6974 -0.1346
 6743SOL    HW131862   0.233   4.403  11.281 -0.0061 -2.1679 -1.0028
 6743SOL    HW231863   0.195   4.423  11.141  1.8984  0.0723  0.7658
 6744SOL     OW31864   2.228   4.515   4.481  0.0406 -0.6079 -0.0660
 6744SOL    HW131865   2.315   4.529   4.443  0.7608 -1.5323  1.2715
 6744SOL    HW231866   2.228   4.420   4.485 -1.0787 -0.6294 -0.5778
 6745SOL     OW31867   0.892   1.062  11.429  0.1494  0.8370  0.4684
 6745SOL    HW131868   0.970   1.016  11.399  0.6963 -1.3016  5.1070
 6745SOL    HW231869   0.915   1.061  11.522  1.6791  0.0017  0.0804
 6746SOL     OW31870   1.426   3.894   7.381  0.0235  0.6590  0.1350
 6746SOL    HW131871   1.367   3.823   7.358 -1.1534  1.8339 -0.4266
 6746SOL    HW231872   1.427   3.952   7.306 -3.2706 -1.3740 -1.4830
 6747SOL     OW31873   2.754   3.289   7.839  0.1048  0.7561 -0.1746
 6747SOL    HW131874   2.790   3.233   7.908 -3.0766 -1.8104 -0.5830
 6747SOL    HW231875   2.661   3.294   7.862  0.3106  0.0488  0.7818
 6748SOL     OW31876   1.648   0.860   4.066 -0.1967 -0.2292 -0.4743
 6748SOL    HW131877   1.568   0.880   4.017 -1.1051 -0.4698  0.8855
 6748SOL    HW231878   1.619   0.781   4.112 -1.1936 -0.4143 -1.4175
 6749SOL     OW31879   3.921   3.649   6.529  0.5734 -0.1963 -0.3374
 6749SOL    HW131880   3.856   3.688   6.588  1.4992 -1.9730  1.8152
 6749SOL    HW231881   3.967   3.714   6.476  2.0558 -2.2306 -1.5125
 6750SOL     OW31882   2.541   2.412   3.487 -0.3199 -0.2250 -0.1008
 6750SOL    HW131883   2.582   2.402   3.573  1.6766 -0.6273 -1.0971
 6750SOL    HW231884   2.547   2.319   3.466  0.7059  0.0580 -1.0661
 6751SOL     OW31885   1.965   2.823   7.196  0.3779 -0.1341  0.1384
 6751SOL    HW131886   2.004   2.808   7.282  2.6441  3.7062 -0.2054
 6751SOL    HW231887   1.936   2.914   7.201 -0.4810 -0.3059 -1.4657
 6752SOL     OW31888   0.137   1.746   6.334 -0.6826 -0.4496  0.5447
 6752SOL    HW131889   0.158   1.721   6.424  0.0866 -2.1719 -0.1328
 6752SOL    HW231890   0.213   1.700   6.299 -1.1348 -0.9425  0.2225
 6753SOL     OW31891   0.624   4.538   2.776  0.1356  0.3732  0.3161
 6753SOL    HW131892   0.662   4.557   2.691 -1.5000 -2.9873 -1.1471
 6753SOL    HW231893   0.643   4.445   2.785  1.0535  0.6117  0.8624
 6754SOL     OW31894   4.227   0.337   4.815  0.3861  0.3139 -0.1271
 6754SOL    HW131895   4.320   0.362   4.813  0.9565 -1.5863  3.8065
 6754SOL    HW231896   4.227   0.261   4.756 -0.0473  0.6315 -0.5336
 6755SOL     OW31897   2.083   1.400   1.396 -0.1140 -0.1459 -0.7050
 6755SOL    HW131898   2.151   1.352   1.444 -1.7428 -0.6507  1.1022
 6755SOL    HW231899   2.016   1.425   1.459  2.6468 -0.5587  2.4172
 6756SOL     OW31900   2.379   2.264   4.979  0.2937  0.0038  0.5807
 6756SOL    HW131901   2.424   2.187   5.014  1.6172  0.0493 -1.0578
 6756SOL    HW231902   2.443   2.293   4.915 -0.1019  0.3103  0.3247
 6757SOL     OW31903   0.286   3.200   7.344  0.3368 -0.9745 -0.2992
 6757SOL    HW131904   0.216   3.264   7.333  0.1913 -1.2808 -1.1677
 6757SOL    HW231905   0.299   3.159   7.259 -0.8877 -1.6401 -0.1604
 6758SOL     OW31906   3.709   3.186   4.569 -0.4509  0.6555 -0.1106
 6758SOL    HW131907   3.678   3.189   4.479 -1.0572  2.5689  0.1564
 6758SOL    HW231908   3.683   3.270   4.608 -0.1231  1.0850 -0.8158
 6759SOL     OW31909   0.223   3.477   1.515  0.1946 -0.4218  0.1937
 6759SOL    HW131910   0.255   3.563   1.490  1.9708 -0.7225  1.4761
 6759SOL    HW231911   0.184   3.491   1.601  0.3793 -0.0681  0.2161
 6760SOL     OW31912   4.243   2.797  14.463  1.2781 -0.5348 -0.5494
 6760SOL    HW131913   4.303   2.826  14.532 -2.8300 -0.2095  2.8870
 6760SOL    HW231914   4.179   2.750  14.517  0.0448  2.7195  0.8225
 6761SOL     OW31915   1.845   3.622   3.296  0.2163  0.1547 -0.3717
 6761SOL    HW131916   1.859   3.698   3.239 -1.0401 -0.9876 -2.2027
 6761SOL    HW231917   1.928   3.575   3.291  0.1970 -0.0100  0.6830
 6762SOL     OW31918   2.082   4.292   2.970  0.1118 -0.1005 -0.0018
 6762SOL    HW131919   2.108   4.206   3.000 -2.4135 -0.0306  2.3540
 6762SOL    HW231920   2.006   4.301   3.028  0.9906 -0.4235  1.1826
 6763SOL     OW31921   3.997   2.873   4.763  0.2446 -0.0073  0.1944
 6763SOL    HW131922   4.006   2.802   4.699  0.7092  0.6171 -0.4252
 6763SOL    HW231923   3.990   2.949   4.706 -1.6680  0.0612  0.5053
 6764SOL     OW31924   1.174   0.808   9.348  0.0971  1.0959  0.2042
 6764SOL    HW131925   1.244   0.834   9.408  0.3006  1.5406 -0.2286
 6764SOL    HW231926   1.109   0.806   9.418 -2.2591 -2.0791 -2.1263
 6765SOL     OW31927   3.656   3.440   2.415  0.2173 -0.1591 -0.2035
 6765SOL    HW131928   3.690   3.517   2.461 -1.4315 -0.2099  1.1012
 6765SOL    HW231929   3.727   3.419   2.353  0.9502 -1.2527  0.9919
 6766SOL     OW31930   0.989   0.422   6.162 -0.7228 -0.1828  0.4145
 6766SOL    HW131931   0.926   0.356   6.190  0.6226 -1.7947 -0.3133
 6766SOL    HW231932   0.925   0.491   6.144  1.2089  1.5170  0.0132
 6767SOL     OW31933   3.624   1.318   9.084  0.0374 -0.7207 -0.5340
 6767SOL    HW131934   3.581   1.401   9.104  1.0532 -0.9590  2.5277
 6767SOL    HW231935   3.556   1.255   9.109 -0.3580  0.3197  0.9901
 6768SOL     OW31936   1.947   4.287   5.115 -0.0148 -0.6707 -0.4781
 6768SOL    HW131937   1.861   4.267   5.077 -0.0041  0.8150 -1.2558
 6768SOL    HW231938   1.973   4.371   5.080 -1.5338  0.3223  0.7826
 6769SOL     OW31939   2.284   1.267   2.476 -0.5754  0.4301 -0.3721
 6769SOL    HW131940   2.226   1.192   2.489  1.0080 -0.7512 -0.1835
 6769SOL    HW231941   2.270   1.317   2.557 -0.4545  2.4568 -1.5827
 6770SOL     OW31942   3.380   2.885   7.122 -0.1363  0.3962  0.4959
 6770SOL    HW131943   3.350   2.966   7.165 -0.5797 -0.2352  1.3833
 6770SOL    HW231944   3.459   2.871   7.174 -1.2483  1.0130  2.3716
 6771SOL     OW31945   3.748   2.742   1.996 -0.1758  0.1996  0.5847
 6771SOL    HW131946   3.763   2.835   1.976 -1.4077  1.1550  3.9905
 6771SOL    HW231947   3.699   2.747   2.078 -0.3981 -2.5030  0.5888
 6772SOL     OW31948   1.831   4.362   5.393  0.2196 -0.0621 -0.2423
 6772SOL    HW131949   1.753   4.311   5.370  0.1159  0.3600 -0.8143
 6772SOL    HW231950   1.896   4.338   5.327  1.6118 -0.3271  1.2234
 6773SOL     OW31951   4.325   0.876  15.980 -0.0304 -0.1695 -0.2090
 6773SOL    HW131952   4.404   0.860  15.928 -0.1606 -1.8954  0.1523
 6773SOL    HW231953   4.264   0.818  15.935  0.5080 -1.7286  1.0695
 6774SOL     OW31954   1.084   1.639   3.486 -0.1031  0.0583 -0.5930
 6774SOL    HW131955   0.996   1.677   3.476  0.3722  0.8420 -1.7686
 6774SOL    HW231956   1.074   1.553   3.447 -4.1767  0.1031  0.3496
 6775SOL     OW31957   3.117   1.378   3.342  0.7453 -0.0590 -0.0771
 6775SOL    HW131958   3.135   1.422   3.425  0.3385  0.5637 -0.3175
 6775SOL    HW231959   3.040   1.428   3.313  0.0688 -0.6321  0.7419
 6776SOL     OW31960   4.346   0.538   9.546 -0.2194  0.5465 -0.5980
 6776SOL    HW131961   4.267   0.563   9.593 -0.7293 -0.9834 -0.6219
 6776SOL    HW231962   4.364   0.455   9.590  1.5631  0.8794 -0.6734
 6777SOL     OW31963   0.650   2.037   8.574  0.5293 -0.2774  0.1829
 6777SOL    HW131964   0.563   2.076   8.580  0.0986 -1.1513 -0.2968
 6777SOL    HW231965   0.633   1.952   8.615 -1.0968 -0.3518 -0.6030
 6778SOL     OW31966   0.828   1.543  12.323  0.5934  0.1341 -0.3715
 6778SOL    HW131967   0.923   1.546  12.306  0.3752 -2.9397 -2.2054
 6778SOL    HW231968   0.817   1.449  12.336 -1.4910  0.3864 -0.3193
 6779SOL     OW31969   4.410   0.222   9.326 -0.4418  0.0294 -0.0873
 6779SOL    HW131970   4.411   0.236   9.420  0.8506 -2.8148  0.3305
 6779SOL    HW231971   4.375   0.133   9.325  1.9208 -0.9246  1.4215
 6780SOL     OW31972   4.627   1.786   2.748 -0.5085 -0.0215 -0.5956
 6780SOL    HW131973   4.540   1.750   2.730 -0.8975  0.4669  0.3551
 6780SOL    HW231974   4.617   1.819   2.837  0.2290 -0.8022 -0.2253
 6781SOL     OW31975   1.349   0.330   0.711  0.1857  0.1562 -0.1957
 6781SOL    HW131976   1.413   0.388   0.669  0.6080  0.3450  0.7175
 6781SOL    HW231977   1.406   0.299   0.782 -0.0902 -0.4966 -0.2532
 6782SOL     OW31978   3.490   4.175   5.446 -0.4276 -0.5151 -0.1440
 6782SOL    HW131979   3.461   4.202   5.533 -0.8382 -2.5835  0.3624
 6782SOL    HW231980   3.508   4.082   5.454  0.8818 -0.6196 -4.1068
 6783SOL     OW31981   2.267   1.476   2.984 -0.8539 -0.3248  0.8394
 6783SOL    HW131982   2.317   1.500   3.063  0.4335 -2.1233  0.5692
 6783SOL    HW231983   2.271   1.381   2.996 -0.4553 -0.4152 -0.0741
 6784SOL     OW31984   0.990   3.723  15.567 -0.0264  0.2329  0.4939
 6784SOL    HW131985   0.925   3.770  15.621 -0.3479  2.6677 -1.9929
 6784SOL    HW231986   1.005   3.653  15.631  1.9168  1.2525  1.1612
 6785SOL     OW31987   2.224   0.060   6.233  0.1599 -0.0173  0.0044
 6785SOL    HW131988   2.153   0.123   6.243 -0.9122 -1.2132 -0.0593
 6785SOL    HW231989   2.209   0.029   6.143  0.7314  1.9685 -0.7748
 6786SOL     OW31990   0.262   0.005   6.497  0.4327  0.0716  0.0033
 6786SOL    HW131991   0.352   4.726   6.468  1.3771  1.6700  2.1020
 6786SOL    HW231992   0.202   4.683   6.450 -0.3198 -0.5052  1.6902
 6787SOL     OW31993   4.012   2.578   8.768  0.7362  0.3297 -0.7994
 6787SOL    HW131994   3.965   2.495   8.765 -0.6106  1.1565 -2.4825
 6787SOL    HW231995   4.068   2.571   8.846 -1.8158  1.5956  1.1333
 6788SOL     OW31996   1.464   2.812  11.540  0.0590 -0.3182  0.2696
 6788SOL    HW131997   1.455   2.725  11.500 -1.0549  1.1970 -2.8390
 6788SOL    HW231998   1.472   2.861  11.458 -1.8132 -0.6264 -0.1009
 6789SOL     OW31999   3.260   0.608   3.220 -0.6345  0.7816  0.2536
 6789SOL    HW132000   3.280   0.702   3.223 -1.8102  0.9839  1.4448
 6789SOL    HW232001   3.268   0.584   3.312  1.1865  0.9008  0.1282
 6790SOL     OW32002   0.380   0.397  13.843 -0.1701  0.0469 -0.8023
 6790SOL    HW132003   0.333   0.463  13.893  1.9875  0.0874  1.1321
 6790SOL    HW232004   0.324   0.324  13.871 -0.2111 -0.1496 -1.3797
 6791SOL     OW32005   3.059   3.916  10.774  0.1914 -0.1456  0.1398
 6791SOL    HW132006   3.152   3.894  10.770  0.3764  0.4123  1.4862
 6791SOL    HW232007   3.055   3.953  10.862 -1.0194 -3.4019  1.4567
 6792SOL     OW32008   2.909   1.539  10.339 -0.1068  0.0943 -0.6989
 6792SOL    HW132009   2.998   1.559  10.310  0.2389 -0.3813  0.0475
 6792SOL    HW232010   2.891   1.477  10.268 -0.4769 -1.7982  1.0291
 6793SOL     OW32011   3.999   3.138   5.595 -0.0614  0.1646  0.0310
 6793SOL    HW132012   3.981   3.181   5.679 -3.2506  2.2343 -1.7118
 6793SOL    HW232013   3.949   3.057   5.606 -1.9242  1.2384 -0.5665
 6794SOL     OW32014   0.119   3.222   2.636 -0.0384 -0.3758  0.0221
 6794SOL    HW132015   0.180   3.230   2.563  0.0334 -1.0437  0.0093
 6794SOL    HW232016   0.051   3.284   2.613  0.2713 -0.6827 -1.7135
 6795SOL     OW32017   1.395   4.503   2.620 -0.1597 -0.0581  0.2184
 6795SOL    HW132018   1.355   4.478   2.703  1.3738  0.3099  1.0660
 6795SOL    HW232019   1.375   4.437   2.553 -2.0322  0.0643  0.6778
 6796SOL     OW32020   4.124   3.429   9.561  0.1564 -0.2428  0.1133
 6796SOL    HW132021   4.132   3.334   9.552  2.0332 -0.0921  0.3232
 6796SOL    HW232022   4.138   3.449   9.469  1.7227 -2.3113 -0.0851
 6797SOL     OW32023   0.224   2.076   8.775  0.2415 -0.5114 -0.1396
 6797SOL    HW132024   0.197   2.078   8.683 -0.7349  1.8186  0.2177
 6797SOL    HW232025   0.303   2.022   8.768  1.2214  0.6932  1.8642
 6798SOL     OW32026   2.196   1.685   6.016 -0.2558  0.1275  0.0954
 6798SOL    HW132027   2.213   1.779   6.009 -0.4863  0.1739  0.1518
 6798SOL    HW232028   2.283   1.652   6.037  0.1631 -1.2530 -3.7780
 6799SOL     OW32029   1.663   4.184   9.346  0.0501  0.5685  0.2059
 6799SOL    HW132030   1.752   4.166   9.315  0.0213 -0.4929  0.7144
 6799SOL    HW232031   1.609   4.205   9.270  1.5064  1.2889 -0.6212
 6800SOL     OW32032   2.824   0.357   6.982  0.1813  0.1356  0.6049
 6800SOL    HW132033   2.739   0.342   6.942  0.0825  1.2507  0.4071
 6800SOL    HW232034   2.872   0.326   6.905 -0.4869 -0.0257  0.2574
 6801SOL     OW32035   2.723   1.441  16.685 -0.2596 -0.6384  0.4885
 6801SOL    HW132036   2.645   1.492  16.707  0.4090 -0.4148  2.3308
 6801SOL    HW232037   2.720   1.363  16.740  0.2827 -0.7215  0.4058
 6802SOL     OW32038   3.507   0.803  17.150 -0.0266 -0.0078  0.8362
 6802SOL    HW132039   3.542   0.891  17.135  0.6490 -0.5437 -0.6293
 6802SOL    HW232040   3.579   0.753  17.188  0.3637 -0.6062 -0.7361
 6803SOL     OW32041   3.849   1.260   3.026 -0.3608 -0.3362 -0.3516
 6803SOL    HW132042   3.853   1.354   3.008  1.7485 -0.6798 -1.7787
 6803SOL    HW232043   3.941   1.247   3.002 -0.3314  0.4642 -0.6893
 6804SOL     OW32044   1.493   0.024   2.163  0.0196 -0.1155  0.4607
 6804SOL    HW132045   1.502   0.118   2.152 -0.9107 -0.1165 -0.2822
 6804SOL    HW232046   1.497   0.007   2.258  1.4626 -2.9319 -0.1021
 6805SOL     OW32047   1.015   3.406  16.231  0.4906  0.0476  0.1586
 6805SOL    HW132048   1.105   3.430  16.251  0.2274  0.6302  0.6289
 6805SOL    HW232049   1.010   3.418  16.136  0.6079 -0.0227  0.1444
 6806SOL     OW32050   2.293   4.076   3.638  0.2537 -0.3421 -0.0748
 6806SOL    HW132051   2.310   4.033   3.555  0.8966 -2.0066  0.9339
 6806SOL    HW232052   2.204   4.103   3.614  0.8093  1.1106 -0.4946
 6807SOL     OW32053   2.473   4.697   3.979  0.1088 -0.2511 -0.0011
 6807SOL    HW132054   2.473   4.604   4.002  0.7996  0.2361  2.0434
 6807SOL    HW232055   2.382   4.725   3.982 -0.3668 -1.5810 -2.2073
 6808SOL     OW32056   1.701   1.846  11.047 -0.4435  0.0084 -0.2574
 6808SOL    HW132057   1.774   1.873  10.992  0.2132  0.5192  0.8628
 6808SOL    HW232058   1.644   1.923  11.050 -0.5166  0.0358 -2.1002
 6809SOL     OW32059   2.018   1.752   7.204  0.5673 -0.0620  0.3523
 6809SOL    HW132060   1.986   1.664   7.224  0.1968  0.0550  0.2701
 6809SOL    HW232061   2.007   1.797   7.288  1.3718 -0.9332  0.9246
 6810SOL     OW32062   3.039   3.160  16.923  0.3480 -0.2851  0.5136
 6810SOL    HW132063   2.958   3.204  16.896  0.4345  0.5881  1.6784
 6810SOL    HW232064   3.077   3.151  16.835  0.5461  1.5308  0.4085
 6811SOL     OW32065   3.314   1.593   5.872  0.7147  0.4283 -0.3111
 6811SOL    HW132066   3.359   1.514   5.903  0.2747  0.1294 -0.4375
 6811SOL    HW232067   3.317   1.638   5.957 -2.1406  0.3486 -0.1651
 6812SOL     OW32068   1.878   0.975   7.762  0.3426 -0.0486  0.1080
 6812SOL    HW132069   1.969   1.005   7.759  0.3282 -0.0917 -0.6251
 6812SOL    HW232070   1.872   0.968   7.858  1.6464  1.1145  0.2708
 6813SOL     OW32071   0.661   0.243   9.260  0.2345  0.4667  0.4267
 6813SOL    HW132072   0.653   0.279   9.172  0.1953  2.2539  1.1673
 6813SOL    HW232073   0.590   0.179   9.251 -1.9256  3.3004 -2.5202
 6814SOL     OW32074   3.411   3.163  17.201 -0.9536 -0.3586 -0.1377
 6814SOL    HW132075   3.363   3.085  17.177 -1.3588 -0.3489  0.6487
 6814SOL    HW232076   3.354   3.207  17.264  1.3505  0.5027  1.3442
 6815SOL     OW32077   1.414   4.406   3.534  0.2950 -0.4365  0.2230
 6815SOL    HW132078   1.425   4.320   3.492  0.5467 -1.2832  2.0530
 6815SOL    HW232079   1.319   4.415   3.522  0.7728  0.8206 -2.6499
 6816SOL     OW32080   0.639   0.227   1.435  0.1707 -0.3977 -0.3353
 6816SOL    HW132081   0.700   0.278   1.489 -2.4872  0.1909  2.0819
 6816SOL    HW232082   0.693   0.216   1.357  2.2136  1.4814  0.7997
 6817SOL     OW32083   4.517   2.632  12.449 -0.3062 -0.0869  0.3917
 6817SOL    HW132084   4.526   2.540  12.474 -0.0183 -0.0418  0.4455
 6817SOL    HW232085   4.426   2.645  12.421 -1.2528 -2.2892  2.5019
 6818SOL     OW32086   3.272   3.743   6.082  0.2586  0.0638 -0.8980
 6818SOL    HW132087   3.224   3.733   6.164 -0.9320  0.6546 -1.5318
 6818SOL    HW232088   3.223   3.685   6.024  1.7154 -1.0449 -1.0430
 6819SOL     OW32089   0.550   1.352  10.195  0.5845 -0.5056 -0.2295
 6819SOL    HW132090   0.634   1.341  10.239  1.3844  2.2774 -1.0586
 6819SOL    HW232091   0.502   1.279  10.234  0.4286  0.0040  0.5196
 6820SOL     OW32092   1.630   2.539   6.981  0.6333 -0.5229  0.0800
 6820SOL    HW132093   1.676   2.531   6.898 -1.0150 -0.6379 -0.8129
 6820SOL    HW232094   1.614   2.633   6.969 -1.7920 -0.6792  2.2571
 6821SOL     OW32095   0.559   1.252   3.776  0.4615  0.4291 -0.5373
 6821SOL    HW132096   0.628   1.270   3.712  2.1089 -1.9487  0.5552
 6821SOL    HW232097   0.614   1.239   3.853  0.7409  0.2231 -0.7683
 6822SOL     OW32098   2.194   3.622   2.642 -0.6656  0.3860  0.3496
 6822SOL    HW132099   2.264   3.682   2.666 -0.3964  0.2618 -0.1152
 6822SOL    HW232100   2.238   3.554   2.590 -2.1459 -1.3168  1.3177
 6823SOL     OW32101   0.820   0.338  11.808  0.5659 -0.8868 -0.6239
 6823SOL    HW132102   0.746   0.323  11.749  0.0858  0.5038 -0.3703
 6823SOL    HW232103   0.831   0.246  11.829 -2.6919 -0.7746  1.5277
 6824SOL     OW32104   0.064   1.011   5.688 -0.4388  0.5707 -0.0910
 6824SOL    HW132105   0.150   1.051   5.697 -1.0585  2.0437 -0.7043
 6824SOL    HW232106   0.011   1.069   5.743 -0.9224  1.6823 -1.7246
 6825SOL     OW32107   4.380   0.987   4.229  0.0307 -0.2664  0.6161
 6825SOL    HW132108   4.338   0.925   4.169 -1.2098  1.4218 -0.2675
 6825SOL    HW232109   4.306   1.024   4.277 -0.0324 -0.6211  0.7903
 6826SOL     OW32110   2.690   3.766   8.027  0.2843  0.6776  0.4013
 6826SOL    HW132111   2.766   3.717   7.995 -0.0470  0.1313  0.4393
 6826SOL    HW232112   2.662   3.688   8.075 -0.6334 -0.9057 -2.6836
 6827SOL     OW32113   0.645   1.556  11.264  0.1420  0.1611  0.0315
 6827SOL    HW132114   0.711   1.500  11.304 -0.1322  0.3039  0.6835
 6827SOL    HW232115   0.656   1.646  11.294 -0.1807  0.6804 -1.4048
 6828SOL     OW32116   2.780   2.747   8.015 -0.5030  0.0731 -0.6910
 6828SOL    HW132117   2.754   2.707   7.933  2.3133 -2.5680 -0.2959
 6828SOL    HW232118   2.871   2.716   8.019  0.1722  2.4616  2.3350
 6829SOL     OW32119   1.153   3.970   8.029 -0.2024  0.1490  0.0125
 6829SOL    HW132120   1.221   3.998   7.968 -0.3202 -1.5516 -0.8931
 6829SOL    HW232121   1.204   3.944   8.105  0.4882 -0.7354 -0.7630
 6830SOL     OW32122   0.156   0.981   3.051 -0.0676 -0.2180 -0.4656
 6830SOL    HW132123   0.191   0.966   3.139 -0.5620 -1.3343 -0.4616
 6830SOL    HW232124   0.199   1.067   3.042 -2.3566  0.8341 -1.3872
 6831SOL     OW32125   2.894   0.848  12.493  0.2677 -0.2359  0.7243
 6831SOL    HW132126   2.848   0.802  12.423  0.5510 -1.1278  1.1190
 6831SOL    HW232127   2.972   0.793  12.490 -0.3355 -1.0185 -0.6066
 6832SOL     OW32128   1.962   1.671   6.676  0.3846 -0.0043  0.1353
 6832SOL    HW132129   1.883   1.660   6.729 -0.4876 -1.2590 -1.4453
 6832SOL    HW232130   2.015   1.713   6.744 -0.6808  1.1820  0.2211
 6833SOL     OW32131   1.694   0.409   6.206 -0.0561  0.4156  0.4016
 6833SOL    HW132132   1.777   0.369   6.180  0.6653  0.5189  2.4862
 6833SOL    HW232133   1.635   0.333   6.206 -1.4292  1.4852  0.4419
 6834SOL     OW32134   2.469   2.470   4.815  0.1684  0.1832  0.0928
 6834SOL    HW132135   2.472   2.534   4.886 -2.0355  1.6291 -1.1278
 6834SOL    HW232136   2.507   2.507   4.736 -1.7478 -0.2609 -1.0339
 6835SOL     OW32137   1.815   3.395   2.270 -0.1151  0.1806  0.4631
 6835SOL    HW132138   1.812   3.345   2.351  0.8305  3.9302  2.7916
 6835SOL    HW232139   1.802   3.320   2.212  1.9721  0.3667 -0.2478
 6836SOL     OW32140   2.969   3.184   8.507 -0.3578  0.1416  0.5519
 6836SOL    HW132141   2.936   3.186   8.597 -1.6207  0.6804  0.0782
 6836SOL    HW232142   2.910   3.117   8.472  1.3429 -2.1011  1.9760
 6837SOL     OW32143   2.724   3.900   8.651 -0.5355 -0.1563 -0.1193
 6837SOL    HW132144   2.694   3.991   8.650 -3.2769 -1.0811 -0.1062
 6837SOL    HW232145   2.802   3.906   8.596  0.7629  0.3756  1.7694
 6838SOL     OW32146   1.096   2.429   4.807 -0.6991 -0.0065 -0.0694
 6838SOL    HW132147   1.024   2.489   4.790 -0.2452  0.9772  1.4517
 6838SOL    HW232148   1.168   2.493   4.800 -1.6684  0.9220 -1.4400
 6839SOL     OW32149   4.638   0.198   3.043  0.2153 -0.1431  0.3540
 6839SOL    HW132150   4.626   0.195   3.138  1.8288  3.9338  0.6419
 6839SOL    HW232151   4.636   0.293   3.036  0.4134 -0.2079 -0.5256
 6840SOL     OW32152   4.109   2.206  16.814  0.0180  0.0837 -0.0344
 6840SOL    HW132153   4.056   2.130  16.839  1.8483 -0.9762  0.5938
 6840SOL    HW232154   4.099   2.272  16.882 -1.6646 -1.1934  0.9568
 6841SOL     OW32155   3.221   1.216   8.329 -0.4386 -0.0187 -0.0147
 6841SOL    HW132156   3.139   1.169   8.317  0.3924 -1.6002  0.5126
 6841SOL    HW232157   3.281   1.151   8.366  0.6675  1.5210  0.9159
 6842SOL     OW32158   2.866   2.470   3.750  0.7118  0.6219  0.1136
 6842SOL    HW132159   2.918   2.508   3.679 -0.8050  0.0796 -1.2740
 6842SOL    HW232160   2.876   2.539   3.816 -1.8015  0.8194  0.2825
 6843SOL     OW32161   0.360   2.456   2.476  0.4611  0.4941 -0.1532
 6843SOL    HW132162   0.277   2.471   2.432 -0.2162  0.7300  1.2120
 6843SOL    HW232163   0.383   2.544   2.508 -0.2416  1.1099 -1.3921
 6844SOL     OW32164   1.687   2.648  17.406  0.2312  0.3427 -0.2078
 6844SOL    HW132165   1.661   2.591  17.478 -1.7309 -0.1241 -1.3007
 6844SOL    HW232166   1.603   2.688  17.384 -0.5396 -0.6721  0.8326
 6845SOL     OW32167   4.252   3.568   8.303  0.1979  0.3279 -0.8381
 6845SOL    HW132168   4.320   3.556   8.236 -0.7825 -0.3648 -1.6964
 6845SOL    HW232169   4.308   3.574   8.380 -0.5760 -0.8615 -0.1888
 6846SOL     OW32170   2.752   4.346  12.433 -0.0011  0.1064  0.1933
 6846SOL    HW132171   2.660   4.330  12.452  0.2359  0.1937  1.3886
 6846SOL    HW232172   2.736   4.371  12.342  1.7028 -1.3794 -0.5142
 6847SOL     OW32173   4.112   3.810   8.902  0.7247  0.3402  0.4927
 6847SOL    HW132174   4.196   3.856   8.907  0.0886  1.5342  0.0229
 6847SOL    HW232175   4.103   3.773   8.991  0.2064 -2.2753 -0.6412
 6848SOL     OW32176   1.842   2.259   7.851  0.1993  0.3975  0.4756
 6848SOL    HW132177   1.752   2.279   7.874  0.4656  2.9656 -0.7328
 6848SOL    HW232178   1.833   2.199   7.776  1.9997 -0.3620  0.8520
 6849SOL     OW32179   2.859   1.499   9.940 -0.0159  0.1464 -0.3222
 6849SOL    HW132180   2.808   1.428   9.980  0.3440  0.3151  0.4383
 6849SOL    HW232181   2.833   1.477   9.850  1.2125  0.2845 -0.7041
 6850SOL     OW32182   1.081   4.669   5.591  0.2458 -0.2219 -0.3799
 6850SOL    HW132183   1.015   4.611   5.552  0.3999  0.6068 -1.8485
 6850SOL    HW232184   1.135   4.683   5.514 -0.8794 -0.9282 -1.2923
 6851SOL     OW32185   0.757   3.795   7.014  0.0680 -0.0147 -0.0642
 6851SOL    HW132186   0.751   3.785   6.919 -2.1741 -1.8451  0.2600
 6851SOL    HW232187   0.666   3.820   7.035 -0.3592 -1.0347 -0.7067
 6852SOL     OW32188   3.311   0.955   8.421 -0.4777 -0.4150  0.0039
 6852SOL    HW132189   3.251   0.909   8.363  1.2238 -0.8049 -1.4301
 6852SOL    HW232190   3.347   0.876   8.463  0.3559 -0.7547 -1.3569
 6853SOL     OW32191   3.828   0.260   9.169  0.2882  0.1432  0.2445
 6853SOL    HW132192   3.894   0.328   9.154  2.2753 -1.3170  2.3558
 6853SOL    HW232193   3.759   0.316   9.204 -1.2435 -0.5409 -1.6928
 6854SOL     OW32194   1.152   0.533   0.900 -0.2798  0.2680  0.1925
 6854SOL    HW132195   1.107   0.459   0.941 -0.6769 -0.1436 -1.0027
 6854SOL    HW232196   1.200   0.560   0.979 -0.0229 -1.2092  0.5279
 6855SOL     OW32197   4.208   1.513   8.477 -0.1955 -0.0352  0.4612
 6855SOL    HW132198   4.125   1.472   8.452  1.1896 -0.6595 -3.0814
 6855SOL    HW232199   4.246   1.443   8.531  1.5884 -0.1648 -0.9914
 6856SOL     OW32200   0.153   3.949  17.649  0.2088  0.8181  0.4151
 6856SOL    HW132201   0.156   3.977  17.558  0.3118  0.3942  0.2914
 6856SOL    HW232202   0.220   3.881  17.651  0.5741  1.1890  0.8006
 6857SOL     OW32203   2.370   1.057   3.413  0.2704  0.2964  0.0517
 6857SOL    HW132204   2.301   0.994   3.435  1.1967 -0.9394 -0.5958
 6857SOL    HW232205   2.400   1.036   3.325  0.6769 -0.9168  0.4670
 6858SOL     OW32206   2.492   2.847   1.927  0.0244  0.1047  0.6080
 6858SOL    HW132207   2.587   2.850   1.911  0.2663  0.0053  2.0312
 6858SOL    HW232208   2.478   2.804   1.842  3.3045  0.5280 -0.1517
 6859SOL     OW32209   1.534   4.620   5.760  0.5092  0.0100  0.3704
 6859SOL    HW132210   1.471   4.672   5.712 -0.4158 -0.4990  1.0299
 6859SOL    HW232211   1.568   4.682   5.825  2.1929  0.0335 -0.5113
 6860SOL     OW32212   3.929   0.090   8.199 -0.3284 -0.2783 -0.5135
 6860SOL    HW132213   3.847   0.071   8.246 -1.6388  1.9426 -1.8833
 6860SOL    HW232214   3.905   0.181   8.178 -0.9712  0.0761  1.6468
 6861SOL     OW32215   0.696   2.575   5.527  0.0018 -0.1905 -0.4221
 6861SOL    HW132216   0.725   2.524   5.452 -1.4802 -1.0850 -0.3848
 6861SOL    HW232217   0.632   2.518   5.568  0.0135 -0.5498 -0.9075
 6862SOL     OW32218   0.529   2.184   1.969  0.0703  0.1055 -0.3015
 6862SOL    HW132219   0.506   2.197   2.061  0.6223 -0.3195 -0.1025
 6862SOL    HW232220   0.539   2.278   1.952  0.1181  0.3669  1.2005
 6863SOL     OW32221   2.391   1.159   9.133 -0.1863  0.2714  0.0295
 6863SOL    HW132222   2.462   1.213   9.099 -0.1675  0.0867 -0.2278
 6863SOL    HW232223   2.425   1.132   9.218 -1.1054 -1.9069 -0.2767
 6864SOL     OW32224   2.338   1.256   7.734 -0.6525 -0.4808 -0.2816
 6864SOL    HW132225   2.377   1.333   7.776  1.4539 -0.3192 -2.5278
 6864SOL    HW232226   2.380   1.265   7.649 -0.0579 -0.1851  0.0393
 6865SOL     OW32227   1.532   0.438   9.119  0.2869 -0.0367  0.1951
 6865SOL    HW132228   1.564   0.392   9.196  3.9395  2.1541  0.0071
 6865SOL    HW232229   1.454   0.482   9.152  0.2850 -0.6310  0.9779
 6866SOL     OW32230   2.466   1.244   7.488  0.4713 -0.0289 -0.0224
 6866SOL    HW132231   2.542   1.236   7.431  0.5209  1.4984 -0.1494
 6866SOL    HW232232   2.418   1.166   7.459 -0.2362 -0.3240  1.9208
 6867SOL     OW32233   1.981   0.902  10.902 -0.8496  0.2042 -0.3856
 6867SOL    HW132234   1.966   0.921  10.994  2.1254  0.3613  0.0613
 6867SOL    HW232235   2.044   0.830  10.903  0.2091  1.1894  1.7796
 6868SOL     OW32236   1.233   3.630   0.490 -0.6226 -0.1769 -0.1536
 6868SOL    HW132237   1.192   3.579   0.420 -0.2509  0.9699 -1.2105
 6868SOL    HW232238   1.156   3.657   0.539  0.1289  0.9711  0.3842
 6869SOL     OW32239   3.455   0.372   3.720  0.2108 -0.3328  0.1215
 6869SOL    HW132240   3.551   0.365   3.718  0.2015  0.1876 -2.0728
 6869SOL    HW232241   3.446   0.443   3.657 -0.9635  0.1783  0.8610
 6870SOL     OW32242   0.371   1.870   3.672 -0.6527 -0.0214  0.0004
 6870SOL    HW132243   0.310   1.864   3.599 -0.5107 -1.1224 -0.0282
 6870SOL    HW232244   0.347   1.798   3.729  0.6149 -1.8095 -1.7250
 6871SOL     OW32245   1.568   2.827   7.371  0.6228  0.0599 -0.8540
 6871SOL    HW132246   1.477   2.805   7.393  0.7280  0.4798 -0.0251
 6871SOL    HW232247   1.589   2.904   7.423 -2.4328  0.1532  0.2587
 6872SOL     OW32248   3.493   4.190  15.630 -0.3411  0.0016 -0.3906
 6872SOL    HW132249   3.431   4.260  15.610 -0.7814 -0.3637 -0.3027
 6872SOL    HW232250   3.499   4.190  15.726  0.2433  0.5147 -0.4240
 6873SOL     OW32251   3.790   0.303   3.161 -0.2142  0.0251 -0.1210
 6873SOL    HW132252   3.876   0.270   3.136 -0.5742 -0.8717 -0.1841
 6873SOL    HW232253   3.746   0.219   3.177 -0.4567 -0.2820 -2.3980
 6874SOL     OW32254   1.724   0.263   6.999  0.1322  1.0984  0.0189
 6874SOL    HW132255   1.776   0.335   6.962  1.5623 -0.7324 -1.5154
 6874SOL    HW232256   1.635   0.297   7.011 -1.3327 -3.3690  1.5788
 6875SOL     OW32257   0.654   4.247   5.654  0.2095 -0.1842 -0.2796
 6875SOL    HW132258   0.655   4.320   5.716  0.4113 -0.4949  0.0829
 6875SOL    HW232259   0.636   4.299   5.575 -1.0610 -1.4350 -0.7987
 6876SOL     OW32260   2.633   4.445   7.907  0.2442 -0.5174  0.1589
 6876SOL    HW132261   2.711   4.392   7.924  1.9038  1.0843 -2.4019
 6876SOL    HW232262   2.597   4.418   7.991  0.0908  0.4962  0.4207
 6877SOL     OW32263   3.024   3.344  11.867  0.4555 -0.0568  0.2550
 6877SOL    HW132264   2.973   3.425  11.875  0.7910  0.0090  1.8435
 6877SOL    HW232265   3.076   3.336  11.947 -0.5648  1.6979  1.0948
 6878SOL     OW32266   1.747   2.912   8.991 -0.1857  0.0763  0.6037
 6878SOL    HW132267   1.819   2.905   9.054  2.0391 -2.9496 -2.2892
 6878SOL    HW232268   1.744   3.006   9.006  3.7417  0.2628  0.3046
 6879SOL     OW32269   3.709   1.317   1.747 -0.2897 -0.2045  0.2264
 6879SOL    HW132270   3.648   1.244   1.750  0.7995 -1.1723 -1.3225
 6879SOL    HW232271   3.651   1.387   1.779  0.0724  0.3189 -0.2612
 6880SOL     OW32272   0.023   2.272   8.815 -0.3170  0.1768  0.1165
 6880SOL    HW132273   4.694   2.208   8.784 -0.1118  0.5803 -1.1450
 6880SOL    HW232274   0.110   2.247   8.786 -0.4990 -0.8453  0.4411
 6881SOL     OW32275   4.650   3.713   3.032 -0.0514  0.2449 -0.5301
 6881SOL    HW132276   4.566   3.695   3.075  2.3532  1.0825  4.5658
 6881SOL    HW232277   4.701   3.636   3.058 -1.2862  0.2239  1.8808
 6882SOL     OW32278   3.123   4.158   2.050  0.3447  0.2958 -0.1497
 6882SOL    HW132279   3.149   4.077   2.006 -2.5967  0.1562 -1.6360
 6882SOL    HW232280   3.056   4.137   2.114  0.8623 -1.1088 -0.0641
 6883SOL     OW32281   2.451   0.014   7.987  0.2507 -0.2290  0.4788
 6883SOL    HW132282   2.406   0.098   7.977  0.2470 -0.1230  1.3811
 6883SOL    HW232283   2.542   0.034   7.962  0.3584 -0.8036  0.4171
 6884SOL     OW32284   1.024   3.897   2.306  0.3015  0.2394 -0.6408
 6884SOL    HW132285   0.997   3.860   2.390  0.6914  1.0548 -0.1612
 6884SOL    HW232286   0.979   3.847   2.238 -0.1253  1.0099 -0.9237
 6885SOL     OW32287   0.048   3.121  17.353  0.0084 -0.4747  0.4226
 6885SOL    HW132288   0.098   3.068  17.415  0.2231 -0.0954  0.5711
 6885SOL    HW232289   0.106   3.196  17.341  0.1954 -0.7860 -0.6858
 6886SOL     OW32290   3.393   3.452   3.713 -0.0990 -0.1408 -0.6171
 6886SOL    HW132291   3.353   3.496   3.638 -1.1763 -0.3411 -0.1524
 6886SOL    HW232292   3.476   3.499   3.703  1.2534 -2.3785 -0.0065
 6887SOL     OW32293   1.426   1.201   6.373 -0.7987 -0.2555  0.0044
 6887SOL    HW132294   1.396   1.111   6.377  1.3148 -0.8551  2.8064
 6887SOL    HW232295   1.446   1.207   6.280 -0.3520 -0.4122  0.0920
 6888SOL     OW32296   0.752   1.836  15.653  0.6101 -0.3323  0.1052
 6888SOL    HW132297   0.680   1.781  15.684 -1.4534  2.8318  1.0045
 6888SOL    HW232298   0.719   1.924  15.670  0.7189 -0.2355 -0.1918
 6889SOL     OW32299   3.826   1.246   7.506 -0.2527  0.3915 -0.8386
 6889SOL    HW132300   3.918   1.247   7.480  0.0267 -0.0737  0.1451
 6889SOL    HW232301   3.827   1.181   7.577  1.4733  1.1527 -0.1566
 6890SOL     OW32302   2.127   1.617   1.705  0.1723 -0.1343 -0.7514
 6890SOL    HW132303   2.179   1.536   1.703  0.3669 -0.0633  1.2285
 6890SOL    HW232304   2.185   1.692   1.690 -0.1920  0.8585  2.7805
 6891SOL     OW32305   2.344   4.628   2.195 -0.0651 -0.6422 -0.2411
 6891SOL    HW132306   2.253   4.655   2.184  0.1439 -0.7781 -2.4006
 6891SOL    HW232307   2.333   4.534   2.206 -2.5567 -0.3181 -0.1019
 6892SOL     OW32308   0.429   4.597   5.803  0.1215  0.3641 -0.1366
 6892SOL    HW132309   0.337   4.624   5.804  0.6662  2.1157  3.2706
 6892SOL    HW232310   0.465   4.683   5.782 -0.8345  0.4372 -1.4827
 6893SOL     OW32311   2.488   3.617   0.003  0.2192 -0.0660 -0.1794
 6893SOL    HW132312   2.398   3.589   0.020 -0.4517  1.5838 -1.0739
 6893SOL    HW232313   2.524   3.615   0.092 -0.1572  0.5431 -0.0156
 6894SOL     OW32314   2.187   2.202   6.405 -0.0644 -0.2145  0.8046
 6894SOL    HW132315   2.263   2.161   6.364 -1.1682 -0.9802 -0.4454
 6894SOL    HW232316   2.136   2.222   6.327 -1.6896  0.0892  1.9315
 6895SOL     OW32317   1.570   1.276   3.520 -0.3948  0.1044 -0.2115
 6895SOL    HW132318   1.588   1.369   3.509 -0.8352  0.2382  0.1917
 6895SOL    HW232319   1.604   1.244   3.436  1.0681 -0.5423  0.6197
 6896SOL     OW32320   0.221   3.876   8.461 -0.1417  0.5431  0.2285
 6896SOL    HW132321   0.224   3.966   8.492  2.1143  0.3004  0.7263
 6896SOL    HW232322   0.146   3.872   8.403  0.9215 -1.1862 -1.0393
 6897SOL     OW32323   2.311   0.578   8.570 -0.2553 -0.6624  0.6713
 6897SOL    HW132324   2.224   0.613   8.549 -0.7502 -2.2829  0.0125
 6897SOL    HW232325   2.323   0.540   8.483 -0.4493  1.9152 -0.4710
 6898SOL     OW32326   1.602   4.294   4.181 -0.9424  0.1172 -0.2462
 6898SOL    HW132327   1.551   4.333   4.252  0.9857 -0.4254  1.4347
 6898SOL    HW232328   1.547   4.306   4.104  0.3458 -0.9511 -1.3477
 6899SOL     OW32329   4.668   4.356   5.250 -0.0254  0.2816  0.5197
 6899SOL    HW132330   4.712   4.341   5.166 -2.2820 -0.2603 -0.5821
 6899SOL    HW232331   4.582   4.389   5.222 -0.5337 -1.8998 -0.4958
 6900SOL     OW32332   3.989   1.228   7.264  0.2743 -0.1275  0.1379
 6900SOL    HW132333   4.038   1.296   7.310 -0.5227  1.6170 -1.5666
 6900SOL    HW232334   3.910   1.275   7.238 -0.1553 -0.6214  0.5722
 6901SOL     OW32335   4.585   0.366  15.540 -0.0671 -0.0981  0.0914
 6901SOL    HW132336   4.509   0.399  15.588  0.9928  0.9591  1.0397
 6901SOL    HW232337   4.641   0.444  15.539  2.3689 -1.8151  1.1257
 6902SOL     OW32338   4.633   0.201   6.159 -0.0572 -0.3083 -0.3111
 6902SOL    HW132339   4.539   0.217   6.170  0.0384 -0.3242  0.5502
 6902SOL    HW232340   4.652   0.159   6.243  1.2305  0.2022 -0.3465
 6903SOL     OW32341   4.543   3.118   8.404  0.1924  0.4393 -0.4656
 6903SOL    HW132342   4.475   3.057   8.432  1.3498 -0.8444 -0.5161
 6903SOL    HW232343   4.592   3.073   8.336 -0.0486 -2.1354  1.0925
 6904SOL     OW32344   4.001   4.666   3.947 -0.2031 -0.7252  0.0869
 6904SOL    HW132345   3.955   4.667   4.031  1.8719  2.0066  1.1851
 6904SOL    HW232346   3.940   4.690   3.878 -0.1400  0.3947  0.4160
 6905SOL     OW32347   3.160   2.848   1.895 -0.0171  0.2791 -0.2033
 6905SOL    HW132348   3.150   2.843   1.800  1.0885 -0.5635 -0.2785
 6905SOL    HW232349   3.067   2.850   1.917 -0.0189  0.5531 -0.2457
 6906SOL     OW32350   3.213   1.883   3.356 -0.2404 -0.1024 -0.3385
 6906SOL    HW132351   3.263   1.933   3.421 -1.0987  0.2413  0.0468
 6906SOL    HW232352   3.281   1.854   3.295  0.1438 -0.6447  0.3588
 6907SOL     OW32353   2.903   3.924  16.526 -0.3242  0.0614  0.0564
 6907SOL    HW132354   2.976   3.959  16.475 -0.6496  0.0908 -0.3858
 6907SOL    HW232355   2.874   3.856  16.465 -0.1632  1.4317 -1.5189
 6908SOL     OW32356   2.850   1.785   3.222  0.1256 -0.3673  0.0341
 6908SOL    HW132357   2.812   1.872   3.206 -0.5219 -0.4705  1.0268
 6908SOL    HW232358   2.832   1.781   3.316 -1.0893 -2.0012 -0.2807
 6909SOL     OW32359   2.160   2.220   4.107 -0.1377 -0.2219 -0.0483
 6909SOL    HW132360   2.088   2.159   4.124  0.5532 -0.5862  1.5563
 6909SOL    HW232361   2.239   2.174   4.136  0.7101  1.2884  0.0383
 6910SOL     OW32362   4.472   1.134  13.047 -0.3360 -0.1797 -0.1424
 6910SOL    HW132363   4.427   1.092  12.973  0.5714 -3.1493  0.9788
 6910SOL    HW232364   4.560   1.132  13.008 -0.2316  0.2367  0.0810
 6911SOL     OW32365   0.487   2.114  16.509  0.2188  0.1666 -0.2470
 6911SOL    HW132366   0.416   2.173  16.482  0.1858 -0.2650 -1.1042
 6911SOL    HW232367   0.457   2.030  16.475  0.0553  0.0438  0.2033
 6912SOL     OW32368   0.983   0.609   8.192  0.1454 -0.5370  0.3120
 6912SOL    HW132369   0.961   0.696   8.160  1.3605  0.0552  1.1092
 6912SOL    HW232370   0.901   0.560   8.181  0.0375 -0.3393  0.2359
 6913SOL     OW32371   1.693   4.614   0.931  0.0098 -0.1375  0.2556
 6913SOL    HW132372   1.632   4.624   0.858  0.1444 -0.1628  0.1393
 6913SOL    HW232373   1.627   4.589   0.996 -0.0560 -0.3719  0.0989
 6914SOL     OW32374   0.040   1.237  10.753 -0.1788  0.1256  0.6265
 6914SOL    HW132375   0.050   1.145  10.730 -1.5061  0.1288  0.0297
 6914SOL    HW232376   0.049   1.278  10.667  0.5949 -2.1041 -0.3388
 6915SOL     OW32377   3.989   1.767   2.275 -0.1029 -0.2093  0.5141
 6915SOL    HW132378   3.926   1.820   2.226  0.0654 -1.3428 -0.9018
 6915SOL    HW232379   4.065   1.785   2.220  0.2897 -0.1256  1.0902
 6916SOL     OW32380   2.176   0.246   2.445  0.2739 -0.2385 -0.0685
 6916SOL    HW132381   2.236   0.320   2.454 -0.3549 -0.1348  3.2496
 6916SOL    HW232382   2.097   0.288   2.480  0.0455 -0.2759 -0.5468
 6917SOL     OW32383   2.019   0.573   3.905 -0.1666 -0.1062  0.0402
 6917SOL    HW132384   2.109   0.604   3.913  0.7456 -1.7941 -3.4955
 6917SOL    HW232385   1.996   0.568   3.812 -1.0917  2.8927  0.1106
 6918SOL     OW32386   2.497   4.527   0.840 -0.2370 -0.6458 -0.0863
 6918SOL    HW132387   2.574   4.489   0.797  0.6139  1.0995 -0.1104
 6918SOL    HW232388   2.432   4.457   0.836  0.1322 -1.0148  0.3536
 6919SOL     OW32389   2.225   2.318   3.854 -0.1041 -0.6913 -0.1262
 6919SOL    HW132390   2.264   2.391   3.901 -0.4042  0.2477 -1.3149
 6919SOL    HW232391   2.176   2.277   3.926  0.3650  0.2290  0.7088
 6920SOL     OW32392   2.023   2.676   2.479 -0.4517 -0.3032  0.0102
 6920SOL    HW132393   1.984   2.701   2.562 -2.3982  1.2782 -1.3979
 6920SOL    HW232394   2.034   2.582   2.489  0.8513 -0.1539  0.0902
 6921SOL     OW32395   3.957   1.658   5.407 -0.1101 -0.4132  0.0230
 6921SOL    HW132396   3.955   1.710   5.487  0.7320  3.7261 -2.6595
 6921SOL    HW232397   4.050   1.645   5.388  0.1087  1.5015 -0.1793
 6922SOL     OW32398   4.008   3.368   7.335 -0.3172  0.3408  0.5043
 6922SOL    HW132399   4.006   3.381   7.240  0.7650  2.0080  0.7044
 6922SOL    HW232400   3.995   3.274   7.335  1.1102  0.1338  0.2074
 6923SOL     OW32401   0.086   3.211  11.720 -0.2784 -0.0177 -0.3410
 6923SOL    HW132402   0.098   3.186  11.629  1.3350 -3.0519  0.6821
 6923SOL    HW232403   0.162   3.267  11.731 -1.3629  1.3810  0.0607
 6924SOL     OW32404   3.949   3.266   4.812 -0.8562 -0.4058 -0.0688
 6924SOL    HW132405   3.977   3.357   4.814  1.1320 -1.0602  1.0499
 6924SOL    HW232406   3.859   3.283   4.841 -1.3665 -1.2431 -1.1583
 6925SOL     OW32407   1.425   0.812  10.466  0.1419  0.2909  0.0906
 6925SOL    HW132408   1.490   0.877  10.439  0.9875 -0.0716  1.2338
 6925SOL    HW232409   1.449   0.735  10.415 -2.5346 -0.7927  0.4742
 6926SOL     OW32410   0.942   2.110   1.630 -0.4256 -0.3819 -0.3158
 6926SOL    HW132411   0.987   2.158   1.700  1.3864  0.8211 -2.2990
 6926SOL    HW232412   1.014   2.080   1.574 -0.4149  0.2115 -0.6252
 6927SOL     OW32413   1.973   2.673  17.356  0.6813 -0.0100  0.0153
 6927SOL    HW132414   1.955   2.745  17.296  0.4302 -1.7997 -2.0239
 6927SOL    HW232415   1.884   2.657  17.387  0.7178  0.1388  0.1977
 6928SOL     OW32416   2.448   0.779   8.674  0.0213 -0.6626 -0.3712
 6928SOL    HW132417   2.395   0.712   8.632  0.4279  0.0529 -2.0157
 6928SOL    HW232418   2.438   0.766   8.769 -0.4458 -2.3390 -0.6438
 6929SOL     OW32419   2.735   1.206   1.557 -0.1097 -0.3484  0.0843
 6929SOL    HW132420   2.652   1.208   1.509 -0.3177  1.1706  0.5065
 6929SOL    HW232421   2.780   1.277   1.511  2.7591 -2.8145 -0.8582
 6930SOL     OW32422   3.282   1.896   1.602  0.1064 -0.6250  0.3902
 6930SOL    HW132423   3.360   1.848   1.573 -0.6922 -1.3748 -0.4997
 6930SOL    HW232424   3.309   1.984   1.575 -0.9212 -0.3060  0.4041
 6931SOL     OW32425   2.878   0.247   7.354 -0.4741  0.0064  0.7410
 6931SOL    HW132426   2.821   0.189   7.304 -0.9119  0.0525  1.1899
 6931SOL    HW232427   2.920   0.184   7.413  1.9022  0.9033  0.0002
 6932SOL     OW32428   2.955   4.556   3.367 -0.3930  0.9529 -0.0117
 6932SOL    HW132429   2.865   4.587   3.380 -1.3759 -1.1081 -1.9396
 6932SOL    HW232430   2.962   4.554   3.272 -2.0564  0.5250 -0.1326
 6933SOL     OW32431   4.234   1.413   0.963  0.1070 -0.4635 -0.0566
 6933SOL    HW132432   4.200   1.441   0.878 -1.7584  0.3801  0.9964
 6933SOL    HW232433   4.157   1.385   1.013 -0.1743 -0.0137 -0.2434
 6934SOL     OW32434   1.311   0.517   4.566  0.3733 -0.2506 -0.0647
 6934SOL    HW132435   1.370   0.442   4.561  1.6436  0.7256  0.2972
 6934SOL    HW232436   1.294   0.548   4.477 -0.2662 -0.7000 -0.1009
 6935SOL     OW32437   2.820   0.573   1.573  0.3966 -0.8022 -0.2547
 6935SOL    HW132438   2.825   0.602   1.664 -1.6030  0.3031 -0.5123
 6935SOL    HW232439   2.730   0.598   1.556  0.3423  1.0999  2.7658
 6936SOL     OW32440   4.129   4.440  10.107 -0.3028  0.4520  0.2143
 6936SOL    HW132441   4.165   4.435  10.018  0.0664 -1.8894  0.4888
 6936SOL    HW232442   4.078   4.521  10.100 -0.0606  0.5152 -0.7958
 6937SOL     OW32443   3.640   2.130   6.002 -0.3753 -0.0698  0.3191
 6937SOL    HW132444   3.732   2.106   6.011 -0.6311 -1.3420 -0.4305
 6937SOL    HW232445   3.640   2.184   5.923 -1.1627 -1.1153 -0.4067
 6938SOL     OW32446   2.739   0.138   3.029  0.8489  0.0456  0.0280
 6938SOL    HW132447   2.704   0.208   2.975 -0.6868 -0.3453  0.5150
 6938SOL    HW232448   2.697   0.159   3.112  1.0007  0.9075 -0.1155
 6939SOL     OW32449   0.292   2.991   6.057  0.3912 -0.3818 -0.0942
 6939SOL    HW132450   0.265   3.080   6.033  1.0099 -0.1915 -0.0777
 6939SOL    HW232451   0.282   2.981   6.152 -0.1028  0.0675 -0.0941
 6940SOL     OW32452   3.266   4.727   4.880 -0.0568 -0.4251 -0.7958
 6940SOL    HW132453   3.323   4.672   4.935 -0.1501  1.4948  1.2147
 6940SOL    HW232454   3.201   4.665   4.847 -1.1177 -0.5659  1.5361
 6941SOL     OW32455   3.806   0.995  10.985 -0.1306 -0.6615  0.6574
 6941SOL    HW132456   3.724   0.973  10.940  1.2295  0.3754 -2.3034
 6941SOL    HW232457   3.819   0.913  11.033  3.0874 -0.3059  0.3836
 6942SOL     OW32458   3.655   4.626  17.321 -0.0781 -0.1109 -0.3208
 6942SOL    HW132459   3.606   4.658  17.245 -1.0221  0.0176  0.3373
 6942SOL    HW232460   3.587   4.629  17.388 -1.2607  0.1895 -1.5311
 6943SOL     OW32461   2.397   2.447   6.085  0.2229 -0.0238 -0.1768
 6943SOL    HW132462   2.308   2.481   6.094 -0.1792 -0.9533 -0.6029
 6943SOL    HW232463   2.389   2.379   6.152  1.2754  1.3750  1.3507
 6944SOL     OW32464   4.487   2.898  10.426  0.0680  0.2722  0.2323
 6944SOL    HW132465   4.559   2.886  10.488 -0.5366 -1.5238  0.5692
 6944SOL    HW232466   4.483   2.992  10.442 -0.2428  0.2961  0.0142
 6945SOL     OW32467   3.543   4.139   0.491 -0.3564  0.5203  0.4302
 6945SOL    HW132468   3.635   4.156   0.510 -0.4684  2.5753 -0.7657
 6945SOL    HW232469   3.551   4.080   0.417  1.1940 -2.2918  2.8192
 6946SOL     OW32470   3.916   0.883   0.535  0.5017 -0.4733  0.0978
 6946SOL    HW132471   3.821   0.877   0.538  0.3320  1.0288 -1.9221
 6946SOL    HW232472   3.934   0.814   0.471 -2.2743 -1.6451  0.6024
 6947SOL     OW32473   2.330   2.826   3.739 -0.3671 -0.0857 -0.6487
 6947SOL    HW132474   2.376   2.892   3.688  1.1956  0.3519  1.3516
 6947SOL    HW232475   2.397   2.763   3.764  0.3629  0.4209 -1.3561
 6948SOL     OW32476   2.326   4.320   2.790 -0.1319 -1.2295  0.0846
 6948SOL    HW132477   2.376   4.373   2.852 -1.3809 -1.3729  1.2200
 6948SOL    HW232478   2.261   4.287   2.851  0.3348 -1.1895  0.6036
 6949SOL     OW32479   4.127   4.292  10.588  0.3142  0.0152 -0.4600
 6949SOL    HW132480   4.131   4.296  10.492  0.6717 -1.0151 -0.4829
 6949SOL    HW232481   4.219   4.304  10.611  0.2177  1.3170 -0.7283
 6950SOL     OW32482   4.665   1.691   8.763 -0.4811  0.1961  0.0050
 6950SOL    HW132483   4.710   1.767   8.799 -1.2231 -0.6233  2.7109
 6950SOL    HW232484   4.654   1.640   8.844  0.8547 -1.1426 -0.6532
 6951SOL     OW32485   1.495   2.240  11.885 -0.4699  0.5403  0.4810
 6951SOL    HW132486   1.591   2.244  11.890 -0.4074 -1.7201  1.4483
 6951SOL    HW232487   1.474   2.329  11.914  1.9547  1.0590  0.6603
 6952SOL     OW32488   1.951   0.295   3.046 -0.6915  0.0556  0.4070
 6952SOL    HW132489   1.868   0.312   3.001 -0.8310  1.5022  1.2121
 6952SOL    HW232490   1.960   0.202   3.027  2.7005  0.4430  0.0850
 6953SOL     OW32491   2.779   1.446   6.032  0.1982  0.4262  0.3432
 6953SOL    HW132492   2.814   1.388   5.964  0.6618 -1.6252  2.3233
 6953SOL    HW232493   2.814   1.414   6.115  3.0136  0.6215 -0.7594
 6954SOL     OW32494   0.169   3.595   8.045  0.1622  0.1867  0.1571
 6954SOL    HW132495   0.130   3.523   7.997 -0.0414 -0.1693  0.8593
 6954SOL    HW232496   0.115   3.599   8.124 -1.0077  0.2257 -0.6586
 6955SOL     OW32497   3.517   2.376   0.863  0.2244 -0.4192 -0.6556
 6955SOL    HW132498   3.566   2.423   0.930  0.1044 -0.3670 -0.6044
 6955SOL    HW232499   3.563   2.292   0.860  0.6193 -0.1828 -1.3579
 6956SOL     OW32500   4.080   1.639  15.383  0.6843 -0.3273 -0.2345
 6956SOL    HW132501   3.997   1.622  15.337  0.1312  1.1761  0.2113
 6956SOL    HW232502   4.123   1.556  15.404  1.0120  0.2839  1.5671
 6957SOL     OW32503   3.156   4.169   7.075 -0.3117 -0.2499  0.5227
 6957SOL    HW132504   3.135   4.145   7.165 -0.4664  0.7512  0.7506
 6957SOL    HW232505   3.109   4.109   7.017  1.6200 -0.4026 -0.8853
 6958SOL     OW32506   0.589   1.325  15.138 -0.2337  0.3829 -0.5011
 6958SOL    HW132507   0.642   1.325  15.218  0.7909 -1.0654 -1.1895
 6958SOL    HW232508   0.657   1.331  15.071  1.2658  3.4145  1.3210
 6959SOL     OW32509   2.867   1.686   4.666  0.0921  0.0882  0.4036
 6959SOL    HW132510   2.954   1.670   4.704  0.1834 -1.5777 -0.4924
 6959SOL    HW232511   2.825   1.685   4.752  2.2166  0.2571  1.4657
 6960SOL     OW32512   1.735   4.425  10.296 -0.6641  0.0132 -0.1430
 6960SOL    HW132513   1.673   4.360  10.262 -0.1645  0.0655 -1.1307
 6960SOL    HW232514   1.773   4.377  10.370  2.9058  2.2021 -0.6089
 6961SOL     OW32515   3.582   0.129   4.570  0.0323 -0.4321 -0.0455
 6961SOL    HW132516   3.506   0.079   4.597  0.4438 -1.0627 -0.0586
 6961SOL    HW232517   3.565   0.140   4.476  1.8819 -0.5225 -0.3917
 6962SOL     OW32518   0.307   3.170  15.091  0.4370 -0.1466 -0.0766
 6962SOL    HW132519   0.214   3.187  15.075  0.9261  2.9653  0.2872
 6962SOL    HW232520   0.327   3.218  15.171  2.0515 -0.5027 -0.2757
 6963SOL     OW32521   2.888   1.049   5.556 -0.2153  0.3620 -0.2725
 6963SOL    HW132522   2.907   0.995   5.479 -1.4879 -0.6943  0.1419
 6963SOL    HW232523   2.819   1.002   5.604  0.1943  0.7113  0.6554
 6964SOL     OW32524   2.662   2.124   1.850 -0.0987 -0.3591  0.1687
 6964SOL    HW132525   2.684   2.123   1.943 -0.4842  0.0410  0.2620
 6964SOL    HW232526   2.598   2.195   1.857  0.4079  0.4427 -3.3833
 6965SOL     OW32527   4.078   4.021  11.235 -0.9762  0.0371 -0.2123
 6965SOL    HW132528   4.115   4.106  11.257 -0.4496 -0.1505 -0.3606
 6965SOL    HW232529   4.144   3.987  11.175  0.2089  2.3675 -0.2335
 6966SOL     OW32530   0.982   1.130   0.216  0.3075  0.2461  0.0058
 6966SOL    HW132531   0.967   1.036   0.206  0.3246  0.5320 -2.8886
 6966SOL    HW232532   0.968   1.128   0.310  1.5675 -1.6701  0.1534
 6967SOL     OW32533   0.306   3.160  13.061  0.1779 -0.1910 -0.6138
 6967SOL    HW132534   0.311   3.140  12.968 -0.2357 -0.9724 -0.4710
 6967SOL    HW232535   0.329   3.252  13.051  0.5211 -0.0519  1.5171
 6968SOL     OW32536   2.025   1.715   9.644 -0.3474  0.0970 -0.1940
 6968SOL    HW132537   1.992   1.677   9.562 -0.6651  2.2285 -1.0508
 6968SOL    HW232538   2.052   1.801   9.611 -0.4488  0.0469 -0.4098
 6969SOL     OW32539   3.469   0.490   7.305 -0.6104  0.1838 -0.4278
 6969SOL    HW132540   3.445   0.413   7.355  2.4083 -0.4955 -0.0532
 6969SOL    HW232541   3.539   0.453   7.252 -1.6534 -0.2752 -1.5025
 6970SOL     OW32542   2.100   1.637  14.500 -0.5080  0.0914 -0.2012
 6970SOL    HW132543   2.012   1.637  14.462 -0.3586  1.0671 -0.5409
 6970SOL    HW232544   2.142   1.584  14.432 -0.3188  0.2523 -0.2109
 6971SOL     OW32545   1.025   3.252  16.893  0.2791  0.3339 -0.1425
 6971SOL    HW132546   1.056   3.212  16.812 -2.6903 -0.1579 -1.0563
 6971SOL    HW232547   0.937   3.216  16.903 -0.7027  1.7879 -3.4025
 6972SOL     OW32548   0.758   3.774  17.191 -0.0815 -0.8477 -0.0113
 6972SOL    HW132549   0.721   3.763  17.103  0.8540  1.9672 -0.7542
 6972SOL    HW232550   0.851   3.789  17.172 -0.5366  1.7789 -0.2171
 6973SOL     OW32551   4.179   1.797   9.119 -0.8770  0.1233 -0.1281
 6973SOL    HW132552   4.161   1.809   9.212  1.8509  1.5813  0.2235
 6973SOL    HW232553   4.092   1.773   9.088 -0.9022 -1.2072  0.9591
 6974SOL     OW32554   3.684   1.035   6.091  0.0530  0.1770  0.5175
 6974SOL    HW132555   3.673   0.987   6.173  0.7047 -1.3343 -0.2749
 6974SOL    HW232556   3.643   0.978   6.026 -0.1379 -1.3626  1.9721
 6975SOL     OW32557   0.295   2.451  13.457  0.5704 -0.1377 -0.2571
 6975SOL    HW132558   0.340   2.419  13.535 -0.0732  1.3848  0.7306
 6975SOL    HW232559   0.342   2.404  13.387  1.2998 -0.5137  0.4757
 6976SOL     OW32560   1.190   4.466  15.188 -0.4129  0.0317  0.2567
 6976SOL    HW132561   1.188   4.561  15.184 -1.0628  0.0068 -0.1297
 6976SOL    HW232562   1.097   4.443  15.193 -0.8565  2.0276  0.9458
 6977SOL     OW32563   3.943   1.197   0.691  0.3475  0.0337  0.2972
 6977SOL    HW132564   3.976   1.271   0.741 -0.0699 -1.5602  2.9573
 6977SOL    HW232565   3.867   1.237   0.650  1.8863  0.9864 -1.6456
 6978SOL     OW32566   1.778   1.828   4.692  0.3453 -0.3473  0.0659
 6978SOL    HW132567   1.776   1.817   4.597 -2.1471 -0.4807  0.1413
 6978SOL    HW232568   1.746   1.917   4.711 -2.1479 -1.1776 -0.2401
 6979SOL     OW32569   0.920   3.725   1.296 -1.1525  0.2404 -0.3355
 6979SOL    HW132570   0.834   3.737   1.335 -0.0523  0.4386  2.1000
 6979SOL    HW232571   0.923   3.790   1.226 -0.0844 -0.1789 -0.6741
 6980SOL     OW32572   0.724   1.224   8.163 -0.4273 -0.2317 -0.0281
 6980SOL    HW132573   0.786   1.220   8.236 -1.9786  0.9274  1.3443
 6980SOL    HW232574   0.686   1.137   8.154 -0.4311 -0.2975  0.5980
 6981SOL     OW32575   1.037   2.057   2.584  0.3024  0.1417  0.1391
 6981SOL    HW132576   1.077   2.001   2.518  2.5833  0.9843  0.8081
 6981SOL    HW232577   0.947   2.029   2.568  0.6604 -0.8135 -0.2176
 6982SOL     OW32578   2.925   3.243   5.883  0.5564 -0.1484 -0.4627
 6982SOL    HW132579   3.013   3.278   5.897  1.2637 -1.6287 -1.1949
 6982SOL    HW232580   2.944   3.178   5.816  1.2683 -1.7402  1.2730
 6983SOL     OW32581   2.662   4.724   4.675 -0.7177 -0.3367 -0.3505
 6983SOL    HW132582   2.607   0.066   4.676 -1.6725 -1.0163  0.1078
 6983SOL    HW232583   2.705   4.734   4.590  0.1762  0.0480  0.1454
 6984SOL     OW32584   3.380   3.894  16.638  0.1409 -0.2773  0.2169
 6984SOL    HW132585   3.374   3.826  16.705 -1.4915 -0.3704 -0.0227
 6984SOL    HW232586   3.388   3.979  16.681  3.7812  0.1713 -1.3804
 6985SOL     OW32587   3.156   0.427   7.345  0.1616  0.2997 -0.2241
 6985SOL    HW132588   3.106   0.431   7.264  0.1008  0.3198 -0.1855
 6985SOL    HW232589   3.171   0.335   7.368  0.8590  0.5558  0.3498
 6986SOL     OW32590   0.715   2.173  16.675  0.3603  0.2420 -0.3591
 6986SOL    HW132591   0.630   2.155  16.634  0.7023 -2.1682 -0.0002
 6986SOL    HW232592   0.720   2.264  16.705 -1.4247  0.4677 -0.6986
 6987SOL     OW32593   3.836   3.002   1.888 -0.4794  0.5130  0.1510
 6987SOL    HW132594   3.897   3.052   1.942  0.6415  0.2091 -0.8289
 6987SOL    HW232595   3.898   2.982   1.818 -0.8334  0.2704 -0.0961
 6988SOL     OW32596   3.045   1.687   8.469 -0.2414  0.3837 -0.1250
 6988SOL    HW132597   3.116   1.720   8.414  0.7613 -0.4199  0.6964
 6988SOL    HW232598   2.976   1.698   8.404 -0.2940 -0.0657 -0.1480
 6989SOL     OW32599   3.426   0.938   9.616 -0.1826 -0.1835  0.1887
 6989SOL    HW132600   3.417   0.897   9.702  2.1303  2.6512  1.7455
 6989SOL    HW232601   3.482   1.012   9.636  0.2456 -1.2038  2.7393
 6990SOL     OW32602   1.915   1.081  10.048  0.1217 -0.2851  0.1977
 6990SOL    HW132603   1.848   1.015  10.030 -1.3427  1.4401 -0.5842
 6990SOL    HW232604   1.988   1.024  10.025  0.0181 -0.5913  0.6235
 6991SOL     OW32605   0.028   1.484   9.862 -0.2309  0.5413  0.1807
 6991SOL    HW132606   0.053   1.418   9.797  0.7175 -0.5299  1.6085
 6991SOL    HW232607   0.112   1.491   9.908 -0.9955 -1.2357  1.8668
 6992SOL     OW32608   3.435   4.155   8.450 -0.2009  0.1105  0.2193
 6992SOL    HW132609   3.455   4.119   8.364  0.8393 -1.5116  1.1307
 6992SOL    HW232610   3.352   4.198   8.432  0.3368  0.2868 -1.7727
 6993SOL     OW32611   0.292   1.706   7.080  0.5260 -0.2429 -0.4033
 6993SOL    HW132612   0.269   1.751   7.162  5.3556  1.7990 -0.1740
 6993SOL    HW232613   0.202   1.699   7.048 -0.4787  2.5997  1.7322
 6994SOL     OW32614   0.412   3.730   8.313 -0.0623  0.0228  0.0165
 6994SOL    HW132615   0.388   3.639   8.326  0.1079 -0.1178 -0.6705
 6994SOL    HW232616   0.364   3.767   8.387  2.7535 -0.0399  1.8901
 6995SOL     OW32617   0.902   1.567   9.779 -0.5522 -0.0265 -0.1544
 6995SOL    HW132618   0.868   1.623   9.710  1.7465 -0.8768 -1.9953
 6995SOL    HW232619   0.966   1.633   9.807  0.3818 -0.6871 -0.7014
 6996SOL     OW32620   0.186   4.252   3.284  0.0248  0.1681  0.8429
 6996SOL    HW132621   0.140   4.267   3.202 -1.1890 -1.4631  1.2227
 6996SOL    HW232622   0.275   4.255   3.249 -0.8673 -0.6586 -1.4826
 6997SOL     OW32623   0.190   2.232   9.652 -0.0480  0.0237 -0.2729
 6997SOL    HW132624   0.240   2.287   9.593  0.2535 -0.1603 -0.1916
 6997SOL    HW232625   0.112   2.286   9.661  0.3325  0.6639 -0.8896
 6998SOL     OW32626   0.956   1.708  12.081 -0.6867  0.1738  0.4179
 6998SOL    HW132627   1.007   1.672  12.153 -1.2426 -2.3274 -0.4064
 6998SOL    HW232628   1.014   1.777  12.049  0.9869 -1.4947 -0.1450
 6999SOL     OW32629   3.588   1.972   2.945 -0.5158 -0.0232  0.0391
 6999SOL    HW132630   3.563   1.882   2.925 -1.3567  0.1323  0.3822
 6999SOL    HW232631   3.609   1.970   3.039 -0.6958 -0.6161  0.0598
 7000SOL     OW32632   2.196   3.588   9.698  0.7622 -0.6229  0.0266
 7000SOL    HW132633   2.168   3.679   9.706 -0.2535 -0.7627 -2.2185
 7000SOL    HW232634   2.211   3.579   9.604 -1.8185  0.3736 -0.4995
 7001SOL     OW32635   3.523   1.377  12.831 -0.0745 -0.0883 -0.2401
 7001SOL    HW132636   3.525   1.436  12.906  2.9382 -2.7568  1.8070
 7001SOL    HW232637   3.614   1.347  12.832 -0.9736 -2.8371  0.7657
 7002SOL     OW32638   2.010   2.972  11.690  0.3791  0.1049  0.0093
 7002SOL    HW132639   1.916   2.956  11.705  0.3697 -1.2446 -1.4794
 7002SOL    HW232640   2.040   2.882  11.678 -0.5547 -0.2566  0.4085
 7003SOL     OW32641   4.131   4.134   9.413 -0.0295 -0.1949  0.2465
 7003SOL    HW132642   4.185   4.197   9.461  0.1916  0.5687 -0.9973
 7003SOL    HW232643   4.065   4.109   9.477  0.3666  0.9942  1.1147
 7004SOL     OW32644   3.922   2.102   6.659 -0.2356  0.3393  0.0984
 7004SOL    HW132645   4.014   2.076   6.661 -0.4997 -0.7491 -1.2446
 7004SOL    HW232646   3.894   2.036   6.723 -0.1677 -0.5179 -0.7630
 7005SOL     OW32647   4.165   3.541   3.264  0.4037 -0.1240  0.6037
 7005SOL    HW132648   4.086   3.488   3.278  0.6410 -0.9508 -1.2061
 7005SOL    HW232649   4.191   3.561   3.354 -0.6678  3.5912  0.0748
 7006SOL     OW32650   2.285   2.576   4.026 -0.3185 -0.2586  0.2569
 7006SOL    HW132651   2.232   2.654   4.007  0.7192  0.4771  0.4111
 7006SOL    HW232652   2.347   2.616   4.087  1.0374 -2.4443  0.2973
 7007SOL     OW32653   1.341   1.013   0.864  0.7636 -0.4327 -0.3149
 7007SOL    HW132654   1.262   0.988   0.913  1.0265 -0.5239  0.0628
 7007SOL    HW232655   1.403   0.989   0.933  0.7526 -0.7173 -0.4040
 7008SOL     OW32656   1.297   1.057   5.010  0.3984 -1.1051 -0.9042
 7008SOL    HW132657   1.302   0.974   5.058 -0.6751 -1.8672 -2.1025
 7008SOL    HW232658   1.231   1.103   5.063  1.2382  0.3422 -1.1136
 7009SOL     OW32659   4.146   0.811   6.930 -0.2831 -0.2668  0.5479
 7009SOL    HW132660   4.163   0.856   7.013  1.8397  0.9052 -0.5191
 7009SOL    HW232661   4.218   0.748   6.938 -0.5624 -0.5551  0.7418
 7010SOL     OW32662   2.214   0.586   3.618 -0.7643 -0.5297 -0.0006
 7010SOL    HW132663   2.307   0.605   3.621 -0.4739 -2.3446  2.4554
 7010SOL    HW232664   2.211   0.495   3.649 -1.0619 -0.1352  1.0995
 7011SOL     OW32665   1.081   2.985  11.405  0.6497  0.0521 -0.4250
 7011SOL    HW132666   1.072   3.049  11.334  1.2254  0.9827  0.3377
 7011SOL    HW232667   1.113   3.044  11.473 -1.2331  2.3077 -1.4907
 7012SOL     OW32668   4.359   1.957   4.427 -0.8267 -0.3949 -0.2015
 7012SOL    HW132669   4.432   2.012   4.397 -1.5717  2.6995  3.6052
 7012SOL    HW232670   4.405   1.873   4.423 -1.2026 -0.5078 -2.3119
 7013SOL     OW32671   3.223   3.909  14.951 -0.2121  0.0571 -0.4089
 7013SOL    HW132672   3.169   3.887  14.876 -0.8347  0.1452  0.0129
 7013SOL    HW232673   3.242   3.819  14.980 -0.0326  0.0520 -0.5449
 7014SOL     OW32674   1.597   0.929   8.269  0.2923  0.0018 -0.0149
 7014SOL    HW132675   1.525   0.965   8.217 -0.5088 -1.5344  0.0495
 7014SOL    HW232676   1.628   1.008   8.313  0.1898 -0.5960  1.1330
 7015SOL     OW32677   3.529   0.789   4.120 -0.0641 -0.1285 -0.5226
 7015SOL    HW132678   3.541   0.767   4.027  0.3801 -0.2062 -0.4484
 7015SOL    HW232679   3.488   0.709   4.151 -1.7712 -0.2369 -3.1033
 7016SOL     OW32680   4.434   3.726   4.503  0.6794  0.0585  0.3156
 7016SOL    HW132681   4.366   3.786   4.532  0.5181  0.0670 -0.0797
 7016SOL    HW232682   4.510   3.772   4.539  0.8293 -1.3791  1.8308
 7017SOL     OW32683   1.325   2.579   4.756 -0.4308 -0.2764 -0.3827
 7017SOL    HW132684   1.373   2.624   4.824 -1.7602  0.3006  0.1635
 7017SOL    HW232685   1.306   2.649   4.694 -2.6817  0.3002  0.9569
 7018SOL     OW32686   4.080   2.180   1.993 -0.1565  0.5303 -0.5513
 7018SOL    HW132687   3.996   2.225   2.000 -0.3432  0.2436 -1.0223
 7018SOL    HW232688   4.141   2.242   2.034 -0.7303  1.3464 -0.9343
 7019SOL     OW32689   1.060   2.820  15.335  0.4826  0.5013 -0.2082
 7019SOL    HW132690   1.007   2.831  15.256  0.6626 -1.0120 -0.5314
 7019SOL    HW232691   1.143   2.857  15.306  0.3161 -0.3646 -1.7779
 7020SOL     OW32692   1.334   2.537   9.426 -0.5239 -0.1277 -0.4049
 7020SOL    HW132693   1.256   2.589   9.447 -1.0865 -1.0027 -0.3372
 7020SOL    HW232694   1.336   2.464   9.487  0.3528 -1.6372 -2.2153
 7021SOL     OW32695   3.523   3.017   4.687  0.2584  0.3026  0.1705
 7021SOL    HW132696   3.590   3.055   4.630  1.1369  1.1535  1.7703
 7021SOL    HW232697   3.529   3.073   4.765 -0.4772  1.2612 -0.4493
 7022SOL     OW32698   4.305   1.257   2.322 -0.2870 -0.1999 -0.0958
 7022SOL    HW132699   4.259   1.210   2.392 -0.5625  1.1931  0.6543
 7022SOL    HW232700   4.242   1.328   2.309  1.1184  0.9568 -0.5958
 7023SOL     OW32701   4.197   2.662   6.908 -0.0296  0.0154  0.2463
 7023SOL    HW132702   4.219   2.661   7.001 -1.8454  0.8307  0.6873
 7023SOL    HW232703   4.199   2.571   6.879 -0.1922  0.8842 -2.5809
 7024SOL     OW32704   3.619   1.451  13.299  0.2224 -0.4735  0.4573
 7024SOL    HW132705   3.529   1.418  13.299 -0.3977  1.2179  1.1408
 7024SOL    HW232706   3.659   1.402  13.371 -0.5894  0.2927  1.4388
 7025SOL     OW32707   2.437   4.509   2.502 -0.0325  0.4757 -0.6029
 7025SOL    HW132708   2.371   4.475   2.442 -1.5984  0.3668  1.1856
 7025SOL    HW232709   2.413   4.601   2.514  1.2026  0.9096 -1.4809
 7026SOL     OW32710   1.823   4.394   3.992 -1.0701  0.3968 -0.0146
 7026SOL    HW132711   1.854   4.308   3.966 -0.6726  0.1032  1.4010
 7026SOL    HW232712   1.780   4.382   4.077 -0.5883  1.7183  0.4275
 7027SOL     OW32713   3.651   0.687   8.812 -1.0894  0.3274  0.5208
 7027SOL    HW132714   3.736   0.666   8.775 -0.0290  0.9960  2.5960
 7027SOL    HW232715   3.668   0.779   8.834  3.1265 -0.7621  1.8392
 7028SOL     OW32716   0.705   2.802   7.065 -0.2874 -0.0790  0.0314
 7028SOL    HW132717   0.659   2.726   7.100 -0.0925 -0.8168 -1.3429
 7028SOL    HW232718   0.721   2.763   6.979  0.0885 -1.7993  0.8918
 7029SOL     OW32719   0.747   2.078  16.981 -0.1629 -0.1496 -0.1209
 7029SOL    HW132720   0.840   2.055  16.980  0.0874  0.8887 -0.6973
 7029SOL    HW232721   0.737   2.103  16.890 -1.4380 -1.0344 -0.2319
 7030SOL     OW32722   2.066   3.199   2.964 -0.0367  0.4142 -0.4780
 7030SOL    HW132723   2.043   3.150   3.042  0.2855  0.4690 -0.3526
 7030SOL    HW232724   2.049   3.286   3.001  0.1668 -0.5953  1.9687
 7031SOL     OW32725   2.535   3.592   4.853  0.2050  0.4690 -0.4302
 7031SOL    HW132726   2.568   3.682   4.852  0.8900  0.2204  0.7475
 7031SOL    HW232727   2.495   3.591   4.939 -0.4078 -0.1809 -0.7213
 7032SOL     OW32728   0.641   3.508   7.045  0.3263  1.0900 -0.1882
 7032SOL    HW132729   0.618   3.435   7.103  1.7249  1.5480  0.9655
 7032SOL    HW232730   0.729   3.533   7.075 -0.1586  1.0212  1.3166
 7033SOL     OW32731   4.080   1.319   5.097 -0.2209  0.4117 -0.0677
 7033SOL    HW132732   4.046   1.296   5.183 -0.7834  0.3024 -0.3156
 7033SOL    HW232733   4.046   1.407   5.079 -1.1372  0.0136 -0.3267
 7034SOL     OW32734   2.786   2.645  17.253 -0.1560  0.2413 -0.0259
 7034SOL    HW132735   2.718   2.620  17.315 -0.6748 -0.8361 -1.0213
 7034SOL    HW232736   2.740   2.712  17.203  1.2062 -0.6209 -2.4647
 7035SOL     OW32737   0.686   2.102   7.627  0.0895  0.1373 -0.2381
 7035SOL    HW132738   0.595   2.132   7.629 -0.1664 -0.6444 -0.1996
 7035SOL    HW232739   0.729   2.144   7.702 -1.5156  1.6151 -0.1315
 7036SOL     OW32740   3.984   4.145   6.719  0.9440  0.3694 -0.3344
 7036SOL    HW132741   4.079   4.159   6.719  1.1339 -0.9318  0.6272
 7036SOL    HW232742   3.955   4.233   6.695 -2.2085  0.2974  3.1957
 7037SOL     OW32743   3.458   2.581   3.385  0.3301  0.3622 -0.3610
 7037SOL    HW132744   3.472   2.487   3.396  1.0864  0.5512  0.3682
 7037SOL    HW232745   3.524   2.613   3.448 -1.4237  2.9206  0.1729
 7038SOL     OW32746   0.207   1.668   7.595  0.2123  0.7143 -0.3962
 7038SOL    HW132747   0.190   1.590   7.541  0.2285  1.9373 -2.1682
 7038SOL    HW232748   0.147   1.735   7.565 -0.0455  1.2470  1.3537
 7039SOL     OW32749   2.535   0.421  11.751  0.3419  0.4997 -0.2187
 7039SOL    HW132750   2.457   0.415  11.696 -1.3378  0.8257  2.1160
 7039SOL    HW232751   2.568   0.501  11.712  2.6264 -1.3121 -2.0220
 7040SOL     OW32752   1.267   2.090   4.675  0.0429  0.1319  0.2062
 7040SOL    HW132753   1.342   2.150   4.678 -2.2087  2.9732 -0.5747
 7040SOL    HW232754   1.283   2.033   4.751 -0.6853 -0.0828  0.1930
 7041SOL     OW32755   2.885   2.140   5.968  0.3610 -0.0461 -0.2204
 7041SOL    HW132756   2.924   2.064   6.011 -2.4165 -0.8964  0.7760
 7041SOL    HW232757   2.798   2.108   5.944  0.0012  1.1311 -0.4915
 7042SOL     OW32758   0.657   0.663   8.562 -0.4423 -0.0362  0.3538
 7042SOL    HW132759   0.569   0.635   8.589 -1.5685  0.8855 -2.2855
 7042SOL    HW232760   0.631   0.739   8.509 -0.9730 -0.8176 -0.5259
 7043SOL     OW32761   0.286   2.509   7.363 -0.7260 -0.6690  0.1917
 7043SOL    HW132762   0.265   2.580   7.303  0.6017  1.5241  2.3696
 7043SOL    HW232763   0.300   2.562   7.441  0.0519 -0.7256  0.0919
 7044SOL     OW32764   1.317   0.363   5.384 -0.1620 -0.2879 -0.4059
 7044SOL    HW132765   1.226   0.381   5.406  0.0748  0.0605  0.2841
 7044SOL    HW232766   1.354   0.397   5.466 -0.4960 -0.5386 -0.1528
 7045SOL     OW32767   4.707   2.665   4.102 -0.6157  0.2281  0.0082
 7045SOL    HW132768   4.642   2.619   4.050  1.4426 -1.7532 -0.8067
 7045SOL    HW232769   0.028   2.690   4.029  0.1594 -1.8560 -0.1017
 7046SOL     OW32770   0.240   1.837   4.892 -0.8808  0.0538 -0.2816
 7046SOL    HW132771   0.172   1.781   4.929 -2.2672  1.3461 -0.8798
 7046SOL    HW232772   0.318   1.782   4.899 -1.5534 -0.9382 -0.5627
 7047SOL     OW32773   2.978   3.917  15.602  0.2517  0.0105 -0.5049
 7047SOL    HW132774   2.981   3.868  15.520 -0.5633 -1.0000  0.0621
 7047SOL    HW232775   3.054   3.973  15.589 -0.3316  0.8830 -0.1899
 7048SOL     OW32776   1.744   2.876   9.499  0.1253  0.1987  0.2358
 7048SOL    HW132777   1.689   2.806   9.465  0.1198  0.7649 -0.9174
 7048SOL    HW232778   1.687   2.927   9.556  0.7759 -1.4682  2.3711
 7049SOL     OW32779   3.384   3.486  12.014  0.3379  0.2932 -0.2181
 7049SOL    HW132780   3.303   3.439  12.034  0.5704 -0.5442 -1.2543
 7049SOL    HW232781   3.423   3.495  12.101 -0.1661 -2.8813  0.3531
 7050SOL     OW32782   0.876   2.055  17.673 -0.1447  0.3532 -0.2507
 7050SOL    HW132783   0.851   1.964  17.656  1.6863 -0.2477  0.3268
 7050SOL    HW232784   0.803   2.100  17.630 -0.3387 -0.6792 -0.9880
 7051SOL     OW32785   4.118   2.568   4.863  0.4070  0.4358 -0.0407
 7051SOL    HW132786   4.039   2.617   4.839 -0.5369 -1.3106 -0.5065
 7051SOL    HW232787   4.184   2.637   4.861  2.1108 -1.1095  3.1040
 7052SOL     OW32788   1.710   2.547   2.600 -0.1890  0.4639 -0.7721
 7052SOL    HW132789   1.701   2.523   2.508 -0.6204  0.9146 -0.8449
 7052SOL    HW232790   1.637   2.493   2.630  1.7063 -0.0655  2.9700
 7053SOL     OW32791   2.851   1.819  10.033  0.0187  0.1376  0.0971
 7053SOL    HW132792   2.779   1.756  10.043  0.2076 -0.1442 -0.3068
 7053SOL    HW232793   2.877   1.836  10.123  1.9966  1.4156 -0.7175
 7054SOL     OW32794   3.089   1.477   3.652  0.6075  0.7608  0.0328
 7054SOL    HW132795   3.145   1.408   3.689  0.1247  0.3899  0.0829
 7054SOL    HW232796   3.102   1.551   3.711 -0.0807  1.3220 -0.5140
 7055SOL     OW32797   3.637   3.839   2.000  0.1238  0.2507  0.0838
 7055SOL    HW132798   3.663   3.915   1.947 -0.7618 -0.0443 -0.7623
 7055SOL    HW232799   3.577   3.885   2.059 -1.8143  1.8425 -3.1632
 7056SOL     OW32800   4.296   4.246   2.261 -0.1947 -0.2108 -0.6300
 7056SOL    HW132801   4.353   4.169   2.266 -0.3859 -0.4474 -2.2663
 7056SOL    HW232802   4.212   4.201   2.276 -0.4797 -0.1331 -1.9941
 7057SOL     OW32803   1.682   0.809   6.796 -0.4588  0.1850  0.3829
 7057SOL    HW132804   1.674   0.757   6.876 -1.0036  1.6380  1.2517
 7057SOL    HW232805   1.745   0.876   6.821 -1.2066  1.5429 -1.4469
 7058SOL     OW32806   2.969   1.725   2.978 -0.2753  0.0107 -0.8449
 7058SOL    HW132807   3.044   1.683   3.021 -0.4899 -1.2561 -1.7089
 7058SOL    HW232808   2.928   1.757   3.058 -0.7343 -1.2543 -0.5775
 7059SOL     OW32809   2.582   0.772   9.099 -0.2286  0.7391 -0.8726
 7059SOL    HW132810   2.497   0.751   9.136  1.6042 -1.3943  2.1116
 7059SOL    HW232811   2.630   0.831   9.156  1.4534  1.5919 -3.1642
 7060SOL     OW32812   1.578   1.711   4.155 -0.0346  0.0917 -0.5438
 7060SOL    HW132813   1.651   1.768   4.131 -0.7044 -0.3944 -3.7380
 7060SOL    HW232814   1.508   1.772   4.132  1.7002  2.5384  0.6628
 7061SOL     OW32815   2.339   4.667   3.082  0.3112  0.0469 -0.0760
 7061SOL    HW132816   2.383   0.016   3.085 -0.6814  0.5776 -0.7027
 7061SOL    HW232817   2.326   4.651   3.176  0.9262  2.3483  0.3807
 7062SOL     OW32818   2.502   1.178   4.064 -0.1455 -0.0621 -0.2291
 7062SOL    HW132819   2.511   1.188   3.969  0.7609  0.4775 -0.0870
 7062SOL    HW232820   2.505   1.085   4.085  0.2462  0.1670  0.7058
 7063SOL     OW32821   4.530   3.264   6.466 -0.2858 -0.2113 -0.4183
 7063SOL    HW132822   4.499   3.222   6.386 -0.6465 -0.3400 -0.2121
 7063SOL    HW232823   4.570   3.187   6.506 -0.2581  0.5609  1.0270
 7064SOL     OW32824   0.775   1.567   3.467  0.4545 -0.4924 -0.7173
 7064SOL    HW132825   0.731   1.640   3.510  2.2926 -1.0809  2.1797
 7064SOL    HW232826   0.797   1.613   3.386 -0.7229 -0.2297 -0.8889
 7065SOL     OW32827   1.361   3.063   8.002 -0.2929  0.1254 -0.0161
 7065SOL    HW132828   1.359   3.095   7.912  0.6728 -0.6960 -0.3260
 7065SOL    HW232829   1.268   3.070   8.024 -0.0123  0.5072  1.0747
 7066SOL     OW32830   1.922   0.047   3.245 -0.1470 -0.8068  0.0430
 7066SOL    HW132831   1.966   4.713   3.291  1.7292  0.2667 -0.1317
 7066SOL    HW232832   1.967   0.047   3.160 -1.9178 -2.6306 -0.8971
 7067SOL     OW32833   0.411   0.126   7.573  0.2098  0.7348 -0.0195
 7067SOL    HW132834   0.321   0.094   7.566  0.9638 -1.7318  1.4145
 7067SOL    HW232835   0.442   0.070   7.644  2.4352  1.3576 -0.4976
 7068SOL     OW32836   3.503   4.620   1.710  0.1409 -0.2146 -0.0759
 7068SOL    HW132837   3.533   4.701   1.670 -0.8071 -0.8094 -1.9784
 7068SOL    HW232838   3.553   4.607   1.791  0.2945 -1.6942 -0.4025
 7069SOL     OW32839   2.977   3.397   6.964  0.2470 -0.0240  0.0963
 7069SOL    HW132840   3.067   3.369   6.948 -0.4303 -3.5802  2.4873
 7069SOL    HW232841   2.967   3.465   6.898 -2.0499 -1.2773 -0.8269
 7070SOL     OW32842   1.910   2.540   9.333  0.1825 -0.4852  0.2545
 7070SOL    HW132843   1.814   2.549   9.339  0.3366  1.1548  0.3880
 7070SOL    HW232844   1.941   2.626   9.363 -2.6692  0.4178  0.6550
 7071SOL     OW32845   4.724   1.296   8.180  0.3586  0.3940  0.8082
 7071SOL    HW132846   4.664   1.221   8.187  0.8538 -0.0144  0.7166
 7071SOL    HW232847   4.702   1.346   8.259  0.0680 -0.0254  0.9930
 7072SOL     OW32848   0.165   4.538   5.917 -0.2317  0.0357 -0.4275
 7072SOL    HW132849   0.180   4.617   5.865  1.0855 -1.3889 -2.2175
 7072SOL    HW232850   0.080   4.515   5.881  0.4413 -2.7582 -0.2352
 7073SOL     OW32851   3.221   4.573   3.743  0.2437  0.1596 -0.1457
 7073SOL    HW132852   3.132   4.556   3.774  0.3634 -0.7937 -0.3331
 7073SOL    HW232853   3.200   4.664   3.721  2.6495  0.5991 -0.6677
 7074SOL     OW32854   1.373   2.444  13.638  0.4062  0.5200  0.1347
 7074SOL    HW132855   1.377   2.497  13.559  2.6134  0.4711  0.2101
 7074SOL    HW232856   1.465   2.421  13.654  0.2659  0.6569  1.1456
 7075SOL     OW32857   0.652   0.469   6.545  0.3836 -0.3806 -0.0566
 7075SOL    HW132858   0.660   0.534   6.476 -0.4164 -0.4512 -0.2076
 7075SOL    HW232859   0.641   0.516   6.627 -2.4465  0.8487 -1.1599
 7076SOL     OW32860   1.327   0.462  14.394 -0.0972 -0.4436  0.0264
 7076SOL    HW132861   1.263   0.495  14.330 -0.1272  2.1203  1.3731
 7076SOL    HW232862   1.404   0.502  14.353  0.5741 -1.7136  0.0485
 7077SOL     OW32863   3.736   2.501   2.901  0.1367 -0.2451 -0.3615
 7077SOL    HW132864   3.831   2.500   2.915 -0.0251 -2.2348  0.6710
 7077SOL    HW232865   3.701   2.560   2.967  0.4890 -0.7603  0.2932
 7078SOL     OW32866   0.461   3.505  12.072 -0.0739 -0.6425  0.2606
 7078SOL    HW132867   0.475   3.589  12.116  1.0937 -1.3156  1.1755
 7078SOL    HW232868   0.408   3.527  11.995 -0.7045  0.7173  1.0885
 7079SOL     OW32869   3.211   3.480  16.083  0.0388  0.6976 -0.0363
 7079SOL    HW132870   3.210   3.569  16.045  0.0491  0.4332 -0.6666
 7079SOL    HW232871   3.233   3.430  16.004  0.8900  0.2467  0.5022
 7080SOL     OW32872   4.500   3.647   5.990 -0.1111 -0.4761 -0.1389
 7080SOL    HW132873   4.498   3.598   6.071  2.9915 -2.7379 -1.4227
 7080SOL    HW232874   4.590   3.681   5.981 -0.8857  2.1054  1.8807
 7081SOL     OW32875   1.703   2.072   4.814  0.1263 -0.3909  0.3263
 7081SOL    HW132876   1.635   2.095   4.877  0.9252  0.0255  1.0269
 7081SOL    HW232877   1.704   2.153   4.761  0.2489 -0.2396  0.5617
 7082SOL     OW32878   2.966   0.325   8.968 -0.1659 -0.1941 -0.3804
 7082SOL    HW132879   2.928   0.292   8.887 -0.4807 -1.0167  0.0981
 7082SOL    HW232880   3.030   0.390   8.940 -0.4204  0.7112  1.1367
 7083SOL     OW32881   3.965   3.070   8.341 -0.2429  0.5471 -0.1647
 7083SOL    HW132882   3.960   3.152   8.291  1.7230 -0.1732 -1.5790
 7083SOL    HW232883   4.060   3.057   8.335 -0.4282 -0.5547 -0.7491
 7084SOL     OW32884   0.171   4.246   4.530 -0.1145  0.1065 -0.0826
 7084SOL    HW132885   0.195   4.201   4.610  1.3570  2.2595  0.6801
 7084SOL    HW232886   0.076   4.234   4.532 -0.0195 -0.5267  0.6508
 7085SOL     OW32887   0.214   2.471   8.197 -0.0523 -0.0690 -0.7509
 7085SOL    HW132888   0.285   2.473   8.262 -1.1732 -0.2703  0.4711
 7085SOL    HW232889   0.241   2.543   8.139 -0.6425  0.3744 -0.4683
 7086SOL     OW32890   3.430   0.564   3.534  0.2744  0.0931  0.2546
 7086SOL    HW132891   3.501   0.606   3.485  0.9237 -0.6190  0.5810
 7086SOL    HW232892   3.384   0.643   3.565 -1.3076 -1.1896  1.1752
 7087SOL     OW32893   2.778   4.006   7.146  0.7206 -0.6661 -0.0205
 7087SOL    HW132894   2.736   4.038   7.066  0.1249 -0.9992  0.1585
 7087SOL    HW232895   2.868   4.009   7.115  0.4423 -1.6651 -0.9395
 7088SOL     OW32896   1.513   1.263   7.249  0.3983 -0.3472 -0.8833
 7088SOL    HW132897   1.444   1.322   7.279  1.9648 -0.1925  2.3611
 7088SOL    HW232898   1.586   1.277   7.309 -1.4188  0.5984  1.1159
 7089SOL     OW32899   1.576   0.224   2.522  0.5568 -0.0015 -0.0192
 7089SOL    HW132900   1.490   0.184   2.536 -1.8364  4.6115 -1.6345
 7089SOL    HW232901   1.558   0.245   2.430 -1.8117 -0.5080  0.3281
 7090SOL     OW32902   3.731   2.722   4.047 -0.6024  0.1027 -0.0658
 7090SOL    HW132903   3.740   2.799   3.990 -0.5654  0.1488  0.0020
 7090SOL    HW232904   3.819   2.684   4.047 -0.2644  0.8677 -1.5268
 7091SOL     OW32905   4.617   0.014   7.691  0.0766  0.4015  0.0129
 7091SOL    HW132906   4.593   4.669   7.737  0.6599  1.1430  1.6087
 7091SOL    HW232907   4.578   0.007   7.604  1.3386  1.5186 -0.6358
 7092SOL     OW32908   4.405   0.371   1.461  0.1769 -0.4022  0.1242
 7092SOL    HW132909   4.436   0.281   1.463 -0.1499 -0.5297 -0.6616
 7092SOL    HW232910   4.483   0.409   1.421  0.5422  0.5946  1.7834
 7093SOL     OW32911   0.686   1.543   8.656 -0.5010  0.0529  0.3202
 7093SOL    HW132912   0.599   1.511   8.631  0.0382 -2.5128  1.7691
 7093SOL    HW232913   0.689   1.499   8.741  0.1576 -0.0996  0.2177
 7094SOL     OW32914   1.409   3.651   3.612  0.0960  0.2195  0.8632
 7094SOL    HW132915   1.451   3.613   3.689  0.0776  0.2258  0.8763
 7094SOL    HW232916   1.476   3.691   3.557  1.2287  1.0543  2.8859
 7095SOL     OW32917   4.581   2.419  16.848 -0.4909 -0.1624 -0.0030
 7095SOL    HW132918   4.567   2.464  16.765 -1.0302  0.4768  0.4283
 7095SOL    HW232919   4.591   2.328  16.822  1.9072  0.1904 -0.3135
 7096SOL     OW32920   4.086   2.696   9.239  0.3007 -0.0308  0.4944
 7096SOL    HW132921   4.173   2.669   9.269  0.1148 -0.0949  0.9743
 7096SOL    HW232922   4.048   2.688   9.327  1.4199 -0.8910  0.9016
 7097SOL     OW32923   3.251   0.315  15.076  0.2393  0.3663 -0.2378
 7097SOL    HW132924   3.291   0.354  14.999 -0.2338  0.8492 -0.2368
 7097SOL    HW232925   3.186   0.253  15.042  0.0567  1.0542 -1.1556
 7098SOL     OW32926   3.185   1.179  14.908  0.6989 -0.0139  0.3353
 7098SOL    HW132927   3.227   1.256  14.947  0.7795  0.7517 -1.2577
 7098SOL    HW232928   3.259   1.120  14.893 -1.0379 -2.6453  2.2845
 7099SOL     OW32929   0.873   1.830   6.831  0.5929  0.4580 -0.1910
 7099SOL    HW132930   0.863   1.871   6.917  1.8946  1.6089 -0.5872
 7099SOL    HW232931   0.936   1.759   6.843 -1.1196 -0.6851  2.0355
 7100SOL     OW32932   2.745   0.941   7.635 -0.0362  0.1645 -0.0436
 7100SOL    HW132933   2.671   0.991   7.670  1.1421  1.8560  0.0350
 7100SOL    HW232934   2.798   1.013   7.601 -1.2273  0.5801 -1.0176
 7101SOL     OW32935   0.683   2.394   8.475 -0.1016  0.2242 -0.2381
 7101SOL    HW132936   0.745   2.324   8.453 -1.6307 -1.1021 -0.3332
 7101SOL    HW232937   0.702   2.469   8.419 -0.1397  1.3142  1.2022
 7102SOL     OW32938   4.348   2.392  13.284  0.1423  0.7039 -0.1920
 7102SOL    HW132939   4.256   2.367  13.295 -0.3091  1.4578 -2.3233
 7102SOL    HW232940   4.342   2.451  13.209 -0.9959  0.1039 -0.5664
 7103SOL     OW32941   4.427   3.660   3.189  0.3190 -0.1093 -0.3065
 7103SOL    HW132942   4.333   3.649   3.205  0.6002  0.8544  1.9263
 7103SOL    HW232943   4.440   3.738   3.243 -0.6866 -1.1114  1.3790
 7104SOL     OW32944   3.345   2.699   5.251  0.0790  0.1253 -0.4395
 7104SOL    HW132945   3.309   2.632   5.309 -0.6758  1.0244  0.1090
 7104SOL    HW232946   3.366   2.642   5.176  1.3066  1.6287 -1.2407
 7105SOL     OW32947   1.082   2.981   2.056  0.2884  0.5667 -1.0934
 7105SOL    HW132948   1.028   2.903   2.048  0.6981  0.3983 -2.1646
 7105SOL    HW232949   1.017   3.051   2.068  0.4211  0.4830  0.0783
 7106SOL     OW32950   0.187   1.650   0.551 -0.1334  1.2532  0.0283
 7106SOL    HW132951   0.253   1.634   0.483 -0.3249  1.3195 -0.1735
 7106SOL    HW232952   0.248   1.669   0.623 -0.8274  2.1825  0.3755
 7107SOL     OW32953   1.608   3.139  11.047  0.3053  0.1723  0.0616
 7107SOL    HW132954   1.661   3.215  11.070  0.0098  0.6831 -0.9181
 7107SOL    HW232955   1.674   3.095  10.994  0.3457 -1.2434  1.2828
 7108SOL     OW32956   4.173   2.977   2.885  0.2825  0.3231  0.1964
 7108SOL    HW132957   4.239   2.950   2.949  1.5552  0.9938 -0.8408
 7108SOL    HW232958   4.210   2.941   2.805  0.1746  0.3033  0.1555
 7109SOL     OW32959   4.734   0.984   6.993  0.2975  0.1165 -0.0623
 7109SOL    HW132960   0.012   1.037   7.071  0.4969 -0.9832  0.6383
 7109SOL    HW232961   4.659   1.021   6.947  1.0136  2.6129  0.8078
 7110SOL     OW32962   2.292   4.484   9.587  0.0094  0.2704 -0.2904
 7110SOL    HW132963   2.334   4.444   9.663 -1.6449 -1.0083 -0.0439
 7110SOL    HW232964   2.282   4.410   9.526  0.9893  0.9240 -1.2505
 7111SOL     OW32965   1.142   3.752  14.106  0.4067 -0.3454 -0.0868
 7111SOL    HW132966   1.137   3.662  14.138 -0.3506  0.4788  2.0804
 7111SOL    HW232967   1.096   3.744  14.022  0.0760  1.8695 -0.1233
 7112SOL     OW32968   2.726   4.280   6.761  0.0158  1.0373  0.4917
 7112SOL    HW132969   2.772   4.339   6.820  2.2266  2.9444 -3.1360
 7112SOL    HW232970   2.717   4.336   6.684 -1.9479  0.5026  0.3213
 7113SOL     OW32971   0.722   1.113   6.232 -0.4066 -0.7155  0.2063
 7113SOL    HW132972   0.726   1.200   6.192  1.2780 -1.0509 -0.3615
 7113SOL    HW232973   0.682   1.127   6.317 -0.6814 -0.4904  0.0398
 7114SOL     OW32974   1.626   0.612   8.896 -0.3617 -0.0391  0.1576
 7114SOL    HW132975   1.651   0.521   8.909  2.9109  0.8716  0.2972
 7114SOL    HW232976   1.671   0.662   8.965 -1.5381  0.3070  0.6712
 7115SOL     OW32977   4.233   0.376   2.107  0.6073 -0.1938 -0.0206
 7115SOL    HW132978   4.271   0.313   2.168 -1.0238  1.3071  2.5142
 7115SOL    HW232979   4.173   0.429   2.160  0.6427 -0.3122  0.1369
 7116SOL     OW32980   2.496   3.022   6.503 -0.0211 -0.4940 -0.2938
 7116SOL    HW132981   2.452   2.968   6.437  1.2179 -1.2448 -0.5055
 7116SOL    HW232982   2.461   2.999   6.589  0.0769  0.4484 -0.0041
 7117SOL     OW32983   2.828   1.196   7.487  0.4583 -0.2393  0.2430
 7117SOL    HW132984   2.764   1.233   7.425  1.7091  2.3288  0.4860
 7117SOL    HW232985   2.809   1.252   7.562 -2.2363  1.2587 -1.5466
 7118SOL     OW32986   2.392   1.710   7.734 -0.2927  0.1394 -0.1090
 7118SOL    HW132987   2.385   1.782   7.671 -0.7403 -0.2079 -0.4576
 7118SOL    HW232988   2.487   1.703   7.728 -0.4730 -2.9735  0.6765
 7119SOL     OW32989   2.582   2.684   1.227 -0.3152  0.2831 -0.0835
 7119SOL    HW132990   2.527   2.731   1.165 -1.6023 -0.8881  0.1655
 7119SOL    HW232991   2.632   2.747   1.279  1.2603 -1.4460  0.4895
 7120SOL     OW32992   0.946   2.218   2.957 -0.2899  0.2971  0.4606
 7120SOL    HW132993   1.033   2.244   2.987  0.8080 -1.8119 -0.8424
 7120SOL    HW232994   0.899   2.276   3.017 -0.7858 -1.6228  1.9313
 7121SOL     OW32995   1.523   1.685  14.707  0.2216  0.1045  0.0566
 7121SOL    HW132996   1.528   1.749  14.636 -2.6488  0.5731  0.2964
 7121SOL    HW232997   1.509   1.605  14.657  1.3796 -0.2954  0.3833
 7122SOL     OW32998   1.890   0.673   7.875  0.4122 -0.0858  0.1296
 7122SOL    HW132999   1.850   0.749   7.916 -0.2306 -1.1501  1.4977
 7122SOL    HW233000   1.817   0.628   7.833  1.0637  1.6458 -2.8541
 7123SOL     OW33001   4.157   1.194  14.641  0.2161  0.1880  1.1995
 7123SOL    HW133002   4.132   1.274  14.688  1.1662  0.5209  1.1306
 7123SOL    HW233003   4.243   1.163  14.668  0.5062 -0.8773 -0.9141
 7124SOL     OW33004   1.207   2.168   9.278 -0.1565 -0.0972 -0.0152
 7124SOL    HW133005   1.199   2.088   9.227  1.7478  0.1613 -0.7405
 7124SOL    HW233006   1.300   2.156   9.299 -0.6718 -3.2434  0.5531
 7125SOL     OW33007   3.313   1.840   4.666  0.3477 -0.9155  0.0182
 7125SOL    HW133008   3.267   1.766   4.705 -0.3908 -0.1327  0.6225
 7125SOL    HW233009   3.250   1.910   4.682  0.7382 -0.1042 -1.9444
 7126SOL     OW33010   3.605   1.430   2.771 -0.0625  0.3108  0.2988
 7126SOL    HW133011   3.591   1.344   2.810  0.1614  0.7115  1.2454
 7126SOL    HW233012   3.543   1.432   2.698  2.8556 -1.9674 -2.2452
 7127SOL     OW33013   1.613   2.802   1.184 -0.3284 -0.1835 -0.3003
 7127SOL    HW133014   1.658   2.730   1.227  0.5530 -0.5530 -1.8250
 7127SOL    HW233015   1.561   2.841   1.254 -1.7682 -0.8461 -0.9949
 7128SOL     OW33016   0.597   2.364  17.687  0.5284  0.8562  0.2716
 7128SOL    HW133017   0.503   2.353  17.697  0.3773  0.8339 -1.3145
 7128SOL    HW233018   0.612   2.301  17.617  1.3364  0.5888  0.6862
 7129SOL     OW33019   1.497   0.357   7.330 -0.2748  0.3387  0.1733
 7129SOL    HW133020   1.450   0.435   7.359  0.6430  1.1157 -0.4575
 7129SOL    HW233021   1.431   0.294   7.361 -0.2884  0.7033  0.8871
 7130SOL     OW33022   0.802   2.472   3.881  0.0033  0.2358  0.5684
 7130SOL    HW133023   0.834   2.428   3.802 -1.2873 -0.9021  0.6845
 7130SOL    HW233024   0.720   2.423   3.891  0.3834 -0.5877 -0.3280
 7131SOL     OW33025   4.438   4.266   4.804  0.4829  0.0144 -0.9838
 7131SOL    HW133026   4.463   4.349   4.844 -1.1849 -0.2201  0.5213
 7131SOL    HW233027   4.344   4.276   4.789  0.0621  0.4359  1.9942
 7132SOL     OW33028   0.112   3.730  15.995 -0.1136 -0.6260 -0.2144
 7132SOL    HW133029   0.106   3.811  15.943  0.2083 -0.7544 -0.4464
 7132SOL    HW233030   0.170   3.770  16.060 -0.4730 -0.2725 -0.1084
 7133SOL     OW33031   2.947   3.148   6.424  0.5069  0.7216 -0.0117
 7133SOL    HW133032   2.979   3.189   6.344 -0.5793 -0.7472 -1.2089
 7133SOL    HW233033   2.853   3.144   6.404  0.1312 -1.6627  2.1476
 7134SOL     OW33034   1.529   0.388   7.668 -0.3798 -0.9204 -0.1259
 7134SOL    HW133035   1.462   0.321   7.676  0.2832 -1.5415  0.2342
 7134SOL    HW233036   1.609   0.335   7.668  0.9766  1.1253 -2.8829
 7135SOL     OW33037   1.208   0.161  11.046  0.0443 -0.3307 -0.6227
 7135SOL    HW133038   1.209   0.251  11.080  0.6351 -1.0546  1.2732
 7135SOL    HW233039   1.211   0.102  11.121  1.1419 -0.7135 -0.9674
 7136SOL     OW33040   0.775   0.958   4.917  0.1257 -0.3751 -0.1913
 7136SOL    HW133041   0.819   0.874   4.912  0.9224 -0.0090  0.8537
 7136SOL    HW233042   0.682   0.948   4.896  0.4484 -1.3547 -1.1826
 7137SOL     OW33043   2.929   2.955   2.054 -0.6456  0.5515 -0.0190
 7137SOL    HW133044   2.935   3.031   2.113  0.5222  1.2161 -0.9827
 7137SOL    HW233045   2.849   2.988   2.013 -1.2677 -0.0174  0.7288
 7138SOL     OW33046   4.677   1.686  12.822  0.3170  0.7379 -0.1182
 7138SOL    HW133047   0.009   1.752  12.815  0.6601  0.7031  2.7186
 7138SOL    HW233048   4.689   1.651  12.911 -0.6099 -1.4991 -0.8499
 7139SOL     OW33049   3.757   3.455   3.695  0.2906  0.1787 -0.5939
 7139SOL    HW133050   3.736   3.441   3.787  1.5213  1.2318 -0.1452
 7139SOL    HW233051   3.782   3.548   3.692  0.4946  0.1803  1.1387
 7140SOL     OW33052   2.785   3.368  16.998  0.2742  0.8830 -0.2970
 7140SOL    HW133053   2.722   3.381  17.069  1.4336  0.5615  0.7863
 7140SOL    HW233054   2.816   3.458  16.988  1.0248  0.9468  2.7721
 7141SOL     OW33055   2.658   2.115   7.715 -0.0396 -0.4165  0.5497
 7141SOL    HW133056   2.638   2.156   7.631  2.2265  0.4427  0.4323
 7141SOL    HW233057   2.751   2.105   7.699  0.1493 -0.6298  1.7982
 7142SOL     OW33058   3.454   0.031   9.418 -0.4115 -0.0953  0.5114
 7142SOL    HW133059   3.518   4.702   9.391  0.4024  0.4973  0.9995
 7142SOL    HW233060   3.467   0.087   9.341  2.4311  0.7634  1.6035
 7143SOL     OW33061   4.474   2.792   1.944  0.0106 -0.0106 -0.4336
 7143SOL    HW133062   4.413   2.743   2.000  0.9591 -2.6606 -1.7107
 7143SOL    HW233063   4.431   2.792   1.859  1.1871  1.8461 -1.0247
 7144SOL     OW33064   3.878   1.295  15.429 -0.1198 -0.0016  0.1184
 7144SOL    HW133065   3.930   1.373  15.412  1.0983 -0.4370  1.8809
 7144SOL    HW233066   3.808   1.334  15.482  1.0208  0.2750  1.4056
 7145SOL     OW33067   4.186   2.371   3.441 -0.3547 -0.0688 -0.0727
 7145SOL    HW133068   4.154   2.283   3.421  0.2351 -0.2022 -0.4332
 7145SOL    HW233069   4.219   2.363   3.530 -0.1960 -3.3714 -0.4237
 7146SOL     OW33070   4.615   2.750  17.186 -0.5402  0.6249 -0.1132
 7146SOL    HW133071   4.622   2.786  17.098  1.6995 -0.4487 -0.3516
 7146SOL    HW233072   4.560   2.672  17.175 -0.6712  0.4435  1.7301
 7147SOL     OW33073   2.323   2.850   5.652 -0.2173  0.0605 -0.2794
 7147SOL    HW133074   2.398   2.884   5.701  0.5448 -3.0475  0.7664
 7147SOL    HW233075   2.316   2.906   5.575 -2.2884 -0.0345 -0.1635
 7148SOL     OW33076   4.177   4.736  13.361 -0.0248  0.5041  0.2048
 7148SOL    HW133077   4.128   0.012  13.280 -0.2148 -5.4776 -0.5693
 7148SOL    HW233078   4.114   4.680  13.406 -0.3420  1.1400  0.5540
 7149SOL     OW33079   1.238   1.542   4.700 -0.0131 -0.1374  0.2341
 7149SOL    HW133080   1.273   1.620   4.656 -2.4789  0.2442 -1.0220
 7149SOL    HW233081   1.290   1.549   4.780  2.1010  1.0793 -1.2495
 7150SOL     OW33082   2.016   4.476  10.003  0.1531  0.5169  0.2903
 7150SOL    HW133083   1.936   4.528  10.011 -0.7735 -0.5292 -2.3295
 7150SOL    HW233084   2.066   4.519  10.073 -1.3123  0.1976  1.5407
 7151SOL     OW33085   3.919   4.717   5.880  0.6422 -0.2705  0.0729
 7151SOL    HW133086   3.928   0.073   5.902  1.4498 -0.3974  0.2535
 7151SOL    HW233087   4.012   4.698   5.868  0.5815 -0.6474  0.1933
 7152SOL     OW33088   0.672   1.268   5.704  0.1304  0.1544  0.3888
 7152SOL    HW133089   0.663   1.202   5.636 -0.9064  0.6958  0.0180
 7152SOL    HW233090   0.710   1.218   5.776  0.3352 -2.0077 -1.2441
 7153SOL     OW33091   1.084   2.815   7.626 -0.4656  0.0028 -0.2713
 7153SOL    HW133092   1.160   2.783   7.674 -0.3052 -0.5306 -0.8838
 7153SOL    HW233093   1.115   2.889   7.573 -0.5311  0.9669  1.0467
 7154SOL     OW33094   1.474   1.614   2.364  0.6116  0.0650 -0.3171
 7154SOL    HW133095   1.433   1.579   2.443  0.0006  1.0829 -0.1916
 7154SOL    HW233096   1.563   1.588   2.388  0.5604  0.1089 -0.0795
 7155SOL     OW33097   0.408   4.010   0.812 -0.0367  0.5384 -0.2795
 7155SOL    HW133098   0.337   4.011   0.876 -0.4782 -1.0007 -0.7409
 7155SOL    HW233099   0.402   4.103   0.790  0.0387  0.5642 -0.1907
 7156SOL     OW33100   4.271   4.419   1.518 -0.5044 -0.4063 -0.4232
 7156SOL    HW133101   4.256   4.360   1.593 -0.5132 -0.8745 -0.7909
 7156SOL    HW233102   4.212   4.490   1.543 -1.3671 -1.7539  1.3904
 7157SOL     OW33103   0.292   0.657  17.134  0.4719  0.3919  0.4835
 7157SOL    HW133104   0.319   0.573  17.096  1.4631  0.7355  0.4475
 7157SOL    HW233105   0.375   0.699  17.154 -0.9644  4.3521 -2.0298
 7158SOL     OW33106   2.598   0.917   3.570  0.7076  0.0146 -0.7535
 7158SOL    HW133107   2.582   0.971   3.493 -0.7244 -0.5381 -0.8489
 7158SOL    HW233108   2.522   0.860   3.560  1.6151 -0.7290 -3.2783
 7159SOL     OW33109   2.981   3.999   6.930 -0.0954  0.3502  0.5361
 7159SOL    HW133110   2.921   3.934   6.894 -1.5125  1.6194  0.5696
 7159SOL    HW233111   3.062   3.962   6.894 -0.5439 -0.6830  0.5933
 7160SOL     OW33112   2.433   2.719   4.201  0.0972 -0.2688  0.7439
 7160SOL    HW133113   2.520   2.690   4.229  0.5773  0.5511  0.1107
 7160SOL    HW233114   2.434   2.811   4.174  1.2157 -0.9117 -1.3623
 7161SOL     OW33115   1.782   2.895   0.654 -0.2565  0.0948 -0.1165
 7161SOL    HW133116   1.855   2.865   0.709 -1.5478 -0.7755  1.1350
 7161SOL    HW233117   1.836   2.945   0.592  1.0383  0.3773  1.2232
 7162SOL     OW33118   0.142   2.093   2.663 -0.2239  0.2211  0.3726
 7162SOL    HW133119   0.217   2.154   2.658 -0.5566  0.5804 -0.2864
 7162SOL    HW233120   0.080   2.144   2.715 -0.6996 -0.6803  0.6660
 7163SOL     OW33121   0.471   4.462   3.302  0.2531 -0.8593  0.0098
 7163SOL    HW133122   0.489   4.417   3.220  0.3213 -0.1390 -0.3693
 7163SOL    HW233123   0.496   4.392   3.362 -0.6068 -0.5953  0.6907
 7164SOL     OW33124   3.676   1.281   0.604 -0.0559 -0.1555 -0.5482
 7164SOL    HW133125   3.666   1.343   0.532 -0.3876  0.1926 -0.2017
 7164SOL    HW233126   3.647   1.198   0.566 -1.1535 -0.1612  0.2958
 7165SOL     OW33127   2.703   2.196   5.249 -0.6333 -0.5517  0.0912
 7165SOL    HW133128   2.719   2.106   5.222  1.2022 -0.1085 -0.3180
 7165SOL    HW233129   2.614   2.189   5.281 -1.1153 -0.3600 -1.1750
 7166SOL     OW33130   0.139   3.060  11.452  0.0215 -0.6523  0.4637
 7166SOL    HW133131   0.194   3.025  11.522  0.2778 -1.5674 -0.1946
 7166SOL    HW233132   0.180   3.017  11.376 -0.3198 -1.3170  0.6608
 7167SOL     OW33133   0.823   1.779   6.318 -0.2708 -0.7141 -0.2187
 7167SOL    HW133134   0.786   1.760   6.232 -2.9992 -0.3149  0.8691
 7167SOL    HW233135   0.877   1.700   6.326  2.1054  1.0621  1.4233
 7168SOL     OW33136   4.694   4.446   3.876  0.5504  0.8120  0.2401
 7168SOL    HW133137   4.731   4.490   3.799 -1.6891 -1.8234 -2.3371
 7168SOL    HW233138   4.706   4.356   3.847  1.5360  0.9949  0.0805
 7169SOL     OW33139   1.144   3.441   6.248 -0.2703  0.2799  0.2935
 7169SOL    HW133140   1.149   3.359   6.199  0.3021 -0.0063  0.8376
 7169SOL    HW233141   1.146   3.510   6.182  1.6586  1.1689  1.2972
 7170SOL     OW33142   4.725   0.419   1.642 -0.3678 -0.5490 -0.3615
 7170SOL    HW133143   4.702   0.375   1.561 -0.8735 -2.1228  0.6361
 7170SOL    HW233144   4.642   0.459   1.667 -0.0296  0.9542 -1.6746
 7171SOL     OW33145   3.271   1.692  15.068  0.4007 -0.5124  0.0279
 7171SOL    HW133146   3.346   1.746  15.045  1.8164 -1.7898  1.6448
 7171SOL    HW233147   3.204   1.761  15.073  1.4924  0.3960  2.2532
 7172SOL     OW33148   0.626   3.099   7.701 -0.6740 -0.1314 -0.1685
 7172SOL    HW133149   0.633   3.106   7.606  0.7661 -1.4223 -0.1640
 7172SOL    HW233150   0.666   3.184   7.722 -0.8971 -0.4815  1.6554
 7173SOL     OW33151   2.688   1.825   9.694 -0.3043  0.1639 -0.6888
 7173SOL    HW133152   2.673   1.766   9.620 -2.7341  0.5117 -0.4593
 7173SOL    HW233153   2.774   1.807   9.733 -1.0484 -0.7948  0.5042
 7174SOL     OW33154   3.052   1.364   8.528  0.0460  0.1668  0.0228
 7174SOL    HW133155   3.066   1.456   8.508  0.6079  0.2628  0.8857
 7174SOL    HW233156   3.059   1.323   8.441  0.6416 -1.4090  0.8125
 7175SOL     OW33157   2.247   2.228  14.056 -0.2957 -0.2605 -0.3126
 7175SOL    HW133158   2.250   2.174  14.135  2.9125 -0.1903 -0.3743
 7175SOL    HW233159   2.337   2.210  14.027  0.2984  1.4159  0.4434
 7176SOL     OW33160   1.817   3.275  14.466  0.1774 -0.1551  0.7701
 7176SOL    HW133161   1.740   3.318  14.428  0.4345 -1.7238 -1.5484
 7176SOL    HW233162   1.874   3.281  14.389  0.1792 -1.2676  0.6828
 7177SOL     OW33163   0.957   3.205   7.650  0.1278  0.0211  0.1713
 7177SOL    HW133164   0.999   3.284   7.617 -0.3059 -0.0996 -0.6676
 7177SOL    HW233165   0.990   3.141   7.588  0.0646  2.9644 -2.8845
 7178SOL     OW33166   1.723   3.498   7.605  0.6349  0.0709 -0.8138
 7178SOL    HW133167   1.795   3.558   7.627  0.0967 -0.4629  2.4343
 7178SOL    HW233168   1.643   3.529   7.648  0.9360 -0.5607  0.2048
 7179SOL     OW33169   0.866   4.465   3.540  0.4373 -0.5363  0.0465
 7179SOL    HW133170   0.852   4.556   3.514  2.0863  0.0005  1.0744
 7179SOL    HW233171   0.879   4.479   3.633 -1.5984  1.4344  0.0560
 7180SOL     OW33172   0.524   2.849   6.350 -0.6511 -0.1077  0.3359
 7180SOL    HW133173   0.525   2.944   6.334 -2.1498 -0.3863 -1.4268
 7180SOL    HW233174   0.438   2.836   6.388 -0.7396 -4.6236 -1.4644
 7181SOL     OW33175   0.125   4.252   2.150 -0.0235 -0.1170 -0.6119
 7181SOL    HW133176   0.045   4.201   2.166  0.3953  0.2858  2.6567
 7181SOL    HW233177   0.110   4.330   2.204 -1.4693  0.1533 -1.3835
 7182SOL     OW33178   3.819   0.279   4.041  0.2137  0.4659 -0.4179
 7182SOL    HW133179   3.891   0.297   3.981 -0.6840 -0.2677 -1.7193
 7182SOL    HW233180   3.862   0.318   4.117 -2.0350  0.5276  0.8044
 7183SOL     OW33181   3.067   2.598   6.112 -0.1606 -0.2186  0.1225
 7183SOL    HW133182   3.115   2.610   6.030  0.7440 -3.3220  0.2085
 7183SOL    HW233183   3.069   2.689   6.141  1.7157 -0.3802  0.4758
 7184SOL     OW33184   4.714   2.673   4.874 -0.0451 -0.2895  0.4583
 7184SOL    HW133185   4.710   2.580   4.898  0.4577 -0.6298 -0.8230
 7184SOL    HW233186   4.644   2.714   4.926  0.6045 -0.7647  1.7231
 7185SOL     OW33187   4.454   0.867   8.046  0.2132  0.3676  0.0613
 7185SOL    HW133188   4.458   0.772   8.061  0.6364  0.0819 -1.8682
 7185SOL    HW233189   4.393   0.893   8.115  0.7414  0.8469  0.3471
 7186SOL     OW33190   2.754   1.233   5.832  0.4574 -0.4118 -0.7293
 7186SOL    HW133191   2.770   1.307   5.773 -1.6695  0.3236 -0.4034
 7186SOL    HW233192   2.677   1.259   5.882  0.3294 -3.8610  0.8656
 7187SOL     OW33193   0.741   3.677   3.916 -0.3182 -0.2072 -0.0008
 7187SOL    HW133194   0.776   3.641   3.834  3.5579  1.1606  1.0379
 7187SOL    HW233195   0.812   3.739   3.930  0.6865 -1.1292 -0.9717
 7188SOL     OW33196   0.229   3.006  11.973  0.2293  0.8619  0.4949
 7188SOL    HW133197   0.244   2.922  12.017  0.5881  1.1910  0.9969
 7188SOL    HW233198   0.218   3.066  12.047  0.6998  1.0805  0.3861
 7189SOL     OW33199   3.787   2.505   7.708  0.7387  0.3744 -0.4527
 7189SOL    HW133200   3.703   2.535   7.743  1.3633 -0.7600  2.0042
 7189SOL    HW233201   3.754   2.422   7.675 -1.3308  0.8957  0.3029
 7190SOL     OW33202   1.165   0.422   8.272  0.8160  0.0089  0.6813
 7190SOL    HW133203   1.108   0.496   8.248  0.1793 -0.7481 -0.1710
 7190SOL    HW233204   1.108   0.368   8.327  1.5829 -0.7387  0.7384
 7191SOL     OW33205   4.431   3.120   6.237  0.6424 -0.5339  0.2491
 7191SOL    HW133206   4.503   3.060   6.217  0.5441 -0.8426  0.8270
 7191SOL    HW233207   4.404   3.141   6.147 -1.2448 -0.2426  0.8794
 7192SOL     OW33208   3.867   0.644   6.369 -0.2401  0.3257 -0.4138
 7192SOL    HW133209   3.891   0.624   6.459 -2.1117 -0.6984 -0.1356
 7192SOL    HW233210   3.930   0.591   6.321 -1.2757 -1.5359  0.2842
 7193SOL     OW33211   3.972   0.112   5.016 -0.1954 -0.2171  0.6999
 7193SOL    HW133212   4.013   0.164   5.085 -0.6848 -1.2800  1.8065
 7193SOL    HW233213   4.037   0.105   4.947  0.2719 -0.3837  1.1547
 7194SOL     OW33214   4.706   2.522   7.425 -0.0291  0.0277  0.3374
 7194SOL    HW133215   4.683   2.554   7.512 -1.5332  0.1507 -0.1023
 7194SOL    HW233216   0.018   2.595   7.388 -0.4011 -0.0335 -0.2642
 7195SOL     OW33217   3.042   0.960   1.482  0.1019 -0.4957  0.0970
 7195SOL    HW133218   3.007   1.036   1.435 -0.4187 -0.6885  0.1764
 7195SOL    HW233219   3.128   0.995   1.504  0.1736 -2.1681  2.4199
 7196SOL     OW33220   1.623   2.481   2.306  0.1442 -0.5898  0.1581
 7196SOL    HW133221   1.716   2.499   2.294 -0.2955  0.1178 -2.1348
 7196SOL    HW233222   1.599   2.467   2.215  0.1585 -0.5872  0.1539
 7197SOL     OW33223   1.940   4.072   9.717  0.0260  0.0346 -0.1874
 7197SOL    HW133224   1.874   4.004   9.726  1.8653 -1.6996  0.2111
 7197SOL    HW233225   1.956   4.102   9.807 -4.5233 -1.2695  1.0463
 7198SOL     OW33226   4.734   4.293   6.738  0.2151  0.2170 -0.5961
 7198SOL    HW133227   0.057   4.259   6.805  0.9183 -0.4887 -1.5678
 7198SOL    HW233228   0.028   4.230   6.673 -1.1677 -1.1081  0.0493
 7199SOL     OW33229   2.839   4.359  12.916  0.5136 -0.0008  0.2043
 7199SOL    HW133230   2.910   4.298  12.899 -1.7606 -2.2007 -1.2762
 7199SOL    HW233231   2.862   4.386  13.005 -0.2259 -0.8294  0.6438
 7200SOL     OW33232   0.666   1.081   8.635  0.1152 -0.3899  0.0609
 7200SOL    HW133233   0.679   1.173   8.610  1.6934 -0.6986 -0.2759
 7200SOL    HW233234   0.755   1.051   8.654  0.8528  0.8607 -1.3532
 7201SOL     OW33235   2.720   2.269   6.966 -0.0790  0.1696 -0.0340
 7201SOL    HW133236   2.787   2.203   6.951 -0.8395 -0.4362 -0.7605
 7201SOL    HW233237   2.753   2.325   6.896 -0.0125 -0.2676 -0.3505
 7202SOL     OW33238   4.073   0.422   7.246 -0.4053  0.4582  0.3041
 7202SOL    HW133239   4.046   0.330   7.250 -0.2818  0.3748 -0.7853
 7202SOL    HW233240   4.097   0.434   7.338  0.6849  1.4039 -0.1163
 7203SOL     OW33241   4.142   4.386   3.198 -0.3801  0.3701 -0.7980
 7203SOL    HW133242   4.111   4.448   3.133  3.1058  0.6441 -2.1926
 7203SOL    HW233243   4.119   4.308   3.147 -2.5097 -1.2631  2.6261
 7204SOL     OW33244   0.168   3.598   2.524 -0.4716  0.5793  0.1673
 7204SOL    HW133245   0.156   3.668   2.588 -0.2496  0.4062  0.3997
 7204SOL    HW233246   0.096   3.539   2.548  0.8016 -0.0684  2.3598
 7205SOL     OW33247   3.384   3.978   4.760 -0.2703 -0.1717  0.0727
 7205SOL    HW133248   3.433   3.902   4.728  0.2388 -0.3302  1.2205
 7205SOL    HW233249   3.453   4.039   4.785 -0.2943 -0.4051  0.7044
 7206SOL     OW33250   2.373   4.690  17.186 -0.0619  0.2262  0.7893
 7206SOL    HW133251   2.356   0.025  17.124 -2.0173 -1.2208 -0.3138
 7206SOL    HW233252   2.464   4.668  17.164 -0.3587 -0.0322 -0.1615
 7207SOL     OW33253   3.499   0.617   5.046  0.4513 -0.3365  0.0256
 7207SOL    HW133254   3.416   0.604   5.001  1.4389 -1.8810 -1.3694
 7207SOL    HW233255   3.550   0.624   4.965 -0.7483  2.4602 -0.5049
 7208SOL     OW33256   1.795   3.404  16.855  0.0092  0.2040 -0.2577
 7208SOL    HW133257   1.786   3.331  16.793  0.7920  0.9454 -1.2578
 7208SOL    HW233258   1.846   3.468  16.805 -0.1279 -1.0800 -2.0817
 7209SOL     OW33259   1.140   4.722   2.030 -0.5334 -0.3649  0.5173
 7209SOL    HW133260   1.235   4.724   2.039 -0.5398 -0.2841  0.5649
 7209SOL    HW233261   1.132   0.042   1.953 -0.5944  0.0915  0.8551
 7210SOL     OW33262   2.994   0.809   6.653 -0.0037  0.3539 -0.3354
 7210SOL    HW133263   2.930   0.766   6.709  3.0042 -1.4569  1.7098
 7210SOL    HW233264   2.941   0.858   6.590 -2.5612  0.2220  1.7406
 7211SOL     OW33265   2.168   3.140   8.349  0.1226  0.1653  0.4906
 7211SOL    HW133266   2.213   3.173   8.427  0.4650  0.3462  0.2143
 7211SOL    HW233267   2.084   3.187   8.355 -0.1882 -0.1094 -1.6477
 7212SOL     OW33268   4.444   0.397  10.726  0.1089  0.0285  0.0259
 7212SOL    HW133269   4.410   0.352  10.804 -2.3341  1.5854 -0.1529
 7212SOL    HW233270   4.530   0.356  10.731  1.3724  2.9601  2.3163
 7213SOL     OW33271   3.945   3.146  12.095 -0.4756  0.1372  0.4189
 7213SOL    HW133272   4.004   3.140  12.170  0.6297 -1.1882 -0.5687
 7213SOL    HW233273   4.011   3.140  12.027 -0.9597 -1.0227  0.0571
 7214SOL     OW33274   1.227   2.958  16.935  0.5814  0.1433 -0.7054
 7214SOL    HW133275   1.217   2.889  16.869  1.4606  0.3175 -1.0107
 7214SOL    HW233276   1.266   3.028  16.883  2.8943  0.5768  1.6075
 7215SOL     OW33277   1.932   1.048   7.455 -0.3069  0.2563 -0.6646
 7215SOL    HW133278   1.859   1.044   7.516 -0.3578 -2.2127 -0.8730
 7215SOL    HW233279   1.883   1.028   7.376 -0.5132  2.2717 -1.0456
 7216SOL     OW33280   2.808   2.553   9.368  0.1352  0.4654 -0.0939
 7216SOL    HW133281   2.770   2.475   9.409 -0.3422  1.1774  0.7977
 7216SOL    HW233282   2.735   2.615   9.369 -0.6285 -0.4115 -2.1485
 7217SOL     OW33283   3.038   0.287   8.270 -0.0437 -0.0785  0.2982
 7217SOL    HW133284   2.967   0.339   8.308  1.3758  1.2322  1.1946
 7217SOL    HW233285   3.007   0.276   8.181  0.4435 -0.5385  0.1877
 7218SOL     OW33286   1.131   3.791   7.083 -0.3466 -0.8754  0.5857
 7218SOL    HW133287   1.061   3.811   7.145  0.8143  0.6434  1.4005
 7218SOL    HW233288   1.137   3.874   7.036 -0.6709 -1.2312 -0.0940
 7219SOL     OW33289   0.518   1.025   6.900  0.0622  0.1870  0.4082
 7219SOL    HW133290   0.533   1.118   6.888 -1.5627  0.7824  2.9241
 7219SOL    HW233291   0.428   1.019   6.866  0.2450 -2.9713  0.4595
 7220SOL     OW33292   4.412   0.419   5.214  0.4789 -0.0915  0.2501
 7220SOL    HW133293   4.390   0.398   5.123  1.3504 -0.6000  0.1508
 7220SOL    HW233294   4.505   0.396   5.224  0.0560 -1.4331  1.0754
 7221SOL     OW33295   4.527   2.668   5.647 -0.0359  0.2721 -0.1863
 7221SOL    HW133296   4.592   2.616   5.695 -0.3341  0.6032  0.5769
 7221SOL    HW233297   4.566   2.755   5.641 -2.5101  1.2655 -1.9905
 7222SOL     OW33298   3.626   0.868   5.066 -0.1876 -0.4881 -0.1215
 7222SOL    HW133299   3.585   0.917   5.138 -1.4316 -1.8702  0.1027
 7222SOL    HW233300   3.579   0.786   5.079 -2.2848  0.7638  0.3201
 7223SOL     OW33301   2.906   3.740   2.646 -0.1565 -0.7773 -0.3629
 7223SOL    HW133302   2.919   3.667   2.707  1.7432  0.9268  1.2539
 7223SOL    HW233303   2.908   3.812   2.709 -1.0189 -1.2407  0.1935
 7224SOL     OW33304   3.434   4.005   3.381  0.3073 -0.1891  0.3579
 7224SOL    HW133305   3.380   3.998   3.302 -2.1871 -0.9993  2.1438
 7224SOL    HW233306   3.371   3.976   3.446  0.2618 -0.0798  0.3637
 7225SOL     OW33307   0.084   1.120   9.108  0.8154 -0.2572 -0.4207
 7225SOL    HW133308   0.083   1.078   9.194  2.7215 -2.9601 -1.7038
 7225SOL    HW233309   0.122   1.207   9.122 -2.0508  0.6541  1.7490
 7226SOL     OW33310   4.734   1.880   7.592 -0.3230 -0.1984 -0.8579
 7226SOL    HW133311   4.647   1.879   7.633  0.9249  2.8533  1.9270
 7226SOL    HW233312   4.705   1.923   7.512  1.6093 -1.5336 -2.2611
 7227SOL     OW33313   0.104   3.835   2.658  0.4385 -0.2599  0.0138
 7227SOL    HW133314   0.162   3.901   2.619  0.4946 -0.4906 -0.2951
 7227SOL    HW233315   0.022   3.854   2.613  0.0896 -1.3286  0.1801
 7228SOL     OW33316   2.959   3.858   8.490  0.1595  0.1703  0.0016
 7228SOL    HW133317   2.929   3.784   8.438  1.3487  1.2887 -2.2980
 7228SOL    HW233318   3.053   3.841   8.480  0.0135  0.1454 -1.3449
 7229SOL     OW33319   1.304   0.647  17.708  0.1218  0.2679 -0.1302
 7229SOL    HW133320   1.375   0.583  17.710  1.2639  1.5386  0.2253
 7229SOL    HW233321   1.239   0.584  17.678  2.9224 -2.7858  0.2800
 7230SOL     OW33322   1.316   0.335   6.691 -0.3770  0.2143  0.3136
 7230SOL    HW133323   1.365   0.359   6.613 -0.9865 -2.0320 -0.7525
 7230SOL    HW233324   1.222   0.346   6.671  0.2974 -0.7163 -3.3866
 7231SOL     OW33325   2.450   0.184   4.665  0.2263  0.0005 -0.5389
 7231SOL    HW133326   2.472   0.213   4.754 -0.2386 -0.4039 -0.2892
 7231SOL    HW233327   2.356   0.198   4.655  0.3285  1.1400  0.1078
 7232SOL     OW33328   4.381   3.196   3.133  0.0077  0.2192  0.0688
 7232SOL    HW133329   4.411   3.173   3.221 -0.8097  0.6040  0.4535
 7232SOL    HW233330   4.359   3.108   3.102  5.2004 -1.1951  0.5159
 7233SOL     OW33331   4.017   0.466   4.600  0.3548 -0.2878 -0.0909
 7233SOL    HW133332   3.986   0.386   4.557 -0.7639 -0.5805  1.2487
 7233SOL    HW233333   4.058   0.427   4.677  1.4853 -1.4987 -1.3214
 7234SOL     OW33334   1.703   0.348   4.191 -0.1750  0.3443  0.4979
 7234SOL    HW133335   1.732   0.283   4.255 -0.1772 -0.5605 -0.4217
 7234SOL    HW233336   1.792   0.380   4.176 -0.6432  1.7029  0.6079
 7235SOL     OW33337   1.526   1.296   8.036  0.0264  0.5090 -0.3187
 7235SOL    HW133338   1.517   1.309   7.942 -0.2662  0.4288 -0.3027
 7235SOL    HW233339   1.468   1.365   8.071 -2.8058 -1.6709 -0.7526
 7236SOL     OW33340   3.123   2.804  10.222 -0.1996 -0.5132  0.8744
 7236SOL    HW133341   3.108   2.729  10.279  2.8653 -0.6331  1.5418
 7236SOL    HW233342   3.207   2.784  10.180 -0.4445  0.5842 -0.1379
 7237SOL     OW33343   2.328   3.204   3.741  0.4599  0.0572  0.1279
 7237SOL    HW133344   2.388   3.166   3.677 -1.2461  1.7728 -2.4973
 7237SOL    HW233345   2.383   3.229   3.815 -0.3427  0.4632  0.5935
 7238SOL     OW33346   0.607   4.388  10.311  0.3484  0.2724 -0.1457
 7238SOL    HW133347   0.672   4.442  10.356  1.2322 -0.0101 -1.0723
 7238SOL    HW233348   0.658   4.321  10.265  0.3858  0.9783 -1.1363
 7239SOL     OW33349   3.614   4.413   7.777 -0.4028 -0.6618 -0.6391
 7239SOL    HW133350   3.669   4.450   7.846 -1.8831  0.8859 -0.2893
 7239SOL    HW233351   3.639   4.321   7.784  1.3117  0.0213  1.9151
 7240SOL     OW33352   4.149   1.774   1.822 -0.0619  0.4438  0.1671
 7240SOL    HW133353   4.171   1.843   1.760  0.6720  0.0184 -0.0453
 7240SOL    HW233354   4.103   1.713   1.764  1.9546  0.1329 -1.1109
 7241SOL     OW33355   2.156   2.336  13.826 -0.3532 -0.0296  0.6033
 7241SOL    HW133356   2.181   2.320  13.917  1.1176 -1.4150 -0.0646
 7241SOL    HW233357   2.158   2.247  13.791  0.1903  1.2489 -2.6001
 7242SOL     OW33358   1.395   4.553   2.891 -0.3305  0.4236  0.0452
 7242SOL    HW133359   1.439   4.470   2.911 -2.0997  0.2484  3.2369
 7242SOL    HW233360   1.357   4.587   2.972 -0.7459  0.0399  0.0150
 7243SOL     OW33361   1.199   2.675   7.244 -0.2049 -0.2975 -0.1190
 7243SOL    HW133362   1.168   2.687   7.155  2.6272 -0.9386 -1.1780
 7243SOL    HW233363   1.288   2.653   7.218 -0.0798 -0.5336  0.4936
 7244SOL     OW33364   3.149   2.853  15.875 -0.3504 -0.5621  0.3405
 7244SOL    HW133365   3.197   2.815  15.949 -1.3279 -0.7148  0.8899
 7244SOL    HW233366   3.062   2.835  15.909 -1.0439  0.1389 -1.0658
 7245SOL     OW33367   1.851   0.051   8.023 -0.0636 -0.5317 -0.4014
 7245SOL    HW133368   1.820   4.702   8.054 -1.9071  0.2328 -0.1171
 7245SOL    HW233369   1.909   0.071   8.096  1.4140  1.7132 -2.2035
 7246SOL     OW33370   0.249   3.820   7.909  0.1155  0.1700  0.4713
 7246SOL    HW133371   0.209   3.760   7.972 -2.3261  1.3767  0.0483
 7246SOL    HW233372   0.336   3.842   7.944  0.0310  0.7526  0.3003
 7247SOL     OW33373   2.717   0.577   3.126 -0.3212  0.0523 -0.2184
 7247SOL    HW133374   2.749   0.616   3.207 -0.9213 -2.6411  1.2899
 7247SOL    HW233375   2.804   0.554   3.096 -0.1272 -1.4282  1.4974
 7248SOL     OW33376   4.573   0.258   9.842  0.0705 -0.4637  0.6994
 7248SOL    HW133377   4.618   0.196   9.899 -0.1045 -0.6675  0.6152
 7248SOL    HW233378   4.565   0.338   9.894 -0.4316 -1.1628  1.6903
 7249SOL     OW33379   0.623   3.966   7.908  0.0736  0.5752 -0.2986
 7249SOL    HW133380   0.682   3.938   7.978  0.5128  1.2215 -0.4139
 7249SOL    HW233381   0.543   3.959   7.961 -0.8030  1.8391 -1.4277
 7250SOL     OW33382   3.501   1.686   0.539 -0.6680  0.6087 -0.0278
 7250SOL    HW133383   3.522   1.594   0.521 -0.3180  0.7483 -0.3390
 7250SOL    HW233384   3.577   1.731   0.501 -0.5483 -0.7451 -1.3738
 7251SOL     OW33385   3.836   4.325   4.316  0.3856 -0.2425 -0.6947
 7251SOL    HW133386   3.790   4.399   4.355  2.1569  0.4744  0.0478
 7251SOL    HW233387   3.792   4.251   4.356  0.3999  0.7895  1.2527
 7252SOL     OW33388   3.830   4.382  17.742 -0.4902 -0.3004 -0.1360
 7252SOL    HW133389   3.753   4.402  17.690 -0.1577  0.2563 -0.4186
 7252SOL    HW233390   3.842   4.288  17.727  1.2983  0.1101 -1.2146
 7253SOL     OW33391   3.374   3.798   9.728  0.0435  0.0810 -0.3779
 7253SOL    HW133392   3.396   3.890   9.717 -0.3962  0.3078  0.6319
 7253SOL    HW233393   3.434   3.756   9.666 -0.6277  0.1139 -1.0534
 7254SOL     OW33394   0.857   4.369   8.805 -0.2457  0.9689  0.0675
 7254SOL    HW133395   0.801   4.440   8.774  1.0656  1.2922 -1.5688
 7254SOL    HW233396   0.808   4.289   8.783 -0.1033  1.5045 -2.1645
 7255SOL     OW33397   2.591   2.506  17.396 -0.0897  0.1568  0.1254
 7255SOL    HW133398   2.594   2.416  17.363 -2.4457 -0.0900  0.5969
 7255SOL    HW233399   2.499   2.520  17.416 -0.4699 -2.0211 -0.0807
 7256SOL     OW33400   3.183   0.250   2.680  0.2344  0.3849 -0.4578
 7256SOL    HW133401   3.208   0.159   2.696  0.3352  0.9804  2.8193
 7256SOL    HW233402   3.132   0.255   2.761  0.1463  0.3960 -0.5144
 7257SOL     OW33403   2.593   1.720   8.029 -0.9736 -0.1818 -0.6854
 7257SOL    HW133404   2.608   1.695   8.120  1.3490  3.2713 -0.1023
 7257SOL    HW233405   2.505   1.755   8.035 -1.7481 -2.1232 -0.4764
 7258SOL     OW33406   1.365   3.171  10.041 -0.5842 -0.0636 -0.3721
 7258SOL    HW133407   1.422   3.246  10.056  0.4823 -1.1038  0.8356
 7258SOL    HW233408   1.310   3.206   9.971  1.6346 -0.1654 -2.1886
 7259SOL     OW33409   3.638   2.023   6.331  0.1249 -0.3815  0.5277
 7259SOL    HW133410   3.620   1.943   6.281  1.2890  0.9338 -1.9667
 7259SOL    HW233411   3.598   2.093   6.280  1.4711 -0.4078 -0.5583
 7260SOL     OW33412   4.183   1.006   8.524  0.4161  0.5369 -0.2200
 7260SOL    HW133413   4.088   0.996   8.535  0.7567 -0.7905  1.5290
 7260SOL    HW233414   4.231   0.927   8.551  0.9248  0.7560 -0.5071
 7261SOL     OW33415   1.242   2.598   5.354  0.5392  0.4633 -0.2910
 7261SOL    HW133416   1.250   2.531   5.422 -1.0465 -0.5836 -1.1337
 7261SOL    HW233417   1.258   2.676   5.407  2.0103 -1.6816  2.4188
 7262SOL     OW33418   2.261   4.488   8.592 -0.3772  0.1035  0.3715
 7262SOL    HW133419   2.214   4.547   8.650  2.3188  2.1161  0.5121
 7262SOL    HW233420   2.201   4.414   8.603  1.7154 -2.0715 -2.7475
 7263SOL     OW33421   3.950   0.436   5.592  0.0264 -0.1497  0.4013
 7263SOL    HW133422   4.012   0.363   5.591 -0.4838 -0.5517 -0.7835
 7263SOL    HW233423   3.881   0.399   5.647 -0.8772 -2.4607 -2.3123
 7264SOL     OW33424   3.215   2.415   4.272 -0.0019  0.1477 -0.4262
 7264SOL    HW133425   3.255   2.328   4.274 -1.7383 -0.6231  1.4742
 7264SOL    HW233426   3.155   2.406   4.198 -1.4648 -1.1859  0.9061
 7265SOL     OW33427   4.102   3.487   6.640 -0.6773  0.5755 -0.1302
 7265SOL    HW133428   4.139   3.439   6.566  0.7001 -1.1216  1.6565
 7265SOL    HW233429   4.046   3.547   6.590 -1.2112 -0.9587 -1.3718
 7266SOL     OW33430   4.418   1.506  11.262  0.7078 -0.3322  0.0915
 7266SOL    HW133431   4.409   1.471  11.351 -0.6219  0.1135  0.1373
 7266SOL    HW233432   4.486   1.442  11.241 -0.0273 -0.8207 -0.7530
 7267SOL     OW33433   3.710   4.101  13.359 -0.2018 -0.2316 -0.1136
 7267SOL    HW133434   3.739   4.122  13.447 -1.9738  0.8355  0.2077
 7267SOL    HW233435   3.664   4.184  13.345 -0.0958 -0.8740 -4.2979
 7268SOL     OW33436   4.298   1.870   1.398  0.4620 -0.1545 -0.5232
 7268SOL    HW133437   4.362   1.800   1.404  0.2750 -0.0866  2.2313
 7268SOL    HW233438   4.288   1.904   1.487  1.3048  1.5965 -1.0915
 7269SOL     OW33439   2.126   1.784   5.318  0.1333  0.4660  0.1131
 7269SOL    HW133440   2.037   1.782   5.355  0.6901 -3.5956  1.2093
 7269SOL    HW233441   2.144   1.691   5.308  0.2459  0.2021  2.8485
 7270SOL     OW33442   2.222   4.661   3.346  0.5864  0.1697 -0.4691
 7270SOL    HW133443   2.142   4.613   3.370  1.2361 -0.7415 -0.1202
 7270SOL    HW233444   2.205   0.013   3.379  2.0206 -0.3915  1.7073
 7271SOL     OW33445   3.737   2.863   8.289 -0.7944 -0.0155 -0.3461
 7271SOL    HW133446   3.762   2.854   8.197  2.1557  1.8938  0.2949
 7271SOL    HW233447   3.714   2.955   8.299 -1.0470  0.0170 -1.2727
 7272SOL     OW33448   0.144   0.793   1.476 -0.6224  0.8227  0.1128
 7272SOL    HW133449   0.063   0.845   1.477 -0.9385  0.3433 -0.2608
 7272SOL    HW233450   0.196   0.842   1.412  2.2843 -2.7119 -0.2183
 7273SOL     OW33451   3.029   3.340  11.587  0.3197 -0.0931  0.3608
 7273SOL    HW133452   3.006   3.343  11.680 -2.2407  3.1629 -0.4029
 7273SOL    HW233453   2.968   3.273  11.557  1.7976 -0.6250 -1.4635
 7274SOL     OW33454   2.215   1.480   3.776  0.2936 -0.4104  0.2860
 7274SOL    HW133455   2.123   1.501   3.759  0.3961  0.8756  1.2982
 7274SOL    HW233456   2.199   1.413   3.843  2.7420 -1.4526 -0.1820
 7275SOL     OW33457   0.285   0.875   3.772 -0.5778 -0.4302 -0.1934
 7275SOL    HW133458   0.221   0.830   3.827 -1.8015 -0.7982 -1.8952
 7275SOL    HW233459   0.317   0.809   3.710  0.9364  0.5758 -0.4770
 7276SOL     OW33460   0.906   3.065  15.805  0.1570 -0.1672 -0.0712
 7276SOL    HW133461   0.883   3.028  15.890  0.0206 -1.4622 -0.6715
 7276SOL    HW233462   0.856   3.147  15.807 -1.0777 -0.9096 -0.3400
 7277SOL     OW33463   2.133   3.614  12.135  0.1078  0.3330  0.1300
 7277SOL    HW133464   2.208   3.668  12.160 -0.8138  0.6016  2.3584
 7277SOL    HW233465   2.155   3.595  12.044 -2.1168 -1.7756  0.0169
 7278SOL     OW33466   1.189   0.417   7.750  0.0250  0.2469 -0.3356
 7278SOL    HW133467   1.212   0.382   7.836  3.1126  2.0278 -0.4289
 7278SOL    HW233468   1.095   0.400   7.748 -0.1384  1.2742 -1.5592
 7279SOL     OW33469   0.283   0.235   7.123 -0.3123 -0.1228 -0.4235
 7279SOL    HW133470   0.346   0.301   7.093 -1.5834  0.6456 -1.3704
 7279SOL    HW233471   0.280   0.252   7.217  0.5479 -1.6896 -0.1176
 7280SOL     OW33472   0.499   1.413   9.719 -0.9547 -0.0989  0.0488
 7280SOL    HW133473   0.554   1.376   9.788  0.2540  0.8254 -0.4199
 7280SOL    HW233474   0.546   1.374   9.646  0.3820  0.7664  0.4407
 7281SOL     OW33475   2.876   1.780   7.406  0.7862  0.1919  0.4724
 7281SOL    HW133476   2.959   1.827   7.404  1.7670 -1.4690  1.6493
 7281SOL    HW233477   2.832   1.824   7.333 -0.9192  0.1726  1.4822
 7282SOL     OW33478   3.128   1.886   9.149  0.3037 -0.3052 -0.0921
 7282SOL    HW133479   3.109   1.795   9.172 -1.0754 -0.0642 -0.2547
 7282SOL    HW233480   3.161   1.869   9.061  0.6707  1.2292 -0.2497
 7283SOL     OW33481   1.409   3.287   8.179 -0.0735 -0.0224 -0.9093
 7283SOL    HW133482   1.423   3.268   8.086  1.4652  2.2633 -1.1426
 7283SOL    HW233483   1.342   3.354   8.166  0.2702  0.6833  1.0083
 7284SOL     OW33484   3.948   1.668   0.783 -1.1618 -0.1586  0.4388
 7284SOL    HW133485   4.016   1.628   0.728 -2.4933  0.5208 -1.7206
 7284SOL    HW233486   3.898   1.716   0.717  0.8528  3.8019  1.8411
 7285SOL     OW33487   2.532   3.901   6.062  0.5301 -0.7145  0.0204
 7285SOL    HW133488   2.567   3.962   5.996  3.2620 -1.5424  0.7227
 7285SOL    HW233489   2.446   3.938   6.082  0.4185 -0.7054 -0.4845
 7286SOL     OW33490   1.008   1.908  15.683  0.2396 -0.8465 -0.3096
 7286SOL    HW133491   0.916   1.892  15.659 -0.6911  3.2064  0.4494
 7286SOL    HW233492   0.996   1.925  15.776 -0.1607 -1.4247 -0.2547
 7287SOL     OW33493   3.229   1.335   5.650  0.4143  0.3412  0.3177
 7287SOL    HW133494   3.172   1.393   5.600 -0.1035  0.5063  1.0902
 7287SOL    HW233495   3.167   1.316   5.721 -0.7717 -2.8624 -1.5741
 7288SOL     OW33496   3.481   0.598   5.341  0.0091  0.3592  0.1867
 7288SOL    HW133497   3.494   0.615   5.247  0.1038  0.0861  0.1503
 7288SOL    HW233498   3.568   0.618   5.376 -0.4964  2.3800  0.2579
 7289SOL     OW33499   1.556   1.013   7.857 -0.1916 -0.3004 -0.4275
 7289SOL    HW133500   1.514   1.069   7.923 -2.7303 -0.7514 -1.6791
 7289SOL    HW233501   1.625   0.970   7.908 -0.4689 -1.2167 -0.8311
 7290SOL     OW33502   2.847   2.416   7.939 -0.2360 -0.1041  0.4524
 7290SOL    HW133503   2.884   2.371   8.015  2.5221  1.1740 -0.1435
 7290SOL    HW233504   2.757   2.391   7.956 -0.4300  1.5313  1.8077
 7291SOL     OW33505   3.727   0.557   1.363  0.3488 -0.7014  0.7104
 7291SOL    HW133506   3.758   0.584   1.449 -0.7707  0.0054  0.8975
 7291SOL    HW233507   3.807   0.512   1.338  0.9518 -0.2768  1.8957
 7292SOL     OW33508   2.691   0.120   7.922 -0.0594  0.0047  0.1876
 7292SOL    HW133509   2.657   0.109   7.833 -0.0307 -0.4815  0.2370
 7292SOL    HW233510   2.713   0.213   7.926  0.8952 -0.2751  1.2083
 7293SOL     OW33511   1.330   1.771   8.430 -1.0811  0.3443 -0.0240
 7293SOL    HW133512   1.304   1.817   8.509  0.5707  0.9415  0.1683
 7293SOL    HW233513   1.424   1.765   8.441 -0.5978  2.0685 -3.2086
 7294SOL     OW33514   0.217   1.745  17.236 -0.1902  0.3550  0.2120
 7294SOL    HW133515   0.170   1.815  17.281  0.6337  1.0600 -0.0245
 7294SOL    HW233516   0.185   1.665  17.278  3.0176 -0.8946  0.3069
 7295SOL     OW33517   3.351   1.903   5.454 -0.2101 -0.4045  0.1127
 7295SOL    HW133518   3.371   1.833   5.515  1.8831 -0.4627 -0.6438
 7295SOL    HW233519   3.347   1.976   5.515 -0.8357 -0.9177  0.6823
 7296SOL     OW33520   1.780   3.204   2.465  0.1232 -0.2685  0.8142
 7296SOL    HW133521   1.858   3.149   2.462  0.0129 -0.3583 -0.5060
 7296SOL    HW233522   1.773   3.221   2.558  0.3697 -0.8824  0.9445
 7297SOL     OW33523   4.702   3.423   0.053 -0.4611  0.3186  0.4922
 7297SOL    HW133524   0.058   3.408   0.033 -0.5011  1.3543 -0.4881
 7297SOL    HW233525   4.698   3.436   0.148  0.2978 -1.3753  0.7478
 7298SOL     OW33526   2.380   4.305   1.821  0.0410 -0.2873  0.4144
 7298SOL    HW133527   2.305   4.352   1.859  0.4737 -0.3417  1.3396
 7298SOL    HW233528   2.404   4.253   1.897  2.3324  0.2870  0.0835
 7299SOL     OW33529   0.312   4.665   6.156 -0.3118  0.4872 -0.6343
 7299SOL    HW133530   0.292   0.022   6.168  0.4055  0.4634  0.7153
 7299SOL    HW233531   0.273   4.651   6.070  0.7117  2.1874 -1.3828
 7300SOL     OW33532   0.475   3.508   2.134 -0.3416 -0.2811 -0.2541
 7300SOL    HW133533   0.425   3.579   2.175  3.1587  0.3917  2.8504
 7300SOL    HW233534   0.531   3.482   2.207 -3.6189 -2.5314  1.4560
 7301SOL     OW33535   4.600   2.030   5.369  0.1077 -0.0327 -0.1152
 7301SOL    HW133536   4.532   2.071   5.422 -1.4869 -0.0542 -2.1453
 7301SOL    HW233537   4.542   1.966   5.326  0.6535  0.4851 -1.6424
 7302SOL     OW33538   1.936   4.089   6.644 -0.3274  0.2989 -0.7584
 7302SOL    HW133539   1.925   4.180   6.672  2.4238  0.5904 -0.6918
 7302SOL    HW233540   1.846   4.055   6.646  0.1655 -1.0494 -1.4944
 7303SOL     OW33541   1.176   4.497  17.482 -0.1336 -0.3183  0.2036
 7303SOL    HW133542   1.218   4.550  17.415 -0.5796 -2.5718 -1.8337
 7303SOL    HW233543   1.202   4.538  17.565  0.1891  2.8486 -1.4822
 7304SOL     OW33544   0.135   2.678   9.337  0.2950 -0.4712 -0.3840
 7304SOL    HW133545   0.155   2.755   9.284 -0.0598  1.3865  2.1767
 7304SOL    HW233546   0.052   2.639   9.308  1.2130 -2.0567 -0.8436
 7305SOL     OW33547   0.968   0.820  11.716 -0.5092 -0.4512 -0.3150
 7305SOL    HW133548   1.035   0.834  11.649 -2.9542 -1.3036 -2.8934
 7305SOL    HW233549   0.891   0.855  11.673 -0.7692 -0.3054  0.2606
 7306SOL     OW33550   0.499   0.981   8.169  0.5098 -0.0123  0.1341
 7306SOL    HW133551   0.470   1.056   8.221  0.2528 -0.0602  0.0591
 7306SOL    HW233552   0.531   0.921   8.236  0.2987 -0.5577 -0.2517
 7307SOL     OW33553   1.732   3.776   5.740 -0.1895 -0.2900 -0.4001
 7307SOL    HW133554   1.726   3.858   5.789 -0.2628 -1.8540  2.2013
 7307SOL    HW233555   1.779   3.810   5.664  0.9302  0.3654  0.5922
 7308SOL     OW33556   3.906   0.273   8.579 -0.5043 -0.3155  0.5941
 7308SOL    HW133557   3.859   0.348   8.543 -2.0295 -0.4031  2.4383
 7308SOL    HW233558   3.914   0.297   8.671  1.0892  0.8258  0.1607
 7309SOL     OW33559   3.383   0.157   0.402 -0.5882  0.9033 -0.0030
 7309SOL    HW133560   3.372   0.069   0.366  1.2366  0.8140 -0.3467
 7309SOL    HW233561   3.411   0.149   0.494  0.3657 -0.2916 -0.3960
 7310SOL     OW33562   1.143   2.605  17.458  0.4321  0.1874 -0.2877
 7310SOL    HW133563   1.217   2.590  17.516  0.8473  2.6802 -0.1884
 7310SOL    HW233564   1.069   2.624  17.515 -0.1196  0.0923 -0.9634
 7311SOL     OW33565   3.861   3.711   4.977 -0.0025 -0.0092 -0.0531
 7311SOL    HW133566   3.771   3.703   5.007  0.1887 -0.4857  0.3919
 7311SOL    HW233567   3.878   3.623   4.943 -1.0071 -1.3713  3.0012
 7312SOL     OW33568   3.854   4.035   3.649 -0.0815 -0.7235  0.1458
 7312SOL    HW133569   3.822   4.126   3.648  2.5416  0.1980  0.7883
 7312SOL    HW233570   3.844   4.006   3.558  0.5667  1.0952 -0.5126
 7313SOL     OW33571   4.084   2.993   7.614  0.4917 -0.5162  0.1053
 7313SOL    HW133572   4.058   3.081   7.641  0.1998  0.1876 -2.4892
 7313SOL    HW233573   4.179   2.994   7.611  0.4626 -1.4825 -0.9658
 7314SOL     OW33574   2.184   1.778   8.279 -0.0474 -0.2627 -0.5357
 7314SOL    HW133575   2.139   1.779   8.195 -6.2098 -0.4389  2.7360
 7314SOL    HW233576   2.131   1.706   8.313 -0.6075  1.1334  1.5429
 7315SOL     OW33577   0.521   4.313   6.108 -0.7192 -0.0870  0.3270
 7315SOL    HW133578   0.528   4.404   6.139 -1.5017 -0.8243  2.6483
 7315SOL    HW233579   0.444   4.285   6.157  0.2279 -1.5445  0.9576
 7316SOL     OW33580   4.459   1.730   7.001 -1.0209 -0.0875  0.0032
 7316SOL    HW133581   4.515   1.767   7.069 -1.7524  1.0078  0.0235
 7316SOL    HW233582   4.387   1.704   7.058 -0.7841 -0.1683  0.2624
 7317SOL     OW33583   2.351   0.859  14.362  0.5115  0.2842  0.0524
 7317SOL    HW133584   2.384   0.885  14.276 -2.5140  1.9218 -0.6117
 7317SOL    HW233585   2.401   0.917  14.419  2.0494 -0.1439 -0.8657
 7318SOL     OW33586   1.529   0.711   9.378 -0.1304  0.0986 -0.4006
 7318SOL    HW133587   1.480   0.793   9.381 -0.0556  0.1376 -0.2764
 7318SOL    HW233588   1.461   0.646   9.391 -0.8806  1.3953  1.9814
 7319SOL     OW33589   1.392   4.365   6.979 -0.0053 -0.0024 -0.0827
 7319SOL    HW133590   1.470   4.317   7.005 -0.8438 -0.3250  1.8236
 7319SOL    HW233591   1.426   4.454   6.990  1.1895 -0.3504 -1.0052
 7320SOL     OW33592   1.801   0.836   9.992  0.0306  0.1307 -0.1391
 7320SOL    HW133593   1.730   0.795  10.040  1.4653  0.1286  1.9461
 7320SOL    HW233594   1.859   0.760   9.984  1.9194  1.4228  1.4663
 7321SOL     OW33595   4.590   1.482   3.408  0.2816 -0.3301  0.0066
 7321SOL    HW133596   4.679   1.503   3.435  0.1355 -0.2685  0.4336
 7321SOL    HW233597   4.592   1.518   3.319 -1.5146  1.0157  0.5146
 7322SOL     OW33598   2.929   1.166   6.207 -0.1511 -0.7309 -0.4878
 7322SOL    HW133599   3.003   1.220   6.178 -1.3771  1.8156  1.0727
 7322SOL    HW233600   2.880   1.132   6.132 -0.1924 -0.3407 -0.6415
 7323SOL     OW33601   3.806   0.101   4.775 -0.1033  0.3201  0.1627
 7323SOL    HW133602   3.832   0.055   4.855 -0.1095  0.0516  0.0094
 7323SOL    HW233603   3.745   0.042   4.731  0.9643 -1.0292  0.4931
 7324SOL     OW33604   0.919   4.397  15.202 -0.1355 -0.0500 -0.1769
 7324SOL    HW133605   0.891   4.471  15.148 -0.1785  0.9202  1.1719
 7324SOL    HW233606   0.903   4.330  15.136  2.0698 -2.3352  1.6270
 7325SOL     OW33607   4.031   2.726   7.204  0.1952 -0.1024  0.3806
 7325SOL    HW133608   4.026   2.716   7.299 -0.3758 -3.0907  0.0382
 7325SOL    HW233609   4.071   2.812   7.190  0.3758 -0.0674  1.0967
 7326SOL     OW33610   0.537   3.909   6.236  0.5378 -0.4807  0.0821
 7326SOL    HW133611   0.466   3.963   6.270  1.1797  0.3355  0.1445
 7326SOL    HW233612   0.487   3.832   6.210  0.9815 -0.7670  0.0831
 7327SOL     OW33613   1.807   1.173   3.366  0.0098 -0.1207  0.0877
 7327SOL    HW133614   1.883   1.132   3.324 -1.4144 -0.9943 -1.6224
 7327SOL    HW233615   1.776   1.094   3.409 -0.3879  0.1161  0.2378
 7328SOL     OW33616   0.208   0.346   6.722 -0.0034 -0.3850 -0.3221
 7328SOL    HW133617   0.261   0.271   6.750  1.7951  0.5934 -1.1454
 7328SOL    HW233618   0.259   0.380   6.649  0.1935  0.3016  0.1307
 7329SOL     OW33619   2.738   2.704   7.345 -0.1541 -0.8888 -0.1580
 7329SOL    HW133620   2.705   2.735   7.261  0.0973  0.1211  0.1157
 7329SOL    HW233621   2.712   2.612   7.340  0.5411 -1.0675 -0.4529
 7330SOL     OW33622   2.712   4.106   7.827 -0.3030 -0.0121 -0.3678
 7330SOL    HW133623   2.713   4.027   7.773 -1.2502 -1.6354  2.0236
 7330SOL    HW233624   2.626   4.143   7.807 -0.9652 -1.0573  0.5438
 7331SOL     OW33625   0.678   0.296   7.285 -0.6695  0.3439  0.2382
 7331SOL    HW133626   0.753   0.251   7.247  0.3389  1.3890  0.9561
 7331SOL    HW233627   0.615   0.225   7.274 -1.0596  0.7089  0.0844
 7332SOL     OW33628   4.183   3.471   8.593 -0.2497  0.6305  0.2218
 7332SOL    HW133629   4.213   3.381   8.578 -1.7653  0.0521  0.6830
 7332SOL    HW233630   4.156   3.467   8.684 -1.5626  2.7093 -0.0680
 7333SOL     OW33631   1.751   1.327   7.844 -0.3878 -0.2468  0.2358
 7333SOL    HW133632   1.780   1.274   7.919 -0.0972 -0.5159 -0.0657
 7333SOL    HW233633   1.788   1.282   7.768  1.1835  0.7325  0.4058
 7334SOL     OW33634   2.296   3.635   9.357 -0.2253  0.4827  0.3946
 7334SOL    HW133635   2.319   3.543   9.372 -0.2432 -0.1880 -3.5512
 7334SOL    HW233636   2.204   3.627   9.382 -0.8752  0.8792 -1.8274
 7335SOL     OW33637   1.515   4.210   2.544 -0.5257 -0.0483 -0.1720
 7335SOL    HW133638   1.535   4.299   2.514  1.6684 -1.5334 -3.0617
 7335SOL    HW233639   1.451   4.219   2.614  1.0552  1.7847  1.0409
 7336SOL     OW33640   2.099   4.186  16.270  0.0939 -0.2384  0.1959
 7336SOL    HW133641   2.166   4.236  16.223  0.8019  0.1977  1.6664
 7336SOL    HW233642   2.140   4.105  16.300  0.2735  0.6391  2.3212
 7337SOL     OW33643   1.201   3.617   4.363  0.3254  0.0924  0.2092
 7337SOL    HW133644   1.157   3.681   4.419  2.8112  0.5743  1.6117
 7337SOL    HW233645   1.137   3.615   4.292  1.0042 -0.8096 -0.3697
 7338SOL     OW33646   0.007   4.516   7.069 -0.2097 -0.1337 -0.1260
 7338SOL    HW133647   0.093   4.489   7.100  0.1314  0.6406 -0.4207
 7338SOL    HW233648   0.010   4.611   7.070  0.1612 -0.1525  0.2518
 7339SOL     OW33649   4.546   0.129   4.657  0.3909 -0.4799 -0.6639
 7339SOL    HW133650   4.471   0.080   4.624 -1.8078  0.5155  2.9143
 7339SOL    HW233651   4.515   0.217   4.677 -1.1969 -0.9193 -1.1790
 7340SOL     OW33652   3.306   4.449  12.639 -0.0698  0.1714 -0.1698
 7340SOL    HW133653   3.387   4.411  12.604 -0.4026  1.5188 -2.4326
 7340SOL    HW233654   3.303   4.530  12.588  2.0507  1.4768  1.7598
 7341SOL     OW33655   0.001   0.988   9.347  0.4256  0.0235 -0.3747
 7341SOL    HW133656   4.692   0.917   9.301  2.9817 -0.9788 -1.3413
 7341SOL    HW233657   4.716   0.974   9.439  0.5815  2.5556  0.0421
 7342SOL     OW33658   4.443   3.758  16.577 -0.4367 -0.0893 -0.8835
 7342SOL    HW133659   4.415   3.758  16.668  0.0135 -0.1219 -0.7450
 7342SOL    HW233660   4.389   3.827  16.540 -0.9222 -1.0223 -1.9441
 7343SOL     OW33661   1.110   3.052   7.482 -0.4462 -0.0096 -0.0734
 7343SOL    HW133662   1.118   3.051   7.386 -0.6208 -3.3368 -0.0269
 7343SOL    HW233663   1.199   3.076   7.507 -1.1079  1.6345  0.7475
 7344SOL     OW33664   4.540   2.502   7.989  0.0337  0.2802 -0.1261
 7344SOL    HW133665   4.597   2.435   8.026  0.4195  0.8290  0.2758
 7344SOL    HW233666   4.504   2.527   8.074 -1.2042  2.3409 -1.2435
 7345SOL     OW33667   3.832   2.646  14.785 -0.0802 -0.2372  0.0883
 7345SOL    HW133668   3.853   2.557  14.755 -0.0858 -0.4356  0.6706
 7345SOL    HW233669   3.910   2.667  14.837 -0.2332  1.9451 -0.5708
 7346SOL     OW33670   1.592   1.385   4.286  0.2714 -0.7302  0.1323
 7346SOL    HW133671   1.554   1.372   4.373  0.6000 -0.8315  0.2606
 7346SOL    HW233672   1.618   1.296   4.263 -1.1631 -1.1043 -0.0814
 7347SOL     OW33673   0.638   0.539   4.802 -0.1352 -0.3278  0.1175
 7347SOL    HW133674   0.680   0.455   4.785  1.6787  0.3083  1.4762
 7347SOL    HW233675   0.710   0.597   4.828 -1.2682  0.8777  0.5597
 7348SOL     OW33676   0.270   2.125   1.858  0.3346 -0.0399 -0.0027
 7348SOL    HW133677   0.283   2.077   1.940  0.1621  1.8168  1.1002
 7348SOL    HW233678   0.353   2.168   1.841  1.5518 -2.2073  0.4371
 7349SOL     OW33679   3.253   1.905   6.476  0.0821 -0.5707 -0.0104
 7349SOL    HW133680   3.324   1.954   6.516  0.2327 -1.6765  1.1185
 7349SOL    HW233681   3.284   1.814   6.477  0.0280 -0.6088 -1.9795
 7350SOL     OW33682   4.197   4.537   7.980 -0.0881  0.2214  0.0909
 7350SOL    HW133683   4.180   4.468   8.044 -0.1486 -0.0370 -0.2068
 7350SOL    HW233684   4.111   4.547   7.940  0.4563 -1.9970 -1.5835
 7351SOL     OW33685   4.339   0.299  11.883 -0.5167 -0.0041 -0.4526
 7351SOL    HW133686   4.272   0.293  11.815 -1.2445  1.6181  0.1289
 7351SOL    HW233687   4.411   0.313  11.823 -0.3967  1.8140  0.1162
 7352SOL     OW33688   0.435   4.730   8.480 -0.1879 -0.2705  0.1031
 7352SOL    HW133689   0.378   4.665   8.521 -1.3171  0.5394 -0.1766
 7352SOL    HW233690   0.426   0.069   8.539  1.5615  0.2194 -0.2686
 7353SOL     OW33691   3.414   4.672  11.492  0.0061 -0.8380 -0.3668
 7353SOL    HW133692   3.351   0.007  11.506 -0.5920 -1.1972 -1.2506
 7353SOL    HW233693   3.452   4.702  11.410 -0.7866 -0.0341 -0.4403
 7354SOL     OW33694   1.669   0.247   2.105 -0.2905 -0.6766  0.1361
 7354SOL    HW133695   1.678   0.317   2.040 -0.4679 -1.0032 -0.2409
 7354SOL    HW233696   1.620   0.294   2.172 -1.5983 -0.6287 -0.8676
 7355SOL     OW33697   0.735   3.714  14.946 -0.5538  0.0987  0.1955
 7355SOL    HW133698   0.729   3.632  14.995 -2.8532  0.0704 -0.1507
 7355SOL    HW233699   0.644   3.719  14.915 -1.0545  0.6607  1.7749
 7356SOL     OW33700   2.256   4.703   7.049 -0.2097  0.7820 -0.2615
 7356SOL    HW133701   2.232   0.000   6.963 -1.3366 -0.0617 -0.2721
 7356SOL    HW233702   2.207   0.022   7.110  1.7827 -1.1474  3.1133
 7357SOL     OW33703   1.164   2.967   4.349 -0.7262 -0.4627  0.7265
 7357SOL    HW133704   1.221   3.040   4.373 -0.0117 -0.9970  0.6421
 7357SOL    HW233705   1.127   2.993   4.265 -0.0746  1.1513  0.9267
 7358SOL     OW33706   1.226   2.667   6.503  0.4996  0.1172  0.0637
 7358SOL    HW133707   1.155   2.685   6.443  0.5103  4.7487  1.4335
 7358SOL    HW233708   1.233   2.571   6.497 -2.0695 -0.0745  0.3831
 7359SOL     OW33709   3.436   3.439   6.453  0.5068 -0.5364 -0.2681
 7359SOL    HW133710   3.429   3.406   6.364  0.7606  1.9641 -1.2288
 7359SOL    HW233711   3.528   3.421   6.472  0.3432  1.3400  2.3359
 7360SOL     OW33712   4.557   3.441   9.424  0.0534 -0.0001  0.4108
 7360SOL    HW133713   4.503   3.392   9.363 -0.3159  0.3845  0.4257
 7360SOL    HW233714   4.504   3.424   9.502 -0.2284 -0.3045  0.1526
 7361SOL     OW33715   2.012   1.916   2.255 -0.2544  0.4031 -0.8699
 7361SOL    HW133716   2.080   1.980   2.234 -0.4479  0.8602 -0.1290
 7361SOL    HW233717   1.989   1.876   2.172 -0.1245  1.9494 -1.6467
 7362SOL     OW33718   2.335   0.449   8.321 -0.6817 -0.2623  0.1085
 7362SOL    HW133719   2.362   0.360   8.344  1.0593  1.0669  3.1540
 7362SOL    HW233720   2.316   0.429   8.229 -3.9691 -1.1543  0.9523
 7363SOL     OW33721   2.822   0.525   4.344  0.2238 -0.9217  0.2555
 7363SOL    HW133722   2.875   0.523   4.423  1.8448 -1.3974 -0.8485
 7363SOL    HW233723   2.741   0.487   4.380 -0.7849  0.9007 -0.0931
 7364SOL     OW33724   1.280   2.434   3.280  0.0667 -0.4036 -0.2886
 7364SOL    HW133725   1.366   2.400   3.257 -0.2356 -1.8498  0.7693
 7364SOL    HW233726   1.230   2.420   3.199  0.5614 -2.6186 -0.2102
 7365SOL     OW33727   1.500   0.259   4.903  0.3404  0.0596  0.1119
 7365SOL    HW133728   1.493   0.274   4.997  0.1607  0.4860  0.0261
 7365SOL    HW233729   1.488   0.343   4.859 -2.9611 -0.0585  0.7818
 7366SOL     OW33730   1.881   1.435   3.501  0.3011 -0.0561 -0.3973
 7366SOL    HW133731   1.876   1.361   3.441  0.0866 -1.0076  0.7893
 7366SOL    HW233732   1.791   1.468   3.494 -0.0539 -0.9906 -0.2511
 7367SOL     OW33733   0.097   3.238   4.763 -0.1926  0.0827 -0.2973
 7367SOL    HW133734   0.077   3.271   4.850  1.9587  0.8624 -0.0923
 7367SOL    HW233735   0.015   3.256   4.716  1.2621  0.9828 -2.5093
 7368SOL     OW33736   1.610   1.011   7.001 -0.4402 -0.3127  0.1556
 7368SOL    HW133737   1.652   1.046   7.079  0.4663  0.9253 -0.8963
 7368SOL    HW233738   1.530   0.974   7.040 -1.5414  0.1739 -1.6409
 7369SOL     OW33739   0.933   4.347   7.383  0.0193  0.1016  0.7304
 7369SOL    HW133740   1.022   4.378   7.400  0.7133 -0.4963 -1.7694
 7369SOL    HW233741   0.945   4.262   7.342 -2.8669  0.5610 -1.0423
 7370SOL     OW33742   4.231   3.171  16.029  0.4515 -0.0912  0.1152
 7370SOL    HW133743   4.288   3.145  15.957 -0.3766 -0.7143 -0.3236
 7370SOL    HW233744   4.142   3.154  15.998 -0.2479 -3.4457  3.9524
 7371SOL     OW33745   3.312   3.682   3.970 -0.0790  0.0111  0.3418
 7371SOL    HW133746   3.313   3.587   3.985 -0.4762 -0.0695 -0.1238
 7371SOL    HW233747   3.401   3.688   3.934  1.0302 -2.6949  2.6064
 7372SOL     OW33748   1.675   2.100   4.469 -0.3400 -0.5478  0.2922
 7372SOL    HW133749   1.604   2.128   4.525  0.7098 -1.7108  2.2154
 7372SOL    HW233750   1.751   2.144   4.507 -0.7244 -0.5223  1.0156
 7373SOL     OW33751   4.183   0.025   6.170  0.7604  0.9180  0.1417
 7373SOL    HW133752   4.092   4.735   6.183  0.8874  0.3207 -0.2009
 7373SOL    HW233753   4.209   4.686   6.116  2.4043 -0.1247  2.3796
 7374SOL     OW33754   3.407   1.045   2.496 -0.0153 -0.0422 -0.2419
 7374SOL    HW133755   3.319   1.060   2.462 -0.5802 -0.1420  1.1979
 7374SOL    HW233756   3.446   0.985   2.432  0.9748  3.2745 -2.7787
 7375SOL     OW33757   1.671   2.136   6.412  0.0641 -0.3464 -0.0536
 7375SOL    HW133758   1.590   2.126   6.462  0.8059  0.3868  1.2842
 7375SOL    HW233759   1.727   2.175   6.479 -1.6815 -0.8227  1.6881
 7376SOL     OW33760   2.150   2.847   5.261 -0.6747  0.1765 -0.0699
 7376SOL    HW133761   2.200   2.929   5.262 -0.8069  0.2437  0.9648
 7376SOL    HW233762   2.147   2.822   5.169  0.6603 -2.0120  0.4950
 7377SOL     OW33763   2.217   3.852   9.220 -0.5079 -0.6567  0.4185
 7377SOL    HW133764   2.126   3.844   9.250 -0.1464 -1.5073  1.2735
 7377SOL    HW233765   2.259   3.791   9.281  3.9178  0.9188 -1.1091
 7378SOL     OW33766   4.692   3.412   2.573 -0.2898 -0.8560 -0.3124
 7378SOL    HW133767   4.654   3.399   2.486 -0.4779 -3.9873  0.2336
 7378SOL    HW233768   4.610   3.425   2.619 -0.6009 -0.7094 -0.8999
 7379SOL     OW33769   1.388   3.642   9.136  0.5682  0.0888 -0.2906
 7379SOL    HW133770   1.411   3.732   9.157 -1.0762  0.6552 -0.9197
 7379SOL    HW233771   1.384   3.649   9.041  1.8882 -0.5412 -0.3936
 7380SOL     OW33772   2.425   1.671   4.771  0.1399  0.2343  0.8095
 7380SOL    HW133773   2.474   1.727   4.831  1.7605  0.4114 -0.6507
 7380SOL    HW233774   2.491   1.616   4.729 -0.7512 -0.6843  0.6097
 7381SOL     OW33775   0.754   1.025  16.070 -0.2758  0.1031 -0.6176
 7381SOL    HW133776   0.841   1.041  16.032 -0.2249 -0.6939 -0.8217
 7381SOL    HW233777   0.752   0.930  16.064 -1.2548 -0.0584  1.9467
 7382SOL     OW33778   3.796   0.941   3.007 -0.0571  0.3742  0.4001
 7382SOL    HW133779   3.779   1.035   2.998  0.5196  0.4246 -0.1180
 7382SOL    HW233780   3.855   0.928   2.933 -3.0294 -2.2653 -1.5124
 7383SOL     OW33781   2.528   0.931  10.686  0.3801 -0.2279 -0.6941
 7383SOL    HW133782   2.443   0.914  10.647 -0.8427  1.2305  1.3368
 7383SOL    HW233783   2.504   1.016  10.724  0.6879 -0.1102 -0.7627
 7384SOL     OW33784   0.576   4.058   5.983  0.2645 -0.0940  0.1608
 7384SOL    HW133785   0.558   4.149   6.007 -1.8185 -0.6379  0.7393
 7384SOL    HW233786   0.581   4.019   6.071  0.3312 -1.4391 -0.4404
 7385SOL     OW33787   1.987   0.651   7.339 -0.1791  0.9616  0.0221
 7385SOL    HW133788   1.976   0.575   7.396 -3.1200  2.4237  1.3867
 7385SOL    HW233789   1.930   0.711   7.387  0.2079  2.5670 -1.5057
 7386SOL     OW33790   1.064   0.912   7.707 -0.3062  0.1595 -0.4836
 7386SOL    HW133791   1.156   0.900   7.729 -0.3160  0.8377 -0.0736
 7386SOL    HW233792   1.052   1.004   7.731 -0.5910 -0.4036  1.5840
 7387SOL     OW33793   0.155   2.274   7.738  0.2701  0.1551  0.4567
 7387SOL    HW133794   0.142   2.281   7.833  0.6566  0.3251  0.4975
 7387SOL    HW233795   0.073   2.315   7.710 -1.4553 -3.6338  0.0078
 7388SOL     OW33796   1.418   0.284   3.289 -0.0897  0.0003 -0.4347
 7388SOL    HW133797   1.454   0.232   3.218  1.4103  0.3771  0.0545
 7388SOL    HW233798   1.325   0.272   3.270 -0.6440  3.9737 -0.3027
 7389SOL     OW33799   0.632   0.363   8.087 -0.2919  0.1526 -0.1699
 7389SOL    HW133800   0.675   0.367   8.002 -1.1819 -0.8050 -0.6664
 7389SOL    HW233801   0.685   0.425   8.136 -0.2785 -1.9843  2.5007
 7390SOL     OW33802   3.089   4.234   8.637  0.4194  0.2847  0.0128
 7390SOL    HW133803   3.120   4.292   8.708 -1.0480  0.2303  0.6981
 7390SOL    HW233804   3.148   4.159   8.641 -0.3477 -0.2536  1.3644
 7391SOL     OW33805   0.641   3.144   2.116 -0.0447  0.4522  0.8256
 7391SOL    HW133806   0.650   3.234   2.149 -0.2356  1.4647 -1.8721
 7391SOL    HW233807   0.726   3.139   2.073  0.5517 -1.9689  2.2893
 7392SOL     OW33808   4.548   1.388   2.217  0.3978  0.3473  0.3707
 7392SOL    HW133809   4.603   1.313   2.237 -0.3508  0.1738  1.7995
 7392SOL    HW233810   4.464   1.361   2.255 -0.6813  0.8604 -1.6262
 7393SOL     OW33811   4.460   1.757   6.185 -0.6710  0.3659  0.1848
 7393SOL    HW133812   4.548   1.778   6.153 -1.3811  1.2491 -1.1760
 7393SOL    HW233813   4.488   1.713   6.266 -1.1264 -1.4583 -0.6641
 7394SOL     OW33814   4.218   0.262  12.126 -0.5723 -0.1730  0.0624
 7394SOL    HW133815   4.228   0.297  12.037  3.4880  0.3777  0.7071
 7394SOL    HW233816   4.206   0.167  12.115 -4.1462  0.2483  0.4465
 7395SOL     OW33817   0.839   4.596  15.038  0.4683  0.0611 -0.2056
 7395SOL    HW133818   0.747   4.606  15.017 -0.1056 -2.6199  0.9293
 7395SOL    HW233819   0.875   4.567  14.954 -0.5795 -1.1892 -0.2275
 7396SOL     OW33820   2.733   4.239   1.275  0.2524  0.1534  0.2964
 7396SOL    HW133821   2.700   4.315   1.323 -2.4745  0.1515 -1.6092
 7396SOL    HW233822   2.817   4.222   1.317  0.8875  2.7801  0.1309
 7397SOL     OW33823   4.140   3.526   9.976 -0.0460  0.2661  0.0265
 7397SOL    HW133824   4.196   3.566  10.042  0.5892 -0.3154 -0.1531
 7397SOL    HW233825   4.154   3.432   9.988 -2.2578 -0.0863 -0.1390
 7398SOL     OW33826   3.559   1.730   4.637 -0.2935  0.2778 -0.3481
 7398SOL    HW133827   3.606   1.792   4.692 -1.8246 -0.2611  1.5723
 7398SOL    HW233828   3.477   1.778   4.625 -0.7805 -0.4001  0.3137
 7399SOL     OW33829   0.888   3.195   0.550 -0.0895 -0.2403  0.2339
 7399SOL    HW133830   0.801   3.234   0.547 -0.1812 -0.5745 -1.4967
 7399SOL    HW233831   0.944   3.273   0.546 -0.0605 -0.1689  2.0549
 7400SOL     OW33832   4.145   1.297   4.043 -0.1943  0.4253 -0.4450
 7400SOL    HW133833   4.121   1.370   4.101  1.7742  0.0547  0.8201
 7400SOL    HW233834   4.085   1.228   4.070  2.7669 -1.2699  1.7339
 7401SOL     OW33835   4.387   2.553   1.110 -0.0488 -0.0379 -0.1534
 7401SOL    HW133836   4.468   2.503   1.119 -0.5978 -0.8833  0.1288
 7401SOL    HW233837   4.333   2.475   1.122 -0.5445  0.6000  1.9042
 7402SOL     OW33838   3.244   3.101  15.834 -0.1076  0.1369  0.2749
 7402SOL    HW133839   3.243   3.005  15.831  0.1541  0.1630 -0.8197
 7402SOL    HW233840   3.168   3.118  15.890  1.3520  1.4779  1.8534
 7403SOL     OW33841   0.835   1.152  16.792 -0.0929 -0.5706  0.0213
 7403SOL    HW133842   0.786   1.072  16.814 -1.0489 -0.0274 -0.1225
 7403SOL    HW233843   0.856   1.185  16.879  0.2204 -0.3763 -0.1266
 7404SOL     OW33844   2.037   2.196  10.372  0.1733 -0.1537 -0.4870
 7404SOL    HW133845   2.119   2.229  10.335 -0.7135  1.5197 -0.9955
 7404SOL    HW233846   1.979   2.269  10.347 -0.1603 -0.4159 -0.4711
 7405SOL     OW33847   3.108   3.515   5.616  0.6862  0.4798  0.2071
 7405SOL    HW133848   3.018   3.481   5.614  0.2567  1.6115  0.5641
 7405SOL    HW233849   3.133   3.514   5.708  1.5121 -0.1978 -0.0194
 7406SOL     OW33850   3.208   1.873   7.777 -0.4186  0.2813 -0.1327
 7406SOL    HW133851   3.171   1.840   7.859 -0.1675 -1.1742 -0.6076
 7406SOL    HW233852   3.288   1.824   7.763 -0.6586  0.1179 -0.9195
 7407SOL     OW33853   2.828   0.094   1.997  0.1157  0.4735  0.0782
 7407SOL    HW133854   2.832   0.095   2.093  1.9254  0.1293  0.0112
 7407SOL    HW233855   2.879   0.174   1.987  0.0231  0.7753  1.9749
 7408SOL     OW33856   0.456   3.469   4.945  0.2239  0.6142 -0.1754
 7408SOL    HW133857   0.537   3.427   4.975  0.0724  1.3627  1.2900
 7408SOL    HW233858   0.476   3.496   4.855  0.3981  0.0695 -0.3059
 7409SOL     OW33859   0.151   1.358   1.751 -0.2685 -0.2552  0.1066
 7409SOL    HW133860   0.094   1.430   1.723  0.6823  0.7654  0.8066
 7409SOL    HW233861   0.221   1.401   1.800  0.4388 -3.7070  2.1003
 7410SOL     OW33862   2.906   2.725   8.421  0.6061  0.1746 -0.3289
 7410SOL    HW133863   2.876   2.810   8.452  0.9102  0.2598 -0.2706
 7410SOL    HW233864   2.821   2.681   8.424 -0.8037  2.9077 -0.4259
 7411SOL     OW33865   0.199   4.405  12.910 -0.0619  0.2696  0.0662
 7411SOL    HW133866   0.242   4.472  12.963 -1.1587 -0.1759  1.5148
 7411SOL    HW233867   0.230   4.423  12.822  0.8235 -1.6425 -0.0215
 7412SOL     OW33868   2.801   0.178  14.371 -0.4426  0.4645  1.1245
 7412SOL    HW133869   2.800   0.269  14.343  2.7257  0.3447  0.6637
 7412SOL    HW233870   2.889   0.149  14.346 -1.3323  0.4490 -1.9664
 7413SOL     OW33871   4.421   1.540   8.268 -0.3344  0.0279 -0.1486
 7413SOL    HW133872   4.485   1.611   8.268 -0.2434 -0.0556  0.1236
 7413SOL    HW233873   4.366   1.575   8.338 -1.1136  2.1686 -1.8272
 7414SOL     OW33874   0.234   1.113   6.535  0.5678  0.2888 -0.5292
 7414SOL    HW133875   0.260   1.063   6.613 -0.0038  1.3763  0.3600
 7414SOL    HW233876   0.170   1.172   6.575  0.1509 -1.2609  1.1219
 7415SOL     OW33877   1.066   3.644   6.083  0.2238 -0.1498 -0.0822
 7415SOL    HW133878   1.012   3.671   6.009 -0.5502  1.1214  0.9601
 7415SOL    HW233879   1.154   3.664   6.051 -0.5341 -1.1845 -2.8004
 7416SOL     OW33880   1.583   3.985  14.861  0.2117  0.2336 -0.0751
 7416SOL    HW133881   1.623   4.040  14.929 -1.1992  3.1389 -1.6142
 7416SOL    HW233882   1.520   3.929  14.905 -0.7660  0.0700 -1.6819
 7417SOL     OW33883   2.805   0.506   7.915  0.6429 -0.3929 -0.1335
 7417SOL    HW133884   2.723   0.485   7.960 -0.3380 -0.1922 -1.8553
 7417SOL    HW233885   2.772   0.581   7.866 -0.4618 -0.7184  0.1106
 7418SOL     OW33886   1.458   1.788   3.599  0.2098 -0.1481  0.1769
 7418SOL    HW133887   1.456   1.776   3.694  0.5456 -0.0384  0.1966
 7418SOL    HW233888   1.503   1.872   3.602 -0.3730  0.1379  1.0636
 7419SOL     OW33889   1.000   1.753  16.902  0.3663 -0.0495  0.1201
 7419SOL    HW133890   0.964   1.665  16.896 -0.6832  0.3850 -0.1407
 7419SOL    HW233891   1.095   1.741  16.906  0.4847  0.8669  0.0305
 7420SOL     OW33892   3.627   3.387  12.458  0.1252  0.1524  0.0782
 7420SOL    HW133893   3.559   3.452  12.440  0.9451  0.1170 -3.2155
 7420SOL    HW233894   3.637   3.381  12.553  1.2982 -1.2625 -0.1281
 7421SOL     OW33895   0.668   0.020   9.006 -0.0620  0.0394 -0.5799
 7421SOL    HW133896   0.662   4.668   8.970  1.9517 -0.8183  1.1600
 7421SOL    HW233897   0.577   0.036   9.032  0.6592  1.3154  1.1988
 7422SOL     OW33898   0.066   4.597   3.691 -0.0165  0.3046  0.1581
 7422SOL    HW133899   4.730   4.640   3.644 -0.6315 -0.8877  0.0164
 7422SOL    HW233900   0.138   4.661   3.686  0.5668 -0.3977 -0.3120
 7423SOL     OW33901   1.732   4.102  16.020 -0.4524  0.0156  0.1442
 7423SOL    HW133902   1.782   4.174  15.982 -0.3262  0.6572  1.5301
 7423SOL    HW233903   1.810   4.051  16.044 -0.6905 -0.3075  0.2322
 7424SOL     OW33904   1.382   1.604   4.934 -0.2137 -0.0038  0.4907
 7424SOL    HW133905   1.423   1.691   4.940  1.3751 -0.8630  1.9415
 7424SOL    HW233906   1.324   1.606   5.010  1.3473 -0.6750  1.6927
 7425SOL     OW33907   2.558   3.547  13.878 -0.2114 -0.8007  0.5100
 7425SOL    HW133908   2.628   3.535  13.815 -0.7362 -1.7315  0.1026
 7425SOL    HW233909   2.498   3.575  13.809  0.7782 -1.6857 -0.7022
 7426SOL     OW33910   4.454   0.017   5.938  0.4622  0.2112 -0.0281
 7426SOL    HW133911   4.509   4.680   5.911 -2.6482 -2.6786  1.3455
 7426SOL    HW233912   4.472   0.018   6.032 -1.7427  0.2733  0.4028
 7427SOL     OW33913   1.310   4.182   3.759  0.3084 -0.2373 -0.3733
 7427SOL    HW133914   1.314   4.088   3.775  2.0967  0.0696  0.9727
 7427SOL    HW233915   1.305   4.192   3.663  0.7503 -0.0950 -0.3827
 7428SOL     OW33916   4.282   3.877   4.664 -0.0263  0.1073  0.8996
 7428SOL    HW133917   4.216   3.850   4.727 -1.2462  1.0207  0.0137
 7428SOL    HW233918   4.226   3.921   4.599  2.0458  1.7748  0.2243
 7429SOL     OW33919   4.053   3.895   3.249  0.4840 -0.5043  0.4641
 7429SOL    HW133920   4.106   3.926   3.323  1.7221 -2.0113  0.2068
 7429SOL    HW233921   3.975   3.950   3.259 -0.3722 -1.6793  0.3396
 7430SOL     OW33922   3.137   4.468   7.544  0.5209  0.1683 -0.0942
 7430SOL    HW133923   3.173   4.451   7.631 -1.2215  2.8745  1.1620
 7430SOL    HW233924   3.209   4.512   7.499  0.1895  2.3233  1.4682
 7431SOL     OW33925   1.182   1.999   2.859 -0.3797 -0.0843  0.2159
 7431SOL    HW133926   1.170   1.971   2.768 -1.2424  2.5556 -0.4885
 7431SOL    HW233927   1.090   1.990   2.884  0.1037  1.1953  2.4517
 7432SOL     OW33928   2.482   2.603   9.596 -0.0295 -0.2551  0.1222
 7432SOL    HW133929   2.402   2.655   9.600 -0.3919 -0.9542  1.6908
 7432SOL    HW233930   2.495   2.591   9.690  2.6297 -2.0828 -0.4739
 7433SOL     OW33931   4.213   2.312   4.731 -0.9183  0.4269  0.1013
 7433SOL    HW133932   4.177   2.244   4.787 -2.3999  0.7798 -0.4286
 7433SOL    HW233933   4.307   2.301   4.749 -0.2140  2.1543 -2.4158
 7434SOL     OW33934   0.748   0.608  11.281  0.3394 -0.0082  0.3709
 7434SOL    HW133935   0.699   0.543  11.230 -0.3597  0.6533  0.2034
 7434SOL    HW233936   0.825   0.618  11.225  1.2488  2.0453  1.9992
 7435SOL     OW33937   4.074   1.935   8.084 -0.5100  0.2943 -0.3995
 7435SOL    HW133938   4.017   1.884   8.142 -1.0053  1.3132  0.0057
 7435SOL    HW233939   4.084   2.016   8.134  2.1583  0.2573 -0.8896
 7436SOL     OW33940   4.734   1.286   8.701 -0.2378  0.0252  0.4753
 7436SOL    HW133941   4.721   1.238   8.783 -0.9577  1.0456  0.9545
 7436SOL    HW233942   4.684   1.365   8.719  0.2297  0.0476  1.6676
 7437SOL     OW33943   1.965   1.565   3.725  0.0166  0.7940  0.2845
 7437SOL    HW133944   1.891   1.550   3.783 -0.0497  1.4406  0.3676
 7437SOL    HW233945   1.924   1.538   3.643 -0.6750 -0.1076  0.9259
 7438SOL     OW33946   0.678   2.591   2.551  0.0325 -0.0524  0.1020
 7438SOL    HW133947   0.681   2.495   2.549  0.7537  0.0162 -2.1854
 7438SOL    HW233948   0.711   2.614   2.464 -0.3964  1.0685  0.2384
 7439SOL     OW33949   1.767   3.640   2.649 -0.0660  0.6594 -0.0133
 7439SOL    HW133950   1.676   3.610   2.644  0.0772  0.2612 -0.2081
 7439SOL    HW233951   1.758   3.703   2.577  1.0260 -0.1695 -0.8645
 7440SOL     OW33952   1.585   4.273   1.725 -0.2531  0.2989  0.4151
 7440SOL    HW133953   1.604   4.359   1.689  0.1615 -0.9543 -2.3327
 7440SOL    HW233954   1.502   4.253   1.682  0.5180 -0.2926 -0.7965
 7441SOL     OW33955   3.671   1.213   7.963 -0.4541  0.6532 -0.4524
 7441SOL    HW133956   3.644   1.266   7.888  0.2929  2.9613  0.9402
 7441SOL    HW233957   3.741   1.160   7.924 -1.2200  0.1255 -1.1140
 7442SOL     OW33958   2.798   0.694   7.705  0.8523  0.2016  0.2469
 7442SOL    HW133959   2.891   0.688   7.683  0.8557 -0.4811  0.4618
 7442SOL    HW233960   2.784   0.785   7.679 -0.2860  0.2894  1.1838
 7443SOL     OW33961   4.622   1.298  12.803  0.3810 -0.2004 -0.3832
 7443SOL    HW133962   4.616   1.209  12.837 -2.1523  0.1208 -0.0326
 7443SOL    HW233963   4.696   1.324  12.858 -0.8173 -1.9963  2.0698
 7444SOL     OW33964   3.377   4.310   7.260 -0.7109 -0.1933  0.7684
 7444SOL    HW133965   3.459   4.351   7.232 -0.6037 -0.4270  0.7321
 7444SOL    HW233966   3.347   4.261   7.183 -1.6035  0.6802  0.5692
 7445SOL     OW33967   4.021   2.571   2.956  0.0834  0.6680 -0.4264
 7445SOL    HW133968   4.090   2.606   3.012  1.2665 -0.8126 -0.9173
 7445SOL    HW233969   4.062   2.562   2.869  1.6655  0.1000  0.3723
 7446SOL     OW33970   0.033   2.753   8.482  0.0427 -0.0580 -0.0495
 7446SOL    HW133971   0.009   2.803   8.404 -1.1507 -0.7565 -0.1282
 7446SOL    HW233972   4.697   2.697   8.511  2.1112 -1.2114  2.8003
 7447SOL     OW33973   1.762   2.865  11.648  0.4184 -0.5539  0.4419
 7447SOL    HW133974   1.669   2.844  11.641  0.4634 -0.3666 -0.8582
 7447SOL    HW233975   1.798   2.811  11.578 -0.8534 -1.3673  0.4245
 7448SOL     OW33976   2.937   3.737   5.426 -0.3436 -0.2425 -0.2365
 7448SOL    HW133977   2.847   3.768   5.424 -0.6049 -1.1260 -1.8547
 7448SOL    HW233978   2.920   3.649   5.461  0.0253 -0.2251 -0.0034
 7449SOL     OW33979   2.725   3.851   6.537 -0.1877  0.4113 -0.0475
 7449SOL    HW133980   2.693   3.825   6.451  1.7664 -2.0450 -0.0087
 7449SOL    HW233981   2.705   3.945   6.531 -0.8348  0.0635 -3.5590
 7450SOL     OW33982   3.196   4.617   8.825 -0.2861  0.6968 -0.0946
 7450SOL    HW133983   3.209   4.692   8.882  1.0780  1.0777 -0.9093
 7450SOL    HW233984   3.261   4.642   8.759  1.9337 -0.2070  1.7416
 7451SOL     OW33985   2.815   3.409   9.475 -0.1531  0.2267  0.1443
 7451SOL    HW133986   2.903   3.396   9.442 -0.0570  0.5704  0.2666
 7451SOL    HW233987   2.820   3.417   9.570  1.1207  1.2016 -0.0141
 7452SOL     OW33988   3.945   4.326  17.016 -0.4477 -0.0681  0.0060
 7452SOL    HW133989   3.870   4.326  17.074  0.2987  1.7128  0.9660
 7452SOL    HW233990   4.009   4.352  17.082  2.1677 -0.3110 -2.4090
 7453SOL     OW33991   2.202   1.865   3.174 -0.3872 -0.0041  0.2555
 7453SOL    HW133992   2.215   1.818   3.091  0.0560 -0.7971  0.7733
 7453SOL    HW233993   2.291   1.896   3.195 -1.3821  2.0164  1.4779
 7454SOL     OW33994   2.112   2.918   4.230  0.3511  0.6728  0.2417
 7454SOL    HW133995   2.059   2.997   4.220  1.6863  1.9014  2.8760
 7454SOL    HW233996   2.111   2.872   4.146 -2.6088  0.3244  0.4909
 7455SOL     OW33997   1.485   4.694   8.943 -0.3873  0.4788 -0.5692
 7455SOL    HW133998   1.565   0.009   8.959 -0.3604 -0.2114  1.5016
 7455SOL    HW233999   1.446   0.011   8.873  0.0555  2.1058  0.4021
 7456SOL     OW34000   3.197   2.361   5.210  0.2818  0.1844  0.1638
 7456SOL    HW134001   3.105   2.375   5.188  0.3028 -0.6997 -0.5051
 7456SOL    HW234002   3.194   2.392   5.300  2.3109  1.2044 -0.1258
 7457SOL     OW34003   0.803   0.608  16.765  0.1858 -0.5197 -0.0253
 7457SOL    HW134004   0.786   0.690  16.812  0.6080 -0.9655  0.9018
 7457SOL    HW234005   0.815   0.547  16.837 -0.8807 -0.3841  0.2635
 7458SOL     OW34006   1.182   0.758   6.402  0.5676  0.1522 -0.0494
 7458SOL    HW134007   1.134   0.715   6.472  0.5018  0.0373 -0.1649
 7458SOL    HW234008   1.235   0.685   6.369 -0.7246 -0.8666  0.1327
 7459SOL     OW34009   2.258   2.990   8.023  0.5571  0.5957 -0.0436
 7459SOL    HW134010   2.307   3.050   8.079  4.4545 -0.9467 -1.8508
 7459SOL    HW234011   2.326   2.940   7.979  0.8742 -0.2856  1.4585
 7460SOL     OW34012   3.340   4.149   2.580 -0.1996 -0.2535  0.1203
 7460SOL    HW134013   3.338   4.055   2.561 -0.9407 -0.0961 -0.5685
 7460SOL    HW234014   3.416   4.175   2.528 -0.0764  0.8051  0.8197
 7461SOL     OW34015   2.925   3.133  12.114 -0.2036 -0.5095 -0.2582
 7461SOL    HW134016   2.858   3.099  12.055  1.4433 -0.1072 -2.3582
 7461SOL    HW234017   2.870   3.145  12.192 -1.0747  1.2815 -1.1437
 7462SOL     OW34018   4.024   2.076   0.636  0.5603  0.2510  0.2059
 7462SOL    HW134019   4.079   2.059   0.713  0.2847 -0.2460  0.2913
 7462SOL    HW234020   4.094   2.078   0.570 -0.6472 -1.7537 -1.1310
 7463SOL     OW34021   4.518   3.443   4.585  0.3697 -0.1057 -0.8522
 7463SOL    HW134022   4.516   3.537   4.567  0.8328 -0.0663 -0.6875
 7463SOL    HW234023   4.445   3.432   4.647 -0.1171  0.2592 -1.3587
 7464SOL     OW34024   1.717   4.159   1.008  0.8657  0.7295 -0.1543
 7464SOL    HW134025   1.649   4.113   0.959  0.5853  0.2968  0.6374
 7464SOL    HW234026   1.774   4.200   0.942  0.7291  3.0266  1.1445
 7465SOL     OW34027   4.148   1.295  10.300  0.0633  0.2024 -0.1325
 7465SOL    HW134028   4.074   1.336  10.256 -0.5191 -1.0609 -0.3474
 7465SOL    HW234029   4.157   1.358  10.372 -0.5885 -1.5172  1.4843
 7466SOL     OW34030   1.054   0.473   2.208 -0.5442 -0.1142  0.2003
 7466SOL    HW134031   1.112   0.436   2.142 -0.9435  0.4599 -0.4728
 7466SOL    HW234032   1.102   0.552   2.231 -1.1191  0.4709 -0.6182
 7467SOL     OW34033   1.872   2.074   7.198 -0.6607 -0.2470  0.2473
 7467SOL    HW134034   1.789   2.110   7.166 -1.3073 -0.5845  1.5222
 7467SOL    HW234035   1.854   2.083   7.292  0.5539  1.2461  0.3282
 7468SOL     OW34036   3.821   2.368   0.198  0.9606 -0.3349  0.4175
 7468SOL    HW134037   3.864   2.388   0.115  1.3779 -1.6000  0.3188
 7468SOL    HW234038   3.787   2.453   0.225  0.2555 -0.3928 -0.2655
 7469SOL     OW34039   2.802   2.172   7.228  0.1693  0.3014 -0.4775
 7469SOL    HW134040   2.806   2.223   7.147  0.0530 -0.4030 -0.9273
 7469SOL    HW234041   2.795   2.081   7.199  0.0577  0.3796 -0.6908
 7470SOL     OW34042   4.059   0.510  15.607  0.2785 -0.5053 -0.7367
 7470SOL    HW134043   3.992   0.574  15.633  0.4046 -1.1861  1.2639
 7470SOL    HW234044   4.029   0.476  15.523 -1.1701 -0.6237 -0.1762
 7471SOL     OW34045   3.736   4.634   1.517 -0.1230  0.3034 -0.3522
 7471SOL    HW134046   3.717   4.728   1.524  2.2427  0.9091 -1.8337
 7471SOL    HW234047   3.807   4.636   1.452 -0.3470 -0.4553 -0.6196
 7472SOL     OW34048   4.502   4.186   9.069  0.4673 -0.0730  0.1242
 7472SOL    HW134049   4.458   4.237   9.137  1.2512  1.4255 -0.4787
 7472SOL    HW234050   4.480   4.230   8.987  0.2284 -1.1327 -0.3753
 7473SOL     OW34051   1.274   3.637   8.136 -0.0883 -0.1445  0.4940
 7473SOL    HW134052   1.268   3.694   8.213 -4.5956  0.0131  0.0028
 7473SOL    HW234053   1.205   3.670   8.079 -1.4193 -2.7699  0.5769
 7474SOL     OW34054   3.726   3.125   6.012 -0.0867  0.5420  0.7006
 7474SOL    HW134055   3.718   3.150   5.920 -1.7474  0.1810  0.7360
 7474SOL    HW234056   3.698   3.203   6.061  0.9244  0.8810  0.7465
 7475SOL     OW34057   3.721   3.247  16.270 -0.5008 -0.3139 -0.1015
 7475SOL    HW134058   3.665   3.188  16.321  0.3801  0.3337  1.6031
 7475SOL    HW234059   3.764   3.296  16.340 -1.4187 -1.4605  1.2685
 7476SOL     OW34060   4.143   1.261   2.708  0.3378  0.3945  0.0585
 7476SOL    HW134061   4.079   1.191   2.689  1.1635 -0.3379 -0.0334
 7476SOL    HW234062   4.103   1.337   2.666  0.5692 -1.7086 -4.0032
 7477SOL     OW34063   2.319   3.897   3.420 -0.1427  0.1412 -0.4865
 7477SOL    HW134064   2.312   3.956   3.345 -3.7080 -0.4274 -0.6223
 7477SOL    HW234065   2.318   3.810   3.381 -0.2691 -0.2481  0.3773
 7478SOL     OW34066   1.334   2.171   4.269  0.2880  0.3337 -0.2582
 7478SOL    HW134067   1.367   2.205   4.351  0.2476 -0.1606 -0.0369
 7478SOL    HW234068   1.303   2.253   4.231  1.3066  1.9512  2.4190
 7479SOL     OW34069   2.565   4.369   3.429 -0.4700  0.6081  0.2519
 7479SOL    HW134070   2.536   4.460   3.418 -1.8788  0.3053  1.4448
 7479SOL    HW234071   2.594   4.384   3.520  2.5190  0.0341 -0.6071
 7480SOL     OW34072   3.428   4.401  12.939  1.2355  0.1992  0.0055
 7480SOL    HW134073   3.359   4.426  12.878 -0.5700 -1.0262  1.5422
 7480SOL    HW234074   3.397   4.320  12.979  0.9230 -1.1281 -2.9569
 7481SOL     OW34075   0.740   2.879   2.440 -0.1844  0.2000 -0.2330
 7481SOL    HW134076   0.825   2.908   2.472 -1.1375  0.7315  1.7924
 7481SOL    HW234077   0.762   2.792   2.404 -1.0758  0.8269 -2.3168
 7482SOL     OW34078   4.273   0.529  11.658 -0.4266  0.2769 -0.7365
 7482SOL    HW134079   4.344   0.466  11.646  0.2139  0.3235  2.7309
 7482SOL    HW234080   4.199   0.474  11.683  0.5770 -0.4720  0.6024
 7483SOL     OW34081   2.351   1.028   8.896 -0.3970  0.4789  0.3495
 7483SOL    HW134082   2.367   1.066   8.982 -0.4347  0.3801  0.4008
 7483SOL    HW234083   2.296   0.953   8.919  2.4377 -1.7250  0.0111
 7484SOL     OW34084   3.224   3.050   8.394  0.2962  0.3919 -0.0638
 7484SOL    HW134085   3.149   3.086   8.440 -1.1472 -1.3271 -1.0685
 7484SOL    HW234086   3.289   3.114   8.422 -1.0605  0.6923  2.3785
 7485SOL     OW34087   4.526   1.071   3.527 -0.4994 -0.1647 -0.5932
 7485SOL    HW134088   4.440   1.030   3.539 -0.1578 -0.7574 -0.1711
 7485SOL    HW234089   4.575   0.999   3.486 -2.0295 -1.6165  0.1372
 7486SOL     OW34090   0.802   1.228  10.274 -0.1299 -0.3760  0.2857
 7486SOL    HW134091   0.844   1.270  10.199 -0.0840  0.1797  0.6213
 7486SOL    HW234092   0.866   1.164  10.306 -0.3563 -0.3915  0.7097
 7487SOL     OW34093   0.771   4.562   6.122  0.0554 -0.0274 -0.7796
 7487SOL    HW134094   0.694   4.581   6.176 -1.0919 -2.7492 -1.4511
 7487SOL    HW234095   0.828   4.522   6.187 -1.9193 -0.3561  0.7508
 7488SOL     OW34096   3.161   4.148   2.793  0.4725  0.2903  0.0285
 7488SOL    HW134097   3.232   4.122   2.852  1.1383  2.1290  0.0289
 7488SOL    HW234098   3.208   4.153   2.710 -1.1834  2.1105 -0.7872
 7489SOL     OW34099   3.341   3.298   8.597 -0.1102  0.0170  0.1567
 7489SOL    HW134100   3.375   3.388   8.602 -0.3221  0.2508 -2.6092
 7489SOL    HW234101   3.260   3.312   8.548 -0.9124 -1.9417  0.9525
 7490SOL     OW34102   2.775   2.016  13.033 -0.8008  0.1431  0.4969
 7490SOL    HW134103   2.700   2.020  13.092 -2.1554  3.1561 -1.4380
 7490SOL    HW234104   2.840   2.060  13.089  0.2978 -0.0625 -0.6277
 7491SOL     OW34105   3.627   2.835   6.535  0.5699 -0.1493 -0.8250
 7491SOL    HW134106   3.704   2.833   6.592 -0.8904  3.1568  1.2834
 7491SOL    HW234107   3.554   2.855   6.594  0.7670 -1.0888 -0.2604
 7492SOL     OW34108   3.010   3.029   8.165 -0.5051 -0.3409  0.0598
 7492SOL    HW134109   2.949   3.017   8.238  1.1065 -3.3987  0.9246
 7492SOL    HW234110   3.023   2.937   8.140 -1.8593 -0.6354  0.4476
 7493SOL     OW34111   0.173   4.585   1.702  0.0195  0.4009  0.2398
 7493SOL    HW134112   0.250   4.640   1.692 -0.3239  0.9626  0.6695
 7493SOL    HW234113   0.105   4.652   1.698 -0.2304  0.1183 -0.2625
 7494SOL     OW34114   1.034   0.142   4.921 -0.1346 -0.4313  0.1675
 7494SOL    HW134115   1.039   0.237   4.912  0.6161 -0.3896  1.0669
 7494SOL    HW234116   0.946   0.134   4.956 -0.2516  0.3743  0.0656
 7495SOL     OW34117   3.089   3.866   0.962  0.4220  0.7232  0.5927
 7495SOL    HW134118   3.129   3.898   0.881 -0.8316  1.9989  0.4736
 7495SOL    HW234119   3.045   3.949   0.985  1.1433  1.7386 -1.6569
 7496SOL     OW34120   1.412   1.567  11.895 -0.4209  0.2142  0.0023
 7496SOL    HW134121   1.326   1.606  11.908 -1.1708 -1.1579 -0.7675
 7496SOL    HW234122   1.454   1.645  11.859 -1.3429  0.1908 -1.1237
 7497SOL     OW34123   2.605   2.665   4.620  0.0702 -0.6721 -0.3138
 7497SOL    HW134124   2.678   2.676   4.681  2.0457 -1.3927 -2.4991
 7497SOL    HW234125   2.577   2.756   4.616 -0.6704 -0.9444 -1.3209
 7498SOL     OW34126   3.751   2.664   2.464 -0.0319  0.3731 -0.9455
 7498SOL    HW134127   3.827   2.632   2.415  0.3429 -0.7189  0.3356
 7498SOL    HW234128   3.763   2.605   2.539 -3.7137 -0.0328 -0.6717
 7499SOL     OW34129   1.365   1.927   4.152 -0.3405  0.2125  0.4044
 7499SOL    HW134130   1.361   2.021   4.171 -0.6235  0.5099 -1.1179
 7499SOL    HW234131   1.291   1.889   4.200  0.1698 -1.0331  0.2091
 7500SOL     OW34132   0.725   2.088  16.323 -0.2606  0.4660 -0.2560
 7500SOL    HW134133   0.658   2.098  16.391  0.7090  2.5367  0.3707
 7500SOL    HW234134   0.754   2.000  16.349 -3.4529 -0.2323  1.0040
 7501SOL     OW34135   2.978   3.783  13.024  0.3354  0.3319  0.0977
 7501SOL    HW134136   2.889   3.793  13.057  0.9171  0.0038  1.7616
 7501SOL    HW234137   2.953   3.734  12.946  0.7880 -0.1057  0.2302
 7502SOL     OW34138   0.037   1.920   2.069  0.1231 -0.1322  0.3459
 7502SOL    HW134139   0.102   1.862   2.031 -0.8922  0.1994 -1.9455
 7502SOL    HW234140   0.003   1.966   1.992 -1.4716 -0.1447  1.0322
 7503SOL     OW34141   0.566   0.804   5.539 -0.1147 -0.3949 -0.3198
 7503SOL    HW134142   0.495   0.820   5.477 -0.3636  0.3465  0.1587
 7503SOL    HW234143   0.620   0.744   5.488  0.2978 -0.3725  0.0833
 7504SOL     OW34144   1.481   3.174   5.748 -0.2431  0.6928 -0.5536
 7504SOL    HW134145   1.482   3.263   5.713  2.3896  0.7212 -0.3882
 7504SOL    HW234146   1.565   3.169   5.793 -0.1663  0.1814 -0.7606
 7505SOL     OW34147   3.551   2.335   6.455  0.1005 -0.7466 -0.4109
 7505SOL    HW134148   3.568   2.419   6.412  1.9194 -1.0375 -0.2719
 7505SOL    HW234149   3.530   2.285   6.377 -2.8022  0.1733 -0.2499
 7506SOL     OW34150   2.713   3.026  14.048 -1.0466  0.2305 -0.3164
 7506SOL    HW134151   2.731   2.938  14.016  3.9596  1.1858 -0.1890
 7506SOL    HW234152   2.788   3.079  14.021  0.6098 -0.4796  2.8225
 7507SOL     OW34153   1.405   4.527   1.921 -0.5081 -0.1149 -0.3723
 7507SOL    HW134154   1.341   4.476   1.871  1.3234  0.4685 -3.2729
 7507SOL    HW234155   1.396   4.607   1.870  0.5464  0.0846 -0.2414
 7508SOL     OW34156   1.562   3.276   9.710  0.6209  0.0092  0.0540
 7508SOL    HW134157   1.547   3.272   9.616  0.7476  3.5580 -0.1049
 7508SOL    HW234158   1.608   3.192   9.714  0.8625  0.1779  0.8887
 7509SOL     OW34159   2.694   0.351   8.546  0.0428  0.3812 -0.5661
 7509SOL    HW134160   2.703   0.443   8.573  0.6050  0.2050 -0.1566
 7509SOL    HW234161   2.599   0.342   8.553  0.5512 -3.3085  1.2150
 7510SOL     OW34162   4.166   4.416   9.005 -0.2979 -0.8353 -0.3632
 7510SOL    HW134163   4.184   4.341   8.949  2.1603 -0.1946 -0.4677
 7510SOL    HW234164   4.150   4.474   8.931 -1.7715 -0.7749  0.0146
 7511SOL     OW34165   0.906   0.628  17.046 -0.3469 -0.2780  0.1282
 7511SOL    HW134166   1.001   0.643  17.044 -0.4845  0.3587 -1.4792
 7511SOL    HW234167   0.904   0.537  17.017 -1.1324 -0.1313 -0.2616
 7512SOL     OW34168   1.880   3.769  14.377  0.0472 -0.1384 -0.5914
 7512SOL    HW134169   1.864   3.794  14.286  2.8956 -2.7493 -1.7841
 7512SOL    HW234170   1.795   3.793  14.415  0.3039 -0.6207  0.2868
 7513SOL     OW34171   3.534   0.057   1.941 -0.1373  0.0377  0.8524
 7513SOL    HW134172   3.555   4.701   1.956 -1.2292  0.2579  3.7152
 7513SOL    HW234173   3.441   0.053   1.920  0.1679  0.6142 -0.6118
 7514SOL     OW34174   3.715   3.457   6.486 -0.5029  0.3108 -0.0444
 7514SOL    HW134175   3.780   3.522   6.514  1.0911 -0.2406 -2.4856
 7514SOL    HW234176   3.726   3.390   6.553 -1.0039  0.0845 -0.1907
 7515SOL     OW34177   2.187   0.180  13.742 -0.0748 -0.5322  0.0379
 7515SOL    HW134178   2.281   0.197  13.751 -0.1221 -0.6495  0.7274
 7515SOL    HW234179   2.157   0.192  13.831  1.3792 -1.0587  0.6055
 7516SOL     OW34180   1.931   1.735  14.192 -0.5001  0.2547  0.2281
 7516SOL    HW134181   1.951   1.757  14.283 -0.5384 -0.3525  0.3790
 7516SOL    HW234182   1.843   1.698  14.195 -0.3018 -0.3814 -1.6806
 7517SOL     OW34183   3.764   2.316   3.542  0.2650 -0.4208  0.2653
 7517SOL    HW134184   3.676   2.332   3.577 -0.5402 -2.7684 -0.6507
 7517SOL    HW234185   3.800   2.252   3.604  1.9365  0.5645  0.3104
 7518SOL     OW34186   0.408   4.672  16.006 -0.0776  0.0172  0.4779
 7518SOL    HW134187   0.346   4.628  16.065 -1.8789 -0.1055 -1.5186
 7518SOL    HW234188   0.392   4.636  15.919 -1.1250  0.5518  0.4511
 7519SOL     OW34189   3.866   2.350   1.347  0.4774 -0.4657 -0.1832
 7519SOL    HW134190   3.904   2.382   1.429 -2.9963  0.2056  1.1719
 7519SOL    HW234191   3.833   2.433   1.312  1.7875 -0.5832 -1.7293
 7520SOL     OW34192   3.307   1.893   5.193  0.4160 -0.0308 -0.5373
 7520SOL    HW134193   3.329   1.895   5.286 -2.9168  2.5856  0.2085
 7520SOL    HW234194   3.241   1.963   5.189  0.5031  0.0371 -0.8179
 7521SOL     OW34195   4.115   1.219   8.768 -1.0573  0.0271  0.2019
 7521SOL    HW134196   4.120   1.134   8.811  1.4016 -0.1846 -0.5067
 7521SOL    HW234197   4.073   1.200   8.684 -0.5662  1.4201 -0.3680
 7522SOL     OW34198   2.924   1.144   4.880  0.1217 -0.0110  0.1407
 7522SOL    HW134199   2.979   1.211   4.920  2.0114 -2.0430  0.9393
 7522SOL    HW234200   2.969   1.125   4.798 -1.4346 -0.0937 -0.6987
 7523SOL     OW34201   3.059   4.265   5.168 -0.5900 -0.2137  0.0657
 7523SOL    HW134202   2.994   4.197   5.183  0.0084 -0.6358  0.7408
 7523SOL    HW234203   3.124   4.224   5.225 -1.8457 -3.3110 -0.7509
 7524SOL     OW34204   1.675   0.628   7.727 -0.2379 -0.0045 -1.1269
 7524SOL    HW134205   1.677   0.644   7.633 -0.5443  1.4754 -0.8762
 7524SOL    HW234206   1.631   0.543   7.722  2.4447 -1.4795 -0.2032
 7525SOL     OW34207   0.356   2.566   3.595  0.0605 -0.7631  0.1836
 7525SOL    HW134208   0.416   2.526   3.532  0.5977 -1.1937  0.9871
 7525SOL    HW234209   0.278   2.581   3.541 -0.5026  0.3903  1.3270
 7526SOL     OW34210   1.134   4.629  11.487 -0.3880  0.5011  0.1854
 7526SOL    HW134211   1.119   4.536  11.502  0.1367 -0.0989 -2.9008
 7526SOL    HW234212   1.194   4.657  11.556  0.7343 -0.5422 -0.3824
 7527SOL     OW34213   1.647   3.035   8.596  0.3862 -0.0841 -0.1087
 7527SOL    HW134214   1.725   3.042   8.650  0.6912 -0.2333 -0.5340
 7527SOL    HW234215   1.633   3.128   8.576  1.1648 -0.0238 -0.3588
 7528SOL     OW34216   4.699   0.940   9.628 -0.0178 -0.0698  0.6149
 7528SOL    HW134217   4.691   0.845   9.627 -0.2187 -0.0673  2.4763
 7528SOL    HW234218   4.646   0.969   9.702  1.2631  2.6303  0.4777
 7529SOL     OW34219   0.855   1.855  10.031  0.2916  0.0409  0.7406
 7529SOL    HW134220   0.825   1.826  10.117  1.0081  0.8076  1.2514
 7529SOL    HW234221   0.950   1.865  10.038  0.4483 -0.3027 -1.0526
 7530SOL     OW34222   3.574   0.379   4.239  0.5632 -0.5237 -0.0665
 7530SOL    HW134223   3.510   0.313   4.266 -2.9898  2.9434 -0.0473
 7530SOL    HW234224   3.630   0.384   4.317  1.6413  2.2455 -1.0106
 7531SOL     OW34225   4.591   0.140  11.902  0.6259  0.0810 -0.5034
 7531SOL    HW134226   4.498   0.137  11.923  1.0447  3.8157  2.0200
 7531SOL    HW234227   4.617   0.160  11.992 -1.2879  0.6092 -0.0598
 7532SOL     OW34228   2.496   2.360   9.147  0.2379  0.5381 -0.1206
 7532SOL    HW134229   2.539   2.274   9.140 -0.4702  0.2492 -0.8145
 7532SOL    HW234230   2.482   2.379   9.240 -1.0783 -0.9226 -0.0254
 7533SOL     OW34231   4.580   0.203  14.089  0.5852 -0.5012 -0.3780
 7533SOL    HW134232   4.512   0.238  14.147 -0.6451  0.1783 -2.2570
 7533SOL    HW234233   4.528   0.153  14.026 -0.5469 -2.0760  1.7635
 7534SOL     OW34234   3.513   1.199   2.877  0.4028  0.1942 -0.2232
 7534SOL    HW134235   3.429   1.154   2.888  0.2445  0.2410 -1.2548
 7534SOL    HW234236   3.520   1.236   2.965 -3.4812 -3.6694  1.6928
 7535SOL     OW34237   4.655   1.625  11.442 -0.3250 -0.9577 -0.4384
 7535SOL    HW134238   4.570   1.669  11.440  0.7147  1.2510  3.2477
 7535SOL    HW234239   4.674   1.621  11.349  2.2678 -1.5616  0.1223
 7536SOL     OW34240   4.262   2.888   5.340  0.5701 -1.0387 -0.4417
 7536SOL    HW134241   4.291   2.913   5.428 -0.0066 -0.4640 -0.4122
 7536SOL    HW234242   4.190   2.827   5.355 -0.2834  0.1492  0.3308
 7537SOL     OW34243   3.850   3.657   7.807  0.4303 -0.2154  0.3869
 7537SOL    HW134244   3.880   3.680   7.719  0.8605  1.2043  0.8983
 7537SOL    HW234245   3.928   3.668   7.861 -0.1021  2.2682  0.6944
 7538SOL     OW34246   3.524   3.102   9.375 -0.0692 -0.1409  0.2963
 7538SOL    HW134247   3.446   3.158   9.373 -1.5864 -2.2298  0.0436
 7538SOL    HW234248   3.585   3.175   9.385 -0.3742  0.3914 -1.7768
 7539SOL     OW34249   2.882   2.383  11.637  0.2926 -0.0756 -0.7522
 7539SOL    HW134250   2.807   2.443  11.641 -0.0855 -0.6459  0.6246
 7539SOL    HW234251   2.952   2.443  11.661 -0.3638  0.0641  0.8421
 7540SOL     OW34252   1.523   0.400   6.476  0.3238 -0.0082 -0.1548
 7540SOL    HW134253   1.565   0.333   6.423  2.7236 -0.1849  1.9687
 7540SOL    HW234254   1.602   0.452   6.491 -0.2882  1.8021 -3.2743
 7541SOL     OW34255   2.143   1.603   0.176  0.3246 -0.0917 -0.5861
 7541SOL    HW134256   2.223   1.602   0.123  0.1923 -0.7353 -0.7714
 7541SOL    HW234257   2.073   1.565   0.122 -1.5427  2.8138 -0.2113
 7542SOL     OW34258   1.902   1.176   5.824  0.2169 -0.2188  0.5736
 7542SOL    HW134259   1.988   1.217   5.817  0.3097 -0.5081  0.0139
 7542SOL    HW234260   1.892   1.159   5.917 -1.3655 -0.4075  0.3748
 7543SOL     OW34261   2.175   3.484  16.587 -0.4968  0.3002  0.0903
 7543SOL    HW134262   2.226   3.565  16.581  0.0158 -0.1457 -1.5356
 7543SOL    HW234263   2.111   3.519  16.648 -0.2714  0.6314  0.1352
 7544SOL     OW34264   4.525   1.362   1.910 -0.0750 -0.0120  0.3864
 7544SOL    HW134265   4.517   1.369   2.005  1.8308  2.4742  0.3666
 7544SOL    HW234266   4.525   1.453   1.880  0.7477  0.8382  3.0237
 7545SOL     OW34267   3.546   1.313   5.047 -0.3181 -0.0137 -0.0922
 7545SOL    HW134268   3.472   1.368   5.074  0.3797  1.6952 -1.6767
 7545SOL    HW234269   3.619   1.349   5.096 -0.3397  0.4368 -0.3912
 7546SOL     OW34270   3.921   1.116  16.735 -0.8714  0.6472  0.3395
 7546SOL    HW134271   3.974   1.103  16.813 -1.4665  1.2176  0.8388
 7546SOL    HW234272   3.988   1.138  16.671 -1.5151  0.2289 -0.4769
 7547SOL     OW34273   1.881   1.757   5.393 -0.2464  0.0171  0.0544
 7547SOL    HW134274   1.865   1.678   5.343 -0.0995  0.2173 -0.3093
 7547SOL    HW234275   1.813   1.759   5.460 -0.9258 -2.4521 -0.5693
 7548SOL     OW34276   2.008   4.605   3.944  0.7258 -0.2921 -0.0662
 7548SOL    HW134277   1.921   4.570   3.964  0.6598  0.5834  1.1425
 7548SOL    HW234278   2.000   4.695   3.976 -1.6199 -1.2203  1.9521
 7549SOL     OW34279   1.044   4.688   8.430 -0.1383 -0.9085  0.2163
 7549SOL    HW134280   1.009   0.011   8.364 -1.4101 -2.6724 -0.6749
 7549SOL    HW234281   1.045   4.606   8.382  0.2103 -0.4411 -0.5868
 7550SOL     OW34282   0.848   1.897   1.486  0.1707 -0.7467  0.6002
 7550SOL    HW134283   0.790   1.968   1.459  3.8803  2.3381  0.6918
 7550SOL    HW234284   0.904   1.952   1.540 -2.3218  3.0051 -0.6436
 7551SOL     OW34285   1.857   4.404   1.819  0.5610 -0.3718 -0.1886
 7551SOL    HW134286   1.857   4.316   1.855  1.3037  0.3522  1.5963
 7551SOL    HW234287   1.794   4.451   1.874  1.0617 -0.5675  0.5516
 7552SOL     OW34288   3.568   2.015  14.801  0.4670  0.7717 -0.2200
 7552SOL    HW134289   3.636   2.065  14.846  3.0912 -2.2173 -0.8600
 7552SOL    HW234290   3.568   2.058  14.716  2.5051  0.9249 -0.1404
 7553SOL     OW34291   0.860   3.814   1.774  0.7887 -0.2432 -0.0229
 7553SOL    HW134292   0.842   3.824   1.681 -0.0997 -1.2083  0.0505
 7553SOL    HW234293   0.787   3.869   1.801  1.7769  1.8885 -1.6883
 7554SOL     OW34294   0.302   3.694  17.582  0.5296 -0.2323  0.3442
 7554SOL    HW134295   0.323   3.691  17.675 -0.7073  0.6394  0.6628
 7554SOL    HW234296   0.391   3.688  17.547  0.1483  0.3609 -0.7322
 7555SOL     OW34297   1.793   3.532   2.986 -0.1866 -0.2468 -0.0088
 7555SOL    HW134298   1.809   3.488   2.902 -2.4867 -2.5093  0.7512
 7555SOL    HW234299   1.878   3.563   3.017 -0.8503  0.7938  0.7685
 7556SOL     OW34300   2.148   0.389  13.506 -0.1482 -0.2838  0.2840
 7556SOL    HW134301   2.154   0.314  13.565  1.7689  0.8512  1.5179
 7556SOL    HW234302   2.083   0.449  13.544  0.7404  1.5968 -1.1734
 7557SOL     OW34303   0.546   3.642   2.456 -0.1095  0.1019  0.0028
 7557SOL    HW134304   0.565   3.555   2.422 -0.9037 -0.1272  0.1465
 7557SOL    HW234305   0.470   3.669   2.404  1.0994 -0.5403 -2.0642
 7558SOL     OW34306   1.019   0.115   2.261 -0.4635  0.1770 -0.2088
 7558SOL    HW134307   0.957   0.093   2.191  1.1561  1.4180 -2.0224
 7558SOL    HW234308   1.093   0.079   2.212 -1.1019 -1.1189 -0.2293
 7559SOL     OW34309   3.158   3.167   1.633  0.5241 -0.0624 -0.4286
 7559SOL    HW134310   3.198   3.194   1.715 -1.5179 -2.5711  1.3886
 7559SOL    HW234311   3.136   3.256   1.602  3.4117  0.5949 -0.5722
 7560SOL     OW34312   4.540   2.451   5.407 -0.3196 -0.3887  0.0167
 7560SOL    HW134313   4.533   2.528   5.463 -1.1811 -1.5063  1.4140
 7560SOL    HW234314   4.615   2.405   5.445  0.6097  1.1797  0.1005
 7561SOL     OW34315   3.717   1.807  13.900 -0.6049  0.4868  0.0211
 7561SOL    HW134316   3.628   1.783  13.924 -0.2288 -0.6191  0.2983
 7561SOL    HW234317   3.710   1.822  13.806  1.3115 -1.7828 -0.4751
 7562SOL     OW34318   1.569   4.028   4.678  0.4093  0.1390 -0.5089
 7562SOL    HW134319   1.615   3.959   4.631  3.7142  2.8444 -1.2778
 7562SOL    HW234320   1.570   4.098   4.613  1.4651 -0.5855 -1.2737
 7563SOL     OW34321   3.078   2.465   6.693 -0.0620 -0.2599 -0.0010
 7563SOL    HW134322   3.085   2.504   6.606  2.7798  0.2377  0.4463
 7563SOL    HW234323   3.172   2.463   6.714  0.3425 -0.2089 -1.7656
 7564SOL     OW34324   0.130   4.273   1.116 -0.1195 -0.4102 -0.1733
 7564SOL    HW134325   0.091   4.301   1.199 -0.6928  0.2323 -0.6612
 7564SOL    HW234326   0.083   4.324   1.051  0.2834  0.8634  0.5147
 7565SOL     OW34327   1.618   0.672  17.703 -0.0034  0.5254  0.1610
 7565SOL    HW134328   1.586   0.582  17.712  0.2957  0.3980 -0.0343
 7565SOL    HW234329   1.600   0.697   0.051  1.0800  0.4318  0.4029
 7566SOL     OW34330   3.801   3.714   1.739  0.3002  0.1046  0.5887
 7566SOL    HW134331   3.737   3.720   1.810 -1.0563 -0.5026 -0.6075
 7566SOL    HW234332   3.838   3.630   1.766  1.1687  0.0618 -0.7080
 7567SOL     OW34333   0.950   2.534   6.706 -0.1173  0.3428 -0.3969
 7567SOL    HW134334   1.002   2.496   6.778  0.3340  0.8856 -0.4415
 7567SOL    HW234335   0.923   2.452   6.665  0.7387  0.2412 -0.7598
 7568SOL     OW34336   4.472   2.347   8.197 -0.3231 -0.5509  0.2241
 7568SOL    HW134337   4.520   2.281   8.148  0.2885  1.0804 -1.3589
 7568SOL    HW234338   4.414   2.291   8.249 -2.3333  0.3461 -1.0567
 7569SOL     OW34339   2.460   0.251   2.664 -0.5728 -0.4546  0.6559
 7569SOL    HW134340   2.454   0.269   2.570  0.1135 -0.7494  0.5531
 7569SOL    HW234341   2.381   0.202   2.686 -2.1760  1.3506 -0.9915
 7570SOL     OW34342   4.575   2.513   6.175 -0.0040  0.2149 -0.3774
 7570SOL    HW134343   4.558   2.560   6.256 -0.7136 -1.4948  0.4642
 7570SOL    HW234344   4.670   2.525   6.172  0.2120 -1.9578 -2.6187
 7571SOL     OW34345   2.057   2.514   8.467 -0.1365  0.0866  0.2643
 7571SOL    HW134346   2.113   2.438   8.450  1.4609  1.2046  0.5450
 7571SOL    HW234347   2.016   2.532   8.383  1.0540  1.5029 -0.0163
 7572SOL     OW34348   2.963   1.534   1.062 -0.0826  0.3611  0.2788
 7572SOL    HW134349   2.987   1.565   1.150  0.6127  0.9183 -0.1084
 7572SOL    HW234350   3.041   1.562   1.014  0.0852 -0.0724  0.2976
 7573SOL     OW34351   4.359   0.331   4.206 -0.4449  0.3330 -0.2532
 7573SOL    HW134352   4.402   0.357   4.288 -1.0632 -0.1161  0.2048
 7573SOL    HW234353   4.266   0.329   4.225 -0.9697  1.1969 -2.7621
 7574SOL     OW34354   1.046   2.527   0.561  0.0108  0.1867  0.3511
 7574SOL    HW134355   1.139   2.546   0.549 -0.3704  1.2844 -0.8021
 7574SOL    HW234356   1.015   2.509   0.472 -3.3300  1.7186  1.2020
 7575SOL     OW34357   2.389   2.361  11.705 -0.5542  0.2927 -0.0423
 7575SOL    HW134358   2.414   2.334  11.616  1.1805 -0.9102  0.8090
 7575SOL    HW234359   2.398   2.277  11.751  2.3839  0.5820 -0.1259
 7576SOL     OW34360   0.520   2.686   4.664  0.3678 -0.4825  0.1752
 7576SOL    HW134361   0.584   2.757   4.653 -1.4392  0.5128 -3.6045
 7576SOL    HW234362   0.448   2.748   4.657  0.0756 -1.0953 -2.2754
 7577SOL     OW34363   3.925   4.033  15.289  0.1675 -0.2063 -0.3442
 7577SOL    HW134364   3.915   4.011  15.196 -2.2272 -0.5201 -0.0268
 7577SOL    HW234365   3.867   4.109  15.294 -0.5110 -0.5770 -2.7898
 7578SOL     OW34366   4.097   2.032   7.435  0.3450 -0.3998 -0.1378
 7578SOL    HW134367   4.029   2.098   7.424  1.0281  0.2493 -0.5369
 7578SOL    HW234368   4.147   2.077   7.503  0.3155 -1.2454  0.4370
 7579SOL     OW34369   3.621   1.557   1.884  0.4661  0.3970  0.1137
 7579SOL    HW134370   3.650   1.648   1.897 -0.1700  1.0078 -2.6397
 7579SOL    HW234371   3.578   1.557   1.799  0.6216 -1.0591  0.0351
 7580SOL     OW34372   0.608   1.963   2.326  0.5974  0.2560  0.1055
 7580SOL    HW134373   0.524   2.008   2.320 -0.6969 -2.3288 -1.0002
 7580SOL    HW234374   0.589   1.873   2.302 -0.6028  1.2514 -2.6191
 7581SOL     OW34375   2.682   1.781   7.653  0.2149  0.3736  0.1325
 7581SOL    HW134376   2.615   1.825   7.602 -0.6030  1.7862  2.4331
 7581SOL    HW234377   2.754   1.768   7.591 -0.6790 -1.7162 -0.4725
 7582SOL     OW34378   0.023   1.217   9.692  0.7191  0.2323  0.4494
 7582SOL    HW134379   0.055   1.129   9.670 -0.4061  0.0848 -0.6322
 7582SOL    HW234380   4.682   1.190   9.742  0.2704 -2.0279 -1.4636
 7583SOL     OW34381   1.702   0.555   3.151  0.7105 -0.4796 -0.0969
 7583SOL    HW134382   1.671   0.645   3.154 -3.0302 -1.7497  0.2573
 7583SOL    HW234383   1.677   0.525   3.064  1.5232  0.5928 -0.6958
 7584SOL     OW34384   1.397   3.758   5.113 -0.1451  0.2458  0.2784
 7584SOL    HW134385   1.432   3.817   5.047 -0.0100 -1.2161 -0.9569
 7584SOL    HW234386   1.469   3.734   5.172  1.0782 -1.5424 -1.9467
 7585SOL     OW34387   1.209   1.903   8.014 -0.6622 -0.5073 -0.2530
 7585SOL    HW134388   1.115   1.883   8.012 -0.5373 -1.1027 -0.1687
 7585SOL    HW234389   1.205   1.997   8.029  0.7885 -0.4841  0.0209
 7586SOL     OW34390   0.226   3.742   3.256  0.5461 -0.0135 -0.6782
 7586SOL    HW134391   0.286   3.708   3.190  0.7245 -0.7131 -0.1641
 7586SOL    HW234392   0.289   3.791   3.308 -0.6143 -0.3605  1.0551
 7587SOL     OW34393   3.530   3.766   3.148 -0.0652 -0.1484  0.1867
 7587SOL    HW134394   3.595   3.695   3.153  2.5401  2.2197 -0.0504
 7587SOL    HW234395   3.580   3.830   3.096 -0.9113 -1.9638 -2.8602
 7588SOL     OW34396   4.429   3.692  11.180 -0.3726  0.4050  0.5705
 7588SOL    HW134397   4.463   3.606  11.204 -0.3335 -0.1774 -1.6503
 7588SOL    HW234398   4.459   3.710  11.091  0.8442  1.4140  1.1826
 7589SOL     OW34399   0.430   1.131  10.250  0.1386 -0.5206  0.9402
 7589SOL    HW134400   0.406   1.131  10.343  2.9677 -1.9847  1.7026
 7589SOL    HW234401   0.378   1.055  10.225  2.5168 -1.8696  0.0933
 7590SOL     OW34402   3.902   0.252   6.622  0.1478  0.0171  0.2085
 7590SOL    HW134403   3.861   0.183   6.673 -0.6017  0.1979 -0.1424
 7590SOL    HW234404   3.828   0.282   6.570  0.6415 -0.5597 -0.8325
 7591SOL     OW34405   3.222   3.275  12.951  0.5958 -0.0686 -0.4036
 7591SOL    HW134406   3.251   3.190  12.920  0.0297 -1.3294  2.5500
 7591SOL    HW234407   3.191   3.325  12.876  0.0963 -0.1932 -0.2837
 7592SOL     OW34408   1.468   0.317   3.696 -0.2714 -0.6233  0.2030
 7592SOL    HW134409   1.421   0.273   3.767  1.5836 -2.5637  0.2010
 7592SOL    HW234410   1.557   0.325   3.729 -0.5205 -2.7017  1.3394
 7593SOL     OW34411   2.267   0.664   5.289  0.6411 -0.2137  0.0244
 7593SOL    HW134412   2.195   0.663   5.352 -0.5778 -2.9923 -1.4132
 7593SOL    HW234413   2.284   0.758   5.275 -0.2431 -0.3682 -2.1079
 7594SOL     OW34414   0.499   0.452   5.936 -0.6986 -0.2290  0.0139
 7594SOL    HW134415   0.414   0.462   5.892 -0.5998 -0.4423 -0.2226
 7594SOL    HW234416   0.502   0.357   5.942 -1.5550 -0.3289 -1.2899
 7595SOL     OW34417   4.048   2.216  12.015 -0.3939  0.2476  0.4934
 7595SOL    HW134418   4.079   2.125  12.019  0.8384  0.6449 -0.2238
 7595SOL    HW234419   4.129   2.259  11.988 -0.7826  1.0792  0.6575
 7596SOL     OW34420   3.177   2.868   0.419 -0.2208 -0.0773 -0.3852
 7596SOL    HW134421   3.111   2.889   0.352  0.5070  0.6101 -0.8888
 7596SOL    HW234422   3.159   2.782   0.455 -2.7445 -0.0962 -1.6758
 7597SOL     OW34423   4.281   4.687   9.645 -0.1513  0.1629  0.0851
 7597SOL    HW134424   4.354   4.643   9.603 -0.5819  0.9231 -1.4433
 7597SOL    HW234425   4.284   4.625   9.718 -1.6341  0.7790  0.6803
 7598SOL     OW34426   2.885   1.608   8.667  0.7395  0.3442  0.1003
 7598SOL    HW134427   2.934   1.646   8.594  1.6390  2.0588  1.5640
 7598SOL    HW234428   2.803   1.584   8.625  2.0124 -0.9159 -1.6888
 7599SOL     OW34429   2.974   1.237   3.862 -0.6199 -0.2136  0.2827
 7599SOL    HW134430   2.939   1.253   3.774  0.1982 -2.2439 -0.3968
 7599SOL    HW234431   3.061   1.201   3.850 -0.5028  0.1771 -0.0399
 7600SOL     OW34432   2.252   3.828   4.696  0.4570  0.4569 -0.6111
 7600SOL    HW134433   2.226   3.893   4.761 -0.5408 -1.0999  0.5571
 7600SOL    HW234434   2.238   3.746   4.744  1.3427  0.6940  0.0463
 7601SOL     OW34435   4.366   2.057  11.880  0.2115  0.3588  0.2595
 7601SOL    HW134436   4.439   2.065  11.942  0.6929 -2.9125  0.1075
 7601SOL    HW234437   4.283   2.069  11.925  0.0168  0.0260 -0.0084
 7602SOL     OW34438   3.718   3.213   7.075 -0.1934 -0.2656  0.0174
 7602SOL    HW134439   3.670   3.272   7.132 -1.0691 -2.0307  1.1169
 7602SOL    HW234440   3.642   3.196   7.020  0.1422 -0.5869 -0.3417
 7603SOL     OW34441   0.918   3.626  11.877  0.2337 -0.0026 -0.1696
 7603SOL    HW134442   0.901   3.713  11.842  1.6642  0.4654  0.2899
 7603SOL    HW234443   1.013   3.637  11.874  0.1922  0.4850  0.3462
 7604SOL     OW34444   4.046   2.635   0.190  0.1012  0.2990 -0.4525
 7604SOL    HW134445   4.047   2.728   0.215  1.0348  0.0862  0.2649
 7604SOL    HW234446   4.135   2.604   0.202 -0.4642 -1.2630 -0.3938
 7605SOL     OW34447   4.588   4.336   2.871  0.1480 -0.5975  0.0098
 7605SOL    HW134448   4.548   4.401   2.814  0.9599 -0.3766 -0.3156
 7605SOL    HW234449   4.601   4.388   2.950 -0.9592 -0.1763 -0.0979
 7606SOL     OW34450   0.691   0.975  10.302 -0.2636 -0.4635  0.2829
 7606SOL    HW134451   0.765   1.013  10.350  0.7505 -2.2125  0.0913
 7606SOL    HW234452   0.641   1.049  10.268 -0.7198 -1.1124 -0.4385
 7607SOL     OW34453   2.442   2.245   6.287  0.1759 -0.4652  0.0762
 7607SOL    HW134454   2.485   2.165   6.257  2.9444  1.8973 -2.2062
 7607SOL    HW234455   2.481   2.253   6.374 -2.9690 -0.5061  1.4693
 7608SOL     OW34456   2.324   1.678   3.951 -0.7482  0.0533  0.1639
 7608SOL    HW134457   2.318   1.603   3.891 -2.6652 -0.0438  0.4750
 7608SOL    HW234458   2.398   1.637   3.996  1.1939  1.8960 -1.3763
 7609SOL     OW34459   0.049   2.667   1.208 -0.8563  0.2089  0.2644
 7609SOL    HW134460   0.063   2.714   1.125 -0.1054 -0.5115 -0.0198
 7609SOL    HW234461   0.138   2.636   1.222 -0.7081  0.5655  0.1161
 7610SOL     OW34462   4.708   0.119  10.341 -0.0604 -0.4229  0.3447
 7610SOL    HW134463   4.709   0.024  10.351  0.1048 -0.1974  2.4348
 7610SOL    HW234464   0.016   0.141  10.423 -0.1434  0.4576  0.1540
 7611SOL     OW34465   2.229   0.916  10.096 -0.5218 -0.1317  0.1817
 7611SOL    HW134466   2.217   0.869  10.014  0.1213  0.7365 -0.4122
 7611SOL    HW234467   2.309   0.877  10.130  0.7240  1.0019 -1.4467
 7612SOL     OW34468   0.195   2.972   2.713  0.0591  0.4966  0.0832
 7612SOL    HW134469   0.173   3.065   2.708 -2.2308  0.0446  1.8654
 7612SOL    HW234470   0.202   2.962   2.618  0.9138 -0.7470  0.2834
 7613SOL     OW34471   0.753   3.193  16.866  0.0618 -0.3580 -0.2872
 7613SOL    HW134472   0.781   3.246  16.791  2.9734 -1.0263  0.3356
 7613SOL    HW234473   0.665   3.226  16.883  0.8294  1.3406  0.3652
 7614SOL     OW34474   1.460   1.907   7.022 -0.5085 -0.0343 -0.5216
 7614SOL    HW134475   1.374   1.900   7.064  1.0236 -1.1408  2.4212
 7614SOL    HW234476   1.464   1.815   6.997 -1.3607 -0.5384  1.2469
 7615SOL     OW34477   4.066   4.288  11.316  0.5674 -0.0377  0.0094
 7615SOL    HW134478   4.037   4.362  11.263  1.7450  0.2752 -0.2126
 7615SOL    HW234479   4.094   4.328  11.398 -1.7243  0.3695  0.5751
 7616SOL     OW34480   3.478   4.137   9.275 -0.2334 -0.2448 -0.5308
 7616SOL    HW134481   3.404   4.197   9.274  1.1527  1.4648 -0.9665
 7616SOL    HW234482   3.474   4.103   9.186  2.5889  0.4043 -0.9223
 7617SOL     OW34483   4.331   4.270   1.285 -0.0065 -0.0269 -0.4753
 7617SOL    HW134484   4.361   4.345   1.233  1.2486 -0.7572 -0.7950
 7617SOL    HW234485   4.314   4.317   1.367 -1.9085 -3.9947  1.3653
 7618SOL     OW34486   1.952   0.075   5.018 -0.7119  0.2888 -0.7722
 7618SOL    HW134487   1.858   0.058   5.031 -0.2125 -0.7540  1.4517
 7618SOL    HW234488   1.961   0.130   4.940  1.8208 -0.4923 -1.0200
 7619SOL     OW34489   0.308   1.498   9.944 -0.2466 -0.0098 -0.1980
 7619SOL    HW134490   0.348   1.573   9.988  0.9646 -0.9658  0.3135
 7619SOL    HW234491   0.379   1.461   9.893 -0.6210 -0.8541 -0.1106
 7620SOL     OW34492   3.399   2.274  16.897  0.5081 -0.3680  0.7363
 7620SOL    HW134493   3.341   2.288  16.822  1.1258  2.9662  0.8713
 7620SOL    HW234494   3.337   2.304  16.964  1.1495 -1.5811  1.8595
 7621SOL     OW34495   0.854   4.424   9.943 -0.4098 -0.0776  0.0551
 7621SOL    HW134496   0.949   4.421   9.928 -0.3244  1.4018  0.2781
 7621SOL    HW234497   0.828   4.441   9.852  2.8921  0.3129 -0.8054
 7622SOL     OW34498   4.319   2.068  15.460  0.2473 -0.8882  0.2329
 7622SOL    HW134499   4.321   2.101  15.370 -1.7610 -1.9195 -0.1875
 7622SOL    HW234500   4.247   2.008  15.440  0.5569 -0.8471 -1.0151
 7623SOL     OW34501   4.687   1.175   2.304  0.3279  0.0346  0.1999
 7623SOL    HW134502   4.659   1.181   2.395  0.0520 -3.2796  0.3498
 7623SOL    HW234503   0.045   1.191   2.317  0.2386  1.3047 -0.7431
 7624SOL     OW34504   2.760   2.252  13.317  0.0985  0.3795  0.7122
 7624SOL    HW134505   2.819   2.176  13.310  1.6279  1.8426 -2.3442
 7624SOL    HW234506   2.784   2.286  13.231 -0.8671  1.4397  0.8752
 7625SOL     OW34507   2.861   3.100   0.549 -0.4136  0.6214  0.6272
 7625SOL    HW134508   2.892   3.027   0.495 -1.1193  1.0035 -0.2869
 7625SOL    HW234509   2.769   3.115   0.526 -0.3795  0.8185  0.6217
 7626SOL     OW34510   0.714   3.604   3.120  0.4350  0.5743 -0.2323
 7626SOL    HW134511   0.665   3.672   3.074 -0.9981 -1.2222 -1.3667
 7626SOL    HW234512   0.793   3.652   3.146  0.6225  0.9337 -1.4939
 7627SOL     OW34513   0.205   1.302  10.127  0.4440 -0.4022 -0.5217
 7627SOL    HW134514   0.269   1.236  10.101  0.8366  0.0405 -0.6894
 7627SOL    HW234515   0.249   1.375  10.084  0.6584 -0.5018 -0.4705
 7628SOL     OW34516   0.074   4.204   3.744 -0.2289  0.0680 -0.0533
 7628SOL    HW134517   0.064   4.114   3.712  0.7345  1.0989 -3.2646
 7628SOL    HW234518   0.067   4.254   3.663 -2.5788  1.8368  1.2427
 7629SOL     OW34519   1.703   4.037   4.221 -0.3131 -0.3358  0.0814
 7629SOL    HW134520   1.667   4.121   4.193  2.1503  0.2638 -1.3091
 7629SOL    HW234521   1.632   3.977   4.200 -0.4448  0.8548 -2.8762
 7630SOL     OW34522   3.764   0.058   3.837  0.3310  0.2959 -0.2232
 7630SOL    HW134523   3.766   0.128   3.902 -0.3366 -0.6798  0.8490
 7630SOL    HW234524   3.677   0.079   3.803  0.2769  0.3455 -0.0518
 7631SOL     OW34525   4.434   2.478   2.933 -0.3863 -0.0430 -0.2394
 7631SOL    HW134526   4.446   2.513   2.845  0.0777 -0.0197 -0.1695
 7631SOL    HW234527   4.521   2.448   2.961  0.5605  1.9702 -1.0314
 7632SOL     OW34528   3.378   1.629  12.744 -0.6405  0.2576 -0.8000
 7632SOL    HW134529   3.432   1.677  12.806 -1.6416  0.8509 -0.3832
 7632SOL    HW234530   3.334   1.568  12.803 -1.8030  0.4554 -1.4494
 7633SOL     OW34531   1.438   2.257   9.572  0.0681 -1.0165 -0.4221
 7633SOL    HW134532   1.383   2.196   9.620 -0.2339  1.8526  2.8580
 7633SOL    HW234533   1.424   2.217   9.486 -1.4638 -1.4256  0.0203
 7634SOL     OW34534   3.423   4.325   6.016 -0.4853 -0.5053  0.0290
 7634SOL    HW134535   3.426   4.324   6.112 -4.3425  0.6136  0.1829
 7634SOL    HW234536   3.329   4.338   5.998 -0.1140 -0.7231 -2.0241
 7635SOL     OW34537   3.878   4.112  17.732  0.3281 -0.5753 -0.2892
 7635SOL    HW134538   3.824   4.060  17.673  1.8174 -0.6261 -1.5978
 7635SOL    HW234539   3.963   4.097  17.691  0.9244  1.0997  0.3169
 7636SOL     OW34540   0.416   3.726  14.177  0.6418 -0.4625 -0.1507
 7636SOL    HW134541   0.420   3.745  14.271  0.2369 -0.4565 -0.1319
 7636SOL    HW234542   0.363   3.798  14.144  0.3698 -1.1838 -1.3088
 7637SOL     OW34543   2.973   3.792   5.912  0.1050  0.4743  0.1028
 7637SOL    HW134544   2.919   3.871   5.922  0.2031  0.0414  3.9473
 7637SOL    HW234545   3.019   3.813   5.831  0.1434 -1.3972 -0.3528
 7638SOL     OW34546   3.566   2.183   1.910  0.3353  0.4187 -0.0810
 7638SOL    HW134547   3.557   2.153   2.001 -2.8461 -0.7252 -0.7666
 7638SOL    HW234548   3.542   2.275   1.902 -1.3797 -0.0659 -0.3672
 7639SOL     OW34549   1.384   4.025  10.469  0.1618  0.3070 -0.3746
 7639SOL    HW134550   1.302   3.981  10.492  0.7885 -0.2531  0.8026
 7639SOL    HW234551   1.380   4.107  10.517  4.8979 -1.2299  2.6564
 7640SOL     OW34552   1.373   0.115  13.388  0.3948  0.1102 -0.0585
 7640SOL    HW134553   1.319   0.143  13.462  0.6419  2.3376 -0.7223
 7640SOL    HW234554   1.307   0.103  13.320 -0.8281 -0.5502  1.2438
 7641SOL     OW34555   2.127   4.218  13.335  0.1569  0.4247  0.3752
 7641SOL    HW134556   2.148   4.140  13.387 -0.6802  0.0959  0.2185
 7641SOL    HW234557   2.071   4.189  13.263  0.8832 -1.6439  0.6598
 7642SOL     OW34558   1.700   3.700  11.713 -0.2415 -0.3586 -0.6385
 7642SOL    HW134559   1.654   3.642  11.652  1.0446 -0.3664 -1.6090
 7642SOL    HW234560   1.746   3.634  11.763 -0.2365 -0.5711 -0.9201
 7643SOL     OW34561   2.523   4.347   8.119 -0.4189 -0.3441 -0.2352
 7643SOL    HW134562   2.440   4.395   8.126  1.1086  2.2062  0.4752
 7643SOL    HW234563   2.552   4.338   8.209  0.1189 -2.7024 -0.6416
 7644SOL     OW34564   3.372   0.788   8.678  0.1908  0.3509  0.8470
 7644SOL    HW134565   3.466   0.802   8.663 -0.0530  0.3505 -0.6847
 7644SOL    HW234566   3.366   0.788   8.774  0.6213  1.3723  0.8769
 7645SOL     OW34567   4.020   4.048   5.377  0.2295  0.1282 -0.2118
 7645SOL    HW134568   3.994   4.061   5.468 -0.8167  0.8073 -0.6031
 7645SOL    HW234569   4.011   4.138   5.345  1.0079  0.6982  1.2014
 7646SOL     OW34570   4.112   1.871   5.935 -0.2319 -0.0995  0.3138
 7646SOL    HW134571   4.185   1.904   5.881  0.5881 -1.1239  0.8023
 7646SOL    HW234572   4.156   1.884   6.019  0.9256  1.2119 -0.4827
 7647SOL     OW34573   3.416   3.124   3.288 -0.3714 -0.7734 -0.0650
 7647SOL    HW134574   3.401   3.029   3.284 -2.2187 -0.4663 -0.5550
 7647SOL    HW234575   3.474   3.129   3.364  1.7294  0.6976 -1.8134
 7648SOL     OW34576   1.054   2.776  11.580  0.3743  0.7942 -0.4582
 7648SOL    HW134577   1.129   2.803  11.632  0.6243 -0.6355 -0.0907
 7648SOL    HW234578   1.067   2.848  11.518  1.5171  3.3181  2.7173
 7649SOL     OW34579   1.049   1.506   2.072  0.2182 -0.1148  0.1200
 7649SOL    HW134580   0.972   1.475   2.024 -0.2221  1.2428 -0.0393
 7649SOL    HW234581   1.000   1.528   2.152  2.3921  1.5734  0.9681
 7650SOL     OW34582   3.665   2.328   4.873 -0.4478  0.0607 -0.3700
 7650SOL    HW134583   3.571   2.341   4.870 -0.3644  0.9233  0.3863
 7650SOL    HW234584   3.702   2.321   4.785 -0.9738  2.2138 -0.7777
 7651SOL     OW34585   2.240   3.275   6.416  0.1530  0.0614  0.1529
 7651SOL    HW134586   2.258   3.288   6.323  1.4918  0.5145  0.4734
 7651SOL    HW234587   2.292   3.343   6.460  0.9165 -1.8937  2.2607
 7652SOL     OW34588   4.219   1.698   7.130  0.2623  0.1665 -0.0769
 7652SOL    HW134589   4.152   1.758   7.095  1.7330  2.0073  0.2740
 7652SOL    HW234590   4.223   1.713   7.224  1.7165  0.6765 -0.2338
 7653SOL     OW34591   2.434   0.974   4.440 -0.2783  0.5042 -0.2175
 7653SOL    HW134592   2.368   0.956   4.373  0.1595 -1.0397 -0.2253
 7653SOL    HW234593   2.450   0.887   4.476  3.3904  1.4749  0.4534
 7654SOL     OW34594   0.734   3.317   7.792  0.4622  0.4949 -0.4864
 7654SOL    HW134595   0.810   3.299   7.737  0.1708 -1.6319 -0.2170
 7654SOL    HW234596   0.724   3.412   7.791  0.6180  0.5161 -0.1123
 7655SOL     OW34597   1.997   1.085   2.809  0.3435 -0.1724 -0.3213
 7655SOL    HW134598   1.952   1.104   2.891  0.6968 -2.4248  0.3828
 7655SOL    HW234599   1.995   0.990   2.823  0.5263  0.0053  0.9302
 7656SOL     OW34600   3.712   1.428   8.084 -0.2541  0.6217 -0.0973
 7656SOL    HW134601   3.676   1.344   8.056  0.5666  0.0307  0.6208
 7656SOL    HW234602   3.637   1.482   8.060 -2.0528 -1.0636  1.6896
 7657SOL     OW34603   1.622   3.443   3.333 -0.1288 -0.0326  0.3745
 7657SOL    HW134604   1.579   3.469   3.251  0.4869 -1.3858 -0.3711
 7657SOL    HW234605   1.693   3.507   3.339 -1.0360  1.2056 -1.9927
 7658SOL     OW34606   4.180   3.849   9.355 -0.0541 -0.2871  0.2301
 7658SOL    HW134607   4.270   3.879   9.367 -0.4129  0.8810  0.0081
 7658SOL    HW234608   4.136   3.929   9.382 -1.8270 -0.6823 -1.4665
 7659SOL     OW34609   2.617   4.151   8.511 -0.1338 -1.0243 -0.2453
 7659SOL    HW134610   2.602   4.101   8.431 -0.7807  0.1177 -0.8402
 7659SOL    HW234611   2.670   4.224   8.479  0.2747 -0.9905  0.5051
 7660SOL     OW34612   1.187   4.443   7.508 -0.5765 -0.6113 -0.3018
 7660SOL    HW134613   1.213   4.521   7.556  3.2842 -1.9695 -0.1709
 7660SOL    HW234614   1.258   4.443   7.444  0.4569 -0.1326  0.8445
 7661SOL     OW34615   3.462   4.161   3.883  0.0508  0.0364  0.3642
 7661SOL    HW134616   3.461   4.255   3.865  0.0951  0.0149  0.2436
 7661SOL    HW234617   3.401   4.126   3.818 -0.4588 -1.1819  1.4958
 7662SOL     OW34618   4.233   0.773   4.125  0.2978 -0.0039 -0.0884
 7662SOL    HW134619   4.238   0.678   4.116 -0.7259 -0.1237  0.6220
 7662SOL    HW234620   4.152   0.790   4.078 -0.8960 -0.0052  1.9639
 7663SOL     OW34621   3.065   0.247   1.810  0.4309  0.0792  0.1233
 7663SOL    HW134622   3.037   0.159   1.783  1.1695 -0.0247 -0.3173
 7663SOL    HW234623   3.023   0.294   1.738  0.3063 -1.2450 -0.6822
 7664SOL     OW34624   2.981   0.055   7.545 -0.3942 -0.2444 -0.0698
 7664SOL    HW134625   2.952   4.709   7.585 -0.7608 -0.8303 -1.5377
 7664SOL    HW234626   3.003   0.104   7.624  0.7779 -0.0544 -0.5139
 7665SOL     OW34627   2.373   0.187   2.987 -0.1925  0.2675  0.3847
 7665SOL    HW134628   2.402   0.270   2.950 -0.3403 -0.1677 -0.7026
 7665SOL    HW234629   2.332   0.144   2.912  0.6488 -0.6030  0.4292
 7666SOL     OW34630   3.052   2.089   5.293 -0.0878  0.3169 -0.2773
 7666SOL    HW134631   3.097   2.173   5.305  0.1730  0.0414  0.6710
 7666SOL    HW234632   3.003   2.090   5.375 -1.4379  0.7808 -1.1029
 7667SOL     OW34633   1.679   3.177   4.120 -0.7705 -0.2118 -0.3352
 7667SOL    HW134634   1.632   3.177   4.036  0.7796 -0.5090 -1.1961
 7667SOL    HW234635   1.643   3.254   4.164  0.1745  0.6386 -1.0616
 7668SOL     OW34636   1.902   2.865   5.548 -0.5464  0.1040 -0.0774
 7668SOL    HW134637   1.813   2.899   5.547 -1.5990 -2.6481 -0.8510
 7668SOL    HW234638   1.934   2.952   5.524 -2.9953  0.4484 -2.1063
 7669SOL     OW34639   1.282   1.513   9.879 -0.3986 -0.1530  0.4088
 7669SOL    HW134640   1.264   1.420   9.865  0.1377 -0.1691 -0.1464
 7669SOL    HW234641   1.338   1.540   9.807 -1.1176  0.4016  0.0641
 7670SOL     OW34642   4.328   2.752   4.854  0.1864 -0.2453  0.3068
 7670SOL    HW134643   4.344   2.781   4.764 -2.1248 -0.9708 -0.3299
 7670SOL    HW234644   4.406   2.788   4.897 -0.7553  0.5924  1.2855
 7671SOL     OW34645   3.991   0.983   1.374 -0.0303  0.0673  0.0213
 7671SOL    HW134646   3.907   1.003   1.332 -0.5651  0.5172  1.3029
 7671SOL    HW234647   4.051   1.046   1.335  2.0449 -1.1520  1.2287
 7672SOL     OW34648   4.071   3.224   1.359 -0.5368  0.0274 -0.2970
 7672SOL    HW134649   4.015   3.252   1.431 -0.8895 -3.6379  0.8512
 7672SOL    HW234650   4.153   3.228   1.409 -1.6257 -0.3558  1.5295
 7673SOL     OW34651   2.870   2.655   2.430  0.0235  0.5762 -0.2141
 7673SOL    HW134652   2.839   2.575   2.473 -1.2455  1.2149  0.0482
 7673SOL    HW234653   2.856   2.723   2.496 -0.4478  0.6077 -0.3449
 7674SOL     OW34654   4.475   3.369   4.219 -0.1200  0.2776  0.4634
 7674SOL    HW134655   4.533   3.295   4.238  0.9926  1.3515  1.2411
 7674SOL    HW234656   4.419   3.367   4.298 -0.3951  0.0146  0.2638
 7675SOL     OW34657   1.130   1.473   2.622 -0.1005 -0.4098 -0.0559
 7675SOL    HW134658   1.077   1.397   2.644  0.4835 -1.5922 -2.7397
 7675SOL    HW234659   1.068   1.527   2.572 -0.9093 -0.9942  0.3260
 7676SOL     OW34660   2.958   4.482  17.249 -0.5860 -0.4359  0.0555
 7676SOL    HW134661   3.019   4.480  17.175 -0.0468 -2.4918  0.5597
 7676SOL    HW234662   2.928   4.391  17.245  1.7608 -1.2328  0.2734
 7677SOL     OW34663   1.053   4.439   4.306  0.0437  0.4654  0.4437
 7677SOL    HW134664   1.091   4.448   4.393 -0.2055  0.8020  0.5208
 7677SOL    HW234665   0.975   4.387   4.323 -1.1180  2.5195  1.3710
 7678SOL     OW34666   0.399   3.084   3.951  0.2006  0.3003 -0.3861
 7678SOL    HW134667   0.392   3.020   4.021  1.4219  0.4153 -0.1649
 7678SOL    HW234668   0.311   3.116   3.931 -0.1250  0.6738  1.7039
 7679SOL     OW34669   0.897   2.526   2.083 -0.1216  0.0277  0.2230
 7679SOL    HW134670   0.890   2.477   2.000  0.3755 -0.7917  0.6671
 7679SOL    HW234671   0.898   2.454   2.145  1.5381 -1.1746 -1.2056
 7680SOL     OW34672   1.440   2.566   5.728 -0.2572  0.6275  0.2042
 7680SOL    HW134673   1.446   2.481   5.773  1.5020  1.4103  1.4430
 7680SOL    HW234674   1.344   2.564   5.717 -0.2693 -2.2670  0.7190
 7681SOL     OW34675   0.261   3.913  14.096 -0.1366 -0.2011  0.1050
 7681SOL    HW134676   0.192   3.961  14.142  0.6802  1.2626 -0.1857
 7681SOL    HW234677   0.321   3.975  14.054 -1.3326  1.1792  0.4377
 7682SOL     OW34678   1.891   3.851   2.870 -0.2750  0.3842 -0.1035
 7682SOL    HW134679   1.965   3.857   2.809  1.4479 -0.4687  1.9067
 7682SOL    HW234680   1.823   3.808   2.818  0.6441  1.2336 -2.0234
 7683SOL     OW34681   1.955   4.350   1.228 -0.3210  0.3805  0.0857
 7683SOL    HW134682   1.895   4.325   1.299 -0.1278 -0.4384 -0.0352
 7683SOL    HW234683   1.901   4.319   1.155 -0.9589 -0.1594  0.7819
 7684SOL     OW34684   1.748   2.023   9.587 -0.0477 -0.7824  0.0725
 7684SOL    HW134685   1.709   2.000   9.671  1.8457 -1.5846  0.7316
 7684SOL    HW234686   1.747   2.119   9.589 -0.3363 -0.7464 -1.1989
 7685SOL     OW34687   1.624   4.435   7.822 -0.3608 -0.1575 -0.2272
 7685SOL    HW134688   1.666   4.388   7.749 -2.9324  0.1687 -1.9435
 7685SOL    HW234689   1.670   4.398   7.897 -0.8248 -0.1375  0.0635
 7686SOL     OW34690   0.054   1.561   7.878  0.3130  0.0422  0.4848
 7686SOL    HW134691   0.053   1.590   7.787 -0.7850 -0.3099  0.3870
 7686SOL    HW234692   4.729   1.489   7.866  0.5117  0.0477 -0.6007
 7687SOL     OW34693   0.494   2.944   5.011 -0.1764 -0.0307  0.3161
 7687SOL    HW134694   0.504   3.039   5.011  1.7834 -0.2192  0.1111
 7687SOL    HW234695   0.548   2.927   4.933  0.1342 -2.3607  1.0353
 7688SOL     OW34696   3.176   0.326   0.285 -0.3613 -0.3637 -0.1277
 7688SOL    HW134697   3.268   0.350   0.286 -0.3311 -0.4663 -0.6873
 7688SOL    HW234698   3.177   0.318   0.381  0.8636 -0.7716 -0.1682
 7689SOL     OW34699   0.299   0.896   8.998  0.2082  0.1415 -0.0909
 7689SOL    HW134700   0.362   0.968   9.000  0.4933 -0.1111  0.1041
 7689SOL    HW234701   0.259   0.920   9.082 -1.5662  0.9897 -1.1789
 7690SOL     OW34702   2.986   0.501   7.133  0.5875 -0.2325 -0.3940
 7690SOL    HW134703   2.972   0.568   7.066 -4.9181 -1.4066 -0.4541
 7690SOL    HW234704   2.931   0.430   7.098 -2.1446  2.3305 -1.3267
 7691SOL     OW34705   1.997   0.109  10.789  0.5688 -0.5082  0.2648
 7691SOL    HW134706   2.052   0.156  10.726  0.4999  0.4802  0.9329
 7691SOL    HW234707   1.918   0.113  10.735  0.8960 -0.0397 -0.1777
 7692SOL     OW34708   3.998   3.176   8.914 -0.2383 -0.0509  0.0245
 7692SOL    HW134709   4.076   3.134   8.877 -0.0388  0.6746 -0.3798
 7692SOL    HW234710   3.955   3.216   8.838  0.2923  1.4673  0.5190
 7693SOL     OW34711   0.233   0.034   2.191  0.2595  0.3300  0.0361
 7693SOL    HW134712   0.265   4.689   2.152 -0.9016 -1.7522  3.3447
 7693SOL    HW234713   0.241   0.093   2.117 -2.5046 -0.1836 -0.6534
 7694SOL     OW34714   0.832   4.003  17.422 -0.3654  0.6829  0.1399
 7694SOL    HW134715   0.738   3.991  17.435 -0.4832  0.6619 -0.7667
 7694SOL    HW234716   0.832   4.075  17.360 -1.2570  1.2924  0.8452
 7695SOL     OW34717   2.384   3.572   2.398 -0.9171 -0.2128  0.2127
 7695SOL    HW134718   2.369   3.489   2.352 -1.8478  0.9153 -1.5071
 7695SOL    HW234719   2.444   3.549   2.469 -0.3474  0.9037  0.0851
 7696SOL     OW34720   2.062   1.069  14.412 -0.2169 -0.2203  0.0889
 7696SOL    HW134721   2.118   1.038  14.483 -0.2315  1.3272  0.7822
 7696SOL    HW234722   2.110   1.141  14.372 -2.8778  0.8417 -1.1657
 7697SOL     OW34723   1.633   1.145   5.755  0.2051 -0.0540 -0.3775
 7697SOL    HW134724   1.660   1.110   5.670 -0.0526 -0.9609 -0.0924
 7697SOL    HW234725   1.707   1.119   5.811 -1.5871  0.5640  2.2512
 7698SOL     OW34726   2.797   1.487   2.887 -0.4160  0.7658 -0.2193
 7698SOL    HW134727   2.859   1.547   2.928 -0.7143 -0.0720  1.4326
 7698SOL    HW234728   2.851   1.408   2.888 -0.8421  0.4663 -0.4192
 7699SOL     OW34729   1.458   1.239   3.171 -0.9118  0.2587  0.7039
 7699SOL    HW134730   1.454   1.332   3.191 -0.4787 -0.4161  4.0152
 7699SOL    HW234731   1.499   1.235   3.085 -1.7957 -1.1979  0.3441
 7700SOL     OW34732   2.807   3.440   8.246  0.2923 -0.6317 -0.0256
 7700SOL    HW134733   2.816   3.483   8.161 -1.4482  2.6625  1.4824
 7700SOL    HW234734   2.882   3.481   8.289 -1.3620 -1.1563  3.3392
 7701SOL     OW34735   0.646   3.414   6.338  0.0049 -0.5445  0.3847
 7701SOL    HW134736   0.667   3.477   6.269 -1.8946 -0.2935  0.0350
 7701SOL    HW234737   0.728   3.365   6.346  0.8446  0.5566 -1.2883
 7702SOL     OW34738   0.945   3.177   1.741 -0.5283  0.0436  0.6134
 7702SOL    HW134739   1.004   3.244   1.705 -1.5450  1.2421  1.1992
 7702SOL    HW234740   0.861   3.213   1.714 -1.4632 -0.3502  2.9589
 7703SOL     OW34741   3.360   1.142   6.817 -0.4245 -0.0666 -0.6869
 7703SOL    HW134742   3.415   1.080   6.865  0.6895 -0.3247 -2.3301
 7703SOL    HW234743   3.335   1.197   6.892  0.2149 -1.3828  0.5085
 7704SOL     OW34744   2.516   4.551   6.869  0.0304  0.4354  0.0410
 7704SOL    HW134745   2.515   4.507   6.954  0.3481  0.3017 -0.0270
 7704SOL    HW234746   2.610   4.553   6.855  0.2590 -1.4264  1.3197
 7705SOL     OW34747   0.054   0.815   2.211  0.0361 -0.2848 -0.2094
 7705SOL    HW134748   0.015   0.896   2.178 -0.9258  0.5039  2.9012
 7705SOL    HW234749   4.714   0.761   2.190  0.8954 -0.6623 -2.4447
 7706SOL     OW34750   2.754   0.397  13.871 -0.6460  0.1079  0.2508
 7706SOL    HW134751   2.798   0.424  13.952  0.3470  0.2170 -0.3178
 7706SOL    HW234752   2.728   0.309  13.898  0.8211 -0.6392 -0.7362
 7707SOL     OW34753   4.473   0.313  13.193  0.8629 -0.0177  0.2406
 7707SOL    HW134754   4.459   0.391  13.246  0.0923  1.2307 -1.8015
 7707SOL    HW234755   4.534   0.339  13.124  1.7234 -0.8546  0.6784
 7708SOL     OW34756   2.957   4.095   0.673 -0.1639  0.2591 -0.2122
 7708SOL    HW134757   2.963   4.120   0.580  0.6624  0.8094 -0.0120
 7708SOL    HW234758   2.989   4.170   0.725  1.3925 -0.7576  0.3106
 7709SOL     OW34759   3.408   3.284   4.833  0.2825  0.8223 -0.0026
 7709SOL    HW134760   3.401   3.299   4.739  0.7332 -0.9767 -0.3138
 7709SOL    HW234761   3.473   3.348   4.862 -0.6165  0.5662  2.5215
 7710SOL     OW34762   0.853   4.107   7.591  0.1917  0.1946 -0.4716
 7710SOL    HW134763   0.777   4.055   7.564 -0.0559  0.9930 -1.3313
 7710SOL    HW234764   0.898   4.111   7.507  1.0123 -1.6752 -0.1243
 7711SOL     OW34765   1.734   3.111   9.366  0.3451  0.6536 -0.1660
 7711SOL    HW134766   1.764   3.027   9.400 -3.2087 -0.5657 -0.1101
 7711SOL    HW234767   1.817   3.160   9.364  0.5267  0.3404 -0.1710
 7712SOL     OW34768   1.258   4.377   1.009 -0.6282  0.0144  0.2819
 7712SOL    HW134769   1.174   4.410   0.977  0.4773  1.7215 -0.8753
 7712SOL    HW234770   1.326   4.403   0.946  1.6227 -1.4243  2.1158
 7713SOL     OW34771   1.672   4.017   2.205 -0.7757 -0.6586 -0.0692
 7713SOL    HW134772   1.714   4.103   2.210  0.3669 -1.3223  1.9375
 7713SOL    HW234773   1.650   4.012   2.112 -2.1840  0.5327  0.2072
 7714SOL     OW34774   0.355   0.922   6.355  0.1489 -0.7357  0.3823
 7714SOL    HW134775   0.362   0.945   6.262 -0.7576 -2.0465  0.0034
 7714SOL    HW234776   0.320   1.000   6.399  1.1957  1.1339 -2.1066
 7715SOL     OW34777   4.453   0.691  17.009 -0.2770 -0.4452 -0.0613
 7715SOL    HW134778   4.450   0.744  17.088  0.3140  0.3689 -0.5794
 7715SOL    HW234779   4.364   0.658  16.996 -0.5410 -0.3593  1.5474
 7716SOL     OW34780   0.352   4.152   9.089  0.2990  0.3180  0.0785
 7716SOL    HW134781   0.293   4.129   9.018 -0.8217 -1.2105  1.4820
 7716SOL    HW234782   0.294   4.215   9.133 -0.4768 -0.9205  0.8639
 7717SOL     OW34783   1.485   4.193   6.554  0.4670  0.0020  0.8662
 7717SOL    HW134784   1.428   4.120   6.578 -0.4602  0.1547 -0.8393
 7717SOL    HW234785   1.454   4.265   6.609 -0.7762  1.8395 -2.2091
 7718SOL     OW34786   3.670   4.151   8.060  0.0328 -0.5935  0.5115
 7718SOL    HW134787   3.757   4.189   8.063  0.0247 -0.4649 -0.9121
 7718SOL    HW234788   3.660   4.112   7.973 -0.9152  1.7372 -0.4248
 7719SOL     OW34789   3.578   0.631   4.764  0.0330 -0.3616  0.3385
 7719SOL    HW134790   3.670   0.649   4.787 -0.6366  2.6184  0.7508
 7719SOL    HW234791   3.579   0.538   4.743 -0.7125  0.3000 -2.5411
 7720SOL     OW34792   0.240   2.097  12.529 -0.5017 -0.4931 -0.3433
 7720SOL    HW134793   0.233   2.139  12.614  0.2342 -0.0463 -0.5027
 7720SOL    HW234794   0.195   2.014  12.544  1.9462 -1.9351 -0.9823
 7721SOL     OW34795   3.439   0.913   0.301  0.1950  0.6805 -0.0198
 7721SOL    HW134796   3.403   0.978   0.362  2.3994  0.2986  1.6925
 7721SOL    HW234797   3.428   0.962   0.219  0.3301 -0.5883 -0.7933
 7722SOL     OW34798   0.887   3.850   7.228 -0.2672  0.3782 -0.0964
 7722SOL    HW134799   0.845   3.807   7.153  1.5870  0.4716 -1.1952
 7722SOL    HW234800   0.821   3.826   7.293 -0.4726  1.2218  0.0085
 7723SOL     OW34801   2.473   0.846  12.190  0.1419 -0.0438 -0.0597
 7723SOL    HW134802   2.501   0.756  12.209  0.8122  0.5531  1.7533
 7723SOL    HW234803   2.460   0.879  12.279 -1.4934 -1.3029  0.1480
 7724SOL     OW34804   2.705   3.395   8.876 -0.1131  0.2856 -0.0362
 7724SOL    HW134805   2.680   3.396   8.969  0.5045 -3.4392  0.1775
 7724SOL    HW234806   2.634   3.451   8.846 -1.3367 -1.0578  0.3816
 7725SOL     OW34807   2.712   4.694   0.290  0.0832  0.5564 -0.3541
 7725SOL    HW134808   2.683   4.727   0.205  1.9080 -2.5734 -2.1872
 7725SOL    HW234809   2.804   4.673   0.278  0.0635 -0.1149  0.5894
 7726SOL     OW34810   0.271   4.437   7.151  0.4031 -0.0677  0.4263
 7726SOL    HW134811   0.365   4.450   7.142 -0.0233  1.9754 -1.0882
 7726SOL    HW234812   0.261   4.430   7.246  2.4579  0.1457  0.6432
 7727SOL     OW34813   2.887   0.148   4.113 -0.2948  0.1046  0.5549
 7727SOL    HW134814   2.825   0.158   4.041 -0.4781  2.6962  1.0734
 7727SOL    HW234815   2.952   0.210   4.083 -1.0713 -1.0244 -3.5001
 7728SOL     OW34816   0.635   3.283   8.080  0.0315  0.4730  0.7446
 7728SOL    HW134817   0.697   3.277   8.008 -4.4717  0.1561 -3.0862
 7728SOL    HW234818   0.558   3.255   8.030  0.7069  2.2115 -1.2280
 7729SOL     OW34819   2.753   0.341   3.512  0.1106 -0.1351  0.0456
 7729SOL    HW134820   2.773   0.425   3.554 -1.7513 -0.3028  1.2676
 7729SOL    HW234821   2.833   0.330   3.461 -0.6952  1.1687 -1.5084
 7730SOL     OW34822   3.983   1.300   5.339  0.7607 -0.4629 -0.3508
 7730SOL    HW134823   3.915   1.238   5.366  1.3537 -0.7703  0.4420
 7730SOL    HW234824   3.949   1.382   5.373  2.1678 -0.1226  0.2373
 7731SOL     OW34825   4.139   0.747  10.070 -0.5350  0.1754  0.3266
 7731SOL    HW134826   4.166   0.671  10.121  0.6767  0.0445 -0.5236
 7731SOL    HW234827   4.122   0.808  10.142  0.4408 -0.4294  1.0742
 7732SOL     OW34828   3.840   4.233   7.636 -0.5509 -0.4541  0.0727
 7732SOL    HW134829   3.871   4.321   7.615  1.5100 -1.2623 -0.2964
 7732SOL    HW234830   3.921   4.182   7.633 -1.1945 -1.4506 -0.3510
 7733SOL     OW34831   1.376   3.320  12.948  0.3033  0.1728  0.2314
 7733SOL    HW134832   1.300   3.341  12.893  1.4399  2.5828 -0.4031
 7733SOL    HW234833   1.362   3.393  13.007  1.3284  1.7339 -1.4611
 7734SOL     OW34834   0.110   2.475   2.355 -0.1106 -0.2494  0.6635
 7734SOL    HW134835   0.111   2.462   2.261 -0.4975  1.5692  0.4079
 7734SOL    HW234836   0.086   2.388   2.386  0.8262 -0.6377  0.3131
 7735SOL     OW34837   0.661   1.224   9.416  0.3421 -0.4997 -0.6555
 7735SOL    HW134838   0.682   1.250   9.506 -1.0402 -1.6482 -0.0032
 7735SOL    HW234839   0.731   1.160   9.410  0.1159 -0.8385  0.3164
 7736SOL     OW34840   1.498   1.352   4.878  0.0480  0.2466  0.2749
 7736SOL    HW134841   1.548   1.384   4.803 -1.0020  2.2655  0.4446
 7736SOL    HW234842   1.447   1.432   4.890  2.3655  1.7364  0.2680
 7737SOL     OW34843   1.086   2.744   6.140  0.6495  0.2233  1.0319
 7737SOL    HW134844   1.167   2.692   6.139  0.4895  0.0021 -0.0732
 7737SOL    HW234845   1.025   2.671   6.149  0.9669 -0.1236  0.3267
 7738SOL     OW34846   0.232   4.242   1.887 -0.1011  0.4496 -0.2327
 7738SOL    HW134847   0.237   4.335   1.911  0.5753  0.5099 -0.6327
 7738SOL    HW234848   0.228   4.207   1.976 -0.6358  1.4903  0.1560
 7739SOL     OW34849   4.726   1.665  13.879  0.9522  0.4921  0.4251
 7739SOL    HW134850   0.056   1.733  13.866  3.7187 -2.0112  1.2194
 7739SOL    HW234851   0.007   1.642  13.971  1.1603  1.2839  0.5880
 7740SOL     OW34852   0.693   1.802   3.588 -0.0720 -0.2051 -0.1142
 7740SOL    HW134853   0.676   1.858   3.513 -1.2424 -0.5743 -0.1356
 7740SOL    HW234854   0.641   1.856   3.648  0.1991  0.0852 -0.1432
 7741SOL     OW34855   4.555   4.455  14.602 -0.3658 -0.0149 -0.0791
 7741SOL    HW134856   4.533   4.487  14.515  0.3550  2.6669  0.7422
 7741SOL    HW234857   4.635   4.505  14.620 -0.3135  0.0409 -0.4806
 7742SOL     OW34858   3.999   3.888  13.699  0.1768 -0.1082 -0.5008
 7742SOL    HW134859   3.987   3.960  13.762 -1.0478  0.0945 -0.9740
 7742SOL    HW234860   3.933   3.828  13.735 -1.3989  0.2180 -2.8302
 7743SOL     OW34861   3.026   0.884   7.691  0.0102 -0.4440  0.4212
 7743SOL    HW134862   3.052   0.803   7.735  0.8360 -0.6043 -0.3584
 7743SOL    HW234863   3.065   0.864   7.606 -0.6765  1.8221 -0.4304
 7744SOL     OW34864   1.425   2.851   8.719  0.8484  0.1560 -0.4681
 7744SOL    HW134865   1.421   2.944   8.695  0.8958 -0.3100 -2.2506
 7744SOL    HW234866   1.512   2.833   8.685  0.4833  2.0700 -2.4058
 7745SOL     OW34867   2.070   1.150  11.183 -0.0507  0.2313  0.2045
 7745SOL    HW134868   2.140   1.085  11.188  1.4833  1.6580 -2.7251
 7745SOL    HW234869   2.001   1.086  11.203 -0.2533  0.7269  1.0721
 7746SOL     OW34870   2.733   4.662   5.785 -0.3657 -0.1481 -0.4794
 7746SOL    HW134871   2.661   4.677   5.723 -0.8047 -2.2025 -0.4418
 7746SOL    HW234872   2.750   4.569   5.777  0.9760  0.1894 -1.5266
 7747SOL     OW34873   2.286   3.932   8.121  0.5578  0.0365 -0.1740
 7747SOL    HW134874   2.239   3.926   8.204  1.1753 -2.3729 -0.0007
 7747SOL    HW234875   2.364   3.984   8.143  0.0185  1.5589 -1.8408
 7748SOL     OW34876   0.247   4.588   7.787 -0.1706 -0.2288  0.6906
 7748SOL    HW134877   0.249   4.666   7.843 -0.0594  0.3061 -0.0630
 7748SOL    HW234878   0.257   4.643   7.710  0.5289 -0.2872  0.7414
 7749SOL     OW34879   1.319   2.775  17.126 -0.0297 -0.3901  0.0221
 7749SOL    HW134880   1.409   2.779  17.094 -0.0709  0.5205  0.0291
 7749SOL    HW234881   1.281   2.846  17.075 -1.2209 -2.2715 -1.6936
 7750SOL     OW34882   0.735   0.182   1.114  0.3242 -0.7027  0.0486
 7750SOL    HW134883   0.647   0.146   1.103  0.7072 -1.5149 -0.3438
 7750SOL    HW234884   0.792   0.123   1.065  0.4994 -0.4444 -0.0624
 7751SOL     OW34885   1.930   1.567  17.680  0.3038 -0.2096 -0.2027
 7751SOL    HW134886   1.890   1.547  17.595 -0.2830 -2.7531  0.6641
 7751SOL    HW234887   2.008   1.618  17.657 -0.2028  0.3796 -0.6129
 7752SOL     OW34888   4.518   0.425  15.173 -0.0225  0.2405  0.7908
 7752SOL    HW134889   4.456   0.451  15.242  0.0642 -0.9869  1.3361
 7752SOL    HW234890   4.553   0.339  15.196  0.2296 -0.1339 -1.0219
 7753SOL     OW34891   4.055   4.712   1.850 -0.3076  0.7734 -0.5759
 7753SOL    HW134892   4.042   0.025   1.932 -2.2287 -0.5291 -0.0951
 7753SOL    HW234893   4.062   0.044   1.784  1.3801 -1.7722 -3.0047
 7754SOL     OW34894   4.705   2.934   5.646  0.1535  0.2333 -0.2899
 7754SOL    HW134895   4.706   3.003   5.713  0.9242 -0.1548  0.0985
 7754SOL    HW234896   4.655   2.974   5.575 -0.2495  0.8770  0.3451
 7755SOL     OW34897   2.795   1.982  11.945 -0.1048  0.7641  0.4087
 7755SOL    HW134898   2.815   1.932  11.866 -2.5524  1.9067 -0.9088
 7755SOL    HW234899   2.802   1.912  12.010 -1.2730 -0.1995 -0.5249
 7756SOL     OW34900   3.632   3.373   2.827 -0.1369 -0.2219  0.0903
 7756SOL    HW134901   3.645   3.362   2.921  0.0871  0.5961  0.1589
 7756SOL    HW234902   3.675   3.297   2.789 -1.6743 -1.2654  0.4715
 7757SOL     OW34903   4.263   0.429   3.789  0.8116 -0.1163 -0.3350
 7757SOL    HW134904   4.350   0.468   3.784  0.9547  0.2582  4.3837
 7757SOL    HW234905   4.230   0.445   3.701  0.1383 -1.5498 -0.3529
 7758SOL     OW34906   1.018   1.151   7.820 -0.1736  0.1193 -0.9224
 7758SOL    HW134907   0.937   1.189   7.856 -1.0270 -2.9449  0.4864
 7758SOL    HW234908   1.068   1.141   7.901 -1.7746 -2.2588 -0.2194
 7759SOL     OW34909   1.694   0.082   5.038  1.0372  0.4896 -0.1072
 7759SOL    HW134910   1.665   0.156   4.984  1.6274 -0.0882 -1.2108
 7759SOL    HW234911   1.721   0.120   5.121  2.3650 -1.0617  0.1730
 7760SOL     OW34912   1.057   4.561   4.737 -0.1051 -0.0876  0.5241
 7760SOL    HW134913   0.963   4.579   4.736  0.0106  0.5646  2.0097
 7760SOL    HW234914   1.103   4.644   4.748 -3.1343  1.6580 -0.1071
 7761SOL     OW34915   0.128   2.882   4.190 -0.2665 -0.5656 -0.3708
 7761SOL    HW134916   0.108   2.935   4.113 -0.2599 -0.7407 -0.4908
 7761SOL    HW234917   0.070   2.810   4.167 -0.1008 -1.0097  0.5977
 7762SOL     OW34918   4.254   3.766  10.608  0.1450 -0.1863  0.4289
 7762SOL    HW134919   4.172   3.732  10.573 -0.1668  1.6141 -0.6262
 7762SOL    HW234920   4.242   3.861  10.615  0.2921 -0.0377 -1.2578
 7763SOL     OW34921   0.811   4.393   3.090  0.0373 -0.2610 -0.1461
 7763SOL    HW134922   0.813   4.479   3.047  2.4205 -0.2394 -0.0156
 7763SOL    HW234923   0.721   4.369   3.071 -0.0829  0.7919 -0.9243
 7764SOL     OW34924   0.218   4.422   2.533  0.1406  0.1084 -0.4516
 7764SOL    HW134925   0.299   4.463   2.500 -0.0983  1.0083  0.0756
 7764SOL    HW234926   0.228   4.343   2.480  0.6513 -0.4265  0.4488
 7765SOL     OW34927   0.404   2.266   9.455 -0.3977  0.1470  0.2067
 7765SOL    HW134928   0.378   2.359   9.453  0.2427  0.2450 -2.5862
 7765SOL    HW234929   0.471   2.283   9.522 -1.3127  0.2161  1.1057
 7766SOL     OW34930   2.985   1.182   1.295 -0.2924  0.2365 -0.0976
 7766SOL    HW134931   2.994   1.277   1.293  2.9011 -0.0849 -1.0983
 7766SOL    HW234932   2.896   1.173   1.263 -0.1649  0.3192 -0.4734
 7767SOL     OW34933   0.410   0.858   4.342  0.1125 -0.0669  0.0930
 7767SOL    HW134934   0.392   0.899   4.257 -0.5466 -0.1049  0.2162
 7767SOL    HW234935   0.324   0.817   4.353  1.1308 -2.4627 -0.8830
 7768SOL     OW34936   3.579   3.534   7.168  0.0544  0.7966  0.5155
 7768SOL    HW134937   3.540   3.449   7.185 -0.2425  0.7245 -0.5084
 7768SOL    HW234938   3.507   3.595   7.149 -0.9717 -0.8243 -0.8158
 7769SOL     OW34939   4.637   2.865   1.553  0.3495 -0.0141 -0.0127
 7769SOL    HW134940   4.601   2.782   1.584 -0.3879  0.6169  0.7933
 7769SOL    HW234941   4.725   2.833   1.531 -0.0819 -0.8286 -0.5581
 7770SOL     OW34942   3.130   4.730  15.962 -0.0611 -0.4394 -0.0158
 7770SOL    HW134943   3.058   0.056  15.972 -1.4839 -2.0099 -0.4042
 7770SOL    HW234944   3.125   4.666  16.033 -1.1381  2.1966  2.2856
 7771SOL     OW34945   2.081   2.367  12.356 -0.2279 -0.0682  0.2231
 7771SOL    HW134946   2.068   2.295  12.418 -0.6669 -0.9979 -0.9485
 7771SOL    HW234947   2.168   2.392  12.387  0.5175 -0.4630 -1.5426
 7772SOL     OW34948   2.620   2.108   9.997  0.3452 -0.0622 -0.2039
 7772SOL    HW134949   2.532   2.070   9.990  0.0404  0.7215 -0.6838
 7772SOL    HW234950   2.625   2.153  10.081  0.6415  2.3484 -1.5083
 7773SOL     OW34951   2.517   3.650   5.588 -0.4698 -0.1687  0.1873
 7773SOL    HW134952   2.519   3.727   5.645 -1.8826 -0.2729  0.3642
 7773SOL    HW234953   2.513   3.587   5.659 -0.5972  2.0987  2.1857
 7774SOL     OW34954   0.947   1.956   4.055 -0.5052 -0.5882  0.2086
 7774SOL    HW134955   0.968   1.983   4.145 -0.8447 -1.0098  0.4144
 7774SOL    HW234956   0.977   1.865   4.055  0.6243 -0.1980 -2.3606
 7775SOL     OW34957   2.418   2.661   9.016 -0.2621 -0.2804 -0.0188
 7775SOL    HW134958   2.484   2.623   8.957  0.5788  1.1985 -0.0379
 7775SOL    HW234959   2.410   2.596   9.086  1.8182 -0.0524  0.4286
 7776SOL     OW34960   1.881   3.287   3.613  0.6724  0.0839 -0.1965
 7776SOL    HW134961   1.912   3.337   3.689 -0.1815  2.3994 -1.3657
 7776SOL    HW234962   1.868   3.201   3.652 -0.6770 -0.3372 -1.5532
 7777SOL     OW34963   1.573   3.749   8.488 -0.1855  0.5616 -0.4431
 7777SOL    HW134964   1.624   3.816   8.442  0.8575  0.2114  0.1990
 7777SOL    HW234965   1.486   3.789   8.490 -0.2094  0.4811  0.3287
 7778SOL     OW34966   2.983   1.278   7.071 -0.4887  0.1445  0.3675
 7778SOL    HW134967   2.985   1.344   7.002  2.0855 -0.3256 -0.0345
 7778SOL    HW234968   2.921   1.214   7.037 -0.5673 -0.0136  0.8123
 7779SOL     OW34969   2.729   0.310  14.596  0.7405 -0.5233  0.0596
 7779SOL    HW134970   2.742   0.246  14.525 -0.2506 -0.6901  0.0232
 7779SOL    HW234971   2.786   0.282  14.667  2.6493 -2.6752 -2.2914
 7780SOL     OW34972   1.577   1.121   4.980 -0.0809 -0.3609  0.2581
 7780SOL    HW134973   1.485   1.100   4.998 -0.4333  0.8042 -0.2154
 7780SOL    HW234974   1.558   1.207   4.943  1.1900  0.1090  0.6901
 7781SOL     OW34975   3.139   2.577  16.306  0.1281  0.3713  0.6890
 7781SOL    HW134976   3.049   2.568  16.337 -0.6858  1.1063 -1.4608
 7781SOL    HW234977   3.151   2.488  16.273  1.0501  0.2611  1.3160
 7782SOL     OW34978   4.583   4.131   7.416  0.2184 -0.4199  0.8939
 7782SOL    HW134979   4.655   4.076   7.386  0.0150 -0.7424  0.9918
 7782SOL    HW234980   4.531   4.149   7.338  1.0571  1.4679  0.7804
 7783SOL     OW34981   1.287   2.374   0.114 -0.7923 -0.3438  0.6751
 7783SOL    HW134982   1.252   2.460   0.088 -2.2943 -1.2396 -0.2922
 7783SOL    HW234983   1.258   2.322   0.039  0.1356 -0.8738  0.6837
 7784SOL     OW34984   4.360   4.124  12.612  0.3328  0.3382 -0.3484
 7784SOL    HW134985   4.411   4.086  12.683 -2.2346  2.4566  2.6522
 7784SOL    HW234986   4.409   4.082  12.541  1.5863 -1.6463  1.6973
 7785SOL     OW34987   1.155   3.112   5.592  0.0151 -0.2365 -0.5020
 7785SOL    HW134988   1.136   3.111   5.686 -0.3706 -2.8521 -0.6046
 7785SOL    HW234989   1.086   3.054   5.560  0.5759 -0.2143 -1.7493
 7786SOL     OW34990   1.727   3.136   2.096  0.3863 -0.1418  0.6648
 7786SOL    HW134991   1.684   3.155   2.012 -0.2157 -1.3962  0.6923
 7786SOL    HW234992   1.754   3.045   2.085  1.2213  0.0797  0.9104
 7787SOL     OW34993   0.962   4.191  13.561  0.1533  0.6407 -0.1381
 7787SOL    HW134994   1.036   4.139  13.530 -0.8118 -0.5947 -0.4060
 7787SOL    HW234995   0.889   4.128  13.567 -0.8680  1.9595  1.0436
 7788SOL     OW34996   4.571   0.498   0.303 -0.0655  0.3238 -0.2136
 7788SOL    HW134997   4.546   0.591   0.303  0.0479  0.3603 -2.2947
 7788SOL    HW234998   4.489   0.452   0.286 -0.7585  1.1469  0.8849
 7789SOL     OW34999   0.995   2.534   0.292 -0.4983 -0.4213 -0.0552
 7789SOL    HW135000   1.062   2.547   0.224 -3.2264  2.1430 -2.2265
 7789SOL    HW235001   0.911   2.547   0.248 -0.6611 -1.5978 -0.0999
 7790SOL     OW35002   4.640   0.412   5.711 -0.8119  0.0579  0.0476
 7790SOL    HW135003   4.691   0.335   5.738 -1.2140  0.5106  2.0873
 7790SOL    HW235004   4.625   0.455   5.795  0.4607 -0.5591  0.5962
 7791SOL     OW35005   4.703   1.467   7.038 -0.2268  0.9306  0.0951
 7791SOL    HW135006   4.726   1.550   6.997  0.1066 -0.2618 -2.1364
 7791SOL    HW235007   0.015   1.472   7.120  0.3288 -0.0012 -0.1811
 7792SOL     OW35008   2.956   2.051  13.251  0.7358  0.3027  0.4891
 7792SOL    HW135009   2.963   1.971  13.303  1.2966  0.5912  0.8687
 7792SOL    HW235010   3.032   2.104  13.276  0.4838  0.1549  1.5789
 7793SOL     OW35011   1.635   3.789   8.186  0.2876  0.1980 -0.1624
 7793SOL    HW135012   1.577   3.843   8.239  0.8477  0.9116 -0.2864
 7793SOL    HW235013   1.712   3.799   8.241  0.9067 -0.6668 -0.8690
 7794SOL     OW35014   1.433   3.062  13.021  0.0070 -0.4852 -0.0115
 7794SOL    HW135015   1.396   3.147  12.997 -0.0087  0.4271  3.2210
 7794SOL    HW235016   1.488   3.082  13.097 -0.6365  0.6104  0.1628
 7795SOL     OW35017   3.453   4.033   9.641  0.0380 -0.3982 -0.4325
 7795SOL    HW135018   3.429   4.125   9.653  1.7561 -0.2769  2.0550
 7795SOL    HW235019   3.376   4.015   9.587 -0.1933  1.7465 -0.8304
 7796SOL     OW35020   3.465   0.739   2.845 -0.6801  0.1324 -0.2179
 7796SOL    HW135021   3.515   0.773   2.772  1.7030  1.7615  2.1861
 7796SOL    HW235022   3.401   0.679   2.806  3.0807 -3.3296 -1.0220
 7797SOL     OW35023   4.316   0.785   6.094  0.4466 -0.0109 -0.0154
 7797SOL    HW135024   4.345   0.694   6.085  1.0688  0.2640 -0.8573
 7797SOL    HW235025   4.221   0.791   6.089  0.3446  0.0683  2.1569
 7798SOL     OW35026   3.953   0.708   2.586  0.2722 -0.3890  0.8246
 7798SOL    HW135027   3.900   0.747   2.516  0.2812  0.9165  1.5380
 7798SOL    HW235028   4.025   0.662   2.543 -0.2728  1.5699 -2.1579
 7799SOL     OW35029   3.456   0.970   5.891  0.3525  0.2116 -0.1043
 7799SOL    HW135030   3.417   0.993   5.975  0.7913  1.9011 -0.3620
 7799SOL    HW235031   3.386   1.000   5.834  0.5149 -0.6028 -0.7363
 7800SOL     OW35032   4.189   1.768   3.274  0.2853  0.1321 -0.5805
 7800SOL    HW135033   4.274   1.801   3.246 -1.4165  1.5741 -4.0995
 7800SOL    HW235034   4.140   1.799   3.198  1.0626 -0.5807 -1.3746
 7801SOL     OW35035   2.424   1.945   6.517  0.0548 -0.0372  0.2517
 7801SOL    HW135036   2.417   2.006   6.591  2.1179 -0.4661  0.8053
 7801SOL    HW235037   2.418   1.865   6.569 -2.4785 -1.1403 -1.7537
 7802SOL     OW35038   0.579   0.144   4.236 -0.3475 -0.2108  0.1265
 7802SOL    HW135039   0.606   0.222   4.284 -1.9033  1.2018 -1.2916
 7802SOL    HW235040   0.487   0.169   4.229 -0.4852 -1.0946 -1.1162
 7803SOL     OW35041   1.799   1.571   2.315  0.7468 -0.6863 -0.0294
 7803SOL    HW135042   1.886   1.531   2.316  0.6922 -0.7766  1.6550
 7803SOL    HW235043   1.746   1.500   2.350  0.5900 -1.8904 -2.7466
 7804SOL     OW35044   2.642   2.152   9.103  0.1051 -0.7739  0.3472
 7804SOL    HW135045   2.723   2.177   9.146 -1.9950 -0.3508  4.0311
 7804SOL    HW235046   2.685   2.146   9.018 -0.5576  0.4789 -0.0728
 7805SOL     OW35047   2.784   0.472   5.656  0.2568 -0.2883  0.2289
 7805SOL    HW135048   2.869   0.457   5.697  0.3846 -2.9003 -0.9497
 7805SOL    HW235049   2.800   0.555   5.612 -2.8796  0.4886  0.5727
 7806SOL     OW35050   2.965   0.042   4.841  0.1050 -0.1788 -0.3112
 7806SOL    HW135051   2.894   4.718   4.866 -0.0587 -0.2317 -0.8949
 7806SOL    HW235052   3.015   4.727   4.777  5.0736  0.9912  2.6842
 7807SOL     OW35053   1.370   0.591   7.434  0.0701  0.3253  0.5713
 7807SOL    HW135054   1.288   0.638   7.449 -0.5809 -0.6111 -0.0812
 7807SOL    HW235055   1.400   0.582   7.525 -0.0509 -1.1391  0.4570
 7808SOL     OW35056   0.319   1.196  17.120  0.6165 -0.5568 -0.1152
 7808SOL    HW135057   0.247   1.244  17.160  0.2887 -0.4757 -0.7924
 7808SOL    HW235058   0.264   1.146  17.058 -1.0277 -1.2208  1.8921
 7809SOL     OW35059   3.980   0.589  11.763  0.0960 -0.2037 -0.4609
 7809SOL    HW135060   3.917   0.613  11.695 -0.0588  0.8887  0.0728
 7809SOL    HW235061   3.922   0.576  11.838  1.9540  0.6603  1.1343
 7810SOL     OW35062   3.243   0.605   4.692 -0.0010  0.1201 -0.2609
 7810SOL    HW135063   3.307   0.547   4.651 -0.4904 -0.3312 -0.3947
 7810SOL    HW235064   3.229   0.572   4.781 -0.5708 -0.7865 -0.6819
 7811SOL     OW35065   2.228   2.034   2.782  0.1469  0.0487  0.2948
 7811SOL    HW135066   2.298   1.970   2.797  0.3302  0.1996  0.0678
 7811SOL    HW235067   2.161   1.978   2.743  0.6839  0.3330 -1.0116
 7812SOL     OW35068   0.874   1.269   7.480 -0.1317 -0.2543  0.0438
 7812SOL    HW135069   0.968   1.260   7.490 -0.5201 -3.0835  1.2295
 7812SOL    HW235070   0.856   1.306   7.393 -0.6293 -1.0873 -0.2069
 7813SOL     OW35071   0.450   2.359  13.680  0.0011 -0.2355  0.1726
 7813SOL    HW135072   0.429   2.321  13.765 -1.9622 -0.5437 -0.4461
 7813SOL    HW235073   0.518   2.421  13.707 -1.2293  0.8170  0.8775
 7814SOL     OW35074   3.214   0.174   7.441  0.0371 -0.0589 -0.0235
 7814SOL    HW135075   3.123   0.153   7.464 -0.6251  2.2717 -0.5769
 7814SOL    HW235076   3.226   0.106   7.375  2.2072  2.0099 -1.7284
 7815SOL     OW35077   3.859   3.587  10.907 -0.2796 -0.5156 -0.1821
 7815SOL    HW135078   3.863   3.669  10.955  1.2844 -1.1330  0.7410
 7815SOL    HW235079   3.784   3.605  10.850  0.3659 -1.3173 -1.3016
 7816SOL     OW35080   1.826   2.024   8.384  0.4544 -0.4362  0.7429
 7816SOL    HW135081   1.921   2.028   8.381  0.5531 -0.7166  2.9634
 7816SOL    HW235082   1.813   1.949   8.326  2.3790  1.5733 -2.2707
 7817SOL     OW35083   2.605   0.258   5.170  0.9711 -0.3950 -0.5017
 7817SOL    HW135084   2.646   0.239   5.255 -1.0275 -1.2255  0.2739
 7817SOL    HW235085   2.629   0.173   5.132  0.4923 -0.9488  0.4359
 7818SOL     OW35086   3.824   3.864   2.701 -0.1739  0.0501  0.2813
 7818SOL    HW135087   3.781   3.796   2.753  1.4246 -1.2759 -0.1047
 7818SOL    HW235088   3.781   3.850   2.617 -1.8672  0.3143  1.1158
 7819SOL     OW35089   4.235   3.909  11.060  0.6884  0.7048 -0.2510
 7819SOL    HW135090   4.281   3.825  11.058 -0.3215  0.1398  0.3769
 7819SOL    HW235091   4.310   3.967  11.044  0.5278  1.4457  1.6309
 7820SOL     OW35092   2.474   3.740   8.591  0.3368 -0.0931 -0.0898
 7820SOL    HW135093   2.448   3.829   8.567 -0.9489 -0.2993  0.5728
 7820SOL    HW235094   2.555   3.738   8.540 -0.0329  0.8966 -0.7081
 7821SOL     OW35095   2.018   4.660   2.577  0.1487  0.3300 -0.0191
 7821SOL    HW135096   1.975   0.002   2.544  0.6310  0.8612  0.6127
 7821SOL    HW235097   2.004   4.669   2.671  2.9723 -2.8678  0.7230
 7822SOL     OW35098   2.366   4.533   5.809 -0.3223  0.1490 -0.2592
 7822SOL    HW135099   2.402   4.580   5.735  0.6303 -1.1740 -0.6250
 7822SOL    HW235100   2.288   4.496   5.767 -1.2421  1.3490  0.3870
 7823SOL     OW35101   3.480   3.179   2.363 -0.3109  0.1842  0.3918
 7823SOL    HW135102   3.556   3.124   2.382  0.0552  1.3121  2.2071
 7823SOL    HW235103   3.507   3.270   2.367 -0.3617  0.1581  1.2632
 7824SOL     OW35104   4.024   1.625  13.641  0.2494 -0.5066  0.1604
 7824SOL    HW135105   4.104   1.676  13.632  0.6288 -0.8142  1.8374
 7824SOL    HW235106   3.982   1.648  13.558  2.0375  0.4274 -0.4784
 7825SOL     OW35107   1.101   3.496  14.170  0.0301 -0.3565 -0.0550
 7825SOL    HW135108   1.107   3.413  14.217  0.9540  0.4720  1.2845
 7825SOL    HW235109   1.156   3.469  14.097  0.0867 -0.0736 -0.1150
 7826SOL     OW35110   1.202   0.066   4.729  0.0109 -0.1371  0.2167
 7826SOL    HW135111   1.268   0.027   4.786 -0.5398 -0.9813  0.2688
 7826SOL    HW235112   1.136   0.102   4.788 -0.8337 -0.4077 -0.5587
 7827SOL     OW35113   2.373   3.709  12.289  0.2959  0.1475  0.1602
 7827SOL    HW135114   2.381   3.742  12.200  2.0321  1.1106  0.6813
 7827SOL    HW235115   2.429   3.632  12.293 -1.0898 -0.9692 -1.6370
 7828SOL     OW35116   0.018   2.214   4.147  0.1904  0.3003  0.0398
 7828SOL    HW135117   0.038   2.295   4.193  0.0148  0.3589  0.0120
 7828SOL    HW235118   0.067   2.235   4.068  1.6431  4.0621  1.9576
 7829SOL     OW35119   1.093   0.634   7.056  0.2132  0.2890  0.2311
 7829SOL    HW135120   1.006   0.597   7.072  1.1772 -1.5994  1.1856
 7829SOL    HW235121   1.090   0.681   7.139 -2.0529 -0.2782  0.4808
 7830SOL     OW35122   2.003   3.191   9.359 -0.1134 -0.0957 -0.1245
 7830SOL    HW135123   2.023   3.197   9.266  0.0426 -0.8222 -0.1309
 7830SOL    HW235124   2.073   3.130   9.381  0.3156  0.3208 -0.3328
 7831SOL     OW35125   1.774   0.451   6.753  0.5772 -0.4016  0.7225
 7831SOL    HW135126   1.736   0.511   6.689  1.0140 -0.7118  0.1723
 7831SOL    HW235127   1.724   0.370   6.742  0.2509 -0.1723  0.5214
 7832SOL     OW35128   3.961   0.348  12.319  0.0750 -0.1496 -0.1416
 7832SOL    HW135129   3.915   0.431  12.326 -0.2203 -0.4388  1.1768
 7832SOL    HW235130   4.052   0.378  12.314 -0.2902  0.9488 -0.1495
 7833SOL     OW35131   0.883   2.107   5.045 -0.2760  0.0212 -0.2482
 7833SOL    HW135132   0.844   2.082   4.961 -1.1789 -4.6724  1.5303
 7833SOL    HW235133   0.810   2.132   5.101 -0.9019  0.6714 -1.3759
 7834SOL     OW35134   1.859   0.386   8.948 -0.1144  0.2257 -0.4391
 7834SOL    HW135135   1.899   0.473   8.953  0.2184 -0.0086  1.0502
 7834SOL    HW235136   1.929   0.323   8.965 -0.8165 -0.6553 -0.8588
 7835SOL     OW35137   0.847   4.652  12.194 -0.2513 -0.0317  0.4438
 7835SOL    HW135138   0.934   4.662  12.231 -0.3652  1.8103  0.2304
 7835SOL    HW235139   0.868   4.607  12.112  1.0371 -0.2112  0.8701
 7836SOL     OW35140   2.321   2.797   7.388 -0.8567 -0.9147  0.1691
 7836SOL    HW135141   2.267   2.867   7.423 -0.3760 -0.7819  0.6441
 7836SOL    HW235142   2.384   2.789   7.460  1.8757  2.4731 -1.8091
 7837SOL     OW35143   2.770   1.401   8.499 -0.0488  0.0391  0.0419
 7837SOL    HW135144   2.704   1.354   8.551  1.4096 -0.8510  1.0859
 7837SOL    HW235145   2.851   1.353   8.514 -0.5276 -0.0405  2.4310
 7838SOL     OW35146   1.807   0.318   7.696  0.2166 -0.2145  0.0003
 7838SOL    HW135147   1.871   0.247   7.697 -1.2493 -1.5441 -0.2154
 7838SOL    HW235148   1.846   0.391   7.648  0.3468 -0.3117 -0.0404
 7839SOL     OW35149   0.338   3.089   4.702 -0.1937  0.0291 -0.5337
 7839SOL    HW135150   0.248   3.111   4.727 -2.0573 -3.3681 -4.1822
 7839SOL    HW235151   0.323   2.999   4.671  0.1266 -1.1783  2.8434
 7840SOL     OW35152   1.617   2.492  14.877 -0.4745  0.3461  0.0602
 7840SOL    HW135153   1.584   2.480  14.788 -0.8154 -0.7918  0.3270
 7840SOL    HW235154   1.548   2.554  14.899  0.5555  1.2121  0.8342
 7841SOL     OW35155   1.745   4.257   7.610  0.0825 -0.7013 -0.0277
 7841SOL    HW135156   1.820   4.220   7.657 -0.9515 -0.3187  1.9341
 7841SOL    HW235157   1.791   4.328   7.565  0.4593 -0.6450  0.4469
 7842SOL     OW35158   4.517   2.276  11.997 -0.8387  0.0993  0.2800
 7842SOL    HW135159   4.554   2.196  12.033 -0.6863  1.1329  2.4315
 7842SOL    HW235160   4.600   2.325  11.999 -1.2538  0.7068  3.1690
 7843SOL     OW35161   2.018   3.099   5.508  0.2222 -0.7243 -0.1539
 7843SOL    HW135162   2.045   3.155   5.435  2.5797 -0.0167  1.2542
 7843SOL    HW235163   2.086   3.131   5.567 -0.2291  0.5288 -0.3163
 7844SOL     OW35164   4.506   3.741   4.837  1.2029 -0.2353 -0.6426
 7844SOL    HW135165   4.546   3.761   4.753 -0.0888  0.6142 -1.0585
 7844SOL    HW235166   4.545   3.658   4.862 -2.2537 -1.0624  2.0532
 7845SOL     OW35167   1.915   1.383   4.708 -0.1147  0.4033  0.1200
 7845SOL    HW135168   1.929   1.471   4.744 -1.7040  0.6315  0.1894
 7845SOL    HW235169   1.861   1.389   4.629  0.4598 -0.2866 -0.3227
 7846SOL     OW35170   3.905   0.870   4.980  0.4523  0.4262 -0.1751
 7846SOL    HW135171   3.907   0.815   5.058 -4.0737  2.9087  1.6649
 7846SOL    HW235172   3.823   0.917   4.989 -0.2383 -0.8354  0.1057
 7847SOL     OW35173   4.670   2.862   8.923 -0.0262  0.1525  0.2531
 7847SOL    HW135174   4.695   2.851   9.014  0.2621  0.1738  0.1778
 7847SOL    HW235175   4.715   2.787   8.884 -2.5206  0.1337 -2.6408
 7848SOL     OW35176   4.121   0.826  14.795  0.2982  0.0750  0.0327
 7848SOL    HW135177   4.145   0.739  14.828  2.1229  0.4283 -0.3496
 7848SOL    HW235178   4.135   0.821  14.700  0.8839  2.6689 -0.0024
 7849SOL     OW35179   2.680   1.387   3.709  0.9328  0.3312 -0.2054
 7849SOL    HW135180   2.695   1.459   3.771 -0.1928 -1.9585  2.7125
 7849SOL    HW235181   2.606   1.419   3.659  1.0467 -0.4797 -0.8813
 7850SOL     OW35182   2.458   2.994   3.583  0.6086 -0.3419  0.1851
 7850SOL    HW135183   2.472   3.017   3.491  2.8613  1.0563  0.8846
 7850SOL    HW235184   2.547   2.976   3.613 -0.1262  0.9936  3.1349
 7851SOL     OW35185   3.332   4.695   8.613 -0.0125  0.0411 -0.2653
 7851SOL    HW135186   3.332   4.643   8.533  2.3081  1.0218 -0.8887
 7851SOL    HW235187   3.425   4.711   8.629  0.8523 -4.0881 -1.2789
 7852SOL     OW35188   4.263   0.106   6.619 -0.2369  0.1665 -0.1562
 7852SOL    HW135189   4.301   0.167   6.683  0.0406 -0.2112  0.0459
 7852SOL    HW235190   4.215   0.173   6.570  1.9427  1.1757 -0.9178
 7853SOL     OW35191   1.136   2.568  17.167 -0.0940  0.2187 -0.8946
 7853SOL    HW135192   1.181   2.652  17.154  0.9517 -0.1125  0.6164
 7853SOL    HW235193   1.135   2.574  17.263  1.2656 -0.7412 -0.8260
 7854SOL     OW35194   1.359   2.079  15.937  0.3071 -0.1937  0.0350
 7854SOL    HW135195   1.271   2.110  15.960  1.2778  3.1242 -0.6845
 7854SOL    HW235196   1.347   2.079  15.842  2.5059  2.1037 -0.2235
 7855SOL     OW35197   4.618   1.547   0.897 -0.1189 -1.1613 -0.3705
 7855SOL    HW135198   4.665   1.523   0.817  0.6392  2.1080 -0.8759
 7855SOL    HW235199   4.600   1.458   0.928  0.9534 -0.4907  2.1744
 7856SOL     OW35200   3.488   3.166   3.561 -0.3709 -0.2106 -0.6614
 7856SOL    HW135201   3.515   3.241   3.615 -0.3343 -1.2314  0.7359
 7856SOL    HW235202   3.415   3.197   3.508 -1.1421  1.3293  1.2930
 7857SOL     OW35203   3.768   3.481   6.799  0.0669  0.3918  0.1347
 7857SOL    HW135204   3.679   3.505   6.825  0.1484  0.1877  0.5874
 7857SOL    HW235205   3.801   3.570   6.786 -1.1846  0.4976 -2.3166
 7858SOL     OW35206   2.537   0.258   6.645 -0.7344  0.2041 -0.4091
 7858SOL    HW135207   2.482   0.223   6.715  0.0123  0.3990  0.2728
 7858SOL    HW235208   2.479   0.250   6.569 -2.9417  0.8223  1.2235
 7859SOL     OW35209   1.681   1.644   7.213 -0.1496 -0.2998  0.0406
 7859SOL    HW135210   1.729   1.715   7.171 -0.6851  0.6890  1.1015
 7859SOL    HW235211   1.616   1.617   7.149  0.4445  2.7536 -1.8005
 7860SOL     OW35212   4.106   1.737   9.388 -0.0635 -0.3001  0.5660
 7860SOL    HW135213   4.058   1.666   9.345  1.9851 -0.0639 -2.1037
 7860SOL    HW235214   4.076   1.724   9.478 -0.6445  0.5476  0.4955
 7861SOL     OW35215   1.449   0.149   3.031 -0.5979 -0.1078  0.2169
 7861SOL    HW135216   1.391   0.075   3.011  0.7188 -1.0170 -0.2932
 7861SOL    HW235217   1.518   0.101   3.077  0.3859  1.1045 -0.0241
 7862SOL     OW35218   0.504   0.719   8.311 -0.6905 -0.2261  0.2622
 7862SOL    HW135219   0.491   0.755   8.399  0.2620  2.8808 -0.8861
 7862SOL    HW235220   0.412   0.718   8.283 -1.0938 -3.5843  1.6975
 7863SOL     OW35221   3.519   1.922   4.974 -0.2164 -0.3578  0.5635
 7863SOL    HW135222   3.426   1.901   4.966 -0.3670  0.6766 -0.3261
 7863SOL    HW235223   3.534   1.934   4.880  1.0470 -1.7238  0.5930
 7864SOL     OW35224   3.191   4.463  17.609 -0.3037  0.2214  0.3516
 7864SOL    HW135225   3.235   4.482  17.692  0.8314 -0.3012 -0.1283
 7864SOL    HW235226   3.248   4.408  17.554 -0.3987  1.4339 -0.9712
 7865SOL     OW35227   4.056   2.259  13.577  0.1487 -0.0146  0.5687
 7865SOL    HW135228   4.142   2.233  13.610  1.7514  3.3032 -0.9524
 7865SOL    HW235229   4.011   2.175  13.581  1.0851 -0.5966 -1.2145
 7866SOL     OW35230   1.412   3.214   7.751 -0.2869 -0.3845 -0.3575
 7866SOL    HW135231   1.408   3.274   7.677  0.4997  0.7157  0.4832
 7866SOL    HW235232   1.410   3.280   7.821  0.0472 -0.9371  0.1709
 7867SOL     OW35233   4.218   0.965  17.119 -0.0564 -0.3789  0.0401
 7867SOL    HW135234   4.249   0.922  17.199  2.5937 -0.1820 -0.8954
 7867SOL    HW235235   4.182   0.883  17.085 -0.9580 -0.5117  1.2905
 7868SOL     OW35236   2.955   0.326   4.968 -0.4071  0.1892  0.1617
 7868SOL    HW135237   2.948   0.238   4.933  0.4465  0.1551  0.0827
 7868SOL    HW235238   3.005   0.373   4.902  3.0345  0.0367  2.6745
 7869SOL     OW35239   4.498   0.516   2.749 -0.1289  0.1761  0.3034
 7869SOL    HW135240   4.575   0.496   2.696  0.5633  1.3316  0.8692
 7869SOL    HW235241   4.523   0.608   2.761 -0.8835  0.5598 -1.0323
 7870SOL     OW35242   2.968   4.684  14.073 -0.1058 -0.1898  0.1599
 7870SOL    HW135243   2.961   4.694  14.168  1.8056 -0.3567  0.3275
 7870SOL    HW235244   3.046   4.629  14.065 -3.3470 -5.1691  2.4756
 7871SOL     OW35245   3.584   1.876   0.744  0.4062 -0.4701 -0.8154
 7871SOL    HW135246   3.654   1.938   0.722  0.8814 -0.2803  1.2593
 7871SOL    HW235247   3.524   1.873   0.669 -1.5139 -0.2064  0.7061
 7872SOL     OW35248   1.154   2.321   1.664 -0.2249  0.3995  0.4610
 7872SOL    HW135249   1.179   2.347   1.752 -0.5862  0.2840  0.5998
 7872SOL    HW235250   1.228   2.263   1.646  0.6811  2.0138 -1.0682
 7873SOL     OW35251   3.403   0.431   2.717 -0.0406 -0.3838 -0.4063
 7873SOL    HW135252   3.350   0.373   2.662  2.7773 -1.2811 -2.2174
 7873SOL    HW235253   3.329   0.491   2.723  1.2370  0.8717  2.5964
 7874SOL     OW35254   3.291   3.905   3.168 -0.3053 -0.0411  0.4423
 7874SOL    HW135255   3.212   3.871   3.210  0.1661 -1.2978  0.2830
 7874SOL    HW235256   3.354   3.834   3.175  0.0189  0.0546 -1.4827
 7875SOL     OW35257   4.489   0.261  10.238  0.1348 -0.2348  0.2222
 7875SOL    HW135258   4.455   0.303  10.317 -0.7983  1.1206 -0.8998
 7875SOL    HW235259   4.558   0.207  10.277 -2.4954 -1.2358  3.5164
 7876SOL     OW35260   0.491   0.015   3.119 -0.7623 -0.1384  0.3891
 7876SOL    HW135261   0.472   0.092   3.172 -1.9575  1.0735 -1.7811
 7876SOL    HW235262   0.532   4.696   3.185  0.9028  1.1577  0.4258
 7877SOL     OW35263   0.304   4.301   5.869  0.1308 -0.0989 -0.1529
 7877SOL    HW135264   0.261   4.380   5.902  0.7432  0.5188 -0.8292
 7877SOL    HW235265   0.376   4.345   5.823  1.4605  0.3958  2.3899
 7878SOL     OW35266   0.509   2.262   4.968 -0.0065 -0.4705 -0.5467
 7878SOL    HW135267   0.493   2.188   4.910  0.3865 -2.2101  1.5588
 7878SOL    HW235268   0.497   2.328   4.900  0.5845 -0.5747 -0.7553
 7879SOL     OW35269   3.082   0.362   0.546 -0.3844  0.4387  0.5115
 7879SOL    HW135270   2.988   0.380   0.540 -1.0422 -2.8371  0.8837
 7879SOL    HW235271   3.092   0.272   0.579  2.1585  0.9929  1.2726
 7880SOL     OW35272   4.301   4.304   4.108 -0.2137  0.0680 -0.7121
 7880SOL    HW135273   4.241   4.315   4.181 -0.1051  0.5843 -0.6983
 7880SOL    HW235274   4.360   4.242   4.151 -0.2805 -0.4988 -1.4227
 7881SOL     OW35275   0.531   3.000   0.994  0.0124 -0.8772 -0.4169
 7881SOL    HW135276   0.447   2.956   1.009  0.0355 -1.1177 -0.9912
 7881SOL    HW235277   0.524   3.069   1.060  0.8012  1.1129 -2.4068
 7882SOL     OW35278   3.470   1.217   8.822 -0.3137  0.6866 -0.0741
 7882SOL    HW135279   3.429   1.290   8.776  1.2226  2.2529  1.0341
 7882SOL    HW235280   3.387   1.174   8.844 -0.8104  2.2533  1.1271
 7883SOL     OW35281   4.440   2.857   4.553  0.3299  0.3278 -0.1931
 7883SOL    HW135282   4.364   2.825   4.504  0.6398 -1.7383  0.6586
 7883SOL    HW235283   4.490   2.903   4.486 -1.3918  3.1513  0.4886
 7884SOL     OW35284   0.978   1.544   5.589 -0.1387  0.1851 -0.0599
 7884SOL    HW135285   0.978   1.624   5.643  0.2338  0.2848 -0.2092
 7884SOL    HW235286   1.006   1.581   5.505 -1.0844 -1.5852 -1.1630
 7885SOL     OW35287   2.620   2.365   8.059  0.1170 -0.4759  0.6546
 7885SOL    HW135288   2.552   2.389   8.122 -1.6177 -2.2502 -0.5373
 7885SOL    HW235289   2.608   2.270   8.054  2.0585 -0.7671  1.7451
 7886SOL     OW35290   1.073   0.250   2.898 -0.2349 -0.5184 -0.0262
 7886SOL    HW135291   0.982   0.223   2.889 -0.1183 -0.9264  0.0176
 7886SOL    HW235292   1.126   0.187   2.850 -0.3587  0.3473 -1.3026
 7887SOL     OW35293   0.177   4.679   7.287 -0.5340 -0.5639 -0.0606
 7887SOL    HW135294   0.270   4.668   7.308 -0.3895 -0.3485 -0.5894
 7887SOL    HW235295   0.161   4.588   7.309 -2.2423 -0.5766 -1.3880
 7888SOL     OW35296   3.026   1.004  12.705  0.2268  0.3043  0.3393
 7888SOL    HW135297   3.026   0.941  12.777  1.3921  0.3624  0.3952
 7888SOL    HW235298   2.993   0.952  12.631 -0.5144  1.6947 -0.3107
 7889SOL     OW35299   4.233   0.001   9.306  0.3654  0.1642  0.5510
 7889SOL    HW135300   4.141   0.028   9.304  0.5027  0.4859 -1.3183
 7889SOL    HW235301   4.228   4.644   9.328  1.0813 -0.0318 -0.0894
 7890SOL     OW35302   1.147   1.569   2.922  0.4885 -0.1059  0.7826
 7890SOL    HW135303   1.191   1.493   2.960 -1.0636 -0.7458  1.3057
 7890SOL    HW235304   1.151   1.551   2.828 -2.2142 -0.8960  0.8070
 7891SOL     OW35305   3.677   3.268   5.775 -0.4167 -0.3024 -0.6760
 7891SOL    HW135306   3.710   3.246   5.687  0.0914  0.0898 -0.5827
 7891SOL    HW235307   3.749   3.329   5.788 -0.2085 -0.3915 -1.4184
 7892SOL     OW35308   0.907   1.634   5.091  0.2209 -0.0776 -0.2277
 7892SOL    HW135309   0.978   1.573   5.073 -0.0343 -0.5736  0.4360
 7892SOL    HW235310   0.909   1.679   5.007  1.0528 -2.1929 -1.3352
 7893SOL     OW35311   0.419   3.313  11.854  0.4470  0.0920 -0.1920
 7893SOL    HW135312   0.465   3.229  11.852  2.2764  1.1388 -2.5199
 7893SOL    HW235313   0.442   3.359  11.773 -2.3198  1.7967 -0.0046
 7894SOL     OW35314   4.160   0.698   9.309  0.0525 -0.5033  0.1497
 7894SOL    HW135315   4.114   0.625   9.351 -0.5704 -0.2973 -0.1781
 7894SOL    HW235316   4.234   0.654   9.266  0.9201  1.7618 -0.6831
 7895SOL     OW35317   1.421   3.197   3.323 -0.2270 -0.2490  0.0808
 7895SOL    HW135318   1.507   3.199   3.282 -0.3787 -2.0685 -0.3136
 7895SOL    HW235319   1.451   3.204   3.413 -0.4740 -0.7204  0.1988
 7896SOL     OW35320   1.914   4.300  15.985 -0.4964  0.1212 -0.2200
 7896SOL    HW135321   1.931   4.370  16.048 -0.0741 -0.1173 -0.0718
 7896SOL    HW235322   1.968   4.336  15.914  2.8189  0.9566  2.7298
 7897SOL     OW35323   2.289   0.071   6.633 -0.2375  0.2292 -0.2071
 7897SOL    HW135324   2.292   0.122   6.553 -0.7111  0.5569 -0.0121
 7897SOL    HW235325   2.303   4.717   6.601 -0.0444  0.1039  0.2230
 7898SOL     OW35326   0.657   0.068  17.526 -0.1510  0.4763  0.2407
 7898SOL    HW135327   0.649   0.014  17.605  0.6689 -0.2918 -0.1969
 7898SOL    HW235328   0.748   0.096  17.536  0.5217 -2.1531  1.6854
 7899SOL     OW35329   2.959   0.488   4.575 -0.0772  0.0159  0.3203
 7899SOL    HW135330   2.908   0.523   4.648 -3.1799 -1.3238 -1.2082
 7899SOL    HW235331   3.015   0.430   4.627 -0.8088 -0.5855  0.4330
 7900SOL     OW35332   2.525   3.850   1.663  0.4985  0.3021  0.1568
 7900SOL    HW135333   2.612   3.879   1.635  0.4226  0.2278 -0.1573
 7900SOL    HW235334   2.526   3.757   1.636 -0.8421  0.9938 -2.3040
 7901SOL     OW35335   3.334   3.306   5.556  0.3300 -0.0483  0.5049
 7901SOL    HW135336   3.386   3.365   5.502 -0.2865  0.9706  1.0231
 7901SOL    HW235337   3.245   3.336   5.541  0.1482 -0.9544 -0.1843
 7902SOL     OW35338   2.090   0.582   4.572  0.2666 -0.1063  0.2857
 7902SOL    HW135339   2.037   0.647   4.619  0.6785  2.1883 -2.4487
 7902SOL    HW235340   2.168   0.588   4.626 -0.0778 -4.4073  1.2096
 7903SOL     OW35341   1.861   2.474  12.211 -0.4531 -0.0893  0.4268
 7903SOL    HW135342   1.937   2.454  12.266  0.4638  0.1924 -0.7354
 7903SOL    HW235343   1.796   2.468  12.281 -0.0914 -0.1989  0.7503
 7904SOL     OW35344   3.790   0.627   2.117  0.5006  0.0465 -0.6911
 7904SOL    HW135345   3.705   0.583   2.117  0.8241 -0.5807 -0.5461
 7904SOL    HW235346   3.774   0.680   2.039  0.3892  2.3307  0.8931
 7905SOL     OW35347   0.096   1.398   9.164 -0.0180 -0.3141 -0.1033
 7905SOL    HW135348   0.017   1.417   9.214  0.2606  0.9579 -0.1574
 7905SOL    HW235349   0.148   1.460   9.214 -0.0802 -1.2934  1.1741
 7906SOL     OW35350   1.268   2.573   5.091  0.2716  0.0686  0.4522
 7906SOL    HW135351   1.257   2.580   5.185  0.8071 -1.7297  0.6460
 7906SOL    HW235352   1.210   2.644   5.064  0.5163 -0.3213 -1.1075
 7907SOL     OW35353   2.393   3.464   6.508  0.2038  0.0484  0.1848
 7907SOL    HW135354   2.353   3.494   6.590  1.2882 -1.2303  1.1884
 7907SOL    HW235355   2.433   3.545   6.478  0.0582  0.9501  2.4465
 7908SOL     OW35356   1.471   2.364   5.882  0.4933 -0.4482 -0.2996
 7908SOL    HW135357   1.557   2.352   5.922  0.0376  1.1240  1.1686
 7908SOL    HW235358   1.443   2.272   5.883  1.2475 -0.6633  1.4735
 7909SOL     OW35359   3.952   4.379   1.514  0.2856 -0.0153  0.1907
 7909SOL    HW135360   3.979   4.469   1.496 -1.8522  0.6854  0.4515
 7909SOL    HW235361   4.020   4.346   1.572  0.2019  1.1088  0.9420
 7910SOL     OW35362   0.310   2.652  11.966 -0.4530  0.0386  0.4313
 7910SOL    HW135363   0.302   2.705  12.045  1.4884 -0.8536  1.2212
 7910SOL    HW235364   0.253   2.575  11.976  1.7130 -1.7048 -0.6577
 7911SOL     OW35365   4.180   0.682   6.666 -0.4523  0.0244  0.2977
 7911SOL    HW135366   4.135   0.726   6.738 -1.5718  0.7590 -0.8545
 7911SOL    HW235367   4.142   0.732   6.594 -2.0723  1.0704  1.9034
 7912SOL     OW35368   1.617   3.988   7.090  0.7925 -0.2046  0.2004
 7912SOL    HW135369   1.617   3.921   7.022 -0.0073 -0.1049  0.1055
 7912SOL    HW235370   1.702   3.976   7.134  2.1177 -0.1458 -2.3837
 7913SOL     OW35371   1.318   0.055   8.482 -0.0732  0.3109 -0.1303
 7913SOL    HW135372   1.345   0.116   8.413  1.0042  0.9697  0.8579
 7913SOL    HW235373   1.223   0.052   8.476 -0.1062 -2.1681  1.7463
 7914SOL     OW35374   3.875   2.598   6.747 -0.6420  0.0854 -0.0948
 7914SOL    HW135375   3.969   2.592   6.729 -0.4030  0.0044  1.1608
 7914SOL    HW235376   3.856   2.506   6.765  0.3530 -0.2000 -0.4773
 7915SOL     OW35377   0.922   2.918   0.564 -0.7954 -0.5686  0.0341
 7915SOL    HW135378   0.938   3.004   0.526 -0.8305 -0.7223 -0.3259
 7915SOL    HW235379   0.848   2.933   0.622 -2.1074  0.6367 -1.9685
 7916SOL     OW35380   3.288   0.738  13.902  0.4671  0.0408  0.3669
 7916SOL    HW135381   3.254   0.649  13.908 -1.5637  0.7010 -1.8146
 7916SOL    HW235382   3.259   0.772  13.818 -2.3883 -1.4740  0.7495
 7917SOL     OW35383   3.449   1.085   0.091  0.1375  0.4552 -0.4953
 7917SOL    HW135384   3.357   1.112   0.081  0.4722  1.3659 -1.1602
 7917SOL    HW235385   3.485   1.144   0.024  1.4644  0.3726  0.1522
 7918SOL     OW35386   0.052   0.708  16.549 -0.2201 -0.3706 -0.8798
 7918SOL    HW135387   0.111   0.714  16.624 -3.0066  1.3628  1.1730
 7918SOL    HW235388   0.038   0.613  16.558  0.7262 -0.4772 -0.5990
 7919SOL     OW35389   0.902   2.115   8.654 -0.0321  0.2892  0.9402
 7919SOL    HW135390   0.871   2.056   8.723  0.1610 -2.2183 -1.1394
 7919SOL    HW235391   0.821   2.127   8.605  0.5545 -1.6042 -0.5008
 7920SOL     OW35392   2.095   1.922   1.051  0.4498  1.0173  0.0214
 7920SOL    HW135393   2.028   1.935   1.119 -0.0321 -1.9954  0.1286
 7920SOL    HW235394   2.056   1.953   0.970  0.4974  0.5086 -0.1954
 7921SOL     OW35395   4.253   0.540   2.643  0.2191 -0.0274  0.3758
 7921SOL    HW135396   4.301   0.610   2.600 -0.4955 -0.8792 -1.7942
 7921SOL    HW235397   4.332   0.497   2.679  0.8660  0.8063 -0.0553
 7922SOL     OW35398   3.401   3.697   9.985  0.0455 -0.3277  0.7171
 7922SOL    HW135399   3.317   3.741  10.001 -0.2190 -0.6650  0.2502
 7922SOL    HW235400   3.402   3.719   9.892  0.9088 -3.8795 -0.1226
 7923SOL     OW35401   0.544   2.889   7.472  0.0012  0.3604  0.1996
 7923SOL    HW135402   0.605   2.875   7.545  1.0234  0.3298 -0.6457
 7923SOL    HW235403   0.609   2.916   7.406  0.9134 -1.7933  0.2235
 7924SOL     OW35404   2.984   3.754   3.020  0.6161 -0.3324 -0.1538
 7924SOL    HW135405   2.989   3.811   3.096 -2.3453 -1.0326  0.5766
 7924SOL    HW235406   2.994   3.812   2.944  0.2247 -0.8686 -0.6206
 7925SOL     OW35407   1.981   0.445   1.033  0.1467  0.2963  0.2222
 7925SOL    HW135408   2.065   0.417   0.997 -1.0713  1.3051 -3.5149
 7925SOL    HW235409   1.970   0.527   0.984 -0.9860  0.4607  0.7527
 7926SOL     OW35410   2.794   2.236   2.753 -0.1024 -0.1694 -0.3141
 7926SOL    HW135411   2.797   2.146   2.784  1.0160  0.0407  0.1936
 7926SOL    HW235412   2.702   2.257   2.768 -0.5538 -1.5469 -1.1855
 7927SOL     OW35413   1.511   2.888   5.333  0.2424  0.6007 -0.2817
 7927SOL    HW135414   1.482   2.888   5.242  1.1676  0.5956 -0.5773
 7927SOL    HW235415   1.577   2.957   5.328  1.2316 -0.1959  1.7597
 7928SOL     OW35416   1.096   3.001  15.547  0.6429  0.4431  0.1382
 7928SOL    HW135417   1.046   2.994  15.628  2.1130  0.6990  1.0647
 7928SOL    HW235418   1.066   2.925  15.497 -0.5528  0.1450  1.2994
 7929SOL     OW35419   3.820   3.584   5.314 -0.1081  0.1804  0.4023
 7929SOL    HW135420   3.896   3.566   5.370  0.2758 -0.2967 -0.2744
 7929SOL    HW235421   3.805   3.678   5.322  0.7593  0.2645  1.0385
 7930SOL     OW35422   4.599   0.897   4.944 -0.1901 -0.1608 -0.9139
 7930SOL    HW135423   4.581   0.899   5.038 -1.4303  1.8850 -1.1981
 7930SOL    HW235424   4.511   0.901   4.905 -0.8361 -0.2197  0.5361
 7931SOL     OW35425   2.509   3.005   5.744 -0.4934  0.0467 -0.2877
 7931SOL    HW135426   2.527   3.077   5.684  0.6428  0.1933  0.2452
 7931SOL    HW235427   2.590   3.003   5.794 -0.4128  1.1959 -0.3771
 7932SOL     OW35428   1.657   3.382   6.583  0.2988 -0.8474 -0.0300
 7932SOL    HW135429   1.700   3.429   6.511 -0.9724  2.3410  1.3058
 7932SOL    HW235430   1.600   3.318   6.539 -0.4930  0.1533 -0.4398
 7933SOL     OW35431   3.388   3.014   9.126 -0.4963  0.5221 -0.1334
 7933SOL    HW135432   3.465   2.991   9.178 -2.6469  1.1613  3.3847
 7933SOL    HW235433   3.314   3.009   9.187 -0.3745  3.3655  0.2525
 7934SOL     OW35434   2.204   4.082  17.137 -0.3035  0.1624  0.5498
 7934SOL    HW135435   2.143   4.022  17.180 -0.6618 -0.4766 -0.8521
 7934SOL    HW235436   2.236   4.131  17.213 -0.1829  0.0628  0.5623
 7935SOL     OW35437   3.027   0.265  11.052  0.1431  0.2851 -0.1181
 7935SOL    HW135438   3.113   0.224  11.061 -0.2120 -0.2601  0.7315
 7935SOL    HW235439   2.973   0.186  11.062  0.0381  0.4862  0.8721
 7936SOL     OW35440   0.085   0.554  10.130  0.1232  0.2340  0.7187
 7936SOL    HW135441   0.093   0.641  10.170  0.7303  1.0280 -1.0971
 7936SOL    HW235442   0.089   0.496  10.205  0.7720 -0.0521  0.4604
 7937SOL     OW35443   1.276   0.888  16.834 -0.0053 -0.5535 -0.2755
 7937SOL    HW135444   1.357   0.907  16.881 -0.3841  3.1796 -1.0583
 7937SOL    HW235445   1.316   0.882  16.747  0.3713 -1.9598  0.0094
 7938SOL     OW35446   3.027   1.666   8.888  0.3427  0.4401 -0.3820
 7938SOL    HW135447   2.976   1.657   8.808  0.9101 -2.2651 -0.4355
 7938SOL    HW235448   3.064   1.753   8.878 -0.4409  1.1522  2.9312
 7939SOL     OW35449   1.043   0.323   9.599 -0.0046  0.1450  0.0904
 7939SOL    HW135450   0.987   0.247   9.613  0.7523 -0.3120  0.5696
 7939SOL    HW235451   1.129   0.281   9.601  0.5540  1.2301 -1.5625
 7940SOL     OW35452   1.639   2.338   8.349 -0.1502  0.1761 -0.4661
 7940SOL    HW135453   1.659   2.412   8.407 -0.6219  0.0739 -0.1701
 7940SOL    HW235454   1.559   2.369   8.306 -1.0318 -0.3692  0.7757
 7941SOL     OW35455   4.422   4.423   2.628 -0.6582  0.7010 -0.2351
 7941SOL    HW135456   4.407   4.504   2.579 -0.5149  0.2208 -1.0717
 7941SOL    HW235457   4.359   4.455   2.692 -0.0041 -0.5973  1.0412
 7942SOL     OW35458   3.617   0.652   7.888  0.0380 -0.4766 -0.3380
 7942SOL    HW135459   3.698   0.698   7.868 -0.5641 -0.1233 -1.9334
 7942SOL    HW235460   3.586   0.628   7.801 -2.5113 -0.9907  0.6980
 7943SOL     OW35461   0.992   2.933   6.663 -0.3724 -0.0064 -0.2633
 7943SOL    HW135462   0.941   2.866   6.617 -1.5275 -1.1441  2.7146
 7943SOL    HW235463   1.031   2.977   6.588 -0.5122  3.0075  1.4445
 7944SOL     OW35464   1.239   1.666   6.643 -0.0795 -0.3528 -0.6471
 7944SOL    HW135465   1.330   1.687   6.623 -0.0730 -0.5405 -0.8159
 7944SOL    HW235466   1.209   1.747   6.600  3.3101  1.6203  0.7068
 7945SOL     OW35467   2.894   3.621  17.537 -0.2578 -0.1036  0.0192
 7945SOL    HW135468   2.901   3.678  17.614 -2.0200  0.5950 -0.3430
 7945SOL    HW235469   2.799   3.631  17.530 -0.3985 -0.4112  1.4638
 7946SOL     OW35470   2.491   3.308   7.884  0.1573 -0.3939 -0.7671
 7946SOL    HW135471   2.406   3.351   7.877  0.0552 -0.5287 -0.3672
 7946SOL    HW235472   2.465   3.232   7.936  0.3636 -0.2353 -0.4333
 7947SOL     OW35473   0.018   2.750   6.949 -0.3183 -0.3926 -0.4231
 7947SOL    HW135474   4.666   2.728   6.978 -0.4296 -1.0557 -1.2635
 7947SOL    HW235475   0.026   2.721   6.858  0.3495  3.9460 -1.7549
 7948SOL     OW35476   0.479   2.104   5.860 -0.6521  0.1341  0.7116
 7948SOL    HW135477   0.460   2.046   5.786  1.4065  0.2904  0.0356
 7948SOL    HW235478   0.395   2.080   5.897 -0.2655 -0.6476  1.0844
 7949SOL     OW35479   4.349   2.492   2.491  0.6787 -0.7598 -0.2958
 7949SOL    HW135480   4.412   2.519   2.558  0.6227 -0.5264 -0.3363
 7949SOL    HW235481   4.369   2.399   2.487  1.3925 -0.6303  0.3590
 7950SOL     OW35482   0.662   2.764   2.022 -0.4025  0.4069 -0.0624
 7950SOL    HW135483   0.600   2.833   2.048 -0.4448 -0.2007  1.4577
 7950SOL    HW235484   0.638   2.748   1.931 -1.0638 -0.7644  0.3153
 7951SOL     OW35485   0.278   3.548   5.205  0.0841  0.0467  0.5884
 7951SOL    HW135486   0.255   3.546   5.112 -0.4586  0.3944  0.7122
 7951SOL    HW235487   0.309   3.458   5.212 -0.5917 -0.1422  1.1574
 7952SOL     OW35488   1.248   3.072   5.852 -0.1027 -0.3069  0.1669
 7952SOL    HW135489   1.288   2.997   5.896  0.3490  0.7550  1.5509
 7952SOL    HW235490   1.324   3.103   5.803  0.6824  0.4511  1.8539
 7953SOL     OW35491   3.131   4.546   2.720 -0.5871 -0.4412 -0.3675
 7953SOL    HW135492   3.122   4.488   2.645 -3.5878 -0.2465 -0.1312
 7953SOL    HW235493   3.046   4.539   2.762 -0.2535  3.1837  0.9652
 7954SOL     OW35494   3.982   4.075  13.883  0.0385 -0.0719 -0.0327
 7954SOL    HW135495   4.050   4.063  13.949 -1.2199 -1.4936  1.0017
 7954SOL    HW235496   3.929   4.146  13.920  0.2108 -0.5039  1.0438
 7955SOL     OW35497   3.957   3.837   5.938 -0.0194 -0.0717  0.2326
 7955SOL    HW135498   4.020   3.860   5.869 -2.5556 -0.7454 -2.3023
 7955SOL    HW235499   3.898   3.782   5.886  1.0842 -1.8152  0.8071
 7956SOL     OW35500   1.687   2.038   5.809  0.7103 -0.0066 -0.2078
 7956SOL    HW135501   1.757   1.973   5.815  1.4165  0.9372  1.5998
 7956SOL    HW235502   1.702   2.089   5.889  2.8229 -0.5001 -0.2954
 7957SOL     OW35503   1.095   3.595  17.288 -0.8294 -0.3324  0.5979
 7957SOL    HW135504   1.053   3.673  17.325 -2.2059 -0.1069 -1.4671
 7957SOL    HW235505   1.031   3.524  17.285 -1.4986  0.3753 -1.9536
 7958SOL     OW35506   3.685   4.006  15.582 -0.0168 -0.0292 -0.0591
 7958SOL    HW135507   3.650   3.983  15.496  0.6740 -0.2973 -0.2734
 7958SOL    HW235508   3.626   4.075  15.613 -1.3836 -0.9838 -0.5618
 7959SOL     OW35509   1.086   1.692   9.933 -0.2145 -0.1211  0.6486
 7959SOL    HW135510   1.058   1.659  10.018  0.3572 -0.1642  0.8195
 7959SOL    HW235511   1.155   1.627   9.919 -0.7391 -0.4252 -0.5694
 7960SOL     OW35512   2.879   4.602   7.171  0.0268  0.1797  0.2018
 7960SOL    HW135513   2.950   4.640   7.221  0.3589  0.0851 -0.1942
 7960SOL    HW235514   2.866   4.510   7.193 -1.2557  0.0005 -1.2450
 7961SOL     OW35515   4.326   3.086   7.995 -0.0627  0.1847 -0.1799
 7961SOL    HW135516   4.373   3.017   7.949  1.2768  1.0328 -0.0885
 7961SOL    HW235517   4.401   3.132   8.033  0.3941  0.9894 -2.0275
 7962SOL     OW35518   0.046   1.464   6.461  0.4016  0.5367 -0.9920
 7962SOL    HW135519   0.055   1.387   6.517 -1.5605  1.1680  0.1728
 7962SOL    HW235520   0.096   1.432   6.386 -0.0388 -0.0464 -1.0377
 7963SOL     OW35521   2.843   2.581   3.357  0.1621  0.6124 -0.5401
 7963SOL    HW135522   2.785   2.619   3.422 -1.0409 -3.7131  0.8807
 7963SOL    HW235523   2.783   2.525   3.309  0.3929  1.4688 -1.8521
 7964SOL     OW35524   1.175   0.754   7.502  0.0768 -0.1685 -0.1063
 7964SOL    HW135525   1.105   0.782   7.562  0.1560 -1.0488  0.3996
 7964SOL    HW235526   1.196   0.836   7.458  0.0551 -0.6749 -1.0741
 7965SOL     OW35527   2.912   1.051   0.557 -0.0122  0.4479 -0.4806
 7965SOL    HW135528   2.924   1.119   0.623  0.1923  0.8117 -0.8912
 7965SOL    HW235529   2.837   1.005   0.594  1.9993 -1.5549  1.1350
 7966SOL     OW35530   3.428   0.059   5.816 -0.6792  0.7016 -0.2299
 7966SOL    HW135531   3.433   4.718   5.873  0.2063 -0.9991 -2.6331
 7966SOL    HW235532   3.446   0.139   5.866 -2.4113  1.6898 -1.2073
 7967SOL     OW35533   4.665   3.536   1.706 -0.2400  0.2831  0.4941
 7967SOL    HW135534   4.689   3.515   1.797  1.5427  1.7388  0.3567
 7967SOL    HW235535   4.691   3.457   1.660  0.2400  1.3067 -0.9887
 7968SOL     OW35536   0.075   3.516   8.372  0.1889 -0.2909  0.0453
 7968SOL    HW135537   0.031   3.601   8.361 -0.2032 -0.6447 -1.1379
 7968SOL    HW235538   4.734   3.468   8.401  0.0236  1.2320  2.1926
 7969SOL     OW35539   1.720   3.698   3.552 -0.0895 -0.1354  0.2613
 7969SOL    HW135540   1.783   3.727   3.618 -0.9772  1.0326  0.6035
 7969SOL    HW235541   1.772   3.694   3.472 -1.4770  2.0215 -0.7664
 7970SOL     OW35542   3.825   4.228   3.112  0.4688 -0.0581 -0.5942
 7970SOL    HW135543   3.773   4.308   3.119 -0.4704 -0.8254  1.2673
 7970SOL    HW235544   3.897   4.248   3.052 -0.1042  0.3995 -1.1285
 7971SOL     OW35545   4.368   0.543   7.288 -0.4584 -0.1946  0.1086
 7971SOL    HW135546   4.302   0.481   7.260 -0.0810 -1.2201  1.4975
 7971SOL    HW235547   4.320   0.622   7.312  2.9968  1.8172  0.4780
 7972SOL     OW35548   0.958   3.469  11.592 -0.4302 -0.5551 -0.3246
 7972SOL    HW135549   0.946   3.380  11.559  0.1484 -0.1100 -1.7338
 7972SOL    HW235550   0.878   3.494  11.638  1.0142  1.1813  1.2318
 7973SOL     OW35551   0.175   2.484   5.426  0.2988  0.0934 -0.1465
 7973SOL    HW135552   0.116   2.560   5.438 -1.2232 -0.7175 -2.4891
 7973SOL    HW235553   0.264   2.517   5.433 -0.1394  0.7374  2.4633
 7974SOL     OW35554   2.126   0.048   4.480  0.0076  0.9089  0.0455
 7974SOL    HW135555   2.073   0.073   4.405  0.6823 -4.1020 -2.1040
 7974SOL    HW235556   2.203   0.011   4.437  0.5271 -0.7898  2.4322
 7975SOL     OW35557   4.286   2.099   2.838 -0.0229  0.0051  0.5349
 7975SOL    HW135558   4.372   2.091   2.797 -0.8083 -2.5986 -0.6293
 7975SOL    HW235559   4.227   2.065   2.770 -1.6933  2.1635  0.9088
 7976SOL     OW35560   0.194   0.378  10.328 -0.3654  0.5205 -0.1811
 7976SOL    HW135561   0.166   0.327  10.404 -0.7630  0.7878 -0.1531
 7976SOL    HW235562   0.220   0.459  10.372  1.7021  0.7619 -1.8274
 7977SOL     OW35563   3.135   2.872  13.050  0.4315  0.2727 -0.2933
 7977SOL    HW135564   3.162   2.917  12.970 -0.8076  0.7160 -0.4679
 7977SOL    HW235565   3.112   2.953  13.096  0.3965  0.6199 -0.9243
 7978SOL     OW35566   3.813   0.448   7.828  0.0299 -0.1269  0.5990
 7978SOL    HW135567   3.732   0.411   7.862 -0.2271 -0.4110 -0.3198
 7978SOL    HW235568   3.775   0.504   7.761  1.7120 -0.8897 -1.0033
 7979SOL     OW35569   3.833   4.453   5.926 -0.0145 -0.1875  0.2977
 7979SOL    HW135570   3.862   4.544   5.928 -1.0838  0.1869 -0.9984
 7979SOL    HW235571   3.895   4.406   5.980  2.1290  0.7703 -1.3173
 7980SOL     OW35572   0.949   2.010   8.257 -0.1306 -0.2923 -0.7008
 7980SOL    HW135573   0.911   2.093   8.284 -0.7245 -0.9797  0.5958
 7980SOL    HW235574   1.042   2.034   8.263  0.0199 -0.8496 -0.8394
 7981SOL     OW35575   2.380   4.583   1.572 -0.0730 -0.0908  0.0108
 7981SOL    HW135576   2.364   4.489   1.565  0.3073 -0.0419 -1.4963
 7981SOL    HW235577   2.346   4.609   1.658 -2.7090 -0.2752 -1.0020
 7982SOL     OW35578   2.204   4.687  17.418 -0.1784  0.4616  0.6093
 7982SOL    HW135579   2.287   4.652  17.449  0.5423  1.3108 -0.3359
 7982SOL    HW235580   2.229   4.698  17.326  0.6127 -1.9557  0.5597
 7983SOL     OW35581   0.600   4.112   5.000 -0.4428 -0.0103 -0.7423
 7983SOL    HW135582   0.693   4.089   4.991 -0.1126  1.0670 -0.0081
 7983SOL    HW235583   0.574   4.020   5.011  0.8010 -0.2873 -0.1170
 7984SOL     OW35584   0.339   3.371   5.665 -0.6178 -0.6264 -0.0319
 7984SOL    HW135585   0.403   3.361   5.735 -0.0641  0.1174 -0.4253
 7984SOL    HW235586   0.361   3.290   5.617 -0.1552 -0.7112  0.3232
 7985SOL     OW35587   3.087   3.305   6.257 -0.1191  0.6094 -0.0403
 7985SOL    HW135588   3.167   3.357   6.263  0.8505 -1.1634  2.2531
 7985SOL    HW235589   3.010   3.361   6.250  0.0254  0.5969 -1.9074
 7986SOL     OW35590   3.375   4.408   2.873  0.3291  0.0262  0.2683
 7986SOL    HW135591   3.361   4.367   2.958  0.9006  0.2613  0.4752
 7986SOL    HW235592   3.283   4.429   2.858  0.6472  2.2253  1.3063
 7987SOL     OW35593   1.770   0.338   8.680  0.5961  0.8354  0.5071
 7987SOL    HW135594   1.676   0.355   8.678  0.6206  0.6672 -1.3739
 7987SOL    HW235595   1.807   0.413   8.726 -1.6548  2.1077  0.2078
 7988SOL     OW35596   0.443   2.868   5.867 -0.3189 -0.1701 -0.9641
 7988SOL    HW135597   0.463   2.950   5.822  0.5077 -0.6940 -1.5484
 7988SOL    HW235598   0.395   2.899   5.944  2.0592  0.8012  0.1299
 7989SOL     OW35599   3.767   3.715   2.233 -0.4783 -0.5255  0.9341
 7989SOL    HW135600   3.833   3.655   2.198  1.4095  1.1540  1.5714
 7989SOL    HW235601   3.738   3.751   2.149 -1.1234  0.6384  1.6523
 7990SOL     OW35602   1.919   3.904   9.237  0.6229  0.0448 -0.0233
 7990SOL    HW135603   1.830   3.870   9.235  0.5700  0.2858 -2.3928
 7990SOL    HW235604   1.958   3.876   9.320 -0.5482 -3.0622 -0.5435
 7991SOL     OW35605   2.503   1.670  10.602 -0.2715  0.7048 -0.0935
 7991SOL    HW135606   2.550   1.701  10.524 -0.5550 -0.2020 -0.6228
 7991SOL    HW235607   2.424   1.722  10.591 -1.0652 -0.4594  0.0664
 7992SOL     OW35608   3.416   3.170   8.167  0.3991 -0.2859  0.4975
 7992SOL    HW135609   3.460   3.234   8.112 -1.0734 -0.8596 -1.3374
 7992SOL    HW235610   3.328   3.207   8.168  0.8908  0.8949 -0.1652
 7993SOL     OW35611   3.787   1.461   2.083  0.3182 -0.2250  0.2957
 7993SOL    HW135612   3.730   1.523   2.036 -0.9158 -0.7264  1.1329
 7993SOL    HW235613   3.765   1.486   2.173 -2.4886 -1.0908 -0.1278
 7994SOL     OW35614   3.093   0.692   6.384  0.5035 -1.3564 -0.5447
 7994SOL    HW135615   3.060   0.604   6.368  0.2239 -1.8500  2.6945
 7994SOL    HW235616   3.158   0.653   6.442  2.7601  1.3789 -1.2429
 7995SOL     OW35617   0.045   0.738   6.861 -0.4882 -0.9068 -0.3002
 7995SOL    HW135618   0.117   0.697   6.909  0.0118 -0.0162 -0.2867
 7995SOL    HW235619   0.035   0.820   6.909 -1.3851 -1.8242  1.0663
 7996SOL     OW35620   1.444   1.593   9.691  0.0033 -0.3616 -0.7250
 7996SOL    HW135621   1.415   1.675   9.652  1.2757  0.4398  0.0366
 7996SOL    HW235622   1.539   1.593   9.687  0.0409  2.4561 -0.1257
 7997SOL     OW35623   3.914   1.082   7.862  0.0689 -0.0954 -0.1063
 7997SOL    HW135624   3.936   1.143   7.791  1.3585 -2.9183 -2.1144
 7997SOL    HW235625   4.000   1.051   7.889  2.6693  3.4592 -4.2755
 7998SOL     OW35626   3.196   0.900   0.060  0.2101 -0.1234 -0.6049
 7998SOL    HW135627   3.187   0.995   0.059 -1.1978 -0.2328  0.5070
 7998SOL    HW235628   3.259   0.880  17.734  0.3946 -2.7023  0.3114
 7999SOL     OW35629   3.465   3.195  12.806  0.0070 -0.0040  0.2626
 7999SOL    HW135630   3.529   3.240  12.751 -0.6268  0.0179 -0.4486
 7999SOL    HW235631   3.496   3.205  12.896  1.1777 -1.7065  0.0480
 8000SOL     OW35632   4.729   0.786   8.821  0.2988 -0.3478 -0.1014
 8000SOL    HW135633   0.036   0.869   8.841 -1.7829  1.1220 -1.5760
 8000SOL    HW235634   4.733   0.755   8.911  0.2601  1.7610  0.6372
 8001SOL     OW35635   2.671   2.137   3.538  0.1686  0.0143  0.3504
 8001SOL    HW135636   2.762   2.154   3.565  0.1000 -1.9170  1.8404
 8001SOL    HW235637   2.637   2.110   3.623 -0.1045  1.0647  0.5737
 8002SOL     OW35638   0.460   3.340  13.435  0.3808 -0.3689 -0.1958
 8002SOL    HW135639   0.486   3.257  13.474 -1.0463 -0.2334  1.0443
 8002SOL    HW235640   0.483   3.404  13.503  0.7324 -0.0506 -0.6139
 8003SOL     OW35641   2.518   1.244   2.601  0.4013  0.0982  0.7911
 8003SOL    HW135642   2.439   1.234   2.549 -0.7363  1.3947  2.2648
 8003SOL    HW235643   2.581   1.284   2.541  0.9499 -1.9050  0.0412
 8004SOL     OW35644   4.582   1.317   4.488 -0.3558 -0.9694  0.0960
 8004SOL    HW135645   4.516   1.279   4.546 -2.9604  2.5846 -0.5205
 8004SOL    HW235646   4.535   1.344   4.409 -1.5375  0.0162  1.1327
 8005SOL     OW35647   2.301   1.103   6.796  0.1352  0.7897  0.2960
 8005SOL    HW135648   2.279   1.049   6.872  0.5522  1.8097  1.1524
 8005SOL    HW235649   2.379   1.059   6.763  1.1091  3.0389 -0.4124
 8006SOL     OW35650   2.349   3.036  15.517 -0.3114 -0.4517  0.2997
 8006SOL    HW135651   2.313   3.124  15.504  1.4844  0.1005 -0.9741
 8006SOL    HW235652   2.353   3.032  15.613  1.5724  0.4700  0.2615
 8007SOL     OW35653   3.336   1.620   6.516 -0.0496  0.3228  0.3649
 8007SOL    HW135654   3.426   1.600   6.542 -0.3901 -3.0398 -0.9838
 8007SOL    HW235655   3.278   1.587   6.585 -0.2941  1.4821  0.7094
 8008SOL     OW35656   3.796   2.840   9.191 -0.2484 -0.0012 -0.3449
 8008SOL    HW135657   3.851   2.808   9.263  0.2066  1.0555 -0.2250
 8008SOL    HW235658   3.720   2.782   9.197 -1.0410  1.1316  0.4247
 8009SOL     OW35659   2.709   0.733  14.186 -0.3590  0.2152 -0.3317
 8009SOL    HW135660   2.637   0.796  14.180 -0.7352  0.0410  2.3416
 8009SOL    HW235661   2.765   0.748  14.110 -0.0521  2.3068  0.2942
 8010SOL     OW35662   0.041   4.119  12.720 -0.2039 -0.0273 -0.2130
 8010SOL    HW135663   0.068   4.050  12.780  1.2350  0.8306  0.1330
 8010SOL    HW235664   4.702   4.077  12.678 -0.4797  0.8947 -0.6620
 8011SOL     OW35665   1.348   3.212   4.137  0.1060 -0.0685  0.1871
 8011SOL    HW135666   1.384   3.124   4.132  0.2495  0.0415 -0.8744
 8011SOL    HW235667   1.269   3.205   4.083  0.4968 -0.3148 -0.3579
 8012SOL     OW35668   4.110   0.115  16.035 -0.5905  0.3650  0.0117
 8012SOL    HW135669   4.126   0.196  16.083 -2.0302  0.3010  0.5900
 8012SOL    HW235670   4.032   0.135  15.984  0.7237  1.6392 -1.5312
 8013SOL     OW35671   3.625   2.833   7.809 -0.0518  0.2621 -0.2581
 8013SOL    HW135672   3.657   2.827   7.719  0.6128  0.9342 -0.0619
 8013SOL    HW235673   3.622   2.740   7.835 -1.3699  0.6662  1.0893
 8014SOL     OW35674   2.922   0.143   5.833 -0.2309 -0.8881 -0.0309
 8014SOL    HW135675   2.943   0.089   5.909 -1.7714 -0.8649  0.4246
 8014SOL    HW235676   2.826   0.146   5.829 -0.2978 -0.3927  2.0422
 8015SOL     OW35677   1.443   0.827   6.661 -0.0580 -0.4615 -0.6679
 8015SOL    HW135678   1.407   0.740   6.681  1.2173 -0.3153  2.2104
 8015SOL    HW235679   1.527   0.825   6.706  0.1124  0.6891 -0.9274
 8016SOL     OW35680   1.687   3.847   6.847 -0.6366 -0.6437  0.0550
 8016SOL    HW135681   1.698   3.900   6.768 -2.0404  0.0178  0.2905
 8016SOL    HW235682   1.754   3.781   6.834  0.1731  0.3317 -0.7534
 8017SOL     OW35683   0.653   1.980   1.836  0.3855 -0.6381  0.0026
 8017SOL    HW135684   0.743   2.001   1.863 -0.0840  1.3191  0.0279
 8017SOL    HW235685   0.603   2.017   1.909  0.2407  1.9498 -1.4278
 8018SOL     OW35686   1.291   3.332   6.602  0.5771  0.2208  0.5385
 8018SOL    HW135687   1.370   3.287   6.570 -0.6087  0.5955 -2.9277
 8018SOL    HW235688   1.340   3.402   6.644 -0.3662  1.0959  0.1856
 8019SOL     OW35689   1.005   0.685   6.638  0.0522 -0.5777 -0.3384
 8019SOL    HW135690   0.958   0.615   6.683  0.7487 -0.2060  0.9475
 8019SOL    HW235691   1.075   0.707   6.698 -0.6152  3.5052 -1.0612
 8020SOL     OW35692   1.034   2.736   4.997  0.4019 -0.4819  0.3620
 8020SOL    HW135693   0.942   2.725   5.020  1.3805 -0.3952  4.2249
 8020SOL    HW235694   1.039   2.701   4.908  2.5612  0.1575  0.2299
 8021SOL     OW35695   1.409   1.685  10.822 -0.2119  0.1089  0.5700
 8021SOL    HW135696   1.330   1.700  10.770  0.4244  1.0645 -0.1136
 8021SOL    HW235697   1.424   1.594  10.796  0.7640 -0.1593  2.0801
 8022SOL     OW35698   1.500   1.899  11.414  0.1041 -0.5241  0.4454
 8022SOL    HW135699   1.468   1.883  11.502 -2.4660 -1.5056 -0.6664
 8022SOL    HW235700   1.547   1.817  11.401 -2.2444 -1.6368 -0.9601
 8023SOL     OW35701   3.662   2.329  12.029  0.1269 -0.4902 -0.0694
 8023SOL    HW135702   3.745   2.376  12.029  0.6721 -1.4616  0.4987
 8023SOL    HW235703   3.606   2.404  12.049  1.8349  0.4116  1.3459
 8024SOL     OW35704   4.377   1.189   3.077  0.2081  0.1183  0.3467
 8024SOL    HW135705   4.394   1.207   3.170  2.5202 -0.6842  0.0732
 8024SOL    HW235706   4.446   1.124   3.065 -0.8285 -0.2758 -3.4002
 8025SOL     OW35707   1.368   1.179   5.807 -0.7533 -0.3327  0.2020
 8025SOL    HW135708   1.462   1.161   5.809 -1.0724 -2.3745 -2.5297
 8025SOL    HW235709   1.332   1.159   5.720  0.5707  0.5380 -0.5501
 8026SOL     OW35710   1.366   2.460   7.503  0.2710  0.1445  0.1678
 8026SOL    HW135711   1.444   2.417   7.470  1.4204  3.1355 -1.0366
 8026SOL    HW235712   1.393   2.551   7.488  0.3869  0.1746  0.5714
 8027SOL     OW35713   1.297   4.120   4.061  1.1757  0.1269  0.3331
 8027SOL    HW135714   1.261   4.122   3.973  1.0780  2.3600  0.4206
 8027SOL    HW235715   1.293   4.215   4.074 -1.1547  0.1607 -0.6765
 8028SOL     OW35716   1.735   1.364   6.428  0.7545  0.8418  0.2976
 8028SOL    HW135717   1.731   1.270   6.445  0.6163  0.9396  0.7887
 8028SOL    HW235718   1.826   1.389   6.441  0.3753  2.5859 -0.3053
 8029SOL     OW35719   1.769   4.571  10.063 -0.4029  0.2116 -0.2423
 8029SOL    HW135720   1.680   4.604  10.056 -1.3294 -2.1566  0.3554
 8029SOL    HW235721   1.760   4.487  10.107  0.7808  1.2782  2.0552
 8030SOL     OW35722   2.039   1.722  15.130 -0.8005 -0.1405  0.0561
 8030SOL    HW135723   1.953   1.763  15.143 -0.6146 -0.6024  2.8090
 8030SOL    HW235724   2.049   1.728  15.035 -1.8716  3.3386  0.1485
 8031SOL     OW35725   1.221   4.399  16.001  0.8362 -0.3588  0.0383
 8031SOL    HW135726   1.251   4.408  16.092  1.2512  2.0432 -0.3553
 8031SOL    HW235727   1.215   4.493  15.985 -0.2160 -0.2497  1.0275
 8032SOL     OW35728   2.200   3.227   5.652  0.1342  0.1318 -0.2964
 8032SOL    HW135729   2.163   3.305   5.694 -1.6532 -0.8684 -0.0296
 8032SOL    HW235730   2.239   3.193   5.732 -0.9463  0.2787  0.2872
 8033SOL     OW35731   2.804   3.271  12.942 -0.0369  0.0057 -0.5410
 8033SOL    HW135732   2.797   3.202  13.008 -2.2699  0.2701 -0.5165
 8033SOL    HW235733   2.800   3.222  12.859  0.4925 -1.0214  0.0462
 8034SOL     OW35734   4.695   0.144   5.777  0.1123  0.2101  0.1421
 8034SOL    HW135735   4.628   0.117   5.840 -0.2421  1.4639  0.3029
 8034SOL    HW235736   0.019   0.070   5.769  2.7995  2.1855  2.1955
 8035SOL     OW35737   2.868   3.508   6.274  0.1265  0.2746  0.1150
 8035SOL    HW135738   2.811   3.531   6.348  1.6428 -3.5792  2.4687
 8035SOL    HW235739   2.909   3.592   6.255 -2.0955  1.1828 -0.5987
 8036SOL     OW35740   0.576   1.759   7.437  0.5288  0.3913  0.1779
 8036SOL    HW135741   0.642   1.787   7.500 -1.4266 -0.0601  2.4278
 8036SOL    HW235742   0.519   1.713   7.499  1.3119  0.4024  0.8977
 8037SOL     OW35743   4.151   3.595   7.821 -0.2129  0.5498  0.4135
 8037SOL    HW135744   4.246   3.605   7.822 -0.2473  0.7319  1.8538
 8037SOL    HW235745   4.136   3.527   7.756 -0.8282 -0.2807  1.4173
 8038SOL     OW35746   1.147   4.002  14.258 -0.0677  0.6145 -0.1479
 8038SOL    HW135747   1.137   3.928  14.317 -0.9713 -1.1901 -2.5480
 8038SOL    HW235748   1.149   3.951  14.177 -3.2187 -0.1636  0.2510
 8039SOL     OW35749   4.596   1.162   1.742 -0.1695 -0.4555  0.2537
 8039SOL    HW135750   4.601   1.237   1.801  0.2242  1.0113 -1.6396
 8039SOL    HW235751   4.677   1.116   1.763 -0.2472  0.4530  2.5180
 8040SOL     OW35752   0.228   4.142   6.859 -0.3807  0.3918  0.0430
 8040SOL    HW135753   0.228   4.075   6.928  1.4292  1.4628  1.0941
 8040SOL    HW235754   0.297   4.111   6.801 -0.6119 -1.2869  0.6796
 8041SOL     OW35755   4.140   1.771   3.537 -0.1133  0.2093 -0.3955
 8041SOL    HW135756   4.142   1.783   3.442 -0.4792  3.2694 -0.0297
 8041SOL    HW235757   4.212   1.710   3.556  0.0079  0.4967  0.0674
 8042SOL     OW35758   2.106   4.145  10.140 -1.0003 -0.1979  0.6069
 8042SOL    HW135759   2.050   4.154  10.217 -0.1362 -1.2915  1.3743
 8042SOL    HW235760   2.050   4.191  10.077  1.1576 -0.6658 -1.6777
 8043SOL     OW35761   3.746   4.285   8.953 -1.0934 -0.2345  0.0210
 8043SOL    HW135762   3.789   4.284   8.868 -0.4294 -2.4399  0.4010
 8043SOL    HW235763   3.766   4.195   8.978 -2.9860 -0.8671 -0.7036
 8044SOL     OW35764   1.509   3.243   3.578  0.5592 -0.2857 -0.5722
 8044SOL    HW135765   1.440   3.306   3.556 -0.6536 -1.1514  0.7655
 8044SOL    HW235766   1.590   3.292   3.584 -0.2389  0.5979  2.9037
 8045SOL     OW35767   2.952   0.196   2.433  0.0730 -0.6566 -0.3866
 8045SOL    HW135768   3.031   0.163   2.476  0.0134  1.3133  1.2235
 8045SOL    HW235769   2.964   0.287   2.458  1.0263 -1.1826  1.0217
 8046SOL     OW35770   1.534   0.547   2.899  0.3991  0.7095  0.1248
 8046SOL    HW135771   1.483   0.518   2.974  1.4774 -0.6320  0.3432
 8046SOL    HW235772   1.487   0.626   2.874  1.9000  2.7966  3.9788
 8047SOL     OW35773   0.429   0.646   7.828  0.0103 -0.3337 -0.3404
 8047SOL    HW135774   0.506   0.702   7.826 -1.7756  2.1601  0.4201
 8047SOL    HW235775   0.377   0.702   7.886  0.5539  1.1161 -1.2696
 8048SOL     OW35776   2.875   3.444   3.539 -0.2600  0.2898 -0.1044
 8048SOL    HW135777   2.953   3.440   3.483  1.7137 -1.2807  2.7784
 8048SOL    HW235778   2.848   3.536   3.548 -2.5527 -0.2614 -1.3840
 8049SOL     OW35779   0.105   3.154   6.264  0.0185 -0.4217  0.0261
 8049SOL    HW135780   0.058   3.078   6.227  0.7321 -0.9359  0.1773
 8049SOL    HW235781   0.079   3.222   6.202  1.4032 -1.8359 -2.1101
 8050SOL     OW35782   0.854   4.343   2.316  0.3434  0.0340 -0.1747
 8050SOL    HW135783   0.831   4.432   2.288  1.5969  0.7831  1.1579
 8050SOL    HW235784   0.935   4.330   2.268  0.2920  1.6740 -0.7176
 8051SOL     OW35785   0.492   2.373   1.214  0.4923  0.8109 -0.4161
 8051SOL    HW135786   0.568   2.350   1.267 -0.6710 -1.5075  0.2137
 8051SOL    HW235787   0.477   2.287   1.176  2.5779 -0.1252  0.9100
 8052SOL     OW35788   3.126   4.627   5.368  0.5071 -0.0357  0.6207
 8052SOL    HW135789   3.078   4.707   5.390 -0.4008  0.1852 -2.0673
 8052SOL    HW235790   3.089   4.601   5.283 -0.9595  3.5617  0.1718
 8053SOL     OW35791   1.895   3.265   8.360 -0.0605 -0.6914  0.3614
 8053SOL    HW135792   1.816   3.264   8.306 -0.0129 -1.3789  0.3023
 8053SOL    HW235793   1.857   3.302   8.439 -1.1558 -2.6302  0.7267
 8054SOL     OW35794   4.625   2.727   7.655  0.1245 -0.7804 -0.1954
 8054SOL    HW135795   4.630   2.643   7.700 -2.0110  1.1148  3.5508
 8054SOL    HW235796   4.717   2.750   7.660 -0.0476 -0.3415  0.9541
 8055SOL     OW35797   1.947   0.644   3.627 -1.0200  0.4077  0.0170
 8055SOL    HW135798   1.961   0.736   3.646  3.0444  0.1436 -1.5890
 8055SOL    HW235799   2.038   0.618   3.611 -1.4499 -0.0993 -1.6220
 8056SOL     OW35800   0.680   1.324   8.498 -0.0566  0.0687  0.3098
 8056SOL    HW135801   0.771   1.354   8.488 -0.1738  0.3568  0.1095
 8056SOL    HW235802   0.642   1.377   8.428 -2.7568 -3.2356 -0.7105
 8057SOL     OW35803   0.348   3.144   1.614  0.4794 -0.0175  0.1072
 8057SOL    HW135804   0.326   3.189   1.696  1.1010  2.1569 -0.9163
 8057SOL    HW235805   0.309   3.060   1.639  1.7969 -1.1891 -1.8183
 8058SOL     OW35806   1.165   0.728   3.981  0.1731  0.2581  0.3719
 8058SOL    HW135807   1.088   0.720   3.925 -0.0379 -0.0595  0.7084
 8058SOL    HW235808   1.121   0.738   4.066  3.7632 -0.3343  2.2941
 8059SOL     OW35809   3.971   4.203   4.012 -0.2031 -0.3052  0.4496
 8059SOL    HW135810   4.018   4.268   3.961  0.4335  0.6700  2.2550
 8059SOL    HW235811   3.888   4.193   3.967  0.0246 -0.1046 -0.0066
 8060SOL     OW35812   3.983   1.477  10.961 -0.1857  0.1572 -0.0523
 8060SOL    HW135813   3.927   1.400  10.971  1.6965 -0.6695  4.1964
 8060SOL    HW235814   4.048   1.466  11.031  0.5490 -1.5043 -1.0079
 8061SOL     OW35815   1.647   3.454   4.828 -0.3340 -0.3492  0.4138
 8061SOL    HW135816   1.668   3.545   4.808  2.3065 -0.9919  0.3428
 8061SOL    HW235817   1.684   3.418   4.747  0.3989 -2.1060  1.5173
 8062SOL     OW35818   0.046   0.353   9.685  0.0330 -0.0683  0.3075
 8062SOL    HW135819   0.123   0.298   9.701 -0.3891 -1.1275 -1.3668
 8062SOL    HW235820   4.718   0.311   9.742  0.1049  1.1400  1.2874
 8063SOL     OW35821   3.033   2.975  12.358  0.3085 -0.0896  0.3310
 8063SOL    HW135822   3.031   3.041  12.289  0.2672 -0.4866 -0.0490
 8063SOL    HW235823   3.107   2.923  12.327 -0.0347 -0.7287  0.5943
 8064SOL     OW35824   2.911   0.822   3.869  0.7200  0.0342  0.5907
 8064SOL    HW135825   2.947   0.892   3.923  0.4378 -1.0843  2.2241
 8064SOL    HW235826   2.889   0.856   3.782  1.8834  1.9379  1.0453
 8065SOL     OW35827   2.555   1.014   5.532 -0.6038  0.1518  0.1374
 8065SOL    HW135828   2.604   0.976   5.605 -0.1889  1.7134  0.6665
 8065SOL    HW235829   2.579   0.945   5.470  2.5845  0.9066  0.4995
 8066SOL     OW35830   0.424   1.819   7.685 -0.0959  0.1156  0.3798
 8066SOL    HW135831   0.383   1.858   7.762  1.7818  1.5302  0.6677
 8066SOL    HW235832   0.356   1.755   7.666 -0.0328  0.4863 -1.0741
 8067SOL     OW35833   3.356   2.103   7.850  0.0881  0.7976  0.2283
 8067SOL    HW135834   3.378   2.043   7.922 -1.1379 -0.3768 -0.3831
 8067SOL    HW235835   3.271   2.066   7.827  0.9315 -0.6227 -0.5740
 8068SOL     OW35836   4.234   4.121   3.908  0.2317  0.5275  0.1512
 8068SOL    HW135837   4.155   4.076   3.939 -0.1646 -0.0729 -1.7003
 8068SOL    HW235838   4.239   4.194   3.969 -0.2089  0.9500 -0.3079
 8069SOL     OW35839   2.986   0.724   2.147  0.1984 -0.1755  0.0731
 8069SOL    HW135840   3.012   0.633   2.164 -0.0459 -0.6167 -1.9359
 8069SOL    HW235841   3.030   0.761   2.224 -0.5989 -0.8154  0.8371
 8070SOL     OW35842   2.511   0.091   2.311  0.1422  0.3328  0.5407
 8070SOL    HW135843   2.462   0.171   2.331 -1.4785 -1.2712  2.8392
 8070SOL    HW235844   2.451   0.031   2.267  0.4576 -0.2109  0.8625
 8071SOL     OW35845   0.694   3.363   3.993  0.2165 -0.5629 -0.6624
 8071SOL    HW135846   0.623   3.325   3.941  0.1160 -0.6746 -0.4428
 8071SOL    HW235847   0.673   3.456   3.978 -0.7793 -0.6505  0.2165
 8072SOL     OW35848   0.778   3.226   2.464 -0.2142  0.4596  0.9384
 8072SOL    HW135849   0.867   3.190   2.464 -1.1471 -1.8852 -1.2010
 8072SOL    HW235850   0.728   3.146   2.447  0.2963  0.5160 -0.8081
 8073SOL     OW35851   4.411   2.155  13.000 -0.1229  0.3401  0.3077
 8073SOL    HW135852   4.381   2.127  13.086  1.0760  0.4532  0.7649
 8073SOL    HW235853   4.356   2.096  12.949  0.7470 -0.9278  0.8473
 8074SOL     OW35854   1.504   2.951  11.292 -0.0349  0.0612 -0.2306
 8074SOL    HW135855   1.506   2.860  11.261  1.3802 -0.6043  1.8009
 8074SOL    HW235856   1.437   2.987  11.233  0.2596  0.4741 -0.3059
 8075SOL     OW35857   0.678   0.294   2.345 -0.0332  0.9272  0.7113
 8075SOL    HW135858   0.669   0.376   2.295  0.3484  1.7284  1.9539
 8075SOL    HW235859   0.587   0.265   2.353 -0.2668  0.9996 -1.6530
 8076SOL     OW35860   1.972   1.449   2.553 -0.7056  0.0371  0.3504
 8076SOL    HW135861   2.027   1.423   2.627  1.2994  1.7128 -0.5250
 8076SOL    HW235862   2.043   1.473   2.493  1.4654  0.9930  3.3219
 8077SOL     OW35863   1.737   0.233   0.307  0.4994 -0.4232 -0.3268
 8077SOL    HW135864   1.812   0.179   0.283  0.6371 -1.6935  2.9912
 8077SOL    HW235865   1.703   0.267   0.225  0.8202  3.0974  1.0161
 8078SOL     OW35866   3.987   2.922   6.450  0.7534  0.3569 -0.4649
 8078SOL    HW135867   4.078   2.946   6.429  1.2614 -0.6261  0.6560
 8078SOL    HW235868   3.952   2.932   6.362 -0.7725 -1.8695 -0.1058
 8079SOL     OW35869   0.941   2.916   4.587  0.3329 -0.4914  0.2233
 8079SOL    HW135870   0.984   2.862   4.521 -0.4160  0.5335 -1.1006
 8079SOL    HW235871   0.874   2.949   4.528  0.3010 -1.5763 -0.3571
 8080SOL     OW35872   0.048   1.050   6.288 -0.1596  0.6345 -0.3643
 8080SOL    HW135873   4.725   1.036   6.362 -0.1101 -0.7822 -0.5789
 8080SOL    HW235874   0.119   1.079   6.345 -1.5875  0.8864  1.2880
 8081SOL     OW35875   2.936   3.010   1.540  0.0614  0.1145  0.4800
 8081SOL    HW135876   3.002   3.075   1.565 -0.1720 -0.7944  3.4517
 8081SOL    HW235877   2.857   3.064   1.552 -0.1238  0.0858 -0.6302
 8082SOL     OW35878   2.857   1.334   4.560  0.3052  0.1114 -0.5959
 8082SOL    HW135879   2.885   1.324   4.469 -1.1614 -1.4216 -0.8831
 8082SOL    HW235880   2.817   1.250   4.580  1.2442 -0.6514 -1.8665
 8083SOL     OW35881   0.273   0.377   2.937 -0.2182  0.2913  0.2853
 8083SOL    HW135882   0.272   0.400   2.844 -0.5107  1.0284  0.4660
 8083SOL    HW235883   0.184   0.347   2.955  0.3396 -1.8129 -0.4604
 8084SOL     OW35884   1.616   3.435   6.127  0.0262  0.2294 -0.1014
 8084SOL    HW135885   1.656   3.373   6.066 -1.1999  0.9209 -1.6041
 8084SOL    HW235886   1.618   3.504   6.062  1.9372 -0.3054 -0.6145
 8085SOL     OW35887   3.520   3.766   6.350 -0.1201  0.7245  0.2869
 8085SOL    HW135888   3.432   3.803   6.354 -0.1065  0.7503  0.3585
 8085SOL    HW235889   3.515   3.704   6.423 -0.6189  0.8339  0.3439
 8086SOL     OW35890   3.545   4.694  17.057 -0.2175 -0.0930  0.5707
 8086SOL    HW135891   3.633   4.718  17.028 -0.6537  0.8377  0.0165
 8086SOL    HW235892   3.490   0.014  17.002  1.1676 -0.0488 -0.7894
 8087SOL     OW35893   0.233   3.903   4.786  0.6265 -0.2083  0.3752
 8087SOL    HW135894   0.235   3.894   4.691  2.6021  1.2469  0.3035
 8087SOL    HW235895   0.204   3.814   4.808 -0.7361  0.3347  0.8252
 8088SOL     OW35896   2.440   0.995   8.143  0.0705  0.2297  0.2732
 8088SOL    HW135897   2.445   1.019   8.236  0.9635  0.2454  0.2245
 8088SOL    HW235898   2.533   0.994   8.121  0.6686  0.3653  2.7493
 8089SOL     OW35899   4.260   0.606  16.116 -0.2038  0.0599 -0.2815
 8089SOL    HW135900   4.195   0.641  16.056 -0.8845 -2.0892 -0.7667
 8089SOL    HW235901   4.237   0.513  16.115  2.0338 -0.5130  0.5102
 8090SOL     OW35902   2.911   0.432  14.105  0.2463  0.2045 -0.5109
 8090SOL    HW135903   2.970   0.360  14.128 -2.1434 -1.6289 -0.1951
 8090SOL    HW235904   2.858   0.458  14.180 -1.3800 -0.0057 -1.5834
 8091SOL     OW35905   0.787   1.981   4.817  0.5842  0.1443 -0.0294
 8091SOL    HW135906   0.723   1.995   4.748  1.2274 -0.2759 -0.7118
 8091SOL    HW235907   0.804   1.887   4.811  0.5847  0.0665  1.0727
 8092SOL     OW35908   4.392   4.254  11.354  0.5097  0.2243 -0.0051
 8092SOL    HW135909   4.402   4.159  11.353  1.2631  0.2973  1.6208
 8092SOL    HW235910   4.479   4.288  11.336 -0.6835  2.3444 -1.8271
 8093SOL     OW35911   4.572   0.696   9.626  0.0930  0.1912 -1.1563
 8093SOL    HW135912   4.502   0.668   9.684  1.9760  0.3955  1.2169
 8093SOL    HW235913   4.539   0.677   9.538  0.6104  2.8333 -1.9438
 8094SOL     OW35914   0.085   1.622   4.998 -0.0377 -0.5069 -0.2043
 8094SOL    HW135915   0.049   1.563   4.932 -0.7092  0.0963 -0.3858
 8094SOL    HW235916   0.107   1.555   5.062 -1.0996 -1.7685 -1.1470
 8095SOL     OW35917   2.128   1.411  15.803  0.0416  0.1022 -0.0543
 8095SOL    HW135918   2.087   1.355  15.737 -0.4346  1.4169 -0.8773
 8095SOL    HW235919   2.145   1.355  15.878 -0.4256 -1.7373 -1.3017
 8096SOL     OW35920   3.039   2.999  12.635  0.2975  0.0022 -0.8097
 8096SOL    HW135921   3.052   3.002  12.540  1.1125 -1.1923 -0.7306
 8096SOL    HW235922   2.955   3.044  12.645  0.2788 -0.5010  1.3519
 8097SOL     OW35923   4.188   3.855   5.313 -0.1854 -0.9571  0.4607
 8097SOL    HW135924   4.123   3.920   5.340  0.3177  0.4087 -1.6156
 8097SOL    HW235925   4.182   3.844   5.218 -0.0612 -0.1601  0.3620
 8098SOL     OW35926   2.094   2.193   3.249  0.2746  0.0570 -0.5125
 8098SOL    HW135927   2.014   2.147   3.222  0.0678  0.2252 -0.1929
 8098SOL    HW235928   2.164   2.129   3.243 -0.9747 -1.5542  1.9272
 8099SOL     OW35929   1.112   2.177   3.789  0.3987  0.6129 -0.1054
 8099SOL    HW135930   1.075   2.187   3.877 -0.5218  2.9880 -0.7460
 8099SOL    HW235931   1.101   2.087   3.760 -2.7607  0.5814  1.2356
 8100SOL     OW35932   1.695   3.862   5.418 -0.3396  0.0931 -0.2640
 8100SOL    HW135933   1.621   3.922   5.430 -1.2082 -0.9439 -0.4463
 8100SOL    HW235934   1.755   3.925   5.377 -2.4262  2.1751 -0.1419
 8101SOL     OW35935   2.671   3.133   9.212  0.2241 -0.1802  0.3971
 8101SOL    HW135936   2.618   3.203   9.250 -1.4178 -1.2359  0.0650
 8101SOL    HW235937   2.599   3.071   9.198 -0.4365  0.4910  0.7945
 8102SOL     OW35938   0.400   4.696  12.080 -0.0221 -0.9948  0.1450
 8102SOL    HW135939   0.479   4.655  12.115 -0.6747  0.5094  3.4001
 8102SOL    HW235940   0.407   0.048  12.119  0.6954 -1.2778  0.6575
 8103SOL     OW35941   0.919   0.608  15.205  0.1153  0.7357 -0.1456
 8103SOL    HW135942   0.853   0.624  15.138 -1.0256 -0.2117  0.7446
 8103SOL    HW235943   0.887   0.653  15.284  1.8265  3.2132 -0.8570
 8104SOL     OW35944   2.018   3.526  10.231 -0.3422 -0.0378  0.2304
 8104SOL    HW135945   1.928   3.527  10.197 -0.4463 -1.3284  0.4672
 8104SOL    HW235946   2.068   3.547  10.152 -0.2856 -1.3373 -0.0734
 8105SOL     OW35947   1.905   3.318   7.081 -0.3097 -0.6061  0.3117
 8105SOL    HW135948   1.914   3.362   6.996 -0.9301  1.5137  1.3544
 8105SOL    HW235949   1.816   3.336   7.110 -0.2179 -1.0164  0.8481
 8106SOL     OW35950   2.455   0.065   5.883  0.0373 -0.4336  0.7734
 8106SOL    HW135951   2.437   0.023   5.799 -0.8297  1.6961 -0.1156
 8106SOL    HW235952   2.531   0.118   5.859  0.7222 -1.6638  0.2420
 8107SOL     OW35953   3.122   3.747  10.340 -0.1855 -0.1914  0.1656
 8107SOL    HW135954   3.155   3.690  10.410 -1.5859 -0.5193  0.5522
 8107SOL    HW235955   3.071   3.803  10.398 -0.1248 -0.0714  0.1022
 8108SOL     OW35956   0.725   1.195   7.679  0.1646  0.2342 -0.2805
 8108SOL    HW135957   0.762   1.240   7.754 -2.8786  0.4806  1.0795
 8108SOL    HW235958   0.795   1.206   7.615  0.0996 -0.5590 -0.4931
 8109SOL     OW35959   0.715   1.112   4.295 -0.2289 -0.1663  0.5162
 8109SOL    HW135960   0.736   1.077   4.381  0.8671 -2.2010 -0.5998
 8109SOL    HW235961   0.786   1.175   4.280  0.4058 -0.4583  2.2928
 8110SOL     OW35962   4.353   0.485  15.639 -0.4341 -0.4485 -0.2488
 8110SOL    HW135963   4.261   0.498  15.659 -0.9093 -1.2043 -1.9279
 8110SOL    HW235964   4.388   0.482  15.728 -0.3107  2.1961 -0.2164
 8111SOL     OW35965   0.611   3.333   4.274  0.0690 -0.9202  0.2855
 8111SOL    HW135966   0.629   3.371   4.188 -3.2557 -0.7048 -0.3476
 8111SOL    HW235967   0.619   3.408   4.333  0.1160 -1.9677  1.6045
 8112SOL     OW35968   2.396   3.386   9.272 -0.5682  0.0087 -0.0515
 8112SOL    HW135969   2.398   3.321   9.202  0.3938 -1.0603  0.9823
 8112SOL    HW235970   2.479   3.433   9.269  0.3503 -1.5861  0.6785
 8113SOL     OW35971   1.089   0.401   3.870 -0.3737 -0.3141  0.0644
 8113SOL    HW135972   1.061   0.351   3.794 -0.1632 -1.4532  0.7361
 8113SOL    HW235973   1.043   0.481   3.846  0.0810 -0.1567 -0.2708
 8114SOL     OW35974   3.760   3.091   1.568  0.3568 -0.1783  0.0274
 8114SOL    HW135975   3.803   3.010   1.596  1.9408 -0.2799 -2.8001
 8114SOL    HW235976   3.836   3.148   1.560  0.7651 -0.6810  0.2919
 8115SOL     OW35977   2.929   1.065   9.407 -0.1983  0.4988  0.3695
 8115SOL    HW135978   2.985   1.143   9.413  0.0566  0.3744 -0.4565
 8115SOL    HW235979   2.982   1.011   9.467  1.7821  0.4924 -1.3842
 8116SOL     OW35980   2.125   3.785   6.817 -0.1756  0.7080  0.4107
 8116SOL    HW135981   2.092   3.848   6.881 -0.2599 -0.7575  1.8070
 8116SOL    HW235982   2.196   3.843   6.787 -0.2003 -0.7190 -2.4357
 8117SOL     OW35983   3.069   4.635   6.624 -0.2450  0.3297  1.0305
 8117SOL    HW135984   3.007   4.592   6.564  0.1585  1.0164  0.1137
 8117SOL    HW235985   3.036   4.602   6.707 -1.1775  0.3593  0.6732
 8118SOL     OW35986   0.331   0.715   7.424  0.4961 -0.2171  0.5719
 8118SOL    HW135987   0.410   0.664   7.405 -1.3769 -2.9632  0.2674
 8118SOL    HW235988   0.322   0.779   7.353  0.9036 -0.4371  0.3177
 8119SOL     OW35989   4.261   2.350   2.120 -0.3570  0.0107 -0.4098
 8119SOL    HW135990   4.350   2.356   2.088 -0.8011  2.0064 -1.2589
 8119SOL    HW235991   4.267   2.275   2.179 -1.0649 -0.1538 -0.5405
 8120SOL     OW35992   1.185   0.006  13.232  0.1708 -0.0472 -0.0619
 8120SOL    HW135993   1.096   0.039  13.220  0.4608  0.4970 -0.7028
 8120SOL    HW235994   1.215   4.712  13.146  1.7407  1.2133  0.0445
 8121SOL     OW35995   1.889   2.075   5.056  0.2653  0.3800  0.6436
 8121SOL    HW135996   1.827   2.146   5.071 -0.3083  0.0179 -0.0077
 8121SOL    HW235997   1.888   2.064   4.961 -1.6655  0.9218  0.6131
 8122SOL     OW35998   2.314   4.354   6.890 -0.0193 -0.3465  0.5683
 8122SOL    HW135999   2.344   4.440   6.861 -0.6594  0.5172  2.4377
 8122SOL    HW236000   2.281   4.369   6.978  1.0428  1.0409  0.7192
 8123SOL     OW36001   2.795   0.049   2.263 -0.9565 -0.0454 -0.1937
 8123SOL    HW136002   2.838   0.098   2.333 -0.6975  0.0993 -0.4552
 8123SOL    HW236003   2.704   0.068   2.286 -1.2219 -2.1188  0.4348
 8124SOL     OW36004   3.556   2.358   8.882  0.1243 -0.8439 -0.2412
 8124SOL    HW136005   3.490   2.299   8.918 -0.1246 -0.9155 -0.8112
 8124SOL    HW236006   3.621   2.356   8.952  1.9166 -2.1739 -1.9419
 8125SOL     OW36007   4.730   3.732   7.227  0.2938  0.3957  0.0705
 8125SOL    HW136008   4.710   3.821   7.198 -0.8530  0.0212 -0.2867
 8125SOL    HW236009   4.720   3.685   7.144  0.0828 -0.2925  0.4857
 8126SOL     OW36010   1.829   4.047  17.000 -0.0416 -0.7071 -0.0585
 8126SOL    HW136011   1.769   4.022  17.071 -1.0589 -0.0403 -0.6718
 8126SOL    HW236012   1.766   4.060  16.928  0.3535  0.7594 -0.1411
 8127SOL     OW36013   0.873   4.170  10.048  0.0483 -0.7087 -0.0290
 8127SOL    HW136014   0.850   4.256  10.011  0.7891  0.2411  1.7436
 8127SOL    HW236015   0.866   4.177  10.143  4.1341  1.8498  0.0888
 8128SOL     OW36016   0.671   1.347   6.112 -0.0989  0.3164  0.2725
 8128SOL    HW136017   0.576   1.348   6.103 -0.3245  1.0504  2.6236
 8128SOL    HW236018   0.701   1.405   6.041 -0.1598  1.0978  0.8803
 8129SOL     OW36019   0.310   0.014  14.771  0.0389  0.2040  0.0050
 8129SOL    HW136020   0.254   0.079  14.729  1.2234  0.2818 -1.4399
 8129SOL    HW236021   0.399   0.027  14.739 -0.8833  1.6045 -1.9422
 8130SOL     OW36022   2.770   4.126   2.532 -0.4267 -0.0158 -0.2700
 8130SOL    HW136023   2.818   4.207   2.516  0.5166 -0.5618 -0.2088
 8130SOL    HW236024   2.681   4.159   2.523 -0.4343  0.2303  0.6946
 8131SOL     OW36025   1.518   2.817   3.482 -0.0458 -0.0072 -0.6316
 8131SOL    HW136026   1.580   2.744   3.490  1.8379  1.5230 -1.3478
 8131SOL    HW236027   1.440   2.790   3.434  0.7413 -1.9154 -0.8480
 8132SOL     OW36028   1.532   4.355   5.261  0.2693 -0.5074  0.0810
 8132SOL    HW136029   1.469   4.377   5.193 -0.8105 -1.4848  0.7785
 8132SOL    HW236030   1.571   4.274   5.229 -2.6293 -1.6934 -0.3980
 8133SOL     OW36031   4.720   4.357  11.832  0.6726  0.6431 -0.6155
 8133SOL    HW136032   4.722   4.346  11.927 -2.5275 -1.3712 -0.7683
 8133SOL    HW236033   0.073   4.353  11.797 -0.0168 -1.1359 -2.1627
 8134SOL     OW36034   4.497   1.894   3.723 -0.4672 -0.5162 -0.2572
 8134SOL    HW136035   4.534   1.808   3.700 -0.9025 -1.0423  1.0037
 8134SOL    HW236036   4.536   1.948   3.655 -1.2374 -0.6014 -0.7633
 8135SOL     OW36037   3.512   4.035  11.458  0.4575 -0.0789 -0.2959
 8135SOL    HW136038   3.514   4.014  11.551 -0.1735  1.9490  0.1588
 8135SOL    HW236039   3.523   4.130  11.458  2.5187 -0.3137 -1.1013
 8136SOL     OW36040   2.626   1.955   4.031 -0.3521  0.0974 -0.0918
 8136SOL    HW136041   2.704   1.986   4.077 -1.2050  1.6825  0.2901
 8136SOL    HW236042   2.585   1.903   4.100  2.6421 -0.7316  1.0609
 8137SOL     OW36043   1.207   3.277   6.047 -0.0267 -0.3705  0.7019
 8137SOL    HW136044   1.234   3.207   5.988 -1.0339  0.6928 -1.0046
 8137SOL    HW236045   1.187   3.341   5.979 -1.4001 -0.0035  1.4574
 8138SOL     OW36046   3.840   1.528  13.147  0.4527 -0.6799  0.2665
 8138SOL    HW136047   3.816   1.556  13.058  1.7565  2.4704  0.8848
 8138SOL    HW236048   3.753   1.514  13.185  0.2929  0.3729  0.3009
 8139SOL     OW36049   2.327   0.229   2.090 -0.1915  0.1625  0.2900
 8139SOL    HW136050   2.239   0.219   2.128 -0.6808 -1.0906 -1.1626
 8139SOL    HW236051   2.345   0.323   2.089 -3.2107  0.7543 -0.5217
 8140SOL     OW36052   0.985   0.381   5.263 -0.3307 -0.5415  0.5474
 8140SOL    HW136053   0.902   0.334   5.264  0.2555 -1.5878 -0.8598
 8140SOL    HW236054   1.018   0.347   5.346  0.5703 -1.5657 -0.2339
 8141SOL     OW36055   1.196   1.294  10.856 -0.2349  0.3904 -0.3778
 8141SOL    HW136056   1.262   1.362  10.842  0.7718 -1.1902 -3.1318
 8141SOL    HW236057   1.130   1.305  10.787  0.2792 -0.1817 -0.9552
 8142SOL     OW36058   3.382   1.154   9.365 -0.1736  0.9804  0.1748
 8142SOL    HW136059   3.396   1.173   9.458 -1.1372  0.0812  0.5072
 8142SOL    HW236060   3.328   1.231   9.344  1.2925  1.4824 -1.7195
 8143SOL     OW36061   0.300   0.185   1.992 -0.4732 -0.2587  0.1572
 8143SOL    HW136062   0.318   0.279   1.998 -3.1565  0.2708 -0.2218
 8143SOL    HW236063   0.246   0.180   1.913 -0.2555 -0.0803 -0.0042
 8144SOL     OW36064   2.179   0.350   7.636 -0.3986  0.0275  0.0125
 8144SOL    HW136065   2.149   0.286   7.571 -1.2217 -0.5283  0.9327
 8144SOL    HW236066   2.258   0.388   7.598  1.7520 -0.7198  3.7757
 8145SOL     OW36067   2.728   2.306   9.483  0.0939  0.2144 -0.0703
 8145SOL    HW136068   2.682   2.325   9.565  0.7227  3.0411 -0.3778
 8145SOL    HW236069   2.702   2.214   9.482  2.5612 -0.4661 -0.8315
 8146SOL     OW36070   0.404   0.451  16.798  0.1593 -0.0800  0.0102
 8146SOL    HW136071   0.424   0.378  16.740  0.2763  1.0679 -1.3866
 8146SOL    HW236072   0.347   0.411  16.864  2.3843  0.0262  2.0260
 8147SOL     OW36073   1.773   0.987  14.508  0.3004 -0.0758  0.2117
 8147SOL    HW136074   1.864   0.965  14.527  0.3682  0.1825  0.1800
 8147SOL    HW236075   1.789   1.055  14.443 -0.9804  0.1089  0.0896
 8148SOL     OW36076   4.002   4.579   6.273 -0.3336 -0.3836  0.5013
 8148SOL    HW136077   3.919   4.538   6.247 -1.4645  1.3796  1.3093
 8148SOL    HW236078   4.031   4.516   6.338 -0.8084 -1.7301 -0.5960
 8149SOL     OW36079   0.094   2.688   8.755  0.4105  0.2024 -0.2677
 8149SOL    HW136080   0.096   2.757   8.688 -0.6278 -1.5819 -2.1418
 8149SOL    HW236081   0.014   2.640   8.736 -0.3643  0.9392  1.1677
 8150SOL     OW36082   0.497   3.824   3.322 -0.5542  0.1649  0.4484
 8150SOL    HW136083   0.504   3.836   3.417 -1.5191  1.3608  0.3696
 8150SOL    HW236084   0.587   3.843   3.295 -1.2554  2.4943 -0.2439
 8151SOL     OW36085   3.037   1.657   1.274 -0.0762  0.5994 -0.3047
 8151SOL    HW136086   3.055   1.751   1.264  1.3441  0.4811  1.1993
 8151SOL    HW236087   2.988   1.671   1.355  0.3484  1.1481 -0.1414
 8152SOL     OW36088   1.749   3.868   7.943 -0.8311  0.2054 -0.2416
 8152SOL    HW136089   1.766   3.944   7.998  0.3724  0.0091 -0.3296
 8152SOL    HW236090   1.672   3.829   7.983  2.1335 -2.5035  2.8402
 8153SOL     OW36091   0.962   0.858  12.526  0.1455 -0.0749 -0.0515
 8153SOL    HW136092   0.915   0.830  12.447 -2.5180  1.2719  1.0951
 8153SOL    HW236093   1.045   0.887  12.487  0.9645 -0.3809  1.4960
 8154SOL     OW36094   4.237   2.994   6.335 -0.0646  0.7591 -0.1942
 8154SOL    HW136095   4.317   3.044   6.316 -0.5417  1.9561  0.9003
 8154SOL    HW236096   4.206   2.972   6.247  0.7040 -1.0298 -0.0119
 8155SOL     OW36097   0.958   0.631   3.814  0.4490 -0.1445  1.0027
 8155SOL    HW136098   0.867   0.612   3.837  0.4881  0.1071  1.3513
 8155SOL    HW236099   0.956   0.641   3.719 -1.9305  0.1792  1.1016
 8156SOL     OW36100   0.611   2.745  11.173  0.0360 -0.0981  0.6065
 8156SOL    HW136101   0.663   2.671  11.141  0.6521  0.1623  0.9968
 8156SOL    HW236102   0.665   2.766  11.249 -0.0793  1.1405  0.3450
 8157SOL     OW36103   1.337   2.488   2.879  0.2777 -0.0879  0.3800
 8157SOL    HW136104   1.375   2.568   2.915  0.0201 -0.3856  1.3006
 8157SOL    HW236105   1.416   2.457   2.836 -0.3860  0.2707 -1.1100
 8158SOL     OW36106   1.255   0.888   4.401  0.3629  0.6505 -0.4148
 8158SOL    HW136107   1.221   0.966   4.444 -0.7485  0.6773 -1.3335
 8158SOL    HW236108   1.183   0.844   4.355 -0.5159  1.2636  0.3710
 8159SOL     OW36109   4.673   4.002  17.118 -0.3945  0.3148 -0.5800
 8159SOL    HW136110   4.726   4.079  17.099 -1.6733  0.9173 -1.7082
 8159SOL    HW236111   4.639   3.980  17.031  0.0316  1.0801 -0.9417
 8160SOL     OW36112   3.497   3.675   5.304 -0.0881  0.4832 -0.1682
 8160SOL    HW136113   3.520   3.615   5.375  2.5241 -0.7198 -2.0396
 8160SOL    HW236114   3.407   3.648   5.288  0.2047  0.1069 -1.1874
 8161SOL     OW36115   1.465   0.678   2.471  0.6156  0.3519  0.1869
 8161SOL    HW136116   1.422   0.680   2.385 -0.4646 -1.2233  0.6800
 8161SOL    HW236117   1.405   0.620   2.518  2.5266 -1.3882  0.4687
 8162SOL     OW36118   0.212   3.065  11.192 -0.1237 -0.0487  0.0545
 8162SOL    HW136119   0.165   3.082  11.111 -0.0006  0.8836  0.1757
 8162SOL    HW236120   0.298   3.026  11.177 -1.5299 -2.2528 -2.2793
 8163SOL     OW36121   1.462   0.802   1.737 -0.2295  0.8713  0.3850
 8163SOL    HW136122   1.466   0.820   1.643 -0.8420 -1.7417 -0.1491
 8163SOL    HW236123   1.549   0.820   1.773  0.5371 -2.3868  0.1711
 8164SOL     OW36124   0.823   0.025   7.709  0.5424 -0.0673 -0.3271
 8164SOL    HW136125   0.839   0.013   7.616 -1.9388 -0.4125 -0.6995
 8164SOL    HW236126   0.883   4.696   7.745  0.3143 -1.0797 -1.7993
 8165SOL     OW36127   2.875   4.627  10.464  0.0430  0.1321  0.4777
 8165SOL    HW136128   2.824   4.707  10.451  1.7851  1.2741  0.7451
 8165SOL    HW236129   2.834   4.564  10.405  0.5997  0.8449 -0.6522
 8166SOL     OW36130   0.715   3.018   4.310 -0.4125 -0.0979 -0.2619
 8166SOL    HW136131   0.764   2.994   4.231 -1.2393 -1.1643 -0.4508
 8166SOL    HW236132   0.683   3.106   4.292 -0.3504 -0.5243 -2.4230
 8167SOL     OW36133   1.916   4.144  10.340 -0.0505 -0.2228  0.3291
 8167SOL    HW136134   1.901   4.195  10.420 -0.6819 -0.7563  0.5424
 8167SOL    HW236135   1.856   4.073  10.359 -1.3128  0.2861 -1.7657
 8168SOL     OW36136   3.691   3.464   7.638 -0.0034 -0.1686 -0.0904
 8168SOL    HW136137   3.716   3.494   7.551  1.4448 -1.2271 -0.0359
 8168SOL    HW236138   3.720   3.542   7.685 -1.8662  3.2112 -4.5731
 8169SOL     OW36139   4.642   0.022   7.402 -0.1635 -0.3881  0.0205
 8169SOL    HW136140   4.722   4.713   7.374 -0.5634 -1.3904  0.4777
 8169SOL    HW236141   4.678   0.111   7.402 -0.5992 -0.2101 -0.1043
 8170SOL     OW36142   3.802   0.020   6.732 -0.2228  0.9042 -0.3933
 8170SOL    HW136143   3.855   4.681   6.758  0.2459  1.0885 -0.8321
 8170SOL    HW236144   3.757   4.724   6.653 -0.1486 -2.0638  0.7625
 8171SOL     OW36145   2.878   1.637   0.293 -0.3020  0.0478  0.3818
 8171SOL    HW136146   2.815   1.709   0.301 -1.7208 -1.0111 -1.5429
 8171SOL    HW236147   2.816   1.566   0.279  0.5736 -0.5162 -0.6613
 8172SOL     OW36148   2.270   3.444   5.883 -0.2720 -0.0930 -0.1929
 8172SOL    HW136149   2.229   3.468   5.966  1.0291 -0.1853  0.4768
 8172SOL    HW236150   2.211   3.483   5.819  0.0939  0.5183 -0.1566
 8173SOL     OW36151   4.349   4.225   5.282 -0.7108  0.4507  0.3370
 8173SOL    HW136152   4.410   4.174   5.335  0.4775  1.2863 -0.2449
 8173SOL    HW236153   4.351   4.181   5.197 -4.0911 -1.1803  1.0753
 8174SOL     OW36154   3.933   2.034  13.636  0.0013  0.0197  0.2255
 8174SOL    HW136155   3.990   1.989  13.698 -0.2874 -2.9248 -1.6426
 8174SOL    HW236156   3.871   1.965  13.613  0.6274 -0.8109  1.0528
 8175SOL     OW36157   3.065   3.072  16.222 -0.3658 -0.1566 -0.1301
 8175SOL    HW136158   3.043   3.098  16.132  0.7782 -1.1765 -0.6928
 8175SOL    HW236159   3.150   3.030  16.214 -1.7443 -3.0955  0.7166
 8176SOL     OW36160   4.680   0.356  12.744  0.1605 -0.0331  0.0255
 8176SOL    HW136161   4.687   0.372  12.649  2.3416 -0.5458  0.1040
 8176SOL    HW236162   4.589   0.326  12.756  0.2082 -0.2367 -0.1251
 8177SOL     OW36163   0.969   1.737   8.269 -0.5351 -0.2348 -0.7611
 8177SOL    HW136164   0.907   1.719   8.339  0.7815 -0.6154  0.3148
 8177SOL    HW236165   0.959   1.832   8.256  2.3991  0.4264  1.7345
 8178SOL     OW36166   3.514   1.098   6.551  0.4194 -0.2225  0.1213
 8178SOL    HW136167   3.581   1.061   6.493  0.0743 -0.6769  0.0103
 8178SOL    HW236168   3.559   1.096   6.636  1.4017 -1.0382 -0.4150
 8179SOL     OW36169   3.482   3.859   1.387 -0.8643  0.0206 -0.0876
 8179SOL    HW136170   3.449   3.844   1.476 -2.0426  1.2823 -0.3093
 8179SOL    HW236171   3.507   3.952   1.390  0.4458 -0.3165 -0.5438
 8180SOL     OW36172   2.659   3.806   0.884 -0.0318 -0.2767 -0.1861
 8180SOL    HW136173   2.621   3.746   0.819 -0.1877 -1.0906  0.6558
 8180SOL    HW236174   2.733   3.753   0.913 -0.5627  0.8240  3.1489
 8181SOL     OW36175   2.406   1.824   2.855  0.1193  0.2070  0.1544
 8181SOL    HW136176   2.481   1.768   2.875 -0.0099 -0.5719 -1.6070
 8181SOL    HW236177   2.341   1.758   2.829  0.1979  0.8806 -1.7013
 8182SOL     OW36178   2.123   1.662   5.041 -0.4656  0.3570 -0.1638
 8182SOL    HW136179   2.034   1.696   5.032 -0.6152  0.0474  0.1573
 8182SOL    HW236180   2.121   1.619   5.126  0.1851  0.5405 -0.0527
 8183SOL     OW36181   0.802   3.552   1.776 -0.1338  0.0657 -0.5616
 8183SOL    HW136182   0.898   3.546   1.775 -0.3084 -2.6906 -1.6638
 8183SOL    HW236183   0.803   3.647   1.764  2.3251  0.0017 -1.0000
 8184SOL     OW36184   3.149   1.651   6.769 -0.1191 -0.4378 -0.0268
 8184SOL    HW136185   3.131   1.557   6.775  1.8466 -0.8112  0.1288
 8184SOL    HW236186   3.130   1.682   6.858 -1.6404 -0.4186 -0.3577
 8185SOL     OW36187   3.307   2.159   0.919  0.2155  0.4352  0.1436
 8185SOL    HW136188   3.246   2.189   0.986 -0.2983  1.7775 -0.9283
 8185SOL    HW236189   3.387   2.187   0.963 -0.0655  0.8137  0.4093
 8186SOL     OW36190   1.916   0.179   5.797 -0.3749 -0.0467 -0.5069
 8186SOL    HW136191   1.892   0.106   5.855 -0.7911 -0.4185 -1.1430
 8186SOL    HW236192   1.996   0.206   5.843 -0.0143  1.4471 -2.0308
 8187SOL     OW36193   4.026   4.211   2.489  0.2772  0.2625  0.2665
 8187SOL    HW136194   4.117   4.187   2.508 -0.0322 -0.7158  0.4633
 8187SOL    HW236195   3.977   4.191   2.568 -2.0770  1.9261 -0.7710
 8188SOL     OW36196   1.651   2.240   1.462 -0.4806 -0.4002 -0.4383
 8188SOL    HW136197   1.661   2.284   1.377  2.4851 -0.7388 -0.2658
 8188SOL    HW236198   1.735   2.194   1.463 -0.6366 -0.7137 -1.7546
 8189SOL     OW36199   2.691   2.443   7.286  0.1920  0.1753 -0.1542
 8189SOL    HW136200   2.772   2.403   7.255 -0.4348 -1.1935 -0.0174
 8189SOL    HW236201   2.617   2.406   7.237  0.0138  1.6436 -0.9989
 8190SOL     OW36202   3.651   2.686   3.577 -0.9311  0.3073 -0.1751
 8190SOL    HW136203   3.675   2.770   3.537 -0.7801 -1.6009 -3.9861
 8190SOL    HW236204   3.583   2.713   3.639 -0.6605 -0.9068  0.6569
 8191SOL     OW36205   0.119   4.605   4.508 -0.3837 -0.5629  0.0626
 8191SOL    HW136206   0.027   4.587   4.522 -0.4644 -1.0836 -1.1102
 8191SOL    HW236207   0.109   4.685   4.455  1.2612 -1.3865 -1.5105
 8192SOL     OW36208   3.729   1.977   6.831  0.2989 -0.2786 -0.3660
 8192SOL    HW136209   3.694   2.064   6.849  1.6589  0.2203 -0.1130
 8192SOL    HW236210   3.654   1.924   6.860  0.1951 -0.5434 -1.1334
 8193SOL     OW36211   0.505   0.900   8.516 -0.1792  0.4229  0.4763
 8193SOL    HW136212   0.543   0.984   8.542  1.9099 -0.8565  1.5702
 8193SOL    HW236213   0.437   0.897   8.583 -0.3341  0.1211  0.3060
 8194SOL     OW36214   1.216   2.297   5.031  0.3104  0.4877  0.2450
 8194SOL    HW136215   1.249   2.380   5.066  0.4881 -0.1213  1.5150
 8194SOL    HW236216   1.180   2.318   4.945 -0.1698 -1.6847 -0.0869
 8195SOL     OW36217   4.371   2.260  17.378 -0.2075 -0.5134  0.6089
 8195SOL    HW136218   4.417   2.219  17.452 -1.6383  0.5943  2.1119
 8195SOL    HW236219   4.294   2.299  17.419 -0.7283 -1.4201  0.4892
 8196SOL     OW36220   3.650   2.886  17.008 -0.1740 -0.3827  0.5468
 8196SOL    HW136221   3.621   2.802  16.971  1.6671 -0.5473 -0.5002
 8196SOL    HW236222   3.591   2.940  16.955  1.7922  1.1689 -0.0198
 8197SOL     OW36223   0.672   0.639  11.545 -0.4758 -0.1990  0.2654
 8197SOL    HW136224   0.709   0.632  11.457  0.2446 -0.8215  0.6188
 8197SOL    HW236225   0.679   0.734  11.554 -1.2555  0.0155 -1.4035
 8198SOL     OW36226   2.507   4.289  11.486  0.0671  0.8045 -0.1080
 8198SOL    HW136227   2.514   4.194  11.496  1.2068  0.7716 -1.2049
 8198SOL    HW236228   2.414   4.301  11.465  0.0528 -0.1003 -0.5438
 8199SOL     OW36229   2.485   2.148  15.501 -0.5054 -0.1653  0.1727
 8199SOL    HW136230   2.438   2.170  15.421 -2.1527  0.9017  1.4419
 8199SOL    HW236231   2.565   2.110  15.463  2.3569  3.0482  2.9318
 8200SOL     OW36232   0.798   3.814   5.177 -0.2317  0.3401  0.1694
 8200SOL    HW136233   0.816   3.738   5.233  0.5677  0.9155  0.6985
 8200SOL    HW236234   0.733   3.782   5.114 -2.1609  1.6529  1.5128
 8201SOL     OW36235   4.439   4.729  11.409  0.0597  0.4872  0.3099
 8201SOL    HW136236   4.526   4.696  11.432 -0.3267  0.8873  2.3330
 8201SOL    HW236237   4.401   0.007  11.496  1.8625  1.0905  0.9914
 8202SOL     OW36238   1.361   3.236  11.619 -0.4059 -0.1862 -0.2134
 8202SOL    HW136239   1.436   3.247  11.678  0.4505 -0.0289 -1.3127
 8202SOL    HW236240   1.287   3.271  11.668 -0.4970 -0.0909 -0.4170
 8203SOL     OW36241   3.878   3.048   1.259 -0.3256  0.0586  0.1449
 8203SOL    HW136242   3.822   3.122   1.236  1.6131  1.6124  0.5218
 8203SOL    HW236243   3.950   3.093   1.301  0.0079 -1.4626  1.2043
 8204SOL     OW36244   0.908   0.539   5.656 -0.2283 -0.2082  0.3029
 8204SOL    HW136245   0.998   0.557   5.681  0.0315 -0.1232 -0.6992
 8204SOL    HW236246   0.867   0.502   5.734 -3.3177  1.1975 -0.6357
 8205SOL     OW36247   2.769   3.058  12.641  0.1733  0.4253  0.3139
 8205SOL    HW136248   2.701   3.053  12.709  0.6112 -0.8002  0.6472
 8205SOL    HW236249   2.765   2.969  12.606  1.6875  0.7637 -0.7029
 8206SOL     OW36250   2.900   0.526  17.160 -0.2498 -0.1614 -0.0239
 8206SOL    HW136251   2.832   0.469  17.195 -1.5241  1.7199  0.5598
 8206SOL    HW236252   2.939   0.570  17.236  1.2418  1.4514 -1.7283
 8207SOL     OW36253   0.180   2.252  11.419  0.2959 -0.4211 -0.0995
 8207SOL    HW136254   0.258   2.259  11.365 -0.6566  2.1005 -1.1351
 8207SOL    HW236255   0.122   2.321  11.387 -0.4848 -0.1906  1.8070
 8208SOL     OW36256   2.249   1.557   2.467 -0.0617 -0.3438 -0.6464
 8208SOL    HW136257   2.238   1.633   2.410  2.0213  1.3832  1.1974
 8208SOL    HW236258   2.283   1.493   2.406  2.3806  0.4542 -0.1304
 8209SOL     OW36259   4.481   4.104   2.986  0.8419 -0.0188  0.3699
 8209SOL    HW136260   4.387   4.096   2.968  0.4363  1.5270  1.8147
 8209SOL    HW236261   4.499   4.187   2.942 -1.8336 -0.3555 -1.4203
 8210SOL     OW36262   1.247   0.957   4.731  0.1576 -0.3862  0.0804
 8210SOL    HW136263   1.321   0.905   4.762 -0.1172  0.5392  2.2591
 8210SOL    HW236264   1.232   1.013   4.807 -1.5124  0.5228 -0.9263
 8211SOL     OW36265   0.525   3.987   9.195  0.2320 -0.0052 -0.0588
 8211SOL    HW136266   0.532   4.024   9.283  1.9642 -2.2213  0.7243
 8211SOL    HW236267   0.473   4.052   9.148  0.7302 -0.7396 -1.6331
 8212SOL     OW36268   1.585   4.328   2.111 -0.9884 -0.5270  0.3276
 8212SOL    HW136269   1.544   4.309   2.195  2.5028 -0.6761  1.9794
 8212SOL    HW236270   1.512   4.330   2.050 -2.0176 -1.3079  1.5437
 8213SOL     OW36271   1.294   1.780  14.995  0.3865 -0.4960 -0.3481
 8213SOL    HW136272   1.288   1.716  15.066  0.4101 -0.1603 -0.0441
 8213SOL    HW236273   1.265   1.726  14.921 -3.3274  1.6438 -0.4713
 8214SOL     OW36274   0.011   2.228   2.432 -0.1103 -0.0490 -0.3324
 8214SOL    HW136275   0.085   2.167   2.426 -0.6536 -0.5295 -1.9864
 8214SOL    HW236276   4.685   2.184   2.374  1.4547 -2.6930  0.0130
 8215SOL     OW36277   2.138   3.968   7.262  0.0624 -0.2295  0.3783
 8215SOL    HW136278   2.163   4.020   7.338  1.6356 -3.4435  2.0866
 8215SOL    HW236279   2.217   3.913   7.259  0.2561  0.0342  0.6263
 8216SOL     OW36280   1.523   2.917   2.466  0.1023 -0.8194  0.6971
 8216SOL    HW136281   1.615   2.891   2.463  0.2541 -0.1800 -0.3029
 8216SOL    HW236282   1.510   2.954   2.378 -0.2043 -2.6145 -0.0114
 8217SOL     OW36283   2.701   3.158   9.542 -0.1049  0.4834 -0.3194
 8217SOL    HW136284   2.750   3.207   9.476 -1.0777  0.2647 -1.2027
 8217SOL    HW236285   2.667   3.231   9.592 -2.0379 -1.0819  0.6642
 8218SOL     OW36286   1.880   2.023   5.314 -0.3432  0.2459  0.1763
 8218SOL    HW136287   1.861   2.017   5.221 -1.1473  0.8029  0.3054
 8218SOL    HW236288   1.857   1.936   5.347 -2.7161  1.4401  1.7068
 8219SOL     OW36289   0.790   2.749  11.405  0.0981 -0.9715 -0.1928
 8219SOL    HW136290   0.861   2.806  11.376  0.0220 -0.2654  1.0164
 8219SOL    HW236291   0.837   2.708  11.477  1.9949 -0.0598 -0.9186
 8220SOL     OW36292   1.368   0.060  14.321 -0.2796 -0.9160 -0.0537
 8220SOL    HW136293   1.306   0.126  14.353 -1.0507 -1.4773 -0.3844
 8220SOL    HW236294   1.433   0.065  14.391 -0.6495 -0.4146  0.2562
 8221SOL     OW36295   4.023   0.176   1.642 -0.7452 -0.1604  0.9623
 8221SOL    HW136296   4.049   0.186   1.550 -0.7967  2.5508  1.2360
 8221SOL    HW236297   3.982   0.260   1.666  2.1446  0.8487  2.4268
 8222SOL     OW36298   3.930   2.612   3.683 -0.1242  0.4355 -0.1323
 8222SOL    HW136299   3.901   2.524   3.707 -0.7494  0.4317 -0.8892
 8222SOL    HW236300   3.843   2.647   3.667  0.4504  0.7846 -2.4923
 8223SOL     OW36301   0.537   1.833   5.952 -0.1973  0.5961  0.1644
 8223SOL    HW136302   0.470   1.886   5.995 -0.7873 -0.9963  1.1670
 8223SOL    HW236303   0.616   1.846   6.004 -0.7192  1.7861  0.6631
 8224SOL     OW36304   4.154   2.488   7.191 -0.3301  0.2073 -0.1734
 8224SOL    HW136305   4.176   2.470   7.282  0.3011  1.2973 -0.1088
 8224SOL    HW236306   4.130   2.581   7.199  1.9259  0.6032  1.7972
 8225SOL     OW36307   2.819   2.402   6.730 -0.0516 -0.4263  0.4365
 8225SOL    HW136308   2.913   2.419   6.731  0.0660 -1.1973  2.1773
 8225SOL    HW236309   2.809   2.385   6.636  0.2608 -1.2280  0.5563
 8226SOL     OW36310   0.235   4.172   2.791 -0.3868  0.6716 -0.0166
 8226SOL    HW136311   0.287   4.252   2.795 -0.9913  0.9944  1.1690
 8226SOL    HW236312   0.168   4.194   2.856 -2.9628  0.4933 -2.5800
 8227SOL     OW36313   3.602   4.552   5.443 -0.0932 -0.3460 -0.5042
 8227SOL    HW136314   3.549   4.548   5.523 -2.8200  1.0914 -2.2189
 8227SOL    HW236315   3.671   4.610   5.474  0.9752 -1.5643 -0.5993
 8228SOL     OW36316   4.549   4.546  11.128  0.3784 -0.2175  0.8108
 8228SOL    HW136317   4.466   4.498  11.122  0.9839 -1.0498 -0.7867
 8228SOL    HW236318   4.602   4.486  11.180  1.0754  0.0094  0.3588
 8229SOL     OW36319   1.790   4.470   8.755 -0.1047 -0.6192 -0.3527
 8229SOL    HW136320   1.789   4.563   8.732  0.0382 -0.6918 -0.6526
 8229SOL    HW236321   1.732   4.464   8.831  2.1000 -0.4872  1.3410
 8230SOL     OW36322   3.729   1.093   3.751  0.7003  0.2819  0.2697
 8230SOL    HW136323   3.816   1.051   3.749  0.4012 -0.2837 -1.4120
 8230SOL    HW236324   3.703   1.084   3.659 -1.8944  0.2428  1.0055
 8231SOL     OW36325   0.271   1.402  12.805 -0.1360  0.2344  0.1129
 8231SOL    HW136326   0.322   1.326  12.775  0.2239 -0.3276  2.1909
 8231SOL    HW236327   0.223   1.367  12.880 -0.3134  1.1643  0.4280
 8232SOL     OW36328   2.411   3.437   4.498 -0.2817  0.0253 -0.1170
 8232SOL    HW136329   2.331   3.479   4.530 -1.2393 -2.0990  0.2865
 8232SOL    HW236330   2.392   3.421   4.406 -1.0080 -1.1544  0.2388
 8233SOL     OW36331   1.812   4.508   5.656  0.7245  0.1367 -0.7411
 8233SOL    HW136332   1.728   4.509   5.702  2.3796  1.7517  2.2237
 8233SOL    HW236333   1.796   4.447   5.584  0.5871 -0.2215 -0.4084
 8234SOL     OW36334   2.215   3.363   7.919 -0.0503 -0.0347 -0.3120
 8234SOL    HW136335   2.133   3.315   7.932 -0.3752  1.2517  2.4570
 8234SOL    HW236336   2.197   3.457   7.929 -3.2690 -0.7590  0.7330
 8235SOL     OW36337   0.654   4.662   3.352 -1.0449  0.9057  0.0929
 8235SOL    HW136338   0.632   4.676   3.444 -1.5003  1.4249 -0.0937
 8235SOL    HW236339   0.613   4.576   3.338  0.3327  0.1712  0.5728
 8236SOL     OW36340   4.488   2.986   8.742  0.1045  0.0849  0.2900
 8236SOL    HW136341   4.524   3.074   8.737 -0.5550  0.3574  0.2673
 8236SOL    HW236342   4.543   2.948   8.810  0.1227 -0.1920  0.1213
 8237SOL     OW36343   3.346   4.445   0.084  0.4761  0.6043  0.0261
 8237SOL    HW136344   3.418   4.385   0.064 -0.6404 -0.1967 -1.5064
 8237SOL    HW236345   3.292   4.376   0.124  1.3342  1.1674  2.1830
 8238SOL     OW36346   0.454   0.215   3.646  0.2677 -0.1834  0.3215
 8238SOL    HW136347   0.363   0.190   3.660 -0.6028  2.2946 -0.9169
 8238SOL    HW236348   0.461   0.271   3.724  2.3826  2.0648 -1.4875
 8239SOL     OW36349   0.244   1.201   5.872  0.7332  0.0007 -0.1849
 8239SOL    HW136350   0.166   1.250   5.845  1.4215 -0.1161 -2.3615
 8239SOL    HW236351   0.214   1.128   5.926  1.4862  1.7351  2.5590
 8240SOL     OW36352   2.515   0.052   7.003 -0.3510  0.4415 -0.3736
 8240SOL    HW136353   2.510   4.699   6.968 -0.3833  0.1083  0.4925
 8240SOL    HW236354   2.430   0.046   7.046  0.0671 -3.0597 -0.0837
 8241SOL     OW36355   1.655   4.619   1.946  0.1339 -0.0714  0.0611
 8241SOL    HW136356   1.635   4.693   2.003  0.3093 -0.4531  0.6174
 8241SOL    HW236357   1.568   4.592   1.917  0.0575 -0.3689  0.5648
 8242SOL     OW36358   1.506   1.586  15.873 -0.1137 -0.2757  0.4910
 8242SOL    HW136359   1.462   1.619  15.794 -2.2337 -0.3549  1.6374
 8242SOL    HW236360   1.473   1.657  15.928 -0.7089 -0.5731  0.5113
 8243SOL     OW36361   3.329   2.210  13.942 -0.1125  0.3699  0.0731
 8243SOL    HW136362   3.305   2.247  14.027 -0.9696 -1.7076  0.7408
 8243SOL    HW236363   3.357   2.293  13.904  2.2123  0.0259  1.0273
 8244SOL     OW36364   4.070   4.614   8.324 -0.0403  0.2184 -0.2109
 8244SOL    HW136365   4.155   4.657   8.336 -0.3040  0.4157  1.0089
 8244SOL    HW236366   4.027   4.678   8.268 -0.6378 -0.7863 -0.8971
 8245SOL     OW36367   4.243   0.047   3.930 -0.4944  0.3636 -0.2172
 8245SOL    HW136368   4.286   4.730   3.998  1.7117  0.5232 -1.4825
 8245SOL    HW236369   4.155   0.010   3.933 -0.1166 -0.4577  0.7975
 8246SOL     OW36370   1.426   2.434  14.604 -0.4789 -0.5668 -0.4192
 8246SOL    HW136371   1.506   2.429  14.551  0.3352  0.5124  0.7263
 8246SOL    HW236372   1.441   2.366  14.670  0.2221  0.8137  0.8365
 8247SOL     OW36373   2.202   2.026  16.951  0.2328  0.4585 -0.3032
 8247SOL    HW136374   2.293   2.047  16.935  0.3329  0.6690  0.5401
 8247SOL    HW236375   2.202   2.021  17.047 -0.9080 -0.8311 -0.3651
 8248SOL     OW36376   0.900   3.632   8.522  0.2285  0.0938 -0.4666
 8248SOL    HW136377   0.915   3.561   8.585  1.2868 -0.3284 -1.1662
 8248SOL    HW236378   0.818   3.659   8.561  1.5006  3.4425 -0.1209
 8249SOL     OW36379   2.503   3.518   1.933 -0.0993 -0.4564 -0.0635
 8249SOL    HW136380   2.480   3.568   2.012 -0.5610 -0.5123 -0.1611
 8249SOL    HW236381   2.457   3.435   1.938 -2.1227  0.7099  0.8170
 8250SOL     OW36382   1.934   1.282  10.233 -0.2557  0.2463 -0.2487
 8250SOL    HW136383   1.851   1.257  10.273 -0.0736 -0.1046 -0.0942
 8250SOL    HW236384   1.947   1.212  10.169 -1.6997 -0.3507  0.1207
 8251SOL     OW36385   1.664   0.193   5.309 -0.9005 -0.1839 -0.1333
 8251SOL    HW136386   1.702   0.234   5.387 -0.1895 -1.7431  0.3427
 8251SOL    HW236387   1.631   0.111   5.345 -1.2236 -0.5398 -1.2455
 8252SOL     OW36388   0.943   2.370   5.102 -0.0571  0.5976 -0.2672
 8252SOL    HW136389   1.037   2.375   5.083 -0.7426  0.7352 -3.6262
 8252SOL    HW236390   0.923   2.286   5.061  2.3864  0.3895 -0.9977
 8253SOL     OW36391   4.430   0.048  13.920  0.2689  0.2253 -0.0443
 8253SOL    HW136392   4.336   0.042  13.937  0.3108 -0.9895 -0.2091
 8253SOL    HW236393   4.441   0.117  13.855  1.6532 -0.4251 -0.5093
 8254SOL     OW36394   1.129   0.454   0.642 -0.3490 -0.6187 -0.0355
 8254SOL    HW136395   1.206   0.398   0.652 -1.9822 -2.7167  0.8581
 8254SOL    HW236396   1.130   0.491   0.731 -1.3873 -1.6906  0.4215
 8255SOL     OW36397   1.332   1.689  15.703 -0.3422  0.0860 -0.0721
 8255SOL    HW136398   1.241   1.685  15.733 -0.2975  2.2502  0.3083
 8255SOL    HW236399   1.338   1.779  15.673 -0.8706 -0.4482 -1.7784
 8256SOL     OW36400   2.301   3.322  15.487 -0.0773  0.5402 -0.4622
 8256SOL    HW136401   2.286   3.365  15.402 -0.2095 -0.4272 -0.9313
 8256SOL    HW236402   2.249   3.386  15.536  0.6997 -0.0247  1.0825
 8257SOL     OW36403   3.471   1.538   8.008  0.3384  0.2317 -0.6585
 8257SOL    HW136404   3.405   1.489   8.056 -1.0434  0.4755 -2.3199
 8257SOL    HW236405   3.447   1.523   7.917 -1.7728  2.2697 -0.4217
 8258SOL     OW36406   4.470   3.258   4.974  0.9980  0.4064  0.1470
 8258SOL    HW136407   4.433   3.173   4.997  2.0816 -0.2898 -0.6478
 8258SOL    HW236408   4.496   3.239   4.884 -0.4863 -0.0710 -0.1741
 8259SOL     OW36409   2.988   3.780   6.565  0.1550  0.4226 -0.3005
 8259SOL    HW136410   2.898   3.803   6.547  0.6034  1.7042 -0.8533
 8259SOL    HW236411   2.971   3.699   6.614  0.3715 -0.4643 -1.6956
 8260SOL     OW36412   4.169   3.299   7.955  0.0305 -0.3993 -0.4339
 8260SOL    HW136413   4.242   3.359   7.945  0.3755 -0.9711 -1.4498
 8260SOL    HW236414   4.209   3.215   7.978 -1.2509 -1.0827 -0.6907
 8261SOL     OW36415   4.404   4.120  11.744 -0.0448  0.0063 -0.1362
 8261SOL    HW136416   4.311   4.105  11.726 -0.4768  0.9362  1.3652
 8261SOL    HW236417   4.403   4.117  11.839  2.6986 -3.2328 -0.1957
 8262SOL     OW36418   1.649   3.626   4.151  1.0559  0.6333  0.5013
 8262SOL    HW136419   1.619   3.703   4.201 -1.8581  0.2849 -0.7156
 8262SOL    HW236420   1.586   3.560   4.180  1.9878 -0.8824 -0.9599
 8263SOL     OW36421   2.701   1.412   0.291  0.0239 -0.2068 -0.1761
 8263SOL    HW136422   2.683   1.338   0.349 -1.2937  0.2274 -0.0372
 8263SOL    HW236423   2.614   1.426   0.254 -0.7739  0.5467  1.9852
 8264SOL     OW36424   3.859   1.231  14.387  0.3608 -0.7794 -0.0850
 8264SOL    HW136425   3.795   1.213  14.318 -0.5978  1.1460  0.3180
 8264SOL    HW236426   3.928   1.270  14.334  0.6670  1.8644  2.2756
 8265SOL     OW36427   1.393   2.845   1.937 -0.4173  0.3274 -0.1570
 8265SOL    HW136428   1.309   2.801   1.938  0.5497 -1.5534 -1.4970
 8265SOL    HW236429   1.373   2.915   1.875 -2.2074 -0.3462 -0.3453
 8266SOL     OW36430   0.342   3.268   4.312  0.1659 -0.1752  0.4689
 8266SOL    HW136431   0.293   3.279   4.231  1.1235  1.0581  0.0614
 8266SOL    HW236432   0.418   3.324   4.293  0.7447 -0.8741  0.6989
 8267SOL     OW36433   3.315   2.237   8.498 -0.1789 -1.0439 -0.1820
 8267SOL    HW136434   3.290   2.300   8.565  1.0452 -0.2499 -0.4852
 8267SOL    HW236435   3.299   2.156   8.546 -1.3980  0.8612  2.6005
 8268SOL     OW36436   3.610   1.098   4.878  0.0399  0.3473 -0.2056
 8268SOL    HW136437   3.642   1.011   4.903 -0.4908  0.8530  2.1940
 8268SOL    HW236438   3.587   1.135   4.963 -1.6997 -0.2370 -0.4121
 8269SOL     OW36439   1.074   2.933   1.722  0.3810  0.2017 -0.0733
 8269SOL    HW136440   1.052   2.903   1.810 -0.3675  2.4299  0.4988
 8269SOL    HW236441   1.045   3.024   1.729 -2.3620 -0.3897 -3.8917
 8270SOL     OW36442   0.258   1.137   9.863  0.0298  0.1710 -0.2423
 8270SOL    HW136443   0.301   1.066   9.815 -1.0989 -1.9841  1.9392
 8270SOL    HW236444   0.173   1.159   9.824 -0.5094 -1.5415 -0.0473
 8271SOL     OW36445   1.891   3.131   4.978  0.0828  0.0008 -0.0126
 8271SOL    HW136446   1.981   3.106   5.002 -0.2692  0.1778  1.4664
 8271SOL    HW236447   1.842   3.071   5.033 -1.3606 -0.4292 -1.7691
 8272SOL     OW36448   4.327   0.331   1.836  0.1394  0.5803 -0.3519
 8272SOL    HW136449   4.291   0.335   1.924  0.9506 -0.2372  0.0259
 8272SOL    HW236450   4.376   0.248   1.839 -0.7729  0.0621  0.1112
 8273SOL     OW36451   4.025   2.834   2.369  0.0630  0.0727  0.1019
 8273SOL    HW136452   4.041   2.860   2.278 -1.3188  1.4135  0.2484
 8273SOL    HW236453   4.074   2.752   2.370  0.8555  0.5285 -0.8693
 8274SOL     OW36454   3.288   1.590  14.037  0.3814 -0.6395 -0.0888
 8274SOL    HW136455   3.374   1.630  14.045 -0.3786  1.1512 -0.6709
 8274SOL    HW236456   3.321   1.503  14.013  1.4909 -0.1291 -0.4079
 8275SOL     OW36457   1.674   1.304   9.747 -0.9382 -0.3897 -0.0634
 8275SOL    HW136458   1.683   1.345   9.833 -0.9874  0.5600 -0.5113
 8275SOL    HW236459   1.754   1.340   9.711 -1.0185  0.6797  0.8253
 8276SOL     OW36460   0.763   1.252  13.076 -0.0773  0.1706 -0.4524
 8276SOL    HW136461   0.846   1.300  13.070  1.7622 -3.1032 -0.9592
 8276SOL    HW236462   0.794   1.167  13.105 -1.6759  0.4097  1.9704
 8277SOL     OW36463   0.304   4.010   6.326  0.8791 -0.1828 -0.6648
 8277SOL    HW136464   0.282   4.097   6.293  0.9644  1.1097  2.7068
 8277SOL    HW236465   0.262   4.016   6.412 -1.8585  2.0193 -2.1597
 8278SOL     OW36466   3.070   1.192   7.638 -0.4488  0.0687  0.4053
 8278SOL    HW136467   3.074   1.111   7.689  0.3644  1.5335  2.6437
 8278SOL    HW236468   2.989   1.178   7.588  0.3696 -1.4209 -0.5029
 8279SOL     OW36469   1.574   1.674   5.930  0.4205 -0.0607  0.1465
 8279SOL    HW136470   1.601   1.626   6.008 -0.5224  0.2354  0.6580
 8279SOL    HW236471   1.659   1.679   5.887  0.1264 -1.7366 -0.6084
 8280SOL     OW36472   1.863   1.603   5.727  0.2300  0.3150  0.0602
 8280SOL    HW136473   1.796   1.543   5.695  0.6149 -0.0964  0.0250
 8280SOL    HW236474   1.946   1.555   5.717  0.6468  0.9785  0.3059
 8281SOL     OW36475   0.671   0.846   4.147 -0.4994  0.9144 -0.1735
 8281SOL    HW136476   0.590   0.854   4.097 -0.1108  1.6795 -0.6787
 8281SOL    HW236477   0.656   0.918   4.209 -0.5069 -0.3739  1.3323
 8282SOL     OW36478   2.203   3.391   7.302  0.6219 -0.4587  0.6896
 8282SOL    HW136479   2.172   3.325   7.240  0.7710 -1.7018  1.9375
 8282SOL    HW236480   2.254   3.457   7.255  0.2152  1.1015  2.4174
 8283SOL     OW36481   2.254   4.239   4.518  0.2469  0.6864 -0.3413
 8283SOL    HW136482   2.245   4.147   4.495  1.0675 -0.1455  2.6253
 8283SOL    HW236483   2.298   4.234   4.603 -0.3370  3.1424  0.1255
 8284SOL     OW36484   1.070   2.499  15.410  0.4356 -0.0680  0.3555
 8284SOL    HW136485   1.037   2.587  15.389 -0.9149 -0.8039 -0.6369
 8284SOL    HW236486   1.125   2.484  15.334  0.3404  0.6218  0.1519
 8285SOL     OW36487   3.836   1.614   8.812 -0.0134  0.3362  0.4526
 8285SOL    HW136488   3.742   1.603   8.800 -0.0984  2.6358 -0.8822
 8285SOL    HW236489   3.863   1.522   8.807 -0.9032  0.2169 -2.4316
 8286SOL     OW36490   2.660   3.382  16.452 -0.3536 -0.2563 -0.0427
 8286SOL    HW136491   2.678   3.418  16.539 -1.1200 -2.2477  0.9463
 8286SOL    HW236492   2.746   3.406  16.419 -1.0516  1.5527 -0.5442
 8287SOL     OW36493   0.202   2.926  12.518  0.1001  0.6568  0.1950
 8287SOL    HW136494   0.132   2.878  12.473  0.2597 -0.0811  0.7472
 8287SOL    HW236495   0.277   2.907  12.462  0.2646 -1.2813  1.1022
 8288SOL     OW36496   2.297   0.730   9.691  0.3091 -0.0535 -0.2567
 8288SOL    HW136497   2.307   0.689   9.605  2.6424  0.5247 -0.2528
 8288SOL    HW236498   2.225   0.793   9.682 -1.0689 -1.7718 -1.3041
 8289SOL     OW36499   2.091   3.115   3.964 -0.4462 -0.3931 -0.2767
 8289SOL    HW136500   2.065   3.114   4.057  1.4562  1.2269  0.2635
 8289SOL    HW236501   2.012   3.153   3.926  0.4189  2.0483  0.4002
 8290SOL     OW36502   2.236   2.220  10.160 -0.6764  0.4731  0.0218
 8290SOL    HW136503   2.252   2.127  10.145 -0.2510  0.4226  0.8437
 8290SOL    HW236504   2.297   2.237  10.231  0.1906 -2.5618  0.0273
 8291SOL     OW36505   1.250   4.669   7.625  0.7503  0.2318 -0.6209
 8291SOL    HW136506   1.176   4.674   7.685  1.5201  1.5350  0.2313
 8291SOL    HW236507   1.326   4.676   7.682  0.4654 -0.1834 -0.1937
 8292SOL     OW36508   2.725   0.096  10.340 -0.2000 -0.0575  0.6653
 8292SOL    HW136509   2.777   0.164  10.297  1.3668  0.1962  2.9187
 8292SOL    HW236510   2.638   0.103  10.302  0.5600 -1.6246 -1.3285
 8293SOL     OW36511   2.964   3.863  10.525  0.0778 -0.1783 -0.2697
 8293SOL    HW136512   3.015   3.905  10.595 -0.2251 -2.0980  1.0966
 8293SOL    HW236513   2.874   3.885  10.548 -0.7359 -2.3630 -1.4337
 8294SOL     OW36514   3.584   0.614  12.252  0.7076  0.4454  0.3104
 8294SOL    HW136515   3.540   0.655  12.177 -1.1136 -0.0845  1.0885
 8294SOL    HW236516   3.551   0.524  12.247 -0.3994  0.7894  1.6122
 8295SOL     OW36517   0.329   2.276   2.681  0.2881  0.8459 -0.3298
 8295SOL    HW136518   0.359   2.304   2.595  1.8679  0.7950  0.1974
 8295SOL    HW236519   0.331   2.357   2.732 -0.4451  1.0899 -0.6917
 8296SOL     OW36520   4.163   3.267   9.948  0.3830 -0.3671  0.1127
 8296SOL    HW136521   4.163   3.186   9.999 -1.5539 -0.7235 -0.4392
 8296SOL    HW236522   4.228   3.250   9.880  0.6658  0.4328  0.1864
 8297SOL     OW36523   3.531   2.351   3.650 -0.1178 -0.1836 -0.1191
 8297SOL    HW136524   3.461   2.410   3.679 -0.0778 -0.8601  1.3689
 8297SOL    HW236525   3.504   2.324   3.563 -0.4161 -0.7203  0.1393
 8298SOL     OW36526   1.258   2.813   3.060 -0.2354  0.1191  0.1586
 8298SOL    HW136527   1.257   2.907   3.044  1.6458  0.0790 -0.1190
 8298SOL    HW236528   1.257   2.783   2.969  0.0683  1.2192 -0.2081
 8299SOL     OW36529   4.599   0.068   6.389  0.0918 -0.1652  0.1772
 8299SOL    HW136530   4.534   0.001   6.410 -0.0450  0.5871  2.2171
 8299SOL    HW236531   4.603   0.119   6.470  2.7396  0.5433 -0.3794
 8300SOL     OW36532   0.936   2.773   1.944  0.4164  0.6264  0.0197
 8300SOL    HW136533   0.914   2.696   1.996  0.2687 -0.6093 -1.8766
 8300SOL    HW236534   0.856   2.826   1.951 -1.0751 -1.8982  2.1723
 8301SOL     OW36535   4.339   2.783   1.721 -0.2099 -0.6191  0.9416
 8301SOL    HW136536   4.277   2.713   1.741  0.4359 -0.6555  2.8215
 8301SOL    HW236537   4.406   2.733   1.675 -1.3235 -0.3574 -0.9590
 8302SOL     OW36538   0.130   0.146   4.487  0.1355  0.5368  0.5691
 8302SOL    HW136539   0.067   0.190   4.429  0.3386  0.8110  0.5540
 8302SOL    HW236540   0.214   0.183   4.459 -0.4400  1.5740  0.1914
 8303SOL     OW36541   3.349   1.368   8.619 -0.3625  0.1618  0.3024
 8303SOL    HW136542   3.431   1.351   8.572  0.0646  1.4929  0.5791
 8303SOL    HW236543   3.290   1.311   8.571  2.3055 -2.3176 -0.0835
 8304SOL     OW36544   3.133   1.197   0.917  0.6876  0.1762  0.1315
 8304SOL    HW136545   3.088   1.211   1.001  0.7171  1.8257 -0.1299
 8304SOL    HW236546   3.061   1.211   0.856 -0.0306 -1.4364  0.5996
 8305SOL     OW36547   2.313   3.148  12.825 -0.5605  0.5589 -0.3526
 8305SOL    HW136548   2.243   3.101  12.869  0.9362 -0.1503  1.2869
 8305SOL    HW236549   2.276   3.233  12.846 -1.3644 -0.1152  0.9349
 8306SOL     OW36550   0.034   0.746   3.852  0.1897  0.2428  0.2905
 8306SOL    HW136551   4.679   0.738   3.882 -0.6241 -0.4799 -2.2965
 8306SOL    HW236552   0.076   0.690   3.917  1.3206  1.6004  0.7104
 8307SOL     OW36553   0.036   2.781   3.383 -0.0094  0.2588 -0.5157
 8307SOL    HW136554   0.129   2.794   3.403  0.0493  0.5478 -0.9815
 8307SOL    HW236555   4.731   2.857   3.424  1.2384  0.3503  0.5450
 8308SOL     OW36556   4.278   0.936   3.455  0.4213 -0.3105 -0.2729
 8308SOL    HW136557   4.280   0.845   3.427  0.4055  0.3540 -2.4344
 8308SOL    HW236558   4.212   0.973   3.397 -0.2053  1.3671  1.4944
 8309SOL     OW36559   2.802   1.241   4.070  0.4388 -0.4694 -0.1771
 8309SOL    HW136560   2.856   1.261   3.993  1.1867  3.1559  1.3178
 8309SOL    HW236561   2.716   1.224   4.032  0.9070 -1.0231 -0.9999
 8310SOL     OW36562   4.008   3.823   4.746  0.0334  0.0971 -0.3929
 8310SOL    HW136563   4.023   3.747   4.690  0.6324  1.5266 -2.1867
 8310SOL    HW236564   3.958   3.787   4.819 -1.0557  0.7740 -0.7845
 8311SOL     OW36565   2.706   4.597   2.918  1.0603  0.1263 -0.1438
 8311SOL    HW136566   2.736   4.669   2.973 -0.3834  0.2762  0.4456
 8311SOL    HW236567   2.680   4.657   2.848 -0.5645  0.9242  1.1400
 8312SOL     OW36568   1.163   4.535  14.246 -0.5737 -0.3963 -0.0014
 8312SOL    HW136569   1.243   4.557  14.293 -0.6591  0.4804 -0.2631
 8312SOL    HW236570   1.153   4.450  14.287  1.8954 -0.4076  0.5352
 8313SOL     OW36571   1.471   3.254  10.408 -0.0604 -0.5774  0.3229
 8313SOL    HW136572   1.462   3.349  10.414  0.2077 -0.6140  1.2916
 8313SOL    HW236573   1.564   3.234  10.393 -0.0560 -0.2120 -0.1481
 8314SOL     OW36574   3.592   1.714   2.861  0.2876  0.0363 -0.1413
 8314SOL    HW136575   3.609   1.621   2.873  0.5486  0.0729 -0.2293
 8314SOL    HW236576   3.514   1.701   2.806  0.1489  1.2545 -0.2267
 8315SOL     OW36577   3.127   3.620   0.735  0.1531  0.1959 -0.3442
 8315SOL    HW136578   3.125   3.583   0.823 -3.8029  2.0530  0.3395
 8315SOL    HW236579   3.165   3.707   0.748 -2.1381  0.8313  2.1734
 8316SOL     OW36580   2.765   3.679  13.208  0.1956 -0.1823 -0.5207
 8316SOL    HW136581   2.715   3.603  13.180  0.6573 -0.5002 -0.4676
 8316SOL    HW236582   2.737   3.737  13.137  1.1494  1.2896  0.3042
 8317SOL     OW36583   1.113   1.086   4.528  0.4773 -0.5255  0.4615
 8317SOL    HW136584   1.167   1.058   4.602  2.3546 -0.4227 -0.8799
 8317SOL    HW236585   1.126   1.180   4.525 -1.6754 -0.1717  1.6176
 8318SOL     OW36586   1.105   2.713   6.989 -0.4005  0.0234  0.0140
 8318SOL    HW136587   1.063   2.797   7.010 -0.1744  1.4828 -5.1243
 8318SOL    HW236588   1.172   2.747   6.929 -1.6529  1.1303 -0.7719
 8319SOL     OW36589   3.021   2.173   0.748 -0.4758 -0.3344  0.4452
 8319SOL    HW136590   2.985   2.093   0.787  0.6190 -0.1225  1.8996
 8319SOL    HW236591   2.966   2.184   0.671 -1.6012  4.9243  2.0370
 8320SOL     OW36592   1.754   0.745   2.358 -0.2727  0.4133  0.1037
 8320SOL    HW136593   1.833   0.796   2.340 -0.2255  0.3544  0.1460
 8320SOL    HW236594   1.768   0.738   2.452  0.1839 -1.2542 -0.0889
 8321SOL     OW36595   3.937   0.214   4.557 -0.3638 -0.0428  0.3558
 8321SOL    HW136596   3.918   0.131   4.514  1.8062  0.5727 -1.7957
 8321SOL    HW236597   3.868   0.194   4.621 -0.7029 -0.6617 -0.2076
 8322SOL     OW36598   0.454   2.946   2.110 -0.0893 -0.2542 -0.3602
 8322SOL    HW136599   0.513   3.020   2.127  1.1619 -1.4456  0.5180
 8322SOL    HW236600   0.390   2.948   2.181  1.2805  0.8366  0.8314
 8323SOL     OW36601   4.386   4.706   5.330  0.4632 -0.8276 -0.3006
 8323SOL    HW136602   4.473   4.684   5.363  0.0813 -1.1780  0.4808
 8323SOL    HW236603   4.331   4.628   5.328  1.2750 -1.4106  0.0430
 8324SOL     OW36604   3.114   2.794   1.633 -0.3799 -0.3107  0.2327
 8324SOL    HW136605   3.040   2.844   1.597 -0.8665  0.3956  2.1872
 8324SOL    HW236606   3.185   2.831   1.581  0.1861  0.2510  1.4047
 8325SOL     OW36607   0.239   1.939   6.567  0.2432 -0.1368 -0.4871
 8325SOL    HW136608   0.284   1.959   6.649  0.8132  0.8189 -1.0285
 8325SOL    HW236609   0.210   1.850   6.585  0.3745  0.5170  2.9949
 8326SOL     OW36610   1.705   3.439  15.571  0.4962 -0.3383  0.0574
 8326SOL    HW136611   1.778   3.437  15.632  1.2348  0.9668 -0.7858
 8326SOL    HW236612   1.678   3.348  15.559 -1.0108  0.1312 -0.0801
 8327SOL     OW36613   4.387   1.049  11.396 -0.5267  0.3017  0.1474
 8327SOL    HW136614   4.322   1.017  11.459  1.5855 -0.4658  1.9298
 8327SOL    HW236615   4.433   1.124  11.433  0.4183  0.4670 -1.3717
 8328SOL     OW36616   0.640   3.920   2.114  0.1988 -0.1465  0.4165
 8328SOL    HW136617   0.727   3.891   2.088  1.2253  0.7322  2.8897
 8328SOL    HW236618   0.642   3.910   2.209 -0.1832 -1.5971  0.2748
 8329SOL     OW36619   4.270   3.020   2.396  0.1273 -0.1499  0.7340
 8329SOL    HW136620   4.210   3.078   2.349 -0.0904  1.0505  2.5019
 8329SOL    HW236621   4.255   2.941   2.345 -0.0408  1.5762 -1.8961
 8330SOL     OW36622   1.684   0.503   5.123  0.1385 -0.0009  0.4736
 8330SOL    HW136623   1.719   0.470   5.041 -0.1403 -0.2016  0.4335
 8330SOL    HW236624   1.722   0.455   5.197 -0.0021 -0.5375  0.2030
 8331SOL     OW36625   2.798   1.903   7.178  0.1418  0.3404 -0.0510
 8331SOL    HW136626   2.704   1.902   7.159  0.5645 -0.6791 -2.0178
 8331SOL    HW236627   2.838   1.864   7.100  1.4032 -1.7204  1.6221
 8332SOL     OW36628   1.274   3.203  12.632 -0.1012  0.7821  0.1407
 8332SOL    HW136629   1.303   3.270  12.694  2.1056 -0.1550  0.1073
 8332SOL    HW236630   1.213   3.249  12.574 -0.6881  0.4077  0.4517
 8333SOL     OW36631   3.931   1.542   8.119  0.0765 -0.9575  0.0716
 8333SOL    HW136632   3.853   1.493   8.092 -0.8114  1.3426 -1.5438
 8333SOL    HW236633   3.987   1.529   8.042 -0.2649 -3.7392  0.3074
 8334SOL     OW36634   4.382   0.403   7.762 -0.7190 -0.5889 -0.0498
 8334SOL    HW136635   4.289   0.398   7.784 -0.3779  0.9780  1.7076
 8334SOL    HW236636   4.391   0.491   7.727 -1.6552 -1.6019 -2.8158
 8335SOL     OW36637   3.929   4.633  17.293 -0.5847  0.6145 -0.1440
 8335SOL    HW136638   3.898   4.670  17.211 -2.3722  0.7425  0.5769
 8335SOL    HW236639   3.855   4.643  17.353 -0.6582 -1.0057  0.0508
 8336SOL     OW36640   4.538   0.352   8.931  0.2601 -0.3881 -0.4965
 8336SOL    HW136641   4.481   0.327   8.858 -0.2147 -2.4390  0.5930
 8336SOL    HW236642   4.532   0.446   8.914 -0.8267 -0.2584  0.5743
 8337SOL     OW36643   4.155   0.571   4.941  0.4476  0.4883  0.3418
 8337SOL    HW136644   4.187   0.494   4.894  0.0515 -0.9444  2.4009
 8337SOL    HW236645   4.063   0.548   4.954  1.3759 -2.5509  1.5151
 8338SOL     OW36646   4.664   0.640  15.554  0.1905 -0.2551 -0.0261
 8338SOL    HW136647   4.603   0.698  15.508  1.0221 -1.4181 -2.5915
 8338SOL    HW236648   0.009   0.660  15.509  0.4076  2.1585  1.4527
 8339SOL     OW36649   0.249   1.731   8.415  0.5310 -0.8252 -0.5430
 8339SOL    HW136650   0.166   1.694   8.444  0.6834 -0.6211  0.1632
 8339SOL    HW236651   0.318   1.687   8.464 -0.3205  1.9941  3.2302
 8340SOL     OW36652   0.405   2.300   8.485  0.7218 -0.1799 -0.6321
 8340SOL    HW136653   0.389   2.393   8.500 -1.8498 -0.8927  1.0644
 8340SOL    HW236654   0.497   2.298   8.512  0.7728 -2.1811 -0.9405
 8341SOL     OW36655   0.592   3.833   4.145 -0.2646  0.2030  0.0225
 8341SOL    HW136656   0.670   3.889   4.141  2.5377 -3.7648 -1.0903
 8341SOL    HW236657   0.605   3.766   4.078 -1.8915 -0.4820  0.3897
 8342SOL     OW36658   0.503   1.620  14.256 -0.5477 -0.0259 -0.2002
 8342SOL    HW136659   0.528   1.637  14.165 -0.2128 -0.0606 -0.1115
 8342SOL    HW236660   0.541   1.697  14.297 -2.1622  1.8676 -2.2465
 8343SOL     OW36661   2.708   2.915   8.934  0.6472  0.0160 -0.4270
 8343SOL    HW136662   2.665   2.859   8.869 -0.2177  0.0837  0.0889
 8343SOL    HW236663   2.670   3.002   8.919 -0.9881 -0.7712 -0.7502
 8344SOL     OW36664   4.188   3.517   1.510 -0.3842  0.1200 -0.1597
 8344SOL    HW136665   4.175   3.471   1.428 -1.1880  0.5560 -0.2731
 8344SOL    HW236666   4.128   3.591   1.510 -1.4315 -0.7402 -2.6258
 8345SOL     OW36667   1.968   3.811   3.142  0.6862 -0.5177 -0.4359
 8345SOL    HW136668   1.921   3.810   3.058 -0.3330  2.3302  0.0848
 8345SOL    HW236669   2.057   3.839   3.121 -0.1522  0.5144 -2.6342
 8346SOL     OW36670   2.380   2.309   7.284  0.0133 -0.2135  0.8210
 8346SOL    HW136671   2.417   2.263   7.209 -0.0900 -0.8374  1.1571
 8346SOL    HW236672   2.286   2.311   7.270  0.0475 -1.3789  0.4268
 8347SOL     OW36673   4.538   0.925   2.569 -0.2052  0.3564 -0.0600
 8347SOL    HW136674   4.454   0.968   2.589  0.5993  1.3511  1.1891
 8347SOL    HW236675   4.599   0.995   2.546  0.4508  0.1891  1.1910
 8348SOL     OW36676   0.157   2.433  12.016 -0.4889  0.2909  0.3076
 8348SOL    HW136677   0.128   2.366  11.953  0.8869 -0.1184  0.0881
 8348SOL    HW236678   0.224   2.379  12.059 -1.5771 -1.7693 -0.5811
 8349SOL     OW36679   3.731   0.155   1.579 -0.5052 -0.1682  0.3803
 8349SOL    HW136680   3.684   0.213   1.519  0.8330 -1.0007 -1.4703
 8349SOL    HW236681   3.786   0.217   1.627 -0.9998 -0.6430  1.5745
 8350SOL     OW36682   3.421   1.483   7.749 -0.1417 -0.1664 -0.6666
 8350SOL    HW136683   3.372   1.431   7.685  0.6290  0.9136 -2.1368
 8350SOL    HW236684   3.507   1.443   7.735 -0.4518 -0.8349 -0.7023
 8351SOL     OW36685   0.781   0.210   5.007  0.5183  0.4225 -0.2551
 8351SOL    HW136686   0.725   0.255   5.071  0.0846 -1.3871  0.6508
 8351SOL    HW236687   0.775   0.255   4.923  0.4401 -0.2350 -0.6019
 8352SOL     OW36688   4.159   3.584  14.541  0.2417 -0.4905  0.7606
 8352SOL    HW136689   4.129   3.494  14.554 -0.8357  0.1265  2.5486
 8352SOL    HW236690   4.088   3.626  14.493  0.7330  0.9934  1.3511
 8353SOL     OW36691   1.898   1.961   0.037 -0.1414 -0.1210  0.2766
 8353SOL    HW136692   1.833   2.029   0.056  2.1778  2.4029 -0.7915
 8353SOL    HW236693   1.947   1.971   0.119 -1.6248  1.2643  1.0013
 8354SOL     OW36694   4.697   4.403   2.389 -0.3759 -0.5403 -0.2393
 8354SOL    HW136695   4.645   4.345   2.444  1.5572  0.3714  2.5634
 8354SOL    HW236696   0.021   4.448   2.448 -0.8995 -0.7928  0.4747
 8355SOL     OW36697   1.785   0.980  17.708 -0.0701  0.2898 -0.1898
 8355SOL    HW136698   1.707   0.992   0.019  0.5159 -1.5576  1.0727
 8355SOL    HW236699   1.823   0.900   0.004 -1.8063 -0.7966 -0.7409
 8356SOL     OW36700   2.341   0.774   5.713 -0.2178 -0.3517  0.1581
 8356SOL    HW136701   2.392   0.813   5.785  0.3156  2.4633 -1.7632
 8356SOL    HW236702   2.252   0.789   5.744  0.2934 -0.3143  1.6080
 8357SOL     OW36703   0.850   1.030   4.529 -0.8472  0.7326 -0.0635
 8357SOL    HW136704   0.853   0.935   4.521 -0.4302  0.9297 -2.2643
 8357SOL    HW236705   0.942   1.053   4.534  0.2013 -3.5179  0.2130
 8358SOL     OW36706   1.795   1.438   1.780 -0.8398  0.1565  0.5264
 8358SOL    HW136707   1.814   1.405   1.868 -0.3671  0.5736  0.5816
 8358SOL    HW236708   1.709   1.476   1.799 -1.3385 -1.9336  2.4852
 8359SOL     OW36709   1.005   4.110   2.627 -0.3052 -0.2337  0.0547
 8359SOL    HW136710   1.076   4.080   2.570 -0.4939 -1.2368  0.3414
 8359SOL    HW236711   1.018   4.205   2.626 -1.7060 -0.0670 -1.5820
 8360SOL     OW36712   0.196   2.215   3.353 -0.2927  0.3093 -0.0463
 8360SOL    HW136713   0.162   2.287   3.406  0.7944  0.6896  0.1212
 8360SOL    HW236714   0.283   2.206   3.391 -0.0233 -2.4758 -1.2845
 8361SOL     OW36715   2.228   3.598   8.928 -0.4566 -0.3107 -0.0685
 8361SOL    HW136716   2.292   3.586   8.998 -1.3603 -0.7349  0.6808
 8361SOL    HW236717   2.279   3.614   8.848  0.8982 -1.3171  0.5929
 8362SOL     OW36718   1.366   3.421   7.905  0.0245 -0.1101 -0.4598
 8362SOL    HW136719   1.270   3.423   7.908  0.1089 -0.6916  2.8469
 8362SOL    HW236720   1.387   3.513   7.918 -0.8709  0.1150 -0.6038
 8363SOL     OW36721   0.389   2.336  11.252 -0.3229  1.2938  0.5764
 8363SOL    HW136722   0.402   2.348  11.158  1.5151 -0.0160  0.6586
 8363SOL    HW236723   0.411   2.424  11.285  0.3118  1.3278  0.0684
 8364SOL     OW36724   3.909   3.226   8.665 -0.2803 -0.1990 -0.1676
 8364SOL    HW136725   3.848   3.267   8.604 -1.8996 -0.2646  1.4127
 8364SOL    HW236726   3.988   3.243   8.614  0.3576 -1.8944  0.2566
 8365SOL     OW36727   2.978   2.897   4.040 -0.2868  0.0858  0.1395
 8365SOL    HW136728   3.009   2.981   4.008 -0.2987 -0.2077 -0.6417
 8365SOL    HW236729   2.993   2.916   4.132 -0.6699  2.5083 -0.3014
 8366SOL     OW36730   2.489   0.100   1.921  0.0169  0.6960 -0.6770
 8366SOL    HW136731   2.430   0.061   1.856 -0.6225 -0.5485  0.6574
 8366SOL    HW236732   2.427   0.126   1.989 -0.3503  0.7436 -1.0261
 8367SOL     OW36733   3.660   0.130   7.220 -0.3561  0.1586 -0.5366
 8367SOL    HW136734   3.617   0.177   7.291 -0.1846 -1.4685  0.6467
 8367SOL    HW236735   3.728   0.083   7.268 -1.4213  0.6059  1.3831
 8368SOL     OW36736   0.982   1.925   3.774 -0.2241 -0.1236  0.3892
 8368SOL    HW136737   0.939   1.842   3.794 -0.6670  0.1695  0.6531
 8368SOL    HW236738   1.001   1.955   3.863  0.8315 -1.4608  0.6147
 8369SOL     OW36739   1.433   4.571  13.359  0.4075  0.2508 -0.1618
 8369SOL    HW136740   1.447   4.584  13.266 -1.6552 -0.1784 -0.5306
 8369SOL    HW236741   1.436   4.663  13.386 -2.4432  0.3146 -0.0982
 8370SOL     OW36742   2.098   2.344   7.239  0.9321  0.7646 -0.1263
 8370SOL    HW136743   2.069   2.285   7.169  0.9048  0.6707 -0.0363
 8370SOL    HW236744   2.055   2.420   7.199 -2.0624 -0.9728 -0.2185
 8371SOL     OW36745   3.548   0.040  13.719  0.2236 -0.4694 -0.1188
 8371SOL    HW136746   3.556   0.010  13.809 -0.1677  0.2170  0.1470
 8371SOL    HW236747   3.503   0.124  13.729  0.4782 -0.6032  2.1488
 8372SOL     OW36748   0.663   2.762   1.090  0.5692 -0.1107  0.1432
 8372SOL    HW136749   0.568   2.763   1.082  0.5135 -1.4303  0.5371
 8372SOL    HW236750   0.670   2.839   1.033  0.9621  0.3554  0.8272
 8373SOL     OW36751   3.791   3.774   6.770 -0.0270  0.0198 -0.1687
 8373SOL    HW136752   3.759   3.843   6.712 -1.3369 -0.6691 -0.2883
 8373SOL    HW236753   3.729   3.771   6.843  0.4454 -0.0340  0.2249
 8374SOL     OW36754   3.399   0.947   7.035 -0.2641 -0.3274 -0.7143
 8374SOL    HW136755   3.415   0.946   7.130  2.0660 -1.8863 -1.1234
 8374SOL    HW236756   3.413   0.856   7.010  0.4782 -0.4828  0.2528
 8375SOL     OW36757   1.054   0.846   6.117  0.0881  0.1892  0.1441
 8375SOL    HW136758   1.079   0.853   6.209 -0.5467  1.8503  0.1777
 8375SOL    HW236759   1.126   0.786   6.096  0.3005  0.5883 -0.2702
 8376SOL     OW36760   3.184   0.211   1.513 -0.3451 -0.1629 -0.3899
 8376SOL    HW136761   3.157   0.180   1.427 -2.1699 -0.6989  0.3552
 8376SOL    HW236762   3.112   0.273   1.524 -1.4042 -0.9473 -2.8772
 8377SOL     OW36763   0.535   3.548  13.593 -0.3609 -0.0224 -0.7779
 8377SOL    HW136764   0.450   3.553  13.638 -0.1195 -4.2777  0.1694
 8377SOL    HW236765   0.573   3.618  13.646 -2.4116  2.1197 -2.1452
 8378SOL     OW36766   3.395   3.288   6.207  0.3381 -0.8149  0.0369
 8378SOL    HW136767   3.400   3.198   6.240 -1.0399 -1.0369 -0.3641
 8378SOL    HW236768   3.480   3.313   6.172 -0.0695 -1.1998 -1.2372
 8379SOL     OW36769   4.652   2.973   6.175  0.3115 -0.2652 -0.5420
 8379SOL    HW136770   4.673   2.956   6.083  2.9479  0.6261 -0.1109
 8379SOL    HW236771   4.655   2.888   6.220 -1.8281 -1.5271 -2.8272
 8380SOL     OW36772   0.973   0.285   8.463 -0.1820  0.0602  0.0261
 8380SOL    HW136773   0.898   0.304   8.518 -0.2374  0.8824 -0.3417
 8380SOL    HW236774   0.936   0.256   8.379  0.3417  1.6879 -0.7643
 8381SOL     OW36775   2.987   0.368   9.350 -0.5478  0.3516  0.3808
 8381SOL    HW136776   3.082   0.374   9.357 -0.7431  1.7659  1.7471
 8381SOL    HW236777   2.970   0.453   9.390  1.2563 -0.7385  3.4799
 8382SOL     OW36778   3.747   3.497   9.217 -0.0178  0.4227 -0.8543
 8382SOL    HW136779   3.670   3.459   9.260  0.8505 -0.3998 -0.0269
 8382SOL    HW236780   3.769   3.562   9.284  0.1958 -0.4549 -0.0761
 8383SOL     OW36781   1.263   2.212   1.274 -0.6020  0.2335 -0.1106
 8383SOL    HW136782   1.181   2.257   1.294 -1.0560 -0.0671 -1.2989
 8383SOL    HW236783   1.243   2.126   1.237 -1.0653  0.8543 -1.2798
 8384SOL     OW36784   4.185   0.716   7.378 -0.2792  0.6930  0.3853
 8384SOL    HW136785   4.097   0.707   7.341 -0.3100  1.2279  0.3262
 8384SOL    HW236786   4.177   0.797   7.428  0.6762  0.5163  0.8241
 8385SOL     OW36787   3.996   0.732   4.021  0.1033  0.2948  0.2979
 8385SOL    HW136788   3.966   0.646   3.992  0.1783  0.1077  0.7674
 8385SOL    HW236789   3.919   0.769   4.064 -0.0411 -0.6815  0.8853
 8386SOL     OW36790   3.219   3.196   1.895  0.0612 -0.3664 -0.0803
 8386SOL    HW136791   3.278   3.208   1.969 -0.7299  1.1409  0.3129
 8386SOL    HW236792   3.188   3.111   1.924 -1.9878 -0.3095 -2.0972
 8387SOL     OW36793   3.518   1.350   3.575  0.4149 -0.3662 -0.4106
 8387SOL    HW136794   3.476   1.426   3.536  0.7371 -0.1784 -0.3903
 8387SOL    HW236795   3.613   1.360   3.563  0.1838 -0.0728 -2.0064
 8388SOL     OW36796   4.212   0.808   7.800  0.2304 -0.7611 -0.4237
 8388SOL    HW136797   4.153   0.848   7.736  1.8438  2.6622  0.2544
 8388SOL    HW236798   4.259   0.736   7.757  1.3031 -0.7680  0.7823
 8389SOL     OW36799   0.715   0.670   3.607  0.2417  0.6834  0.1431
 8389SOL    HW136800   0.683   0.696   3.521  0.3447  2.5136  0.6398
 8389SOL    HW236801   0.806   0.651   3.587  0.0959 -1.0210  1.0978
 8390SOL     OW36802   1.230   2.595   1.421 -0.4133  0.9329 -0.0382
 8390SOL    HW136803   1.150   2.610   1.471  0.6253  1.1362  1.5326
 8390SOL    HW236804   1.197   2.591   1.331 -0.3406  0.3696 -0.0394
 8391SOL     OW36805   1.605   3.866   7.575  0.7115  0.8131  0.0462
 8391SOL    HW136806   1.550   3.879   7.498 -0.1743 -2.2087  0.1665
 8391SOL    HW236807   1.688   3.841   7.535  0.7150 -0.9821  1.1749
 8392SOL     OW36808   1.160   4.079   4.867  0.0783 -0.4729  0.0268
 8392SOL    HW136809   1.189   3.988   4.864 -1.4643 -0.9390 -0.6667
 8392SOL    HW236810   1.242   4.118   4.900 -0.9808  2.8900 -1.3432
 8393SOL     OW36811   2.096   0.245  16.327  0.3190 -0.4310  0.6002
 8393SOL    HW136812   2.007   0.237  16.360 -0.1816 -0.1719 -0.6757
 8393SOL    HW236813   2.087   0.249  16.231 -0.9978  1.4628  0.8141
 8394SOL     OW36814   3.728   3.279   9.678 -0.2219  0.4312 -0.2590
 8394SOL    HW136815   3.764   3.199   9.716  2.2351  1.6841  0.0523
 8394SOL    HW236816   3.783   3.341   9.726 -0.9365 -0.7195  2.0497
 8395SOL     OW36817   4.282   2.328   3.694  0.5030 -0.2033 -0.1271
 8395SOL    HW136818   4.319   2.412   3.720  0.4212 -0.0015 -0.6776
 8395SOL    HW236819   4.339   2.259   3.730  0.1295 -0.8746 -0.8106
 8396SOL     OW36820   3.810   0.192  11.470 -0.3748 -0.4345  0.4882
 8396SOL    HW136821   3.750   0.224  11.537  0.5586 -0.7175  1.4577
 8396SOL    HW236822   3.779   0.246  11.397 -1.0376 -0.3449  0.8343
 8397SOL     OW36823   4.432   1.855   5.251 -0.2098  0.1388  0.2212
 8397SOL    HW136824   4.505   1.824   5.197  0.5012  1.0390  0.6631
 8397SOL    HW236825   4.372   1.813   5.190 -0.0683  1.2577 -0.7041
 8398SOL     OW36826   3.592   1.898   6.573 -0.4845 -0.0336  0.3216
 8398SOL    HW136827   3.631   1.937   6.494  0.0494  2.5736  1.8728
 8398SOL    HW236828   3.653   1.903   6.646 -0.8164 -0.8672  0.6511
 8399SOL     OW36829   3.813   0.668  13.306 -0.0053  0.1838 -0.5668
 8399SOL    HW136830   3.870   0.596  13.277 -0.7342 -1.4529  2.0122
 8399SOL    HW236831   3.749   0.667  13.235 -0.5582  0.8851 -0.0787
 8400SOL     OW36832   2.580   1.882   2.144  0.0738 -0.4686 -0.1099
 8400SOL    HW136833   2.519   1.869   2.217 -0.4247 -1.9485 -0.7774
 8400SOL    HW236834   2.663   1.898   2.187  0.2571 -0.1774 -0.5720
 8401SOL     OW36835   4.397   2.202  10.487 -0.3395  0.1616 -0.0177
 8401SOL    HW136836   4.341   2.125  10.476  0.0792 -0.5095  2.6466
 8401SOL    HW236837   4.465   2.171  10.546  1.2868 -0.1300 -2.0593
 8402SOL     OW36838   3.144   2.798   3.473 -0.1845  0.1160  0.5060
 8402SOL    HW136839   3.226   2.828   3.433 -0.7092 -0.5821 -1.0923
 8402SOL    HW236840   3.083   2.805   3.399 -0.0687  0.0645  0.4065
 8403SOL     OW36841   1.510   0.677   7.220  0.5226 -0.7635 -0.0615
 8403SOL    HW136842   1.471   0.650   7.303  1.2762 -0.6599  0.3275
 8403SOL    HW236843   1.481   0.768   7.230  0.9440 -0.3675 -2.3588
 8404SOL     OW36844   3.775   2.738   5.194 -0.2452  0.4166  0.1160
 8404SOL    HW136845   3.775   2.643   5.183  0.9980  0.6181 -1.6603
 8404SOL    HW236846   3.784   2.774   5.106  1.0602 -3.2889 -1.3005
 8405SOL     OW36847   4.505   2.912   1.296  0.1541 -0.2162 -0.1364
 8405SOL    HW136848   4.538   3.001   1.302 -0.3895  0.0721 -1.5871
 8405SOL    HW236849   4.548   2.889   1.378  1.5733  0.7303 -0.6199
 8406SOL     OW36850   3.400   1.483  12.176  0.0685 -0.2678  0.2467
 8406SOL    HW136851   3.342   1.465  12.250  0.9533 -2.3722  0.4259
 8406SOL    HW236852   3.352   1.449  12.101 -0.4264  1.3356 -0.1549
 8407SOL     OW36853   4.342   3.761   8.060  0.4176 -0.7156  0.8256
 8407SOL    HW136854   4.401   3.740   8.132  2.4585  1.5209 -0.1945
 8407SOL    HW236855   4.304   3.847   8.074 -0.2492 -0.4773 -2.2722
 8408SOL     OW36856   3.435   4.578   3.204 -0.3287 -0.3973 -0.3697
 8408SOL    HW136857   3.362   4.627   3.241  0.9278  0.9239  0.4014
 8408SOL    HW236858   3.445   4.631   3.124  0.4684  0.2015  0.1260
 8409SOL     OW36859   4.711   0.125   5.490  0.2753 -0.3243 -0.1331
 8409SOL    HW136860   4.682   0.150   5.577 -0.5265  1.4878 -0.9337
 8409SOL    HW236861   0.048   0.186   5.480  0.0640  0.2541  1.9375
 8410SOL     OW36862   2.095   0.381   7.899 -0.1403 -0.0004  0.4536
 8410SOL    HW136863   2.100   0.392   7.804 -1.0202  0.5165  0.4697
 8410SOL    HW236864   2.021   0.440   7.918 -1.8201 -0.8686 -3.3554
 8411SOL     OW36865   3.142   2.813  15.604 -0.1564  0.2288 -0.2459
 8411SOL    HW136866   3.142   2.815  15.700 -0.4641 -0.1276 -0.2365
 8411SOL    HW236867   3.146   2.905  15.579 -3.9810  0.3940 -0.3723
 8412SOL     OW36868   2.940   2.368  16.368 -0.7838 -0.1696  0.5841
 8412SOL    HW136869   2.892   2.441  16.406  0.2104  0.3458  0.8647
 8412SOL    HW236870   2.890   2.350  16.288 -1.3100  1.5234  0.5269
 8413SOL     OW36871   4.500   4.006   4.043  0.5715  0.5302 -0.5811
 8413SOL    HW136872   4.519   3.958   3.962  0.4763 -0.9083  0.2438
 8413SOL    HW236873   4.440   4.078   4.025 -1.2409 -0.6183  0.9298
 8414SOL     OW36874   0.677   2.627   2.259  0.2371  0.2739  0.1641
 8414SOL    HW136875   0.752   2.576   2.229 -1.5547 -0.8567 -2.3880
 8414SOL    HW236876   0.656   2.684   2.185 -0.3205 -0.4439 -0.2359
 8415SOL     OW36877   1.324   2.588   5.995 -0.3621  0.7536 -0.0160
 8415SOL    HW136878   1.277   2.592   5.912  0.0531 -1.4751 -0.3635
 8415SOL    HW236879   1.355   2.498   5.983 -0.3359  0.5661  1.4716
 8416SOL     OW36880   2.813   0.708   5.516 -0.7683  0.1184 -0.6401
 8416SOL    HW136881   2.825   0.713   5.422  0.3994  0.4162 -0.4723
 8416SOL    HW236882   2.722   0.738   5.516 -0.9291 -0.3074  1.9741
 8417SOL     OW36883   4.616   1.456   6.129  0.3919 -0.3469  0.3079
 8417SOL    HW136884   4.615   1.370   6.088  0.5726 -0.9386  1.5647
 8417SOL    HW236885   4.665   1.515   6.072 -0.8592 -0.2176 -0.6385
 8418SOL     OW36886   4.536   3.858   2.028  0.2750  0.4025 -0.1130
 8418SOL    HW136887   4.622   3.831   1.995 -0.8756 -0.9654 -1.9950
 8418SOL    HW236888   4.500   3.895   1.948  1.9003  1.3226 -0.4194
 8419SOL     OW36889   0.770   2.496   4.853 -0.0256 -0.2535 -0.0367
 8419SOL    HW136890   0.692   2.552   4.857  0.3470  0.0402  3.0230
 8419SOL    HW236891   0.777   2.461   4.941 -0.3428 -1.0402 -0.3221
 8420SOL     OW36892   4.099   4.632   1.545  0.7965  0.7242 -0.6629
 8420SOL    HW136893   4.073   4.649   1.454  3.1680  0.4048 -1.4052
 8420SOL    HW236894   4.101   4.722   1.579  2.0194  0.7412 -0.7862
 8421SOL     OW36895   1.557   3.521  11.551  0.4490  0.0624 -0.6873
 8421SOL    HW136896   1.529   3.523  11.460 -0.5951 -0.2126 -0.3761
 8421SOL    HW236897   1.590   3.434  11.576  1.9965  0.5796 -0.9414
 8422SOL     OW36898   3.252   2.861   5.697 -0.3388  1.6675  0.4466
 8422SOL    HW136899   3.208   2.849   5.613  0.8612  0.9407 -0.0742
 8422SOL    HW236900   3.344   2.875   5.675  0.2514  0.7680  2.2900
 8423SOL     OW36901   3.893   2.287  16.320 -0.1819  0.6657 -0.5712
 8423SOL    HW136902   3.981   2.308  16.353 -2.1407  2.8388  3.3453
 8423SOL    HW236903   3.860   2.217  16.377 -2.7171 -1.0655 -4.2061
 8424SOL     OW36904   0.778   3.047   5.761 -0.0358 -0.2359 -0.5512
 8424SOL    HW136905   0.759   2.953   5.767  1.8655 -0.7173 -2.2935
 8424SOL    HW236906   0.821   3.058   5.846  1.4109 -0.8755 -1.2084
 8425SOL     OW36907   1.535   1.995   8.774  0.4786  0.1385 -0.2564
 8425SOL    HW136908   1.582   2.003   8.690  1.2838  2.7303  0.4551
 8425SOL    HW236909   1.550   2.084   8.806 -1.1888 -0.0379  0.9840
 8426SOL     OW36910   2.967   3.714   8.943  0.4884  0.4638  0.0530
 8426SOL    HW136911   3.036   3.781   8.937  2.1678 -1.1432  1.4582
 8426SOL    HW236912   2.997   3.648   8.882 -0.2182  1.9061 -1.8480
 8427SOL     OW36913   4.091   1.527   3.215 -0.4651 -0.1210 -0.1217
 8427SOL    HW136914   4.138   1.607   3.240 -0.1951 -0.2800 -0.1187
 8427SOL    HW236915   4.046   1.495   3.293 -1.0862 -2.1953 -1.3141
 8428SOL     OW36916   4.275   3.008   3.851  0.3487  0.0521  0.4678
 8428SOL    HW136917   4.240   2.920   3.863  0.5204  0.0527  1.0199
 8428SOL    HW236918   4.196   3.056   3.826  0.1747 -1.2080 -1.3654
 8429SOL     OW36919   0.202   4.272   5.434  0.5015 -0.3502 -0.1387
 8429SOL    HW136920   0.241   4.239   5.515  1.1103 -1.5375 -0.9177
 8429SOL    HW236921   0.261   4.233   5.369  1.3774 -0.3483  0.6558
 8430SOL     OW36922   3.398   2.445   1.520 -0.2698 -0.5187  0.4715
 8430SOL    HW136923   3.339   2.484   1.585  1.7430  0.0404  1.9787
 8430SOL    HW236924   3.440   2.528   1.499 -2.7102  0.3918 -0.8461
 8431SOL     OW36925   2.040   0.887   6.674 -0.0096  0.0006 -0.3858
 8431SOL    HW136926   1.978   0.897   6.602 -1.4796  2.5889  1.2162
 8431SOL    HW236927   1.981   0.905   6.748  1.0206 -0.2459  0.4976
 8432SOL     OW36928   0.760   1.276  11.340 -0.6851 -0.3220 -0.2849
 8432SOL    HW136929   0.825   1.214  11.373  0.6829  0.9184 -0.6702
 8432SOL    HW236930   0.679   1.225  11.347  1.6755 -3.8856  1.1917
 8433SOL     OW36931   1.354   4.287   8.344  0.1810  0.0883  0.0994
 8433SOL    HW136932   1.371   4.361   8.401  2.9115  0.9608 -1.8573
 8433SOL    HW236933   1.258   4.290   8.347  0.2535  0.2255  2.4428
 8434SOL     OW36934   2.806   0.593   4.771 -0.2205 -0.0117 -0.7899
 8434SOL    HW136935   2.781   0.559   4.856 -0.7817  0.4578 -0.7665
 8434SOL    HW236936   2.809   0.685   4.797  1.0354  0.0203 -1.0716
 8435SOL     OW36937   2.178   2.891  13.357 -0.1540  0.6094  0.5170
 8435SOL    HW136938   2.218   2.948  13.423  2.5302 -0.9795  0.2174
 8435SOL    HW236939   2.209   2.815  13.405 -2.1464  0.6953  1.9568
 8436SOL     OW36940   2.599   0.833   5.346 -0.2003  0.7326  0.0683
 8436SOL    HW136941   2.514   0.790   5.343 -0.1349  0.4900  1.3631
 8436SOL    HW236942   2.649   0.783   5.282 -2.6522 -0.2503 -1.0546
 8437SOL     OW36943   3.501   3.842   8.458  0.1634 -0.5203 -0.1216
 8437SOL    HW136944   3.562   3.881   8.395  0.5367 -1.3584 -0.2868
 8437SOL    HW236945   3.518   3.749   8.443 -0.7849 -0.6668 -0.3050
 8438SOL     OW36946   0.256   1.379  13.222 -0.2348 -0.2992  0.5672
 8438SOL    HW136947   0.350   1.362  13.226 -0.1063  0.2108 -0.3450
 8438SOL    HW236948   0.258   1.465  13.181 -0.0604 -0.7766 -0.4171
 8439SOL     OW36949   4.642   0.744  14.995 -0.0326 -0.0605  0.1572
 8439SOL    HW136950   4.650   0.703  14.910 -0.2659 -1.8140  0.9808
 8439SOL    HW236951   4.591   0.825  14.986 -0.7331 -0.4475  0.6108
 8440SOL     OW36952   2.364   1.011   7.344  0.1134 -0.0607 -0.3919
 8440SOL    HW136953   2.433   0.983   7.285  0.4947 -0.8321  0.4381
 8440SOL    HW236954   2.359   0.934   7.401  1.6246 -0.1868 -0.4389
 8441SOL     OW36955   3.611   4.113   7.610  0.3905  0.4037  0.3522
 8441SOL    HW136956   3.596   4.046   7.676 -0.3792 -2.3937 -2.6858
 8441SOL    HW236957   3.698   4.147   7.632  0.1936 -0.0358  1.7834
 8442SOL     OW36958   1.814   2.248   2.515 -0.1400 -0.3138 -0.4733
 8442SOL    HW136959   1.824   2.174   2.575 -1.7572 -1.1830 -1.2952
 8442SOL    HW236960   1.794   2.197   2.437  2.4940  0.0335 -1.3770
 8443SOL     OW36961   1.143   4.164   5.726 -0.3026 -0.6499 -0.5485
 8443SOL    HW136962   1.116   4.183   5.636  1.8554 -0.2657 -1.1298
 8443SOL    HW236963   1.082   4.091   5.734 -2.4176  1.1086 -0.9195
 8444SOL     OW36964   3.928   0.127  15.490  0.2496 -0.6861 -0.5610
 8444SOL    HW136965   4.019   0.154  15.499 -0.3823  1.2863 -0.2280
 8444SOL    HW236966   3.878   0.189  15.543  3.7616  2.9605 -1.4822
 8445SOL     OW36967   4.168   2.493   4.266 -0.4764 -0.5068  0.2747
 8445SOL    HW136968   4.190   2.455   4.352  1.0420 -1.6235 -0.6062
 8445SOL    HW236969   4.151   2.415   4.213 -0.8746  0.8992 -1.6423
 8446SOL     OW36970   3.615   2.464   4.496 -0.5684 -0.4485 -0.2188
 8446SOL    HW136971   3.529   2.488   4.530 -0.4334  0.6331 -0.6147
 8446SOL    HW236972   3.596   2.456   4.403 -0.9723  3.2440 -0.4605
 8447SOL     OW36973   3.968   3.192   3.036  0.2626 -0.5211  0.6189
 8447SOL    HW136974   3.996   3.119   2.981  3.3291  1.0390  0.1055
 8447SOL    HW236975   3.993   3.263   2.977 -0.2710  0.3386  1.4329
 8448SOL     OW36976   0.571   1.602   7.961 -0.2160 -0.4057  0.0845
 8448SOL    HW136977   0.497   1.603   8.021  0.5211 -0.8245  0.9832
 8448SOL    HW236978   0.544   1.529   7.905 -0.7526  2.4205 -3.4021
 8449SOL     OW36979   2.053   1.417   7.773 -0.0417 -0.0186 -0.3976
 8449SOL    HW136980   2.143   1.393   7.794  0.1186 -0.0025 -1.0827
 8449SOL    HW236981   2.014   1.424   7.860  0.8692 -0.2590  0.0296
 8450SOL     OW36982   1.085   0.913  17.141  0.6954 -0.6322 -0.3152
 8450SOL    HW136983   1.086   0.991  17.085  4.0795 -2.0408 -2.2403
 8450SOL    HW236984   1.109   0.845  17.078 -0.0860 -1.0337 -0.1782
 8451SOL     OW36985   3.880   1.718   5.798 -0.6925 -0.0121  0.0798
 8451SOL    HW136986   3.954   1.750   5.849 -0.5723  1.0336 -0.7413
 8451SOL    HW236987   3.869   1.788   5.732  2.7934 -0.0951 -0.5643
 8452SOL     OW36988   1.921   4.070  15.783 -0.1071 -0.1157  0.1277
 8452SOL    HW136989   1.934   4.047  15.875  0.9360 -3.6895 -0.8929
 8452SOL    HW236990   1.975   4.146  15.766  1.0145 -1.4835 -2.4784
 8453SOL     OW36991   1.669   4.697  10.404  0.3633 -0.2158 -0.0948
 8453SOL    HW136992   1.712   4.623  10.360  0.3836 -0.3362  0.1296
 8453SOL    HW236993   1.585   4.701  10.358 -0.1759 -1.1090  0.8097
 8454SOL     OW36994   3.235   3.729  15.974  0.3525 -0.0451  0.2621
 8454SOL    HW136995   3.325   3.729  15.941  0.3818  0.1691  0.3378
 8454SOL    HW236996   3.190   3.798  15.924 -0.1735 -0.6112 -0.0343
 8455SOL     OW36997   3.039   4.584   1.997 -1.1552  0.1721 -0.0346
 8455SOL    HW136998   2.967   4.616   2.051 -0.2618  2.0823  0.0278
 8455SOL    HW236999   3.002   4.554   1.914 -1.0047  0.9786 -0.3936
 8456SOL     OW37000   2.169   3.572   4.546 -0.2101 -0.0242 -0.1134
 8456SOL    HW137001   2.150   3.664   4.562 -3.9320 -0.8418  0.1593
 8456SOL    HW237002   2.158   3.533   4.633  1.8390 -1.4840 -0.5146
 8457SOL     OW37003   4.432   3.526  14.506  0.2648  0.4553  0.1839
 8457SOL    HW137004   4.455   3.477  14.585  1.3280 -0.9578 -0.9842
 8457SOL    HW237005   4.337   3.528  14.499  0.5096  0.8841 -2.8718
 8458SOL     OW37006   2.138   1.809   7.754 -0.5288  0.3547 -0.4842
 8458SOL    HW137007   2.223   1.775   7.780 -2.4543 -3.5044  0.7382
 8458SOL    HW237008   2.160   1.829   7.663  1.6354  1.2453  0.2416
 8459SOL     OW37009   1.486   3.972   8.319  0.0875  0.1071 -0.0171
 8459SOL    HW137010   1.464   4.009   8.404  0.1230 -0.1853  0.1193
 8459SOL    HW237011   1.519   4.046   8.268  0.2348 -0.2065 -0.3706
 8460SOL     OW37012   3.050   0.786   5.675 -0.6013 -0.1537  0.4638
 8460SOL    HW137013   3.001   0.813   5.753  2.2203 -0.5100  2.3434
 8460SOL    HW237014   2.981   0.736   5.631 -0.8971  1.0171 -0.4030
 8461SOL     OW37015   0.595   4.709   3.608  0.3517 -0.0287  0.0008
 8461SOL    HW137016   0.637   4.706   3.694 -0.4399 -0.4792  0.3748
 8461SOL    HW237017   0.539   0.049   3.624  2.3077  1.4663 -0.2295
 8462SOL     OW37018   3.733   0.248   9.513  0.7737 -0.5787 -0.3245
 8462SOL    HW137019   3.715   0.255   9.607 -1.1296  0.3928 -0.7590
 8462SOL    HW237020   3.706   0.159   9.489 -0.7822 -0.2384  0.2118
 8463SOL     OW37021   3.658   1.634   5.521  0.2012 -0.0876  0.3900
 8463SOL    HW137022   3.744   1.598   5.540 -1.0483 -2.6812  1.0659
 8463SOL    HW237023   3.656   1.714   5.575  0.0736  1.2115 -1.5396
 8464SOL     OW37024   0.201   1.240  16.186  0.0439  0.2879  0.2361
 8464SOL    HW137025   0.120   1.288  16.173 -0.8239 -0.4436  2.7384
 8464SOL    HW237026   0.166   1.177  16.249  2.0328 -1.2733 -0.2219
 8465SOL     OW37027   2.170   0.972   4.641 -0.8778 -0.0845  0.2245
 8465SOL    HW137028   2.240   0.964   4.577 -1.4320  1.0497 -0.5243
 8465SOL    HW237029   2.164   1.068   4.637 -0.6126 -0.0376  0.9888
 8466SOL     OW37030   0.967   2.948   5.942  0.8843  0.1665 -0.2099
 8466SOL    HW137031   0.977   2.855   5.962 -1.2574 -0.4743 -2.0641
 8466SOL    HW237032   1.059   2.974   5.950  0.4449  1.2688  1.1734
 8467SOL     OW37033   0.520   0.984   3.003 -0.1755  0.7695 -0.2604
 8467SOL    HW137034   0.585   1.054   3.002 -0.6952  1.2203 -1.9116
 8467SOL    HW237035   0.513   0.956   2.912 -0.9883 -0.5118  0.1907
 8468SOL     OW37036   4.225   4.073   1.140 -0.5356 -0.1796 -0.2797
 8468SOL    HW137037   4.267   4.121   1.211 -1.2620  0.6438 -0.4057
 8468SOL    HW237038   4.292   4.007   1.124  1.3558  1.2132  1.8755
 8469SOL     OW37039   0.313   2.116   5.634 -0.5040 -0.6830  0.1221
 8469SOL    HW137040   0.359   2.056   5.575 -0.2956  1.6096 -2.0842
 8469SOL    HW237041   0.244   2.148   5.575 -0.2334  2.3954  1.4785
 8470SOL     OW37042   2.362   2.991   4.692 -0.1397  0.5203  0.0063
 8470SOL    HW137043   2.358   2.903   4.655  2.7564 -0.5651  2.2299
 8470SOL    HW237044   2.389   2.974   4.782  0.9598  3.6639  0.2828
 8471SOL     OW37045   4.548   2.060   1.369  0.5002  0.5707 -0.2074
 8471SOL    HW137046   4.461   2.050   1.331  0.8762 -1.8375 -0.4599
 8471SOL    HW237047   4.583   1.973   1.349 -0.2309 -0.1640  1.7443
 8472SOL     OW37048   4.520   1.791   1.002  0.1069  0.0600  0.3139
 8472SOL    HW137049   4.572   1.824   1.075 -0.7441 -1.1274  1.4656
 8472SOL    HW237050   4.585   1.730   0.968 -2.6276 -2.0173 -1.1241
 8473SOL     OW37051   2.114   3.371   7.550  0.1067  0.7289  0.0867
 8473SOL    HW137052   2.145   3.404   7.466 -1.0219 -1.1912 -1.0866
 8473SOL    HW237053   2.163   3.289   7.552  2.2173  2.0085  0.6404
 8474SOL     OW37054   2.756   4.633   3.640  0.2340  0.1759 -0.0791
 8474SOL    HW137055   2.739   4.635   3.545 -0.7357 -1.4092  0.0573
 8474SOL    HW237056   2.695   4.563   3.666  1.0987 -1.1660 -1.6439
 8475SOL     OW37057   1.463   1.557   0.622 -0.0813 -0.6653  0.1136
 8475SOL    HW137058   1.463   1.599   0.536 -0.2171  0.5862  0.7303
 8475SOL    HW237059   1.403   1.484   0.604  0.1645 -0.6369 -0.8393
 8476SOL     OW37060   0.992   2.425  14.290 -0.1429  0.1456 -0.7920
 8476SOL    HW137061   1.037   2.350  14.253 -2.1414 -0.9180 -1.0934
 8476SOL    HW237062   0.907   2.421  14.246 -1.2114 -0.6535  1.3573
 8477SOL     OW37063   4.513   2.885   7.833 -0.1251  0.4220 -0.2576
 8477SOL    HW137064   4.583   2.888   7.899 -1.8332  2.8539  1.4585
 8477SOL    HW237065   4.558   2.827   7.772  1.8885  2.1073 -0.3847
 8478SOL     OW37066   1.572   3.662   8.768  0.0218 -0.1852 -0.0159
 8478SOL    HW137067   1.602   3.690   8.681 -1.2933  1.4245  0.0414
 8478SOL    HW237068   1.594   3.747   8.807  1.1012 -1.0728  1.3023
 8479SOL     OW37069   4.421   3.817   5.793 -0.1962 -0.8061 -0.7716
 8479SOL    HW137070   4.437   3.756   5.865 -1.2392  1.1270  1.0627
 8479SOL    HW237071   4.504   3.824   5.745  0.5586 -0.8737  0.5336
 8480SOL     OW37072   3.338   3.570   3.288  0.3650 -0.0126 -0.1462
 8480SOL    HW137073   3.383   3.651   3.262 -1.1069  0.8507 -0.0296
 8480SOL    HW237074   3.374   3.515   3.218  0.2532  1.0293 -1.0294
 8481SOL     OW37075   1.485   1.635   7.017 -0.4503 -0.5536 -0.2815
 8481SOL    HW137076   1.467   1.588   6.936  0.1286 -1.1485 -0.0686
 8481SOL    HW237077   1.398   1.625   7.055 -1.0184 -0.4619 -1.5641
 8482SOL     OW37078   2.486   0.898   5.947  0.5929  0.0627  0.4140
 8482SOL    HW137079   2.405   0.891   5.998 -0.0815 -0.6419 -0.7446
 8482SOL    HW237080   2.481   0.993   5.939 -1.0698 -0.0134  0.6417
 8483SOL     OW37081   1.619   4.535  13.655  0.5428  0.7434 -0.1168
 8483SOL    HW137082   1.566   4.529  13.735  1.2979  1.2627  0.4182
 8483SOL    HW237083   1.609   4.624  13.621  1.3878  1.3269  1.1676
 8484SOL     OW37084   0.773   0.187   2.985 -0.5045 -0.1644 -0.8078
 8484SOL    HW137085   0.699   0.240   3.012  0.6420  0.6372  0.7643
 8484SOL    HW237086   0.784   0.215   2.894  0.8373  1.5689 -0.1068
 8485SOL     OW37087   0.669   0.982   1.623  0.0352  0.5201  0.0755
 8485SOL    HW137088   0.678   1.071   1.588  2.0453 -0.0138 -0.8019
 8485SOL    HW237089   0.699   0.934   1.546 -2.5454  1.0165 -1.2431
 8486SOL     OW37090   4.728   2.380   2.733  0.1777 -0.1050 -0.3400
 8486SOL    HW137091   0.039   2.461   2.755  0.2975 -0.3925  0.4518
 8486SOL    HW237092   4.727   2.384   2.637 -1.3451 -2.5385 -0.4115
 8487SOL     OW37093   0.119   3.199   8.287  0.2592 -0.0791 -0.0171
 8487SOL    HW137094   0.094   3.126   8.230 -0.5210  0.2798 -0.1341
 8487SOL    HW237095   0.053   3.267   8.282  1.9742  1.3903 -2.1428
 8488SOL     OW37096   3.333   1.049   5.620  0.1518 -0.5524  0.0801
 8488SOL    HW137097   3.252   1.080   5.660 -0.3012 -2.9486  0.9759
 8488SOL    HW237098   3.366   1.128   5.576 -1.5845  0.5884  0.8084
 8489SOL     OW37099   0.917   4.324   9.461  0.2071 -0.0266 -0.1667
 8489SOL    HW137100   0.987   4.353   9.403  0.1096  2.0750  0.7539
 8489SOL    HW237101   0.860   4.276   9.401 -1.9047  1.0354  0.9756
 8490SOL     OW37102   2.147   4.733   5.252  0.1719 -0.5723  0.0694
 8490SOL    HW137103   2.212   0.057   5.288 -0.7686  0.2027  0.4743
 8490SOL    HW237104   2.079   4.726   5.319 -0.2144  0.8643 -0.1711
 8491SOL     OW37105   1.343   0.721  14.193 -0.0129  0.0230 -0.6129
 8491SOL    HW137106   1.414   0.688  14.250  0.4648  0.5809 -0.8840
 8491SOL    HW237107   1.390   0.768  14.125 -0.0967  0.4125 -0.4002
 8492SOL     OW37108   2.537   0.343   6.979  0.0005 -0.0259 -0.0354
 8492SOL    HW137109   2.459   0.362   6.929  0.6700  3.0513  0.1256
 8492SOL    HW237110   2.513   0.255   7.011  0.8177  0.6062  2.3568
 8493SOL     OW37111   1.358   1.694  11.554 -0.8550  0.2901 -0.1059
 8493SOL    HW137112   1.274   1.689  11.510 -0.9011  0.3369 -0.0227
 8493SOL    HW237113   1.417   1.670  11.482  1.2524  1.4844  1.2220
 8494SOL     OW37114   0.779   2.507  15.825  0.9179 -0.8158 -0.2692
 8494SOL    HW137115   0.795   2.569  15.896 -1.2190 -1.0766  0.4511
 8494SOL    HW237116   0.865   2.517  15.783  0.7575  2.1484  0.1253
 8495SOL     OW37117   3.446   4.135   1.831  1.0056  0.2109 -0.0581
 8495SOL    HW137118   3.380   4.092   1.885  0.2881  0.9087 -0.3834
 8495SOL    HW237119   3.402   4.134   1.746 -1.8174  0.8775  1.4130
 8496SOL     OW37120   1.572   2.995   4.403  0.7353 -0.4444  0.5700
 8496SOL    HW137121   1.542   2.987   4.312  0.0311  2.4115  0.5369
 8496SOL    HW237122   1.645   2.933   4.407 -0.3637 -1.7640 -0.2143
 8497SOL     OW37123   3.069   1.607  13.873 -0.1696  0.3218  0.4809
 8497SOL    HW137124   2.989   1.582  13.918 -1.3086  0.4698 -1.4763
 8497SOL    HW237125   3.138   1.600  13.940  0.9735 -2.0280 -0.9108
 8498SOL     OW37126   4.323   1.912   8.836 -0.2986 -0.4011  0.0160
 8498SOL    HW137127   4.296   1.992   8.881 -0.6743  0.1883 -1.2393
 8498SOL    HW237128   4.359   1.947   8.754  0.7696 -0.7551  0.3465
 8499SOL     OW37129   0.961   0.635   3.527  0.2142  0.1379 -0.2721
 8499SOL    HW137130   1.003   0.549   3.537  1.8160  1.0450  0.7264
 8499SOL    HW237131   1.021   0.676   3.465  2.5721 -2.5919  0.1850
 8500SOL     OW37132   3.624   0.512   6.855  0.1788  0.1869  0.2648
 8500SOL    HW137133   3.653   0.581   6.795 -1.2064 -0.6223 -1.3386
 8500SOL    HW237134   3.621   0.433   6.801 -1.9031  0.7652 -0.4580
 8501SOL     OW37135   1.340   4.018   3.025  0.0721 -0.1491  0.2107
 8501SOL    HW137136   1.332   3.934   3.071  1.2952 -0.9253 -1.0047
 8501SOL    HW237137   1.292   4.000   2.945  0.4049 -2.3698  0.4964
 8502SOL     OW37138   1.736   0.837   9.070  0.0531 -0.0318  0.3124
 8502SOL    HW137139   1.649   0.873   9.086 -0.4719 -0.5972 -1.2195
 8502SOL    HW237140   1.775   0.904   9.014 -1.7377 -0.4925 -1.4978
 8503SOL     OW37141   0.806   3.200   5.481  0.3582 -0.1444  0.4522
 8503SOL    HW137142   0.808   3.142   5.557  0.4056  0.0958  0.6354
 8503SOL    HW237143   0.815   3.285   5.524  1.9939 -0.4596  0.7128
 8504SOL     OW37144   0.578   3.520  15.891  0.6770  0.2898 -0.6458
 8504SOL    HW137145   0.523   3.523  15.970  0.4996 -1.3263 -0.7138
 8504SOL    HW237146   0.539   3.586  15.834  1.7367  0.2470 -1.4184
 8505SOL     OW37147   4.411   2.959  17.664 -0.3350 -0.2404 -0.1681
 8505SOL    HW137148   4.462   2.988  17.589  0.1002  0.2153  0.3070
 8505SOL    HW237149   4.471   2.896  17.705  1.0834  2.4601  1.8857
 8506SOL     OW37150   4.546   0.738   9.986 -0.0603 -0.4256  0.0963
 8506SOL    HW137151   4.521   0.647   9.998 -0.7415 -0.1008  1.0687
 8506SOL    HW237152   4.465   0.786   9.970  0.9379  2.1215  2.6737
 8507SOL     OW37153   1.689   3.233   8.191  0.0726 -0.2090  0.2357
 8507SOL    HW137154   1.599   3.263   8.206 -0.2725 -1.2244  0.2098
 8507SOL    HW237155   1.710   3.283   8.112  2.8132 -2.1759 -0.2904
 8508SOL     OW37156   1.535   3.764   0.244  0.8787 -0.0416  0.2103
 8508SOL    HW137157   1.485   3.768   0.163 -1.5657 -0.6877  1.6745
 8508SOL    HW237158   1.508   3.676   0.270 -1.3539  0.6405  0.1320
 8509SOL     OW37159   0.305   2.587  13.898 -0.1842  0.2444  0.5327
 8509SOL    HW137160   0.296   2.609  13.991 -2.3971  0.1646  0.3330
 8509SOL    HW237161   0.397   2.560  13.899  0.3495  2.0052 -0.1050
 8510SOL     OW37162   0.351   0.882   5.377 -0.5398 -0.2105 -0.5192
 8510SOL    HW137163   0.420   0.913   5.318 -1.3569 -0.1438 -1.4402
 8510SOL    HW237164   0.280   0.899   5.315 -2.3606  0.0250  1.6118
 8511SOL     OW37165   4.201   4.464   9.282 -0.2308  0.4675 -0.4658
 8511SOL    HW137166   4.267   4.395   9.279 -0.1524  0.5870 -1.4072
 8511SOL    HW237167   4.189   4.486   9.190 -0.1114  0.4729 -0.4809
 8512SOL     OW37168   1.753   3.490   6.349  0.2433 -1.1012  0.2311
 8512SOL    HW137169   1.692   3.458   6.282 -0.4670 -1.0211  0.8349
 8512SOL    HW237170   1.835   3.486   6.299  1.4831  1.1402  2.0834
 8513SOL     OW37171   1.970   0.357   7.209  0.0989  0.4192 -0.6869
 8513SOL    HW137172   1.942   0.281   7.158 -0.4114 -0.9771  1.6882
 8513SOL    HW237173   1.890   0.407   7.218  0.1744  0.1426  1.4033
 8514SOL     OW37174   2.545   2.296   6.527  0.0171  0.5345  0.1780
 8514SOL    HW137175   2.635   2.285   6.495  0.3810 -0.1642  1.4053
 8514SOL    HW237176   2.551   2.307   6.622  0.5115 -0.5753  0.2820
 8515SOL     OW37177   4.632   1.640   4.680 -0.5487 -0.3017  0.2946
 8515SOL    HW137178   4.683   1.572   4.726 -1.4429 -1.8327 -0.9712
 8515SOL    HW237179   4.623   1.699   4.755 -0.9570  0.0055 -0.0011
 8516SOL     OW37180   3.255   2.399  11.953  0.8811 -0.0118  0.1410
 8516SOL    HW137181   3.340   2.362  11.927  1.0190 -0.7836  1.7183
 8516SOL    HW237182   3.278   2.459  12.024 -0.0422  1.7640 -1.0800
 8517SOL     OW37183   0.234   4.553   3.114  0.3768 -0.5018  1.0193
 8517SOL    HW137184   0.207   4.532   3.025  0.5959 -0.9176  1.0499
 8517SOL    HW237185   0.324   4.580   3.100  0.1439 -1.7294 -2.9329
 8518SOL     OW37186   0.249   3.193   8.523 -0.4812 -0.6888  0.0919
 8518SOL    HW137187   0.213   3.215   8.437  2.1542  2.8809 -0.0835
 8518SOL    HW237188   0.338   3.172   8.492  0.3724  3.5949 -0.3085
 8519SOL     OW37189   2.774   3.843   5.096  0.3283  0.3723  0.6428
 8519SOL    HW137190   2.730   3.840   5.181 -2.0534  0.0328 -0.6338
 8519SOL    HW237191   2.802   3.753   5.112  0.1700  0.1245 -0.5233
 8520SOL     OW37192   3.598   3.927   7.827 -0.9179  0.0916  0.1965
 8520SOL    HW137193   3.518   3.885   7.858 -0.7077 -3.0008 -3.3775
 8520SOL    HW237194   3.657   3.867   7.873 -0.4132  1.1361  0.9150
 8521SOL     OW37195   2.668   0.581   8.952  0.8396 -0.2838 -0.2828
 8521SOL    HW137196   2.723   0.532   9.013  2.0097  1.0212 -0.3122
 8521SOL    HW237197   2.633   0.650   9.008  0.1996 -0.8771  0.0609
 8522SOL     OW37198   1.832   0.046   2.152 -0.1647  0.8896 -0.0646
 8522SOL    HW137199   1.764   0.113   2.149 -0.7409  0.1942 -2.3418
 8522SOL    HW237200   1.911   0.099   2.143 -0.2510  0.8369 -1.1454
 8523SOL     OW37201   0.631   1.521   5.263 -0.0934  0.4310  0.4202
 8523SOL    HW137202   0.707   1.519   5.206 -1.6620  1.0970 -1.6900
 8523SOL    HW237203   0.666   1.467   5.334 -2.5132  0.8423  1.9298
 8524SOL     OW37204   0.605   1.910   8.313  0.0276 -0.3455  0.0354
 8524SOL    HW137205   0.661   1.960   8.372 -0.6000  0.8609 -0.4113
 8524SOL    HW237206   0.541   1.879   8.378 -0.6893 -0.0007 -0.5106
 8525SOL     OW37207   0.383   1.737  11.956  0.2523  0.1180 -0.3804
 8525SOL    HW137208   0.477   1.751  11.943  0.0363  1.0328 -0.9252
 8525SOL    HW237209   0.379   1.661  12.014 -0.9455 -0.7083 -1.5688
 8526SOL     OW37210   3.533   0.859   7.584  0.1099 -0.6802 -0.0089
 8526SOL    HW137211   3.480   0.780   7.579  0.0179 -0.4373 -3.0893
 8526SOL    HW237212   3.478   0.924   7.626 -0.8146 -1.8197  0.5467
 8527SOL     OW37213   2.120   4.241   6.155  0.2955  0.2681 -0.1277
 8527SOL    HW137214   2.049   4.213   6.214 -1.3818  0.7726 -1.9054
 8527SOL    HW237215   2.102   4.334   6.144 -0.0690  0.2292  0.1353
 8528SOL     OW37216   4.132   4.669   9.915  0.0309  0.6763  0.1853
 8528SOL    HW137217   4.177   0.005   9.958 -2.6974  3.1596 -1.0819
 8528SOL    HW237218   4.060   4.716   9.873  2.3065  2.3627 -1.7478
 8529SOL     OW37219   3.197   3.862   8.892  0.9895  0.3005  0.5554
 8529SOL    HW137220   3.264   3.796   8.912 -0.1077 -0.6137  1.2328
 8529SOL    HW237221   3.221   3.889   8.803 -1.2271 -1.9989 -0.7502
 8530SOL     OW37222   1.590   0.833   4.798 -0.4053 -0.2418 -0.1897
 8530SOL    HW137223   1.609   0.789   4.881 -0.4490 -0.7632 -0.4560
 8530SOL    HW237224   1.593   0.924   4.827  2.1894 -0.7965  1.2234
 8531SOL     OW37225   2.830   2.643  16.163  0.3447  0.5477 -0.1069
 8531SOL    HW137226   2.856   2.729  16.129  1.2787  1.3786  2.7189
 8531SOL    HW237227   2.796   2.600  16.085 -0.9371  0.5771  0.4285
 8532SOL     OW37228   3.193   0.723   2.508  0.0938  0.4953 -0.2203
 8532SOL    HW137229   3.238   0.649   2.466 -3.9516 -1.6961 -0.6432
 8532SOL    HW237230   3.168   0.769   2.428 -1.5395  0.1340  0.0961
 8533SOL     OW37231   0.429   3.504   7.933  0.1946 -0.3303  0.3266
 8533SOL    HW137232   0.408   3.412   7.918 -1.8940  0.3582 -0.9614
 8533SOL    HW237233   0.357   3.535   7.989  2.4568 -0.2084  3.2031
 8534SOL     OW37234   1.224   2.718   3.649 -0.5563 -0.3031 -0.0028
 8534SOL    HW137235   1.210   2.639   3.702  0.7530 -1.8867 -2.0464
 8534SOL    HW237236   1.297   2.699   3.591 -0.1936  1.0088  0.0159
 8535SOL     OW37237   4.489   0.029   2.682 -0.0991  0.6949  0.0302
 8535SOL    HW137238   4.394   0.036   2.675 -0.1749  1.0636  1.4504
 8535SOL    HW237239   4.510   0.048   2.591 -0.4386 -2.0631 -0.6440
 8536SOL     OW37240   3.980   0.781   8.176 -0.4756 -0.5713 -0.4790
 8536SOL    HW137241   3.902   0.744   8.219  1.1468 -0.9361  2.1526
 8536SOL    HW237242   3.978   0.737   8.091 -1.0801 -0.5603 -0.4703
 8537SOL     OW37243   4.374   4.280   4.489  0.0408 -0.6696  0.0315
 8537SOL    HW137244   4.327   4.363   4.503  0.4331 -0.3478 -0.5553
 8537SOL    HW237245   4.306   4.218   4.514 -0.9002 -0.4931 -2.0731
 8538SOL     OW37246   3.932   0.793   7.344 -0.3301  0.2182 -0.3410
 8538SOL    HW137247   3.866   0.770   7.279 -0.8047  0.6001  0.0058
 8538SOL    HW237248   3.990   0.848   7.292 -0.7262 -0.9172 -1.9784
 8539SOL     OW37249   0.513   2.301   7.379  0.2420 -0.2242  0.2632
 8539SOL    HW137250   0.460   2.264   7.450 -1.4119  0.3086 -0.6976
 8539SOL    HW237251   0.447   2.334   7.318 -0.5914 -1.5948  0.4178
 8540SOL     OW37252   0.008   1.589   3.722  0.0532 -0.4277  0.0685
 8540SOL    HW137253   0.083   1.558   3.772  0.5196  1.1662  0.3754
 8540SOL    HW237254   4.674   1.558   3.779 -0.9369  1.0534 -0.3408
 8541SOL     OW37255   4.179   0.491   1.168  0.4225  0.1239  0.0744
 8541SOL    HW137256   4.246   0.448   1.222 -1.2492 -2.0635  0.3989
 8541SOL    HW237257   4.164   0.577   1.206 -2.0621  0.6581 -2.1485
 8542SOL     OW37258   2.161   1.102   8.738 -0.3725  0.5686 -0.5084
 8542SOL    HW137259   2.165   1.015   8.699  0.4075  0.7072 -0.7202
 8542SOL    HW237260   2.229   1.092   8.804  0.9438 -1.0707 -2.1306
 8543SOL     OW37261   1.555   2.991  10.747 -0.6350 -0.1653  0.3758
 8543SOL    HW137262   1.543   2.896  10.750 -0.6089 -0.1984 -0.7919
 8543SOL    HW237263   1.647   3.006  10.767 -0.4751  0.4189 -0.8184
 8544SOL     OW37264   2.689   3.744   8.889  0.0061  0.2677  0.1399
 8544SOL    HW137265   2.778   3.747   8.925 -0.1235 -1.6751  0.6090
 8544SOL    HW237266   2.705   3.768   8.798 -0.2297 -0.1914 -0.0231
 8545SOL     OW37267   3.087   0.110  14.994  0.5958 -0.1757  0.0050
 8545SOL    HW137268   2.995   0.087  15.007  0.9922 -0.7704  1.6374
 8545SOL    HW237269   3.109   0.101  14.901 -1.9112 -1.2300 -0.4808
 8546SOL     OW37270   0.539   0.604   9.527 -0.8155  0.0786 -0.8038
 8546SOL    HW137271   0.486   0.599   9.607 -3.0898 -3.7614 -2.5264
 8546SOL    HW237272   0.475   0.577   9.461 -1.5887  0.5696 -0.2524
 8547SOL     OW37273   1.169   2.229   0.323 -0.0588  0.0603 -0.2935
 8547SOL    HW137274   1.203   2.283   0.252 -1.8351 -0.5937 -1.6287
 8547SOL    HW237275   1.081   2.215   0.288 -0.1059 -1.8340  0.6246
 8548SOL     OW37276   3.998   3.242   7.724  0.1225  0.0706 -0.5920
 8548SOL    HW137277   4.004   3.312   7.659 -2.2798  0.0819 -0.8082
 8548SOL    HW237278   4.060   3.266   7.793 -1.6292  0.1213  0.9538
 8549SOL     OW37279   3.947   3.296  17.042  0.1126  0.2126  0.0706
 8549SOL    HW137280   3.987   3.224  17.090  0.1867  0.9533  1.1207
 8549SOL    HW237281   3.856   3.269  17.053  0.5459 -0.2742  2.3279
 8550SOL     OW37282   2.864   1.071   3.424  0.2166 -0.3782  0.7257
 8550SOL    HW137283   2.780   1.069   3.378  0.8454  2.6426 -0.5243
 8550SOL    HW237284   2.873   1.160   3.456  0.4728  0.6968 -2.3621
 8551SOL     OW37285   4.338   1.372   9.974 -0.2010  0.4416  0.3898
 8551SOL    HW137286   4.402   1.439  10.000  1.1886 -1.3434  1.6164
 8551SOL    HW237287   4.319   1.392   9.883  1.4435 -0.9163 -0.2600
 8552SOL     OW37288   4.512   4.464   8.187  0.0018  0.3737 -0.0513
 8552SOL    HW137289   4.459   4.540   8.162 -0.3859  0.0547 -0.1832
 8552SOL    HW237290   4.592   4.487   8.139 -0.8604 -2.0052 -2.6021
 8553SOL     OW37291   2.586   3.274   2.821  0.8130 -0.4515  0.1653
 8553SOL    HW137292   2.514   3.218   2.849  1.9160 -0.1022  3.6430
 8553SOL    HW237293   2.616   3.222   2.746 -0.2502 -0.1797 -0.4488
 8554SOL     OW37294   3.726   4.252   7.205  0.5265 -0.4746 -0.4792
 8554SOL    HW137295   3.809   4.218   7.173  0.0143  0.0231 -2.2993
 8554SOL    HW237296   3.690   4.178   7.255 -0.5772  0.1340 -0.3883
 8555SOL     OW37297   3.972   1.761   8.289 -0.2392  0.2459  0.2945
 8555SOL    HW137298   3.961   1.689   8.227 -3.0500  0.2798  0.7392
 8555SOL    HW237299   3.901   1.750   8.352 -1.2034 -1.0536 -1.0132
 8556SOL     OW37300   3.113   0.816  12.855 -0.4253 -0.0970  0.8675
 8556SOL    HW137301   3.186   0.877  12.842 -3.5563  3.9648  2.5644
 8556SOL    HW237302   3.150   0.753  12.917 -0.2732 -0.7995  0.0662
 8557SOL     OW37303   1.874   0.636   8.226  0.0276 -0.4950  0.2014
 8557SOL    HW137304   1.797   0.657   8.278 -0.6000 -0.4109 -0.7707
 8557SOL    HW237305   1.862   0.542   8.215  1.6278 -1.1500  3.9355
 8558SOL     OW37306   1.307   4.206   2.735  0.0073  0.2041 -0.4005
 8558SOL    HW137307   1.233   4.264   2.753 -0.5164 -1.3713  2.4554
 8558SOL    HW237308   1.267   4.121   2.749 -0.2814  0.2387 -1.0115
 8559SOL     OW37309   2.007   4.559   2.855 -0.2467 -0.1189  0.3590
 8559SOL    HW137310   1.924   4.571   2.902  0.7959 -0.4713  2.2744
 8559SOL    HW237311   2.054   4.487   2.896 -2.3329 -1.2108  0.8247
 8560SOL     OW37312   3.959   0.553   1.548 -0.5000 -0.4760  0.4612
 8560SOL    HW137313   3.910   0.505   1.614 -0.1559 -0.9076  0.4035
 8560SOL    HW237314   4.036   0.496   1.542 -1.7575 -2.1736  0.4955
 8561SOL     OW37315   3.543   2.932  10.646  0.0171  0.5247 -0.0221
 8561SOL    HW137316   3.460   2.915  10.601  1.0181 -0.8022 -1.3764
 8561SOL    HW237317   3.547   2.849  10.694  1.4765  2.1529  2.7174
 8562SOL     OW37318   2.831   2.631   4.207 -0.0649 -0.3650 -0.3335
 8562SOL    HW137319   2.816   2.692   4.135 -1.4351 -0.9838 -0.5541
 8562SOL    HW237320   2.744   2.610   4.240  0.7299 -0.1575  1.9563
 8563SOL     OW37321   3.517   3.562   8.363 -0.4986 -0.6333  0.4777
 8563SOL    HW137322   3.465   3.513   8.298 -0.2310  2.5545 -2.1314
 8563SOL    HW237323   3.598   3.571   8.313 -1.5746 -1.4249 -1.4400
 8564SOL     OW37324   2.195   2.263  16.816 -0.1920 -0.3332  0.6069
 8564SOL    HW137325   2.197   2.184  16.871  1.9911 -2.2680 -2.2580
 8564SOL    HW237326   2.103   2.281  16.834 -0.1209  1.0059 -0.3621
 8565SOL     OW37327   2.440   0.880   5.090 -0.9471 -0.3626 -0.2158
 8565SOL    HW137328   2.493   0.949   5.131 -3.9999 -0.4305  3.8568
 8565SOL    HW237329   2.393   0.926   5.020  0.4387 -1.3032 -1.7741
 8566SOL     OW37330   4.149   4.051   0.712  0.2244  0.1574 -0.7722
 8566SOL    HW137331   4.221   4.025   0.769  0.1957  1.3563 -0.2008
 8566SOL    HW237332   4.125   3.970   0.666  1.1649 -0.0115 -0.9558
 8567SOL     OW37333   1.759   3.067   7.306  0.3772 -0.5666  0.3880
 8567SOL    HW137334   1.729   3.157   7.293 -1.3054 -0.8518  2.3612
 8567SOL    HW237335   1.681   3.020   7.335 -0.4999  0.3845 -0.4249
 8568SOL     OW37336   3.725   0.323   3.725  0.2919 -0.1550 -0.5446
 8568SOL    HW137337   3.761   0.335   3.637 -0.0000  1.4160 -0.4386
 8568SOL    HW237338   3.799   0.357   3.775  0.4176 -0.6466 -0.3911
 8569SOL     OW37339   2.482   0.154  17.508  0.0790  0.0690 -0.2710
 8569SOL    HW137340   2.538   0.085  17.474 -0.5693 -0.3480 -0.4820
 8569SOL    HW237341   2.544   0.223  17.534 -0.1579 -0.3479  1.3634
 8570SOL     OW37342   2.436   3.202  12.578 -0.0208 -0.4503  0.0544
 8570SOL    HW137343   2.373   3.272  12.561 -0.5036 -0.6696  0.9650
 8570SOL    HW237344   2.419   3.169  12.666  1.1712 -1.6682 -0.1561
 8571SOL     OW37345   1.188   3.953   3.415  0.0096  0.3753  0.0354
 8571SOL    HW137346   1.173   3.979   3.324  2.6824  0.3805 -0.4032
 8571SOL    HW237347   1.163   3.862   3.400 -1.0335  0.4805  1.1927
 8572SOL     OW37348   0.134   4.716   9.614 -0.2097  0.0240 -0.2416
 8572SOL    HW137349   0.046   4.688   9.589 -0.8426 -0.5962  2.6228
 8572SOL    HW237350   0.187   4.669   9.550 -1.1014  0.1039 -1.0420
 8573SOL     OW37351   3.464   0.173   9.201  0.2008  0.0468 -0.4712
 8573SOL    HW137352   3.369   0.156   9.195 -0.0986  1.3053  0.7209
 8573SOL    HW237353   3.469   0.248   9.142  0.5722  0.6675  0.3560
 8574SOL     OW37354   3.040   4.013   7.287 -0.5910  0.2264 -0.1704
 8574SOL    HW137355   3.006   4.072   7.354  1.4219  0.3540  0.7340
 8574SOL    HW237356   3.107   3.960   7.329  0.0036  1.2580  0.1978
 8575SOL     OW37357   0.642   1.940   6.494  0.2829 -0.6406 -0.1989
 8575SOL    HW137358   0.674   1.892   6.417  1.2386 -0.7827  0.2961
 8575SOL    HW237359   0.643   1.861   6.548 -0.1053 -1.0024 -0.7183
 8576SOL     OW37360   0.604   2.445   1.895  0.0485  0.5395 -0.2567
 8576SOL    HW137361   0.528   2.497   1.923  0.6495  1.2021  0.1523
 8576SOL    HW237362   0.678   2.504   1.883  0.7035 -0.0035  1.1482
 8577SOL     OW37363   3.473   2.550   7.679 -0.5934  0.1803 -0.0157
 8577SOL    HW137364   3.519   2.580   7.601  0.2174  1.2738  0.8745
 8577SOL    HW237365   3.411   2.487   7.642 -1.1405 -0.2450  1.6174
 8578SOL     OW37366   1.726   1.960  15.926  0.5649 -0.1486 -0.1038
 8578SOL    HW137367   1.786   1.920  15.989  1.6728 -2.6578 -2.7751
 8578SOL    HW237368   1.647   1.918  15.959 -0.1384  1.2465 -0.0172
 8579SOL     OW37369   3.561   4.551  12.139  0.6486  0.0611 -0.1182
 8579SOL    HW137370   3.483   4.594  12.105 -0.3381 -0.4062  1.5640
 8579SOL    HW237371   3.591   4.503  12.061  2.2314  0.0475  0.4952
 8580SOL     OW37372   2.298   3.110   4.195 -0.2461  0.3829 -0.8996
 8580SOL    HW137373   2.376   3.067   4.229 -2.1911 -2.9825 -0.7003
 8580SOL    HW237374   2.233   3.063   4.247  1.5291 -3.4918 -2.2093
 8581SOL     OW37375   2.861   3.582   5.159  0.0781 -0.3824 -0.2984
 8581SOL    HW137376   2.942   3.547   5.197 -1.9091 -0.4181  3.8818
 8581SOL    HW237377   2.889   3.573   5.068  0.1158 -1.2216 -0.2024
 8582SOL     OW37378   4.075   2.091   5.634  0.0384 -0.2048  0.7114
 8582SOL    HW137379   4.118   2.152   5.694 -0.7964  1.2796 -0.1753
 8582SOL    HW237380   4.155   2.042   5.616 -0.1993 -0.7149  1.0687
 8583SOL     OW37381   4.706   3.771  16.566  0.5603 -0.0105  0.3887
 8583SOL    HW137382   4.613   3.775  16.544  0.6418  0.8809  0.2283
 8583SOL    HW237383   4.709   3.717  16.646 -1.0268 -1.1124 -0.3073
 8584SOL     OW37384   1.766   0.558  12.647  1.0149  0.5871  0.4018
 8584SOL    HW137385   1.721   0.490  12.697  0.8946  1.0496  0.9189
 8584SOL    HW237386   1.808   0.611  12.715 -0.6617 -0.2197  2.0546
 8585SOL     OW37387   3.086   2.236   1.440 -0.3698 -0.0175 -0.8431
 8585SOL    HW137388   3.050   2.283   1.515  2.7691  1.0733 -0.0072
 8585SOL    HW237389   3.098   2.312   1.384 -2.4232  0.4144 -0.6882
 8586SOL     OW37390   0.839   3.899  10.062  0.1308 -0.0805 -0.1648
 8586SOL    HW137391   0.871   3.919  10.150  0.6770  0.5311 -0.5012
 8586SOL    HW237392   0.845   3.983  10.018  0.6359 -0.8423 -1.5479
 8587SOL     OW37393   3.988   1.587   5.145 -0.3416 -0.3777 -0.4336
 8587SOL    HW137394   3.964   1.663   5.092  0.5292  1.1487  1.3844
 8587SOL    HW237395   3.974   1.617   5.235 -1.5607  0.2662 -0.8319
 8588SOL     OW37396   4.024   2.931   0.195  0.7179 -0.4309 -0.4021
 8588SOL    HW137397   4.054   2.919   0.104  1.0575  0.3387 -0.3946
 8588SOL    HW237398   3.974   3.013   0.189  2.1504  0.3388 -1.7583
 8589SOL     OW37399   1.143   4.337   8.757  0.0702 -0.5870 -0.0238
 8589SOL    HW137400   1.198   4.321   8.834  1.6484  0.8182 -0.8389
 8589SOL    HW237401   1.064   4.382   8.787  0.0653 -1.2708  0.9933
 8590SOL     OW37402   2.186   3.102   6.844  0.2336 -0.7338 -0.2835
 8590SOL    HW137403   2.178   3.019   6.891  1.3751 -1.0160 -0.5698
 8590SOL    HW237404   2.261   3.085   6.786  0.5363 -2.0870  0.4958
 8591SOL     OW37405   2.541   1.474  15.845  0.3652 -0.1385  0.0879
 8591SOL    HW137406   2.546   1.537  15.773  0.3074 -1.4481 -1.0467
 8591SOL    HW237407   2.508   1.400  15.795 -0.8061 -0.2897  1.0880
 8592SOL     OW37408   2.184   0.500  13.853  0.1855 -0.0896 -0.1879
 8592SOL    HW137409   2.165   0.408  13.836 -1.2517  0.1884 -0.0566
 8592SOL    HW237410   2.094   0.521  13.878 -0.4579 -2.5186 -0.4003
 8593SOL     OW37411   0.974   3.017   1.411 -0.7492  0.4988 -0.2451
 8593SOL    HW137412   1.044   2.963   1.375  0.1166  1.4481  0.0049
 8593SOL    HW237413   1.014   3.103   1.422  0.4358 -0.0341 -0.3868
 8594SOL     OW37414   1.852   1.498  12.716  0.3559  0.5378  0.9772
 8594SOL    HW137415   1.784   1.453  12.765 -0.1830  0.1667 -0.1262
 8594SOL    HW237416   1.928   1.485  12.773  0.3966  0.4088  0.8949
 8595SOL     OW37417   3.628   2.620   9.735 -0.7222 -0.5624  0.0488
 8595SOL    HW137418   3.545   2.612   9.783 -0.8578 -0.3090 -0.1376
 8595SOL    HW237419   3.589   2.631   9.649  0.7874  3.6880 -0.1212
 8596SOL     OW37420   1.199   0.240  17.387  0.2139  0.2487 -0.9373
 8596SOL    HW137421   1.223   0.331  17.405  0.1115  0.4811 -1.9799
 8596SOL    HW237422   1.131   0.240  17.320 -1.1363  1.9215  0.4087
 8597SOL     OW37423   3.753   4.038  13.032 -0.2983  0.2177 -0.7938
 8597SOL    HW137424   3.736   4.127  13.000  2.0691  0.2891 -1.8894
 8597SOL    HW237425   3.786   4.000  12.950  2.4180 -1.1264  0.9123
 8598SOL     OW37426   2.745   3.452   2.971  0.0230  0.3626  0.3856
 8598SOL    HW137427   2.808   3.459   2.900 -0.6068 -0.1799 -0.2275
 8598SOL    HW237428   2.671   3.413   2.924  0.6263  0.2991 -0.5086
 8599SOL     OW37429   3.362   0.904  11.819  0.0040 -0.1799 -0.1800
 8599SOL    HW137430   3.325   0.825  11.779 -0.7257 -0.4983  1.1142
 8599SOL    HW237431   3.283   0.958  11.814  0.4927  0.6985  1.4632
 8600SOL     OW37432   1.201   1.072   5.571  0.0894  0.5163 -0.4230
 8600SOL    HW137433   1.156   1.152   5.598 -0.9980 -0.1752 -0.1882
 8600SOL    HW237434   1.160   1.012   5.633 -1.8912  1.1259 -1.1438
 8601SOL     OW37435   3.278   1.535   6.246  0.2754  0.3817  0.0936
 8601SOL    HW137436   3.284   1.558   6.339 -0.1236 -3.1483  1.0039
 8601SOL    HW237437   3.369   1.540   6.216  0.0796 -0.7073 -0.6720
 8602SOL     OW37438   2.563   4.383   5.518 -0.1178 -0.0234  0.2820
 8602SOL    HW137439   2.633   4.403   5.455  1.6984  0.6053  2.4814
 8602SOL    HW237440   2.484   4.385   5.464  0.1440 -0.5501 -0.1149
 8603SOL     OW37441   3.411   2.288  12.244 -0.0848  0.1461 -0.7349
 8603SOL    HW137442   3.348   2.273  12.314  0.1326 -0.4562 -0.6736
 8603SOL    HW237443   3.422   2.196  12.219  1.1875  0.0954  0.0062
 8604SOL     OW37444   0.609   1.570  12.492  0.3731  0.0144 -0.1771
 8604SOL    HW137445   0.683   1.579  12.432  0.6252 -0.8541  0.0086
 8604SOL    HW237446   0.533   1.563  12.434  0.0928 -0.8064  0.2926
 8605SOL     OW37447   2.683   3.151   2.596  0.6707 -0.1348  0.0224
 8605SOL    HW137448   2.739   3.089   2.549 -0.8720 -0.4986 -1.3332
 8605SOL    HW237449   2.733   3.230   2.577  0.5880 -0.1052 -0.0710
 8606SOL     OW37450   2.813   0.761  10.576  0.0087 -0.4543  0.7058
 8606SOL    HW137451   2.754   0.736  10.646 -0.5271  2.1038  1.1655
 8606SOL    HW237452   2.897   0.730  10.611  0.5201 -0.2633 -0.3341
 8607SOL     OW37453   3.008   1.343   2.356 -1.1671 -0.3483  0.5416
 8607SOL    HW137454   3.064   1.396   2.298 -0.9262 -0.0947  1.0005
 8607SOL    HW237455   2.935   1.321   2.298 -2.3984  0.0047  1.9673
 8608SOL     OW37456   1.370   2.128   6.797 -0.4015  0.0280  0.2526
 8608SOL    HW137457   1.409   2.191   6.857  0.9290 -0.7946  0.2575
 8608SOL    HW237458   1.278   2.129   6.820 -0.6543 -0.9942 -0.6893
 8609SOL     OW37459   3.821   3.794   4.065  0.1240 -0.3796 -0.4083
 8609SOL    HW137460   3.759   3.740   4.017 -0.2224 -1.2220  1.0107
 8609SOL    HW237461   3.832   3.865   4.002 -1.5328  0.2443  0.0110
 8610SOL     OW37462   3.148   1.690   3.810  0.0939 -0.5309  0.5154
 8610SOL    HW137463   3.239   1.703   3.836  0.1410 -1.4966  0.8300
 8610SOL    HW237464   3.113   1.666   3.896 -1.9441  0.1999 -0.1100
 8611SOL     OW37465   0.729   0.300   5.273 -0.3577  0.7708  0.0367
 8611SOL    HW137466   0.636   0.320   5.283 -0.3244  0.7434  0.4048
 8611SOL    HW237467   0.743   0.219   5.323  0.3641 -0.2198 -1.7649
 8612SOL     OW37468   0.805   1.535   1.891  0.0937 -0.2581 -0.3050
 8612SOL    HW137469   0.783   1.601   1.825  2.8093  1.5318  0.6248
 8612SOL    HW237470   0.813   1.596   1.964 -0.2265  0.3111 -0.7444
 8613SOL     OW37471   1.029   1.231   3.657 -0.2941  0.1038 -0.0619
 8613SOL    HW137472   1.026   1.144   3.617  0.4639  0.0605 -0.0169
 8613SOL    HW237473   1.118   1.257   3.634 -1.0498  0.3860 -2.7453
 8614SOL     OW37474   2.959   2.159   4.994  0.0275  0.0752  0.2979
 8614SOL    HW137475   2.888   2.209   4.954  0.1593  0.0584  0.0442
 8614SOL    HW237476   2.954   2.191   5.084  2.4307  2.6595 -0.5173
 8615SOL     OW37477   2.425   0.991   3.120  0.8922 -0.6790  0.0630
 8615SOL    HW137478   2.482   0.920   3.151  3.1761  1.2020  0.1443
 8615SOL    HW237479   2.372   0.941   3.057 -1.3769  1.6828  0.1340
 8616SOL     OW37480   3.342   3.705   4.263  0.3180 -0.0163 -0.3428
 8616SOL    HW137481   3.348   3.704   4.168  3.0605 -0.6423 -0.1606
 8616SOL    HW237482   3.297   3.789   4.277  0.4821 -0.2423  1.5951
 8617SOL     OW37483   3.964   2.993  10.064 -0.6774  0.2369 -0.4761
 8617SOL    HW137484   3.986   3.071  10.116  0.4153  0.9547 -2.0184
 8617SOL    HW237485   3.939   2.926  10.128 -0.5253 -0.8897 -1.6131
 8618SOL     OW37486   2.668   2.581  13.734 -0.3209 -0.4514 -0.4086
 8618SOL    HW137487   2.643   2.674  13.738 -0.7888 -0.5849 -0.2197
 8618SOL    HW237488   2.670   2.556  13.641  1.5965  0.2458 -0.5533
 8619SOL     OW37489   3.259   1.772   8.293  0.0554 -0.0981 -0.5377
 8619SOL    HW137490   3.277   1.865   8.304 -2.2670  0.3653 -0.7061
 8619SOL    HW237491   3.344   1.732   8.314 -0.5005 -0.9587  0.0784
 8620SOL     OW37492   0.075   1.892   8.937 -0.1304 -0.3817  0.6820
 8620SOL    HW137493   0.142   1.950   8.901 -0.3701 -0.3875  0.2237
 8620SOL    HW237494   0.123   1.867   9.016 -1.3037 -0.0881  1.4838
 8621SOL     OW37495   0.388   2.279   1.594 -0.1927  0.2134 -0.3569
 8621SOL    HW137496   0.391   2.327   1.677  0.0562 -0.1644 -0.1501
 8621SOL    HW237497   0.463   2.220   1.601 -0.4621  0.0075  0.8650
 8622SOL     OW37498   4.011   3.337   3.636 -0.3223 -0.1589 -0.0342
 8622SOL    HW137499   3.925   3.361   3.670 -2.1547 -3.1803 -2.6277
 8622SOL    HW237500   4.063   3.404   3.680  0.6153 -1.6222  1.0729
 8623SOL     OW37501   1.219   2.423   4.194  0.5233 -0.4788 -0.8734
 8623SOL    HW137502   1.210   2.447   4.287 -0.7895  1.7613 -1.5890
 8623SOL    HW237503   1.237   2.512   4.166 -1.8976  0.6866  1.1864
 8624SOL     OW37504   4.103   1.639   1.100  0.4876 -0.6462  0.1206
 8624SOL    HW137505   4.072   1.719   1.142 -0.7587 -1.7579  1.3321
 8624SOL    HW237506   4.147   1.595   1.173  1.4221 -1.4959 -0.9454
 8625SOL     OW37507   1.531   3.262   4.411  0.4663  0.0897 -0.1439
 8625SOL    HW137508   1.438   3.243   4.425  0.7048 -0.9106  0.0795
 8625SOL    HW237509   1.550   3.173   4.382  1.2219  0.3679 -0.4942
 8626SOL     OW37510   1.852   0.658  11.400 -0.0736 -0.3465  0.3176
 8626SOL    HW137511   1.813   0.609  11.328  2.3359 -0.7267 -0.7254
 8626SOL    HW237512   1.946   0.639  11.391  0.4215  1.0592  2.4965
 8627SOL     OW37513   1.923   0.156   6.462 -0.0854 -0.0162 -0.2658
 8627SOL    HW137514   1.997   0.216   6.452  0.7205 -1.0446 -0.4285
 8627SOL    HW237515   1.927   0.115   6.375  0.0741 -1.7601  0.5756
 8628SOL     OW37516   4.716   2.629   9.644  0.3922 -0.2534 -0.3434
 8628SOL    HW137517   4.688   2.537   9.649 -1.4037  0.3798  1.2333
 8628SOL    HW237518   0.062   2.630   9.694  0.5379 -0.7713 -0.5704
 8629SOL     OW37519   0.612   4.370   5.421  0.4307  0.0117  0.2972
 8629SOL    HW137520   0.596   4.336   5.333 -0.2062  2.2395 -0.4433
 8629SOL    HW237521   0.592   4.462   5.404  1.2554 -0.1325 -1.4552
 8630SOL     OW37522   0.113   2.859   9.572  0.2814  0.9143  0.5815
 8630SOL    HW137523   0.058   2.781   9.566  2.3243 -0.5756  0.9025
 8630SOL    HW237524   0.192   2.825   9.615  0.4375  1.5252  0.7776
 8631SOL     OW37525   2.011   2.001   4.113  0.1876  0.1175  0.0364
 8631SOL    HW137526   2.036   1.948   4.189  0.0733  1.7227  1.2055
 8631SOL    HW237527   1.921   2.012   4.142  0.9155  0.4550  2.1749
 8632SOL     OW37528   0.770   0.382   0.888  0.6599  0.5720  0.2294
 8632SOL    HW137529   0.852   0.352   0.926  0.9721  0.8012 -0.2602
 8632SOL    HW237530   0.800   0.399   0.798  0.5992  2.7050  0.6218
 8633SOL     OW37531   1.493   3.657   7.987 -0.0635 -0.1887  0.3879
 8633SOL    HW137532   1.418   3.660   8.045 -0.4430  0.1608 -0.1183
 8633SOL    HW237533   1.556   3.670   8.057 -1.1373  1.7027  0.9819
 8634SOL     OW37534   3.541   0.859   3.074 -0.3627  0.6199 -0.0983
 8634SOL    HW137535   3.528   0.824   2.986 -0.7508 -1.2442  0.6949
 8634SOL    HW237536   3.633   0.886   3.078 -0.1840  0.0245 -0.1703
 8635SOL     OW37537   0.759   2.126   3.715  0.3867  0.1149  0.4515
 8635SOL    HW137538   0.803   2.209   3.695  0.8092 -0.2660 -0.2149
 8635SOL    HW237539   0.827   2.062   3.736 -0.7781 -1.1889  0.2297
 8636SOL     OW37540   0.548   4.342   5.152  0.0900 -0.6647  0.0629
 8636SOL    HW137541   0.564   4.427   5.112  0.8789 -1.3075 -0.9821
 8636SOL    HW237542   0.562   4.279   5.081  3.1989 -0.8759  0.8281
 8637SOL     OW37543   1.035   1.638   1.318  0.0345 -0.6508 -0.3491
 8637SOL    HW137544   0.945   1.607   1.306 -0.9869  0.9088  3.4579
 8637SOL    HW237545   1.053   1.670   1.230 -1.7604  0.8780 -0.1643
 8638SOL     OW37546   0.840   0.514   1.868 -0.4506 -0.1678  0.0363
 8638SOL    HW137547   0.786   0.585   1.903  0.3979  0.4881  0.0179
 8638SOL    HW237548   0.912   0.519   1.931 -0.9518 -0.1605  0.6055
 8639SOL     OW37549   2.506   4.567   7.719 -0.2094  0.2323  0.3196
 8639SOL    HW137550   2.543   4.523   7.796  0.1194  2.7459  1.6163
 8639SOL    HW237551   2.552   4.649   7.736 -1.2010  0.4137  2.2308
 8640SOL     OW37552   0.797   2.019   3.199 -0.1929  0.6199  0.0266
 8640SOL    HW137553   0.800   2.109   3.167  0.5501  0.1900 -1.1568
 8640SOL    HW237554   0.883   2.023   3.241 -0.0941  0.6528 -0.1758
 8641SOL     OW37555   0.164   2.665  13.422  0.0369 -0.2145  0.2221
 8641SOL    HW137556   0.221   2.593  13.450  0.5065 -0.1261 -0.5259
 8641SOL    HW237557   0.090   2.643  13.479  0.5063  0.9932  1.3004
 8642SOL     OW37558   2.637   4.380  17.014  0.1322  0.1009 -0.1045
 8642SOL    HW137559   2.572   4.403  16.948 -0.3989 -0.8007  0.1078
 8642SOL    HW237560   2.645   4.461  17.065  0.0778 -1.4568  2.3687
 8643SOL     OW37561   0.730   2.749   3.955  0.5170  0.2132  0.0079
 8643SOL    HW137562   0.677   2.750   4.034  0.1624  1.7262 -0.2435
 8643SOL    HW237563   0.749   2.655   3.948 -0.8240  0.0789 -2.0117
 8644SOL     OW37564   0.110   2.978   0.529 -0.3489 -0.0347 -0.1020
 8644SOL    HW137565   0.060   2.907   0.568 -0.5306 -0.6505 -1.4296
 8644SOL    HW237566   0.038   3.010   0.474 -0.8101  0.7877  0.9883
 8645SOL     OW37567   1.949   2.573   7.130  0.3131  0.4441  0.1609
 8645SOL    HW137568   1.956   2.667   7.149 -1.1087  0.0983  2.5148
 8645SOL    HW237569   1.990   2.567   7.044  0.4020 -0.4518  0.2629
 8646SOL     OW37570   2.582   3.313   8.314 -0.0752 -0.0944  0.3828
 8646SOL    HW137571   2.673   3.342   8.305 -0.2401  0.8021  1.5216
 8646SOL    HW237572   2.551   3.343   8.400  2.1740  2.6102  0.2452
 8647SOL     OW37573   1.067   0.382   3.539  0.1311  0.0595  0.1101
 8647SOL    HW137574   1.140   0.337   3.497  1.0297  0.4941  1.2303
 8647SOL    HW237575   1.002   0.315   3.561 -0.4214  0.4514 -0.3179
 8648SOL     OW37576   1.948   0.345   6.104  0.5264 -0.5148  0.4004
 8648SOL    HW137577   2.032   0.382   6.132  0.3040  0.0875  0.2687
 8648SOL    HW237578   1.924   0.403   6.032 -1.5669  0.0476  1.5444
 8649SOL     OW37579   0.006   0.121  15.712 -0.6526 -0.4359  0.3184
 8649SOL    HW137580   0.089   0.155  15.677  0.0167 -1.4419  0.9352
 8649SOL    HW237581   4.714   0.203  15.752 -1.6157 -0.0920 -1.0700
 8650SOL     OW37582   1.645   3.610  14.097  0.2580 -0.3362 -0.0145
 8650SOL    HW137583   1.679   3.697  14.120 -0.5783  0.0127 -0.0887
 8650SOL    HW237584   1.731   3.584  14.131  1.3416  2.0305 -0.9288
 8651SOL     OW37585   2.337   2.039   3.411  0.3835 -0.2998  0.5755
 8651SOL    HW137586   2.281   1.965   3.432 -1.5106  0.4396 -1.9162
 8651SOL    HW237587   2.354   2.087   3.492  1.0480  0.1990  0.1406
 8652SOL     OW37588   3.338   2.170   1.556 -0.2136  0.5002  0.1938
 8652SOL    HW137589   3.257   2.184   1.508  0.4827  1.1171 -0.7833
 8652SOL    HW237590   3.358   2.257   1.590 -1.6389  1.4198 -1.3335
 8653SOL     OW37591   4.005   4.326   3.440  0.4753 -0.6947  0.1769
 8653SOL    HW137592   4.046   4.378   3.371  2.2108 -1.0080  0.9869
 8653SOL    HW237593   4.074   4.330   3.507  2.5088  0.3184 -1.9842
 8654SOL     OW37594   3.500   1.503   1.440  0.4063  0.5306  0.1073
 8654SOL    HW137595   3.520   1.410   1.444  1.5575  0.7718  0.1311
 8654SOL    HW237596   3.572   1.529   1.382  1.0208 -1.2816  0.0590
 8655SOL     OW37597   3.405   0.397   4.588 -0.5069 -0.0312  0.3602
 8655SOL    HW137598   3.358   0.313   4.585 -0.8110  0.0986  1.6482
 8655SOL    HW237599   3.480   0.380   4.645 -0.3820  0.9319  0.4696
 8656SOL     OW37600   0.683   0.347  13.042  0.0605  0.3792 -0.4896
 8656SOL    HW137601   0.735   0.268  13.025  1.2582  1.2222 -0.7562
 8656SOL    HW237602   0.614   0.318  13.101  0.5142 -1.6465 -0.9684
 8657SOL     OW37603   1.580   2.474   0.468  0.2025 -0.3496 -0.4977
 8657SOL    HW137604   1.627   2.557   0.471 -0.1235 -0.1930  0.5676
 8657SOL    HW237605   1.583   2.455   0.375  0.1222 -0.0141 -0.5660
 8658SOL     OW37606   3.487   1.731  12.144  0.0847  0.2524 -0.1996
 8658SOL    HW137607   3.421   1.703  12.080  0.3194  0.2132 -0.4239
 8658SOL    HW237608   3.476   1.661  12.209 -1.7352 -0.6133 -1.4295
 8659SOL     OW37609   0.347   0.927   2.679 -0.3790  0.3399  0.3267
 8659SOL    HW137610   0.378   0.931   2.588  1.7582  2.6123  1.1407
 8659SOL    HW237611   0.324   1.019   2.693  0.3332  0.6494 -0.5056
 8660SOL     OW37612   3.653   3.244  14.911  0.2556  0.3667 -0.6646
 8660SOL    HW137613   3.718   3.242  14.981 -1.5164 -1.5429  0.9285
 8660SOL    HW237614   3.688   3.170  14.861  1.1604  0.5717 -0.3364
 8661SOL     OW37615   0.982   1.800   2.294 -0.4415 -0.1892 -0.4909
 8661SOL    HW137616   1.048   1.867   2.313 -1.2198  0.8778 -1.5416
 8661SOL    HW237617   0.961   1.771   2.383  0.6289  1.7087  0.3856
 8662SOL     OW37618   2.827   2.788   6.019 -0.1258  0.2966  0.1120
 8662SOL    HW137619   2.810   2.702   6.055  1.8295  1.1154  2.9440
 8662SOL    HW237620   2.873   2.842   6.083 -0.3145  0.9588 -0.2988
 8663SOL     OW37621   1.802   4.278  10.537  0.1455  0.2334  0.1165
 8663SOL    HW137622   1.825   4.326  10.617  0.7980 -0.3735  0.2970
 8663SOL    HW237623   1.728   4.226  10.569  1.1047  0.4999  2.7711
 8664SOL     OW37624   2.143   1.237   4.621 -0.1362  0.0937  0.0657
 8664SOL    HW137625   2.173   1.301   4.685  0.4330  0.3023 -0.4063
 8664SOL    HW237626   2.050   1.257   4.630 -0.1388 -0.0706  0.3951
 8665SOL     OW37627   2.447   2.220  17.307  0.4251  0.3292 -0.1298
 8665SOL    HW137628   2.370   2.268  17.276  0.0645 -0.6107 -0.6672
 8665SOL    HW237629   2.472   2.167  17.231 -2.8173 -0.0419 -0.9539
 8666SOL     OW37630   3.340   2.928   7.441 -0.1472 -1.0381 -0.1081
 8666SOL    HW137631   3.305   2.859   7.386 -2.1961  0.0735 -0.1713
 8666SOL    HW237632   3.267   2.924   7.502  0.4818  2.3378  0.8773
 8667SOL     OW37633   3.686   3.085   7.411 -0.0255 -0.5271 -0.0408
 8667SOL    HW137634   3.591   3.093   7.421  0.0482 -0.8492  0.9221
 8667SOL    HW237635   3.713   3.133   7.489 -0.8682 -1.9038  1.1010
 8668SOL     OW37636   1.809   1.594  14.437 -0.5006  0.0328 -0.0400
 8668SOL    HW137637   1.823   1.503  14.411 -0.6987 -0.1882  0.6264
 8668SOL    HW237638   1.731   1.618  14.388 -0.3972 -1.5844 -0.9808
 8669SOL     OW37639   0.614   2.000  13.164 -0.3141 -0.0769  0.6884
 8669SOL    HW137640   0.678   2.000  13.236  1.0520 -2.5739 -0.5253
 8669SOL    HW237641   0.581   2.090  13.164  0.3948  0.1950  2.2351
 8670SOL     OW37642   4.347   4.587  13.164  0.3005 -0.0989 -0.0765
 8670SOL    HW137643   4.400   4.660  13.130  0.8102 -1.1633 -1.5471
 8670SOL    HW237644   4.291   4.631  13.228  0.3522  0.6305 -0.5210
 8671SOL     OW37645   0.102   3.518   3.126 -0.2916 -0.6788  0.1368
 8671SOL    HW137646   0.183   3.568   3.110  0.6517 -2.4618 -0.6759
 8671SOL    HW237647   0.096   3.441   3.070 -0.9511  1.1677 -2.3166
 8672SOL     OW37648   3.445   3.796  11.186 -0.4138  0.7200  0.1660
 8672SOL    HW137649   3.418   3.705  11.202  0.2895  0.4259 -0.3299
 8672SOL    HW237650   3.370   3.826  11.134 -0.1510  1.9630  0.5275
 8673SOL     OW37651   4.669   3.820   1.656 -0.5049  0.5332 -0.5929
 8673SOL    HW137652   4.650   3.728   1.674  1.6044  0.2924  0.3097
 8673SOL    HW237653   0.021   3.841   1.686 -0.1245 -1.0134 -0.5981
 8674SOL     OW37654   2.913   0.014  11.106 -0.2609 -0.0341  0.0054
 8674SOL    HW137655   2.820   4.730  11.102 -0.1830 -0.6367  1.3541
 8674SOL    HW237656   2.932   4.697  11.183  0.9401  0.1244 -0.1863
 8675SOL     OW37657   4.361   0.979   6.332  0.2508 -0.1992  0.2592
 8675SOL    HW137658   4.382   0.886   6.334 -0.4843 -0.3516  0.8641
 8675SOL    HW237659   4.429   1.018   6.388  1.3797 -1.2935 -0.3467
 8676SOL     OW37660   2.838   3.251  13.956 -0.0892 -0.4784 -0.0284
 8676SOL    HW137661   2.782   3.309  14.008 -1.3039 -2.6107  1.0261
 8676SOL    HW237662   2.860   3.317  13.890  2.8165 -0.8301  0.6102
 8677SOL     OW37663   3.695   0.095  11.852 -0.3396 -0.4448  0.5561
 8677SOL    HW137664   3.646   0.019  11.822 -1.8489  1.2548 -1.3039
 8677SOL    HW237665   3.690   0.093  11.948  0.0359  3.6414  0.6696
 8678SOL     OW37666   0.157   0.450   5.835 -0.7810 -0.0645  0.5098
 8678SOL    HW137667   0.124   0.423   5.921 -2.1809  0.5417  0.1606
 8678SOL    HW237668   0.158   0.545   5.840  1.9467 -0.1920  2.4629
 8679SOL     OW37669   3.458   0.847   4.651 -0.3748 -0.1996  0.0036
 8679SOL    HW137670   3.502   0.764   4.669  0.8401  0.8059  1.7435
 8679SOL    HW237671   3.388   0.810   4.597 -1.4622  1.1216  0.5117
 8680SOL     OW37672   4.506   2.777  15.858 -0.0478 -0.3938  0.2986
 8680SOL    HW137673   4.521   2.767  15.764 -1.4956  1.8607 -0.1838
 8680SOL    HW237674   4.443   2.849  15.851 -0.3890 -0.6595  0.5857
 8681SOL     OW37675   0.865   1.809   9.302  0.7617 -0.1108 -0.1647
 8681SOL    HW137676   0.875   1.827   9.395  1.9956 -1.0324 -0.1091
 8681SOL    HW237677   0.905   1.722   9.295  2.9152  0.8913 -0.3075
 8682SOL     OW37678   0.658   2.839   6.601 -0.0720  0.4170  0.5991
 8682SOL    HW137679   0.629   2.816   6.512 -1.3448 -0.5673  1.2708
 8682SOL    HW237680   0.663   2.934   6.587 -0.0164  0.7591  2.9769
 8683SOL     OW37681   1.095   1.229  12.020  0.2859  0.7073 -0.1822
 8683SOL    HW137682   1.028   1.170  11.989  0.9827 -0.9872  1.5472
 8683SOL    HW237683   1.051   1.314  12.028 -2.1620 -0.5967 -0.1216
 8684SOL     OW37684   3.171   4.200  12.646 -0.3033  0.8038 -0.8959
 8684SOL    HW137685   3.156   4.191  12.740  0.3970  1.2339 -0.7418
 8684SOL    HW237686   3.207   4.289  12.640 -0.9159  1.0572 -0.7765
 8685SOL     OW37687   1.804   3.758   1.190 -0.4388 -0.4456  0.0730
 8685SOL    HW137688   1.767   3.785   1.274  1.4452  2.8344 -0.1678
 8685SOL    HW237689   1.883   3.709   1.212 -0.6226 -0.2393  1.1560
 8686SOL     OW37690   1.259   1.549   9.184  0.0693 -0.5580  0.5737
 8686SOL    HW137691   1.353   1.534   9.194  0.5588  0.2802 -2.5879
 8686SOL    HW237692   1.250   1.556   9.089  3.0270 -0.7371  0.2640
 8687SOL     OW37693   0.171   1.102   1.730 -0.7635  0.2103 -0.1281
 8687SOL    HW137694   0.230   1.080   1.658 -2.6509  0.0415 -1.6287
 8687SOL    HW237695   0.152   1.196   1.726 -0.6165  0.2211 -0.5480
 8688SOL     OW37696   4.667   1.431   8.415 -0.0242 -0.7626  0.8714
 8688SOL    HW137697   4.690   1.514   8.457  2.3993 -1.0236  0.0894
 8688SOL    HW237698   4.572   1.436   8.424 -0.1044 -1.0148  0.1432
 8689SOL     OW37699   1.306   1.729   5.956 -0.4155  0.2252 -0.3079
 8689SOL    HW137700   1.391   1.736   5.913  0.1022 -0.0433  0.6716
 8689SOL    HW237701   1.325   1.666   6.026  1.5036  3.2720  1.9040
 8690SOL     OW37702   3.328   1.543   4.411 -0.3321  0.2188  0.0555
 8690SOL    HW137703   3.244   1.539   4.457 -0.8748 -0.1416 -0.9692
 8690SOL    HW237704   3.393   1.512   4.474  0.1615 -1.4642 -1.2858
 8691SOL     OW37705   1.749   0.331  17.731 -0.2136 -0.8163  0.2697
 8691SOL    HW137706   1.770   0.242  17.705 -1.3056 -0.8959 -0.3522
 8691SOL    HW237707   1.827   0.375  17.698 -0.9937  1.0748  0.9228
 8692SOL     OW37708   2.833   3.502   8.630  0.0189  0.2682  0.7416
 8692SOL    HW137709   2.925   3.517   8.652  0.5544 -1.6840 -0.1447
 8692SOL    HW237710   2.801   3.429   8.684 -0.9759  0.3646  0.2967
 8693SOL     OW37711   2.505   3.920   5.713  0.0018  0.1446  0.2860
 8693SOL    HW137712   2.433   3.939   5.653 -1.5414  0.2973  2.1870
 8693SOL    HW237713   2.530   3.999   5.760  0.1727 -0.2421  0.8509
 8694SOL     OW37714   0.884   1.038   8.332  0.1731 -0.4863 -0.7429
 8694SOL    HW137715   0.965   1.088   8.347 -0.1472 -0.2840  0.3025
 8694SOL    HW237716   0.879   0.975   8.404  0.2966 -0.4442 -0.6960
 8695SOL     OW37717   2.959   2.363   6.208 -0.3805  0.2710 -0.4949
 8695SOL    HW137718   2.886   2.398   6.158 -1.0269 -0.3823 -0.0104
 8695SOL    HW237719   3.017   2.438   6.195  1.1793 -1.1499 -1.8661
 8696SOL     OW37720   3.799   3.889   5.298 -0.1463 -0.4984  0.3351
 8696SOL    HW137721   3.767   3.960   5.242 -0.9117 -1.5635 -0.5737
 8696SOL    HW237722   3.879   3.930   5.333  0.4215 -2.7056  1.5925
 8697SOL     OW37723   0.812   1.662   2.137  0.7347 -0.1890 -0.4157
 8697SOL    HW137724   0.888   1.700   2.182 -0.2895 -0.3424  1.4594
 8697SOL    HW237725   0.734   1.684   2.189  1.2671 -0.0511  0.3279
 8698SOL     OW37726   0.294   3.933   1.094  0.5382  0.4437  0.3931
 8698SOL    HW137727   0.224   3.897   1.148  2.8737  1.4489  4.0498
 8698SOL    HW237728   0.237   3.998   1.053  0.2504 -1.1936 -1.8282
 8699SOL     OW37729   1.833   4.490  12.565  0.2382 -0.1825  0.5067
 8699SOL    HW137730   1.802   4.425  12.502 -0.9760  0.8712  0.0166
 8699SOL    HW237731   1.926   4.484  12.547  0.1796  3.5739 -1.0326
 8700SOL     OW37732   0.142   0.457   6.336  0.0922  0.2096  0.4918
 8700SOL    HW137733   0.216   0.439   6.394 -0.7218  2.1510  2.1191
 8700SOL    HW237734   0.126   0.545   6.368 -2.6028 -0.5401  1.1269
 8701SOL     OW37735   3.417   0.973  16.043 -0.0560 -0.1355  0.0109
 8701SOL    HW137736   3.375   0.888  16.056  2.5417 -1.1411  1.7685
 8701SOL    HW237737   3.362   1.031  16.095  0.8975 -0.7936  1.7335
 8702SOL     OW37738   1.481   1.694   2.643 -0.1710 -0.0159 -0.5830
 8702SOL    HW137739   1.504   1.769   2.588  2.5079  2.0340  3.3303
 8702SOL    HW237740   1.572   1.667   2.660 -1.1953 -1.9447  1.9553
 8703SOL     OW37741   1.429   0.147   6.870  0.4115  0.6887 -0.1915
 8703SOL    HW137742   1.513   0.171   6.832 -0.1698  0.1803 -1.7987
 8703SOL    HW237743   1.376   0.215   6.830 -0.0247  0.9536  0.8261
 8704SOL     OW37744   1.740   2.515   6.738 -0.1945  0.4936 -0.6843
 8704SOL    HW137745   1.799   2.585   6.712 -0.3483 -0.1954 -2.9193
 8704SOL    HW237746   1.802   2.442   6.732  2.1863  2.3396  1.5291
 8705SOL     OW37747   3.207   2.167   3.371  0.9123  0.2283  0.1633
 8705SOL    HW137748   3.148   2.234   3.337  0.4052 -0.0637  0.4653
 8705SOL    HW237749   3.204   2.095   3.308  1.4778  0.5257 -0.2088
 8706SOL     OW37750   2.107   3.166   7.153  0.1170 -0.4237 -0.2860
 8706SOL    HW137751   2.154   3.184   7.071  0.9182 -0.4277  0.1637
 8706SOL    HW237752   2.022   3.209   7.144 -0.0583 -0.6169  0.4235
 8707SOL     OW37753   4.250   4.450   5.352 -0.3629 -0.4096  1.1901
 8707SOL    HW137754   4.268   4.433   5.444  2.8992 -1.8446  0.3082
 8707SOL    HW237755   4.297   4.376   5.311 -0.0597  0.5347 -0.1858
 8708SOL     OW37756   3.006   4.626   0.348 -0.3793  0.6337 -0.1413
 8708SOL    HW137757   3.073   4.644   0.413  0.0863  0.3941 -0.5532
 8708SOL    HW237758   3.032   4.687   0.279 -2.0255  0.5363 -0.8593
 8709SOL     OW37759   3.205   4.203   4.630  0.4840 -0.3144  0.0328
 8709SOL    HW137760   3.241   4.127   4.676 -2.0707 -1.4167  0.2011
 8709SOL    HW237761   3.110   4.195   4.630  0.7296 -3.0464  1.0042
 8710SOL     OW37762   1.711   1.298   3.936  0.6648 -0.4058  0.2416
 8710SOL    HW137763   1.638   1.236   3.945 -0.7659  1.3896  1.0488
 8710SOL    HW237764   1.775   1.234   3.906  0.3679 -0.2580 -0.6902
 8711SOL     OW37765   3.148   0.818   4.557 -0.1642  0.0085 -0.2036
 8711SOL    HW137766   3.169   0.748   4.620 -2.9121 -1.0564 -0.4644
 8711SOL    HW237767   3.165   0.771   4.475  1.8370 -1.6431  1.1428
 8712SOL     OW37768   0.553   1.922   9.653  0.0784 -0.5617  0.5608
 8712SOL    HW137769   0.473   1.872   9.665 -0.0020 -0.2687  1.2190
 8712SOL    HW237770   0.603   1.885   9.725 -1.6698  1.0420  2.5859
 8713SOL     OW37771   2.388   2.860   6.762  0.5713  0.3379  0.3545
 8713SOL    HW137772   2.372   2.816   6.845  0.9828 -0.4865  0.0070
 8713SOL    HW237773   2.483   2.865   6.749  0.4405 -0.9753 -1.1942
 8714SOL     OW37774   0.439   2.216  15.044  0.1875  0.6108 -0.7025
 8714SOL    HW137775   0.405   2.233  15.131  0.7147  2.4303 -0.8622
 8714SOL    HW237776   0.360   2.227  14.992 -0.6762  1.7480  0.8649
 8715SOL     OW37777   1.475   4.637   6.735 -0.0773 -0.3086  0.4046
 8715SOL    HW137778   1.516   4.700   6.794 -0.4437  0.1608  0.1612
 8715SOL    HW237779   1.384   4.649   6.758 -0.7737 -0.6293 -2.1519
 8716SOL     OW37780   2.173   0.492   8.831 -0.1293 -0.0737  0.3240
 8716SOL    HW137781   2.161   0.409   8.878  0.5102  0.2989  1.1406
 8716SOL    HW237782   2.235   0.470   8.761  0.5768 -1.0145  1.2393
 8717SOL     OW37783   3.757   4.128   1.243 -0.0132 -0.2627 -0.2225
 8717SOL    HW137784   3.686   4.145   1.182 -2.2196  1.7523  2.9639
 8717SOL    HW237785   3.700   4.099   1.314  0.2578  1.7504  0.8117
 8718SOL     OW37786   4.394   2.231  17.661 -0.3293  0.2682  0.2361
 8718SOL    HW137787   4.439   2.208  17.742 -0.0323  0.3103  0.0830
 8718SOL    HW237788   4.401   2.326  17.670  2.6598 -0.0795  1.5511
 8719SOL     OW37789   3.390   0.883   2.025  0.0921  0.0976 -0.4898
 8719SOL    HW137790   3.300   0.885   1.992 -0.0339 -1.1591 -0.2590
 8719SOL    HW237791   3.424   0.815   1.967  1.7021  0.0455  0.5111
 8720SOL     OW37792   0.234   2.074   9.321 -0.4756 -0.4934  0.1919
 8720SOL    HW137793   0.293   2.117   9.383  0.6786 -2.8598  0.7253
 8720SOL    HW237794   0.237   2.121   9.237 -1.8125  3.7006  2.4838
 8721SOL     OW37795   1.579   2.558   4.325 -0.0340 -0.0158  0.3053
 8721SOL    HW137796   1.672   2.570   4.308  0.1679 -0.9702  0.7233
 8721SOL    HW237797   1.561   2.514   4.242 -0.5545  0.9943 -0.1170
 8722SOL     OW37798   2.341   2.172   3.642  0.1716 -0.4230  0.2911
 8722SOL    HW137799   2.303   2.234   3.704 -1.4828 -1.3739  0.2072
 8722SOL    HW237800   2.315   2.086   3.675  0.2918 -0.7684 -0.5057
 8723SOL     OW37801   3.662   2.261   8.034 -0.4429  0.5119  0.2947
 8723SOL    HW137802   3.641   2.323   8.104  0.6343  1.6586 -0.3988
 8723SOL    HW237803   3.757   2.267   8.023 -0.4852  0.6979  0.0313
 8724SOL     OW37804   0.547   2.035   9.400 -0.0733  0.0710 -0.2747
 8724SOL    HW137805   0.565   2.009   9.490 -0.8912  1.1077  0.1926
 8724SOL    HW237806   0.500   2.116   9.416 -1.7268 -1.1817  1.1466
 8725SOL     OW37807   1.963   2.231   1.900  0.2858 -0.4282  0.1089
 8725SOL    HW137808   1.923   2.144   1.909 -0.8498  0.1513  0.6440
 8725SOL    HW237809   1.894   2.286   1.863  0.9250  0.0803 -0.3476
 8726SOL     OW37810   0.812   0.453   7.898  0.5607  0.1978 -0.8748
 8726SOL    HW137811   0.857   0.537   7.883  2.5287 -0.2864  2.1406
 8726SOL    HW237812   0.866   0.391   7.849  2.1826  0.0217  1.1147
 8727SOL     OW37813   2.232   1.423   4.814  1.2782  0.5492  0.0326
 8727SOL    HW137814   2.321   1.421   4.779  0.4700  0.2623 -2.0183
 8727SOL    HW237815   2.247   1.417   4.909  1.9267 -0.5540 -0.1286
 8728SOL     OW37816   3.688   1.315   5.808  0.4008 -0.2393  0.0118
 8728SOL    HW137817   3.717   1.224   5.799 -0.0526 -0.4652  0.8402
 8728SOL    HW237818   3.768   1.359   5.777  0.3478  1.2253  2.0139
 8729SOL     OW37819   0.615   4.026  17.175  0.4708 -0.6396  0.2513
 8729SOL    HW137820   0.664   4.099  17.215  1.3539 -0.9884 -0.1964
 8729SOL    HW237821   0.681   3.957  17.178 -1.0583 -2.1132 -0.6137
 8730SOL     OW37822   0.057   0.493   4.863 -0.4043  0.1063 -0.4778
 8730SOL    HW137823   0.143   0.529   4.884 -1.3934  2.1925 -0.0186
 8730SOL    HW237824   0.009   0.522   4.940  0.2391 -0.0467 -0.0155
 8731SOL     OW37825   3.072   3.815   3.314  0.2024  0.5450  0.0238
 8731SOL    HW137826   3.118   3.874   3.374 -1.0323  1.3278  0.2039
 8731SOL    HW237827   2.983   3.848   3.320 -0.2381 -0.3323 -1.6286
 8732SOL     OW37828   3.167   4.324   5.936 -0.2552  0.0517 -1.0025
 8732SOL    HW137829   3.078   4.360   5.942 -0.6987 -0.9686 -1.5181
 8732SOL    HW237830   3.195   4.357   5.851  0.8889  0.3436 -0.5157
 8733SOL     OW37831   4.513   4.510   0.895 -0.0857  0.4158 -0.0703
 8733SOL    HW137832   4.494   4.599   0.866 -0.1390  0.3512 -0.2330
 8733SOL    HW237833   4.449   4.458   0.846 -0.7014  1.8275 -0.7645
 8734SOL     OW37834   3.462   2.364   7.064  0.1992  0.2342  0.1802
 8734SOL    HW137835   3.389   2.341   7.122  0.3278  0.6677  0.5209
 8734SOL    HW237836   3.520   2.397   7.133 -0.5857  1.3536  0.3048
 8735SOL     OW37837   1.227   0.253   7.520 -0.3030  0.1682 -0.0150
 8735SOL    HW137838   1.199   0.173   7.564 -1.0322 -0.1929 -1.1147
 8735SOL    HW237839   1.225   0.317   7.591  0.6514 -0.2993  0.4147
 8736SOL     OW37840   4.549   2.807   1.022 -0.1507 -0.2976 -0.5925
 8736SOL    HW137841   4.527   2.714   1.027 -3.9050  0.5071 -2.3834
 8736SOL    HW237842   4.491   2.823   1.096  1.6180 -0.0458  0.7568
 8737SOL     OW37843   4.376   0.283  16.251  0.6025  0.6575  0.3729
 8737SOL    HW137844   4.448   0.345  16.265  1.0209  0.1255  0.5848
 8737SOL    HW237845   4.414   0.213  16.197  2.2357  0.4450  1.7902
 8738SOL     OW37846   2.426   1.518  13.418 -0.2654 -0.4380  0.0973
 8738SOL    HW137847   2.496   1.463  13.383  0.7454  2.0781 -1.8357
 8738SOL    HW237848   2.408   1.570  13.340  0.2505  0.8181  0.8133
 8739SOL     OW37849   4.559   3.288   2.063  0.2181 -0.6992 -0.2555
 8739SOL    HW137850   4.582   3.362   2.008  1.3493 -1.2243 -0.4859
 8739SOL    HW237851   4.573   3.214   2.003  1.6137  1.9964 -3.2519
 8740SOL     OW37852   4.584   2.501   6.833  0.4639  0.7965 -0.1205
 8740SOL    HW137853   4.523   2.531   6.900  0.2060 -1.6135  0.7427
 8740SOL    HW237854   4.524   2.449   6.778  0.3256  0.5480  0.2675
 8741SOL     OW37855   0.243   2.155   9.052  0.4816 -0.0828 -0.5391
 8741SOL    HW137856   0.196   2.156   8.969 -0.2172  2.4049 -0.0901
 8741SOL    HW237857   0.300   2.081   9.029 -0.2239 -0.4689 -1.0248
 8742SOL     OW37858   1.799   3.919  10.439  0.2814 -0.1054  0.1416
 8742SOL    HW137859   1.845   3.911  10.523  0.2282  0.4241  0.2213
 8742SOL    HW237860   1.720   3.867  10.458  0.7038 -0.8429 -0.1424
 8743SOL     OW37861   3.152   3.306   4.990  0.0712 -0.1686 -0.0900
 8743SOL    HW137862   3.204   3.354   4.925  0.7570 -1.0837 -0.2243
 8743SOL    HW237863   3.062   3.316   4.959  0.5450  1.3772 -0.9355
 8744SOL     OW37864   1.640   4.041  16.815 -0.0595 -0.5288 -0.2878
 8744SOL    HW137865   1.625   3.953  16.783  1.8462 -1.1549  0.5301
 8744SOL    HW237866   1.550   4.073  16.821  1.3092  3.3729  0.0290
 8745SOL     OW37867   0.008   4.450   1.566 -0.0528 -0.1417  0.3179
 8745SOL    HW137868   0.086   4.482   1.612  0.9808 -1.9213 -0.2355
 8745SOL    HW237869   4.698   4.430   1.648  0.7579 -2.6956  0.1460
 8746SOL     OW37870   4.048   1.357  13.550 -0.0469  0.1967  0.4659
 8746SOL    HW137871   4.061   1.348  13.456  1.0483 -0.5980  0.6927
 8746SOL    HW237872   4.048   1.453  13.556  1.2569  0.2829 -1.0712
 8747SOL     OW37873   2.740   0.411  12.774  0.1824  0.3442  0.0097
 8747SOL    HW137874   2.709   0.468  12.704  1.3872  2.4319  1.1593
 8747SOL    HW237875   2.783   0.471  12.836 -1.3572  0.5867  0.8428
 8748SOL     OW37876   4.589   1.083   9.854  0.0555  0.0339  0.0012
 8748SOL    HW137877   4.617   1.108   9.942 -2.0926  0.5677  0.5407
 8748SOL    HW237878   4.506   1.037   9.864 -0.3996  0.6419 -1.0802
 8749SOL     OW37879   0.752   0.330   3.953 -0.7904  0.2738  0.2601
 8749SOL    HW137880   0.737   0.364   4.041 -1.3821 -0.6123  0.5103
 8749SOL    HW237881   0.663   0.347   3.921 -0.8665  1.7129  1.2455
 8750SOL     OW37882   3.453   0.916  14.059 -0.1681 -0.1371  0.2256
 8750SOL    HW137883   3.425   0.892  14.147 -2.2704  1.8285  0.0797
 8750SOL    HW237884   3.366   0.905  14.020 -0.2025  2.0319 -0.3062
 8751SOL     OW37885   2.284   2.351   5.400  0.1632 -0.4733  0.5736
 8751SOL    HW137886   2.288   2.441   5.369  2.7491 -0.7313  0.1272
 8751SOL    HW237887   2.198   2.322   5.370  1.2123 -1.3220 -1.6109
 8752SOL     OW37888   3.100   4.373   8.872  0.1396  0.0171  0.1564
 8752SOL    HW137889   3.009   4.378   8.903  0.2601  1.8838  0.1995
 8752SOL    HW237890   3.125   4.463   8.852  0.3217  0.0860  0.6886
 8753SOL     OW37891   3.198   0.865   8.120  0.2030  0.5952  0.1360
 8753SOL    HW137892   3.117   0.899   8.081  0.2344 -1.1969 -1.4603
 8753SOL    HW237893   3.207   0.778   8.082 -1.9410  0.9925 -1.3175
 8754SOL     OW37894   0.254   0.643   7.046 -0.0928  0.0960 -0.6871
 8754SOL    HW137895   0.256   0.689   7.130  2.2360  1.7021 -1.6108
 8754SOL    HW237896   0.333   0.590   7.036 -0.6135 -0.5737 -1.2099
 8755SOL     OW37897   3.004   0.729   6.982  0.2019 -0.2320  0.0095
 8755SOL    HW137898   3.050   0.795   7.034 -1.4954 -0.5320  1.9085
 8755SOL    HW237899   3.069   0.697   6.919  1.6136 -0.5508  1.6516
 8756SOL     OW37900   1.177   2.333   3.043 -0.1930  0.0914  0.1952
 8756SOL    HW137901   1.242   2.366   2.980  0.2117  1.2107  1.1920
 8756SOL    HW237902   1.217   2.252   3.074 -0.0023 -0.3902 -1.3372
 8757SOL     OW37903   3.436   1.887  13.953  0.1650  0.1908 -0.0321
 8757SOL    HW137904   3.467   1.978  13.957  1.8144 -0.3206 -1.2272
 8757SOL    HW237905   3.388   1.873  14.034  2.5612  0.0226  1.3740
 8758SOL     OW37906   4.167   2.004   5.189 -0.0319 -0.2432  0.3145
 8758SOL    HW137907   4.245   1.950   5.200  0.5599 -0.4072 -4.6105
 8758SOL    HW237908   4.179   2.054   5.270  0.7720 -1.7131  1.0977
 8759SOL     OW37909   1.898   1.328  14.337  0.3687  0.2527 -0.2829
 8759SOL    HW137910   1.843   1.273  14.281 -1.9671  0.5615  1.7071
 8759SOL    HW237911   1.942   1.262  14.391 -0.5146  0.7103  1.0015
 8760SOL     OW37912   1.728   4.011   8.711 -0.9523  0.8089 -0.4475
 8760SOL    HW137913   1.817   4.041   8.694 -0.4553  0.0876  0.9052
 8760SOL    HW237914   1.737   3.955   8.788 -0.5266  1.0780 -0.2995
 8761SOL     OW37915   0.254   3.459  17.736  0.0056 -0.5003 -0.0572
 8761SOL    HW137916   0.234   3.506  17.655 -0.9334 -0.8855 -0.0545
 8761SOL    HW237917   0.318   3.397  17.701  0.7138 -1.2310  2.5137
 8762SOL     OW37918   1.805   3.809   8.893  0.7147  0.8962  0.2888
 8762SOL    HW137919   1.823   3.720   8.921  1.4877  0.9762  0.0458
 8762SOL    HW237920   1.894   3.841   8.907  0.6096  1.5813 -0.6331
 8763SOL     OW37921   0.172   4.417   9.014 -0.4659 -0.6380  0.0980
 8763SOL    HW137922   0.085   4.457   9.003 -0.7402 -1.1777  0.2677
 8763SOL    HW237923   0.231   4.492   9.012 -3.1452  1.4809 -0.2638
 8764SOL     OW37924   1.620   0.631  11.609  0.2259  0.1012  0.3675
 8764SOL    HW137925   1.688   0.582  11.655  0.0034 -0.6539 -0.1077
 8764SOL    HW237926   1.667   0.673  11.537 -0.1438  1.2333  0.7795
 8765SOL     OW37927   4.437   2.525   7.317 -0.7323 -0.7468  0.0459
 8765SOL    HW137928   4.528   2.553   7.323 -0.8854 -0.1647 -0.3963
 8765SOL    HW237929   4.389   2.606   7.334  1.9701  0.6096  1.1494
 8766SOL     OW37930   3.417   3.879  12.216 -0.5888  0.2083 -0.1276
 8766SOL    HW137931   3.408   3.973  12.233 -0.9454  0.2303 -0.4672
 8766SOL    HW237932   3.453   3.858  12.303 -1.8159 -0.7332  0.1513
 8767SOL     OW37933   1.500   0.974   9.190 -0.8037 -0.1697  0.0291
 8767SOL    HW137934   1.416   0.972   9.145 -0.8579  1.0580  0.0791
 8767SOL    HW237935   1.483   1.045   9.252 -0.0784 -1.2045  1.4101
 8768SOL     OW37936   1.532   4.560  10.771 -0.1384  0.0668  0.0614
 8768SOL    HW137937   1.493   4.559  10.859 -1.7662 -2.0167 -0.6809
 8768SOL    HW237938   1.459   4.581  10.713 -1.4930 -2.1629  0.9415
 8769SOL     OW37939   2.755   0.990   6.537 -0.0688 -0.1385 -0.7883
 8769SOL    HW137940   2.779   1.080   6.561 -0.3584 -0.4578  0.6472
 8769SOL    HW237941   2.817   0.978   6.465 -0.1569 -1.2111 -0.6754
 8770SOL     OW37942   2.892   2.999   2.458 -0.1282 -0.0660  0.2125
 8770SOL    HW137943   2.967   2.958   2.502  0.2358 -1.1633 -1.4105
 8770SOL    HW237944   2.938   3.072   2.416 -2.2185 -0.6719 -3.0984
 8771SOL     OW37945   1.196   0.336   8.665  0.0573 -0.0387 -0.5125
 8771SOL    HW137946   1.150   0.411   8.701 -1.6815 -0.2094 -2.3607
 8771SOL    HW237947   1.121   0.310   8.611 -1.8017 -0.3071  2.2112
 8772SOL     OW37948   4.143   0.207   9.599 -0.2644 -0.1112 -0.0295
 8772SOL    HW137949   4.093   0.200   9.680  1.2422  1.0158  1.0022
 8772SOL    HW237950   4.164   0.114   9.594 -0.8188 -0.3323  1.5970
 8773SOL     OW37951   0.329   0.118  13.338 -0.3420  0.2398 -0.0958
 8773SOL    HW137952   0.343   0.024  13.329 -0.4955  0.0853  1.3120
 8773SOL    HW237953   0.270   0.122  13.413  0.2994 -0.1350  0.4247
 8774SOL     OW37954   1.637   0.856   2.633  0.5205  0.5009  0.1296
 8774SOL    HW137955   1.574   0.809   2.579  1.2037  2.3283 -2.2461
 8774SOL    HW237956   1.624   0.939   2.587  2.0047  0.5287 -0.2418
 8775SOL     OW37957   2.231   1.824  14.646 -0.5187  0.0052 -0.0687
 8775SOL    HW137958   2.209   1.858  14.560 -2.7122 -3.0055 -0.7114
 8775SOL    HW237959   2.178   1.747  14.624  0.5095  0.2772 -3.4869
 8776SOL     OW37960   4.515   0.563   8.045  0.2756  0.0011  0.6792
 8776SOL    HW137961   4.428   0.580   8.010 -0.4232 -2.0554  1.3946
 8776SOL    HW237962   4.492   0.510   8.121  0.5486  0.4454  1.0778
 8777SOL     OW37963   2.370   3.566  12.825 -0.1478 -0.2741  0.3401
 8777SOL    HW137964   2.353   3.606  12.910 -0.0546  0.1082  0.1835
 8777SOL    HW237965   2.294   3.509  12.824  0.1915 -0.7247  0.5002
 8778SOL     OW37966   3.955   4.262   6.071 -0.2273 -0.3338 -0.5289
 8778SOL    HW137967   3.978   4.275   6.163 -1.3228  0.2060 -0.3351
 8778SOL    HW237968   3.903   4.183   6.081 -0.5633 -0.0360  0.0744
 8779SOL     OW37969   4.176   1.149   1.944  0.7230 -0.1816 -0.8617
 8779SOL    HW137970   4.141   1.237   1.957  1.0038 -0.1092 -0.6002
 8779SOL    HW237971   4.100   1.095   1.921  2.4167 -1.9442 -2.2965
 8780SOL     OW37972   3.667   0.584  11.132  0.0023  0.3983 -0.0442
 8780SOL    HW137973   3.753   0.624  11.144 -0.3251  0.2861  2.6657
 8780SOL    HW237974   3.641   0.631  11.053  2.4998 -1.7501 -2.1402
 8781SOL     OW37975   1.048   4.378  13.749 -0.3822  0.0492  0.3580
 8781SOL    HW137976   1.001   4.329  13.682 -1.8244  0.1715  1.2804
 8781SOL    HW237977   1.131   4.388  13.703  0.0490 -2.4049  0.6349
 8782SOL     OW37978   3.777   0.562   6.618  0.1483 -0.6422  0.7746
 8782SOL    HW137979   3.856   0.531   6.662 -1.2020 -3.7391  0.9848
 8782SOL    HW237980   3.748   0.489   6.564  0.8015  0.1369 -0.6374
 8783SOL     OW37981   0.419   2.345  14.484  0.5294  0.6947 -0.0087
 8783SOL    HW137982   0.392   2.295  14.407  0.0810  0.2487  0.4440
 8783SOL    HW237983   0.504   2.302  14.492  0.3777  0.6867  1.4303
 8784SOL     OW37984   4.132   1.174   4.835 -0.4026  0.3238 -0.0456
 8784SOL    HW137985   4.103   1.211   4.918 -1.4581 -1.4010  0.3511
 8784SOL    HW237986   4.049   1.148   4.794 -0.9797  1.8381  0.1635
 8785SOL     OW37987   0.394   2.642   7.605  0.0872 -0.7355 -0.1152
 8785SOL    HW137988   0.447   2.564   7.623  2.2973  1.3257  2.2372
 8785SOL    HW237989   0.445   2.715   7.639 -0.5206 -0.9456  1.2657
 8786SOL     OW37990   2.103   2.307   0.832 -0.8990  0.6203 -0.3459
 8786SOL    HW137991   2.050   2.256   0.893  1.1915  0.3535  1.2167
 8786SOL    HW237992   2.188   2.304   0.876 -2.3451  0.8586  2.4904
 8787SOL     OW37993   0.105   3.948   8.196 -0.8225  0.0818 -0.0514
 8787SOL    HW137994   0.199   3.927   8.196 -0.7131  0.5932 -1.6356
 8787SOL    HW237995   0.108   4.031   8.149  0.1568  0.4538  0.6385
 8788SOL     OW37996   4.675   0.331   5.238 -0.8594 -0.0333  0.3508
 8788SOL    HW137997   4.681   0.246   5.280  0.7450  0.2576  0.6937
 8788SOL    HW237998   4.729   0.320   5.160  0.0162 -0.8761  1.0800
 8789SOL     OW37999   1.507   3.712   2.361 -0.0901  0.0703  0.2518
 8789SOL    HW138000   1.434   3.756   2.318  0.3659  0.6003  0.0251
 8789SOL    HW238001   1.566   3.782   2.390 -2.2121  1.5113  1.0132
 8790SOL     OW38002   2.015   0.787  14.529  0.4832  0.0753 -0.5323
 8790SOL    HW138003   2.073   0.855  14.562 -0.6398  0.5285  0.4893
 8790SOL    HW238004   1.975   0.774  14.615 -0.2037 -1.7631 -1.1109
 8791SOL     OW38005   3.527   3.708   9.500 -0.0747 -0.1382  0.0582
 8791SOL    HW138006   3.495   3.695   9.410  1.0045  1.8897 -0.6252
 8791SOL    HW238007   3.623   3.705   9.501  0.0048  2.3129 -0.1814
 8792SOL     OW38008   4.322   4.421   8.628  0.1049 -0.3571  0.0869
 8792SOL    HW138009   4.244   4.446   8.679 -0.8309 -3.4199  0.1744
 8792SOL    HW238010   4.296   4.469   8.550 -2.0668 -0.3524  0.7864
 8793SOL     OW38011   0.083   3.976   4.425 -0.5455  0.2092  0.0721
 8793SOL    HW138012   4.734   3.958   4.385 -0.6067  0.9566 -0.1429
 8793SOL    HW238013   0.114   4.058   4.387  0.2693  0.3909  1.1369
 8794SOL     OW38014   3.466   0.356   0.249 -0.7453  0.6905  0.4433
 8794SOL    HW138015   3.458   0.292   0.320 -0.0868  0.6038  0.4382
 8794SOL    HW238016   3.544   0.409   0.267 -0.1633  0.2009 -0.6232
 8795SOL     OW38017   2.968   2.044   8.037 -0.3196  0.2998 -0.5302
 8795SOL    HW138018   2.923   1.991   7.972 -1.3894  3.1952 -2.1662
 8795SOL    HW238019   2.910   2.053   8.112  0.9091  1.3314  0.3032
 8796SOL     OW38020   1.078   4.094   9.860 -0.8930 -0.1452  0.6228
 8796SOL    HW138021   1.167   4.076   9.890 -1.3739  0.2832  2.2988
 8796SOL    HW238022   1.035   4.122   9.941 -0.7565  2.0800 -0.0705
 8797SOL     OW38023   4.732   2.429   1.659  0.1483  0.4293 -0.4586
 8797SOL    HW138024   4.706   2.343   1.627 -0.7701 -0.5814  2.9696
 8797SOL    HW238025   0.017   2.407   1.750  0.7950  1.4266 -0.3548
 8798SOL     OW38026   3.762   4.002   6.624 -0.2777  0.5589 -0.4190
 8798SOL    HW138027   3.835   4.042   6.670 -0.2824  1.6810 -1.3672
 8798SOL    HW238028   3.767   4.042   6.537  0.7888  0.5075 -0.3789
 8799SOL     OW38029   4.589   3.551  17.592 -0.1317  0.4137  0.1739
 8799SOL    HW138030   4.618   3.501  17.669 -1.9442 -1.8263 -0.6078
 8799SOL    HW238031   4.567   3.482  17.530  0.9983  1.5913 -1.5587
 8800SOL     OW38032   2.904   2.701   3.884  0.1624  0.7721 -0.5446
 8800SOL    HW138033   2.948   2.753   3.816 -0.1423  0.6045 -0.8730
 8800SOL    HW238034   2.928   2.755   3.959  1.3332  2.4767 -2.1361
 8801SOL     OW38035   3.956   0.455   5.057  0.0196  0.0707  0.4147
 8801SOL    HW138036   4.029   0.413   5.102  0.5048 -0.0613 -0.5017
 8801SOL    HW238037   3.891   0.459   5.127 -3.1117 -2.2935 -2.3476
 8802SOL     OW38038   3.344   0.136  14.301  0.1519  0.4533 -0.2114
 8802SOL    HW138039   3.341   0.136  14.397 -0.9862 -1.8954 -0.2524
 8802SOL    HW238040   3.407   0.209  14.296  0.1694  0.5091  0.8130
 8803SOL     OW38041   3.976   4.182   1.069  0.3537  0.3390 -0.4085
 8803SOL    HW138042   4.045   4.133   1.112 -2.1956 -2.0840  0.9388
 8803SOL    HW238043   3.902   4.161   1.125  0.5363  2.0101  0.4428
 8804SOL     OW38044   1.660   0.648   2.132 -0.4069  0.0689  0.1524
 8804SOL    HW138045   1.704   0.678   2.212  0.9514 -1.2046 -0.1207
 8804SOL    HW238046   1.571   0.628   2.161  0.3892 -0.3363  2.3346
 8805SOL     OW38047   1.853   4.167   3.127  0.0719  0.1937 -0.4821
 8805SOL    HW138048   1.893   4.120   3.200 -1.6357 -2.2315 -1.1056
 8805SOL    HW238049   1.799   4.101   3.084 -0.6486  0.0845  0.5885
 8806SOL     OW38050   3.238   3.721   8.617 -0.3365 -0.5085  0.5160
 8806SOL    HW138051   3.175   3.679   8.675 -0.9439 -1.9498 -1.2017
 8806SOL    HW238052   3.312   3.661   8.628  1.3599  0.9910 -2.5345
 8807SOL     OW38053   3.846   4.605  13.139 -0.2248  0.3916 -0.6475
 8807SOL    HW138054   3.904   4.672  13.103  1.4179 -0.5447  0.2957
 8807SOL    HW238055   3.770   4.623  13.083 -1.6402  0.4428  1.3141
 8808SOL     OW38056   1.034   3.138   2.447  0.5535 -0.6543 -0.4548
 8808SOL    HW138057   1.021   3.043   2.442 -0.7970 -0.4614 -0.4576
 8808SOL    HW238058   1.129   3.146   2.452  0.4643 -0.9063  1.6692
 8809SOL     OW38059   2.779   3.012   8.413 -0.3420 -0.1504 -0.0122
 8809SOL    HW138060   2.743   2.970   8.336 -0.9335 -0.7866  0.6077
 8809SOL    HW238061   2.702   3.036   8.465  0.3625  0.5261  0.7238
 8810SOL     OW38062   0.320   3.688   7.653  0.0520 -0.4091  0.7423
 8810SOL    HW138063   0.312   3.779   7.684  2.1171  1.0027 -2.8569
 8810SOL    HW238064   0.301   3.697   7.560  2.3022 -2.3832  0.1031
 8811SOL     OW38065   3.235   3.033   9.423 -0.0156  0.0538  0.5238
 8811SOL    HW138066   3.232   2.945   9.462 -0.5697 -0.0600  0.2290
 8811SOL    HW238067   3.143   3.057   9.430 -0.3545 -0.5475 -1.8999
 8812SOL     OW38068   0.746   4.378   0.087 -0.2029 -0.0162 -0.7590
 8812SOL    HW138069   0.792   4.329   0.019  0.6702 -1.7601  1.0708
 8812SOL    HW238070   0.734   4.316   0.159 -0.6333  0.1857 -0.6550
 8813SOL     OW38071   0.520   1.018   7.714  1.2768 -0.8002 -0.4985
 8813SOL    HW138072   0.457   1.035   7.644  0.6701 -0.5849  0.1026
 8813SOL    HW238073   0.601   1.060   7.685  0.9819 -0.2649 -0.5286
 8814SOL     OW38074   3.860   1.497   4.820  0.2839  0.3532  0.3174
 8814SOL    HW138075   3.929   1.548   4.777  0.2638 -0.6002 -0.8334
 8814SOL    HW238076   3.810   1.562   4.869 -1.2325  0.5381 -1.4997
 8815SOL     OW38077   0.620   3.829   2.995  0.1656 -0.3072  0.2248
 8815SOL    HW138078   0.627   3.817   2.900  0.2621  2.2086 -0.0707
 8815SOL    HW238079   0.671   3.909   2.993 -0.6871  0.2007 -1.3878
 8816SOL     OW38080   0.778   1.709   1.674 -0.0272 -0.5393  0.4764
 8816SOL    HW138081   0.834   1.770   1.722 -0.9706  0.8300 -0.1798
 8816SOL    HW238082   0.778   1.745   1.585 -0.9541 -0.5739  0.4613
 8817SOL     OW38083   2.327   2.599   7.726  0.6727 -0.2801  0.1482
 8817SOL    HW138084   2.242   2.615   7.685  0.3138  0.3870  1.1372
 8817SOL    HW238085   2.330   2.509   7.693  1.2974  0.9290 -3.0606
 8818SOL     OW38086   4.145   1.699   2.485 -0.5292 -0.2378 -0.1073
 8818SOL    HW138087   4.076   1.710   2.419  0.3482  2.5074 -0.5384
 8818SOL    HW238088   4.131   1.620   2.538  2.8998  0.1454  1.3434
 8819SOL     OW38089   0.567   3.522  12.343 -0.0423  0.1863 -0.4620
 8819SOL    HW138090   0.543   3.605  12.301  1.6125 -0.0243 -1.8232
 8819SOL    HW238091   0.528   3.451  12.292  0.0346  0.5042 -0.9612
 8820SOL     OW38092   2.141   1.493  10.235 -0.8541 -0.2193 -0.1934
 8820SOL    HW138093   2.091   1.412  10.225  0.3001 -1.0457  0.8192
 8820SOL    HW238094   2.226   1.490  10.191 -0.4749  1.3270  0.4030
 8821SOL     OW38095   2.664   0.329  17.590 -0.3042 -0.3239  0.0922
 8821SOL    HW138096   2.719   0.287  17.656 -0.1922 -2.0151 -1.0718
 8821SOL    HW238097   2.690   0.419  17.610 -0.7551 -0.7187  2.4700
 8822SOL     OW38098   1.113   3.107   4.699  0.0922 -0.0887  0.3013
 8822SOL    HW138099   1.182   3.042   4.714  0.7752  0.0923 -2.0653
 8822SOL    HW238100   1.040   3.053   4.670  0.3456 -0.3607  0.1688
 8823SOL     OW38101   2.580   4.111   4.465  0.3253 -0.0756 -0.3623
 8823SOL    HW138102   2.502   4.159   4.495  1.5869  2.7416 -1.5247
 8823SOL    HW238103   2.583   4.045   4.534 -0.1440 -0.5478 -0.7997
 8824SOL     OW38104   3.721   2.268   7.553  0.4113  0.2505  0.4014
 8824SOL    HW138105   3.749   2.177   7.563 -1.2991 -0.1066  2.0172
 8824SOL    HW238106   3.651   2.260   7.618 -2.3752 -1.0986 -2.7559
 8825SOL     OW38107   3.067   3.211  16.454  0.0124  0.1389  0.6500
 8825SOL    HW138108   3.071   3.186  16.362 -2.0214 -0.1149  0.6238
 8825SOL    HW238109   3.061   3.303  16.429  1.3031 -0.0917 -0.4948
 8826SOL     OW38110   3.057   4.209   7.482  0.0082 -0.6293 -0.1470
 8826SOL    HW138111   3.100   4.185   7.564 -0.8969 -0.1438  0.4598
 8826SOL    HW238112   3.085   4.299   7.467 -0.2841 -0.7146 -1.2001
 8827SOL     OW38113   3.165   1.923   4.181  0.1310 -0.0645  0.5355
 8827SOL    HW138114   3.236   1.886   4.232 -1.7330 -1.9755  1.7507
 8827SOL    HW238115   3.113   1.844   4.166  3.0961 -1.4827 -2.3686
 8828SOL     OW38116   3.593   1.763  10.133  0.2297 -0.0242  0.2684
 8828SOL    HW138117   3.641   1.792  10.211  1.2922  0.5160 -0.5804
 8828SOL    HW238118   3.527   1.709  10.176  0.0909  1.4781  1.9469
 8829SOL     OW38119   0.385   3.618  15.124 -0.0320 -0.2226  0.6387
 8829SOL    HW138120   0.383   3.689  15.060 -0.9517 -0.1497  0.7517
 8829SOL    HW238121   0.365   3.671  15.200  1.3155  1.6334 -0.3117
 8830SOL     OW38122   1.710   4.406  11.842 -0.1407  0.0027 -0.0418
 8830SOL    HW138123   1.787   4.349  11.843  0.7450  1.1792 -1.1324
 8830SOL    HW238124   1.747   4.493  11.854  2.1383 -1.0693  0.7972
 8831SOL     OW38125   2.215   4.223   2.459  0.3460  0.6860 -0.3434
 8831SOL    HW138126   2.275   4.151   2.476 -2.7313 -1.4881  1.3028
 8831SOL    HW238127   2.184   4.243   2.547 -0.9429 -0.5058 -0.5366
 8832SOL     OW38128   0.500   2.465   3.377  0.0488  0.2327  0.0969
 8832SOL    HW138129   0.506   2.486   3.284  0.8823 -1.5651 -0.2569
 8832SOL    HW238130   0.582   2.501   3.409 -0.3601 -0.2154  1.6993
 8833SOL     OW38131   0.625   4.328   9.148  0.8481 -0.5792  0.0951
 8833SOL    HW138132   0.529   4.329   9.147  0.8828 -0.0112 -1.7369
 8833SOL    HW238133   0.647   4.281   9.068  0.8207 -0.3896 -0.0228
 8834SOL     OW38134   2.057   0.232   2.177  0.3627 -0.2462 -0.5089
 8834SOL    HW138135   2.060   0.327   2.177  1.5340 -0.2808 -4.5182
 8834SOL    HW238136   2.102   0.216   2.259  1.6930 -0.6667 -1.3193
 8835SOL     OW38137   3.831   2.645  15.695 -0.7063 -0.1434 -0.8986
 8835SOL    HW138138   3.775   2.611  15.765  1.9996 -1.5659  0.6139
 8835SOL    HW238139   3.920   2.625  15.725 -0.2672  0.0712 -2.0674
 8836SOL     OW38140   3.202   2.530   8.058 -0.1159 -0.5018 -0.1163
 8836SOL    HW138141   3.226   2.521   7.965 -0.5957 -1.5494 -0.1404
 8836SOL    HW238142   3.146   2.456   8.081 -0.2340 -0.1123  0.8363
 8837SOL     OW38143   0.764   2.274   7.815 -0.1015  0.4022 -0.2425
 8837SOL    HW138144   0.783   2.226   7.896 -0.5720  2.0197  0.8200
 8837SOL    HW238145   0.849   2.311   7.789  0.5669 -1.3245 -0.5263
 8838SOL     OW38146   3.520   1.126   8.426  0.3896 -0.2168  0.3905
 8838SOL    HW138147   3.515   1.135   8.330 -0.1014  0.6297  0.4925
 8838SOL    HW238148   3.456   1.055   8.435 -0.0980  0.0466 -0.9296
 8839SOL     OW38149   4.299   3.544   4.780 -0.3117  0.1034 -0.0453
 8839SOL    HW138150   4.350   3.624   4.793 -0.9030  0.7974 -2.0507
 8839SOL    HW238151   4.276   3.530   4.872 -2.4931 -4.2190 -1.2181
 8840SOL     OW38152   2.016   3.111  12.758  0.2234 -0.0613  0.4515
 8840SOL    HW138153   1.925   3.123  12.733  0.0555  0.8810  1.4896
 8840SOL    HW238154   2.021   3.063  12.841 -1.2314 -0.7447  0.1444
 8841SOL     OW38155   0.118   0.468   8.800 -0.3492  0.5951  0.2378
 8841SOL    HW138156   0.038   0.520   8.807 -2.1745 -2.2028  0.2766
 8841SOL    HW238157   0.185   0.527   8.835 -1.9258  2.1052  0.7331
 8842SOL     OW38158   1.808   3.851  14.117  0.1456 -0.4020 -0.1107
 8842SOL    HW138159   1.754   3.928  14.098  1.2804  0.2647 -0.6429
 8842SOL    HW238160   1.855   3.838  14.035 -0.2331  1.9613 -0.6931
 8843SOL     OW38161   2.613   1.665   6.615  1.1315 -0.0829  0.2494
 8843SOL    HW138162   2.527   1.686   6.653  2.9018 -0.3500  4.3776
 8843SOL    HW238163   2.594   1.592   6.556 -0.1463 -1.4254  2.3253
 8844SOL     OW38164   1.784   3.611   4.388 -0.5657 -0.3046  0.3135
 8844SOL    HW138165   1.736   3.604   4.305  1.9305  2.3730 -1.3701
 8844SOL    HW238166   1.865   3.642   4.349  1.4081 -1.7184  3.2953
 8845SOL     OW38167   3.984   3.345   5.171 -0.2503  0.1370  0.2342
 8845SOL    HW138168   3.947   3.257   5.165 -0.1728  0.1546 -0.4809
 8845SOL    HW238169   3.922   3.395   5.225 -1.0160 -1.7825  1.1380
 8846SOL     OW38170   0.012   3.075   0.890  0.1738 -0.8801 -0.3879
 8846SOL    HW138171   4.671   3.074   0.834 -1.0549  0.1880  1.2915
 8846SOL    HW238172   0.011   3.170   0.886  1.3174 -0.7604  1.8041
 8847SOL     OW38173   2.556   3.613   0.739  0.7251 -0.1371 -0.1288
 8847SOL    HW138174   2.599   3.557   0.674  1.0603 -0.3537  0.2816
 8847SOL    HW238175   2.507   3.550   0.791  2.3431  0.4352  2.1088
 8848SOL     OW38176   0.407   1.950   2.614  0.2499  0.0725 -0.2277
 8848SOL    HW138177   0.398   2.045   2.617 -1.0579 -0.0426 -0.3302
 8848SOL    HW238178   0.459   1.927   2.691  0.5619  0.9584 -0.1770
 8849SOL     OW38179   4.633   2.612   9.200  0.7679 -0.0406 -0.6621
 8849SOL    HW138180   4.547   2.569   9.200  0.1148  1.2594  1.8368
 8849SOL    HW238181   4.687   2.537   9.174  1.4024  1.0178 -2.4367
 8850SOL     OW38182   3.704   3.407  13.013  0.1586 -0.4775 -0.4977
 8850SOL    HW138183   3.727   3.486  13.062 -1.2170 -1.5141  1.8321
 8850SOL    HW238184   3.628   3.377  13.063  0.2033  0.9164  0.4255
 8851SOL     OW38185   1.755   1.600  15.571 -0.1566  0.3555  0.2315
 8851SOL    HW138186   1.775   1.506  15.574 -0.1345  0.3503 -0.0219
 8851SOL    HW238187   1.806   1.642  15.640  0.0565  2.6586 -1.3175
 8852SOL     OW38188   0.100   2.722   2.477 -0.5573 -0.7400  0.1893
 8852SOL    HW138189   0.014   2.714   2.519 -0.5266 -1.6979  0.0732
 8852SOL    HW238190   0.093   2.644   2.422 -0.3557 -0.2823 -0.4788
 8853SOL     OW38191   0.887   3.469  16.482 -0.2546 -0.1589  0.4069
 8853SOL    HW138192   0.937   3.550  16.490  0.3458 -0.4340 -0.4882
 8853SOL    HW238193   0.955   3.430  16.427 -0.5430  2.1123 -1.5582
 8854SOL     OW38194   1.754   2.386   5.404  0.1610 -0.1020  0.5067
 8854SOL    HW138195   1.713   2.299   5.402  0.1911 -0.0841 -1.1515
 8854SOL    HW238196   1.685   2.440   5.367  1.2050  0.4302 -0.6736
 8855SOL     OW38197   0.769   2.618   3.473 -0.3083  0.5273 -0.1382
 8855SOL    HW138198   0.842   2.642   3.530  0.0773 -0.4149 -0.2374
 8855SOL    HW238199   0.727   2.703   3.457 -1.4251 -0.2374 -1.2068
 8856SOL     OW38200   3.330   3.005  16.231 -0.0866 -0.5285 -0.1961
 8856SOL    HW138201   3.371   2.968  16.309  2.3519 -2.2892 -2.3250
 8856SOL    HW238202   3.361   3.096  16.226  1.6917 -1.2147 -2.0403
 8857SOL     OW38203   2.405   0.136   1.138  0.0503  0.5251 -0.1405
 8857SOL    HW138204   2.417   0.133   1.043 -2.0728  0.6433 -0.4174
 8857SOL    HW238205   2.395   0.044   1.161 -2.3097  1.1943  1.5440
 8858SOL     OW38206   4.714   3.719  17.125 -0.0533  0.0481  0.5441
 8858SOL    HW138207   0.053   3.705  17.183  1.3697 -0.9199 -1.5303
 8858SOL    HW238208   4.702   3.813  17.141  1.1904  0.7308 -2.4130
 8859SOL     OW38209   2.632   2.641   6.308  0.0059  0.1766 -0.0083
 8859SOL    HW138210   2.590   2.665   6.390 -1.1062 -1.0624 -0.2065
 8859SOL    HW238211   2.723   2.621   6.331 -0.4909 -0.6708  1.2121
 8860SOL     OW38212   3.310   3.884   2.498  0.2989  0.0384 -0.0116
 8860SOL    HW138213   3.378   3.820   2.520 -0.8572 -0.6794  1.4066
 8860SOL    HW238214   3.250   3.819   2.463  1.1112 -1.0391  0.6037
 8861SOL     OW38215   1.609   1.553   4.658  0.0897 -0.3160 -0.3468
 8861SOL    HW138216   1.585   1.589   4.573 -0.3413  1.1652  0.3990
 8861SOL    HW238217   1.697   1.589   4.675  0.5137 -1.7326  0.4733
 8862SOL     OW38218   0.453   1.478   4.373  0.3352  0.0433  0.2279
 8862SOL    HW138219   0.425   1.455   4.462 -0.9627  0.9002  0.0520
 8862SOL    HW238220   0.500   1.561   4.373 -1.6168  1.1655 -0.5006
 8863SOL     OW38221   4.397   1.740  12.781 -0.3359 -0.0201  0.1012
 8863SOL    HW138222   4.400   1.665  12.721  0.6354 -0.0314  0.1558
 8863SOL    HW238223   4.481   1.722  12.823 -0.3912 -0.2774  0.1009
 8864SOL     OW38224   4.566   0.781   3.512  0.1914 -0.2341  0.4325
 8864SOL    HW138225   4.653   0.800   3.477  0.1809  3.3502  2.2903
 8864SOL    HW238226   4.563   0.690   3.483  1.7537 -0.0626 -0.2888
 8865SOL     OW38227   4.304   1.028   2.695  0.3588 -0.0176  0.7075
 8865SOL    HW138228   4.282   0.978   2.774 -0.2596 -0.5809  0.1839
 8865SOL    HW238229   4.270   1.116   2.708  1.4578  0.6056 -0.6971
 8866SOL     OW38230   3.932   4.247   9.200 -0.5185 -0.4724 -0.1715
 8866SOL    HW138231   4.002   4.230   9.262  0.5997 -0.2556 -1.3820
 8866SOL    HW238232   3.977   4.320   9.157  0.4726 -0.2299  1.3057
 8867SOL     OW38233   1.115   3.418   5.545  0.6380  0.4367  0.4389
 8867SOL    HW138234   1.101   3.481   5.475 -0.0245  0.6223  0.7414
 8867SOL    HW238235   1.122   3.340   5.488  0.7538 -0.5666  1.8219
 8868SOL     OW38236   3.184   1.625   4.822 -0.7838 -0.4486  0.2595
 8868SOL    HW138237   3.247   1.556   4.844  0.3905  0.6596  0.3946
 8868SOL    HW238238   3.154   1.639   4.911  1.1049 -1.5562  1.0790
 8869SOL     OW38239   2.008   2.787   3.038 -0.0642  0.1115 -0.0229
 8869SOL    HW138240   1.986   2.714   2.980  1.0702 -0.3519  0.1264
 8869SOL    HW238241   1.918   2.812   3.056 -0.1573 -0.2447  0.0205
 8870SOL     OW38242   2.580   2.122   5.915 -0.0164  0.5092 -0.4588
 8870SOL    HW138243   2.564   2.087   6.003  1.4659 -4.6643 -2.2319
 8870SOL    HW238244   2.531   2.055   5.868  1.3969  0.1302 -1.3975
 8871SOL     OW38245   2.894   3.974   2.769  0.6753 -0.0901 -0.2583
 8871SOL    HW138246   2.849   3.995   2.850 -0.0963 -0.9887 -0.4591
 8871SOL    HW238247   2.917   4.056   2.725 -1.4223  0.6051 -0.0190
 8872SOL     OW38248   3.037   4.223   6.650  0.2070  0.1946  0.7431
 8872SOL    HW138249   2.960   4.256   6.604 -0.5220 -1.0201  1.0840
 8872SOL    HW238250   3.005   4.139   6.685  1.2448 -0.8481 -0.7926
 8873SOL     OW38251   1.583   2.184  12.282  0.6449  0.1901  0.2890
 8873SOL    HW138252   1.672   2.153  12.265 -0.3032 -2.1986 -0.3038
 8873SOL    HW238253   1.592   2.252  12.349  2.3005  0.4853 -0.2253
 8874SOL     OW38254   1.888   1.775   2.458  0.0535  0.4307  0.3614
 8874SOL    HW138255   1.868   1.711   2.389 -1.3143  2.2920 -0.9690
 8874SOL    HW238256   1.929   1.838   2.399 -0.5974  0.3357 -0.1918
 8875SOL     OW38257   3.713   0.774   2.712  0.3786 -0.6299 -0.0858
 8875SOL    HW138258   3.729   0.796   2.620 -2.8168  1.2318 -0.2163
 8875SOL    HW238259   3.743   0.853   2.756  1.4181 -1.8851  1.4831
 8876SOL     OW38260   4.236   3.067   8.306  0.2571  0.0683  0.1057
 8876SOL    HW138261   4.286   2.993   8.341  0.7335 -1.0354 -2.9299
 8876SOL    HW238262   4.254   3.073   8.212 -1.9469 -1.8544 -0.4359
 8877SOL     OW38263   0.276   4.165   4.763  0.0155  0.7367  0.2064
 8877SOL    HW138264   0.350   4.146   4.704  1.3864  1.5158  1.6747
 8877SOL    HW238265   0.256   4.073   4.780  0.0978  0.9654  1.5843
 8878SOL     OW38266   3.525   3.151   7.841  0.1230  0.4622 -0.2440
 8878SOL    HW138267   3.589   3.124   7.908 -1.1831 -0.4020  0.6547
 8878SOL    HW238268   3.582   3.175   7.768 -0.2826 -0.2597 -0.7980
 8879SOL     OW38269   2.180   1.238   5.813 -0.6900  0.1261 -0.0915
 8879SOL    HW138270   2.231   1.173   5.764 -2.0886 -1.3442  0.4175
 8879SOL    HW238271   2.224   1.248   5.897  1.6084  0.2605 -1.2924
 8880SOL     OW38272   0.082   4.229   8.808  0.5192 -0.3682 -0.1756
 8880SOL    HW138273   0.046   4.178   8.881  1.9283 -1.4505 -0.2234
 8880SOL    HW238274   0.102   4.316   8.842 -1.0648 -0.8531  2.0028
 8881SOL     OW38275   3.912   0.265   7.534 -0.1883 -0.2919  0.3579
 8881SOL    HW138276   3.879   0.350   7.503 -1.5773 -0.6030  0.9567
 8881SOL    HW238277   4.007   0.278   7.536 -0.6688  3.3828  0.7196
 8882SOL     OW38278   3.256   2.380   9.177 -0.8487  0.0932  0.9601
 8882SOL    HW138279   3.217   2.296   9.202  0.9412 -1.9773 -3.1301
 8882SOL    HW238280   3.341   2.366   9.218  0.2401  1.1953 -0.9003
 8883SOL     OW38281   3.251   4.069  16.101 -0.1036 -0.4924  0.1044
 8883SOL    HW138282   3.331   4.039  16.144  0.0952  3.4386  2.4571
 8883SOL    HW238283   3.232   4.008  16.030 -0.9595 -2.4318  2.0185
 8884SOL     OW38284   0.003   0.430   2.631  0.4025 -0.0428 -0.0402
 8884SOL    HW138285   0.053   0.409   2.552 -0.5581  0.0014 -0.6651
 8884SOL    HW238286   4.715   0.342   2.662  1.1180 -0.0288  0.5405
 8885SOL     OW38287   3.538   3.951  12.449 -0.8665  0.1469  0.1470
 8885SOL    HW138288   3.602   3.893  12.489 -0.5140 -0.2534 -1.0082
 8885SOL    HW238289   3.464   3.946  12.510  0.3702  1.1029  1.7275
 8886SOL     OW38290   3.043   2.153   5.601  0.0399  0.5473 -0.0234
 8886SOL    HW138291   3.003   2.067   5.591  1.4313 -0.0148 -0.7625
 8886SOL    HW238292   3.135   2.127   5.608 -0.9375 -3.6966 -2.9258
 8887SOL     OW38293   4.263   3.777   6.726  0.6744 -0.6356 -0.3288
 8887SOL    HW138294   4.200   3.846   6.705 -1.1577 -2.9867 -2.4476
 8887SOL    HW238295   4.342   3.824   6.754 -1.2190  2.3052  0.1102
 8888SOL     OW38296   4.068   2.300   7.019  0.2254  0.4176 -0.1664
 8888SOL    HW138297   3.988   2.279   7.068  0.2222  0.3679 -0.1926
 8888SOL    HW238298   4.109   2.364   7.077 -1.2100 -0.4926  1.8410
 8889SOL     OW38299   2.371   0.522   5.494 -0.1518  0.2416 -0.4667
 8889SOL    HW138300   2.358   0.595   5.556  0.0649 -0.2169  0.1158
 8889SOL    HW238301   2.322   0.556   5.419 -1.3005  0.8393  0.5398
 8890SOL     OW38302   1.665   3.119   5.260 -0.0227  0.0345 -0.0675
 8890SOL    HW138303   1.749   3.076   5.244 -0.9154 -1.2578 -1.1956
 8890SOL    HW238304   1.659   3.190   5.197  1.0730 -0.0772 -0.2957
 8891SOL     OW38305   1.840   1.988   7.994 -0.1447  0.1354  0.2571
 8891SOL    HW138306   1.830   2.073   8.036  0.8163  0.4046 -0.0674
 8891SOL    HW238307   1.754   1.984   7.952  1.3504  0.4654 -2.7898
 8892SOL     OW38308   1.183   0.935  12.381 -0.3159 -0.1751  0.0711
 8892SOL    HW138309   1.262   0.903  12.336 -1.1891 -0.9106 -0.9353
 8892SOL    HW238310   1.157   1.019  12.344  1.7254  0.4638  0.0936
 8893SOL     OW38311   3.904   2.247   3.862  0.3197 -0.1699 -0.2538
 8893SOL    HW138312   3.931   2.188   3.791 -2.5196 -3.2227  1.1924
 8893SOL    HW238313   3.808   2.240   3.859  0.2448  1.2530 -1.2071
 8894SOL     OW38314   2.116   1.556   6.912 -0.5983 -0.7546  0.3669
 8894SOL    HW138315   2.195   1.521   6.954  0.2621 -1.7841 -2.1011
 8894SOL    HW238316   2.110   1.641   6.955  1.2086 -0.0962 -0.6648
 8895SOL     OW38317   2.071   3.420  14.389  0.5042 -0.5798 -0.0379
 8895SOL    HW138318   2.117   3.466  14.319  0.0876  0.8374  0.6067
 8895SOL    HW238319   1.986   3.465  14.387  0.4872 -0.6749 -1.2477
 8896SOL     OW38320   0.967   1.853   1.808  0.4697  0.3356 -0.3091
 8896SOL    HW138321   1.047   1.820   1.849  0.6557  1.6574  0.4042
 8896SOL    HW238322   0.956   1.933   1.860  1.9260  0.8822 -0.8209
 8897SOL     OW38323   3.794   2.900   3.230 -0.7558 -0.2115  0.5092
 8897SOL    HW138324   3.888   2.880   3.221 -0.6548  0.8366 -0.6258
 8897SOL    HW238325   3.777   2.888   3.324 -3.9600 -0.1470 -0.0919
 8898SOL     OW38326   0.027   3.195   7.078  0.4999  0.0469 -0.7804
 8898SOL    HW138327   4.678   3.235   7.098  0.1827  0.1223 -2.2974
 8898SOL    HW238328   0.086   3.269   7.071 -1.1465  1.4253 -0.2623
 8899SOL     OW38329   2.186   3.728   2.980  0.2587 -0.0475 -0.2376
 8899SOL    HW138330   2.281   3.738   2.974  0.2877  0.4268  1.0162
 8899SOL    HW238331   2.172   3.639   3.013 -1.7183 -0.2488 -1.6145
 8900SOL     OW38332   4.079   4.073  17.004 -0.5272 -0.3573  0.0078
 8900SOL    HW138333   4.056   4.165  16.990 -2.1996 -0.6874  0.5534
 8900SOL    HW238334   4.111   4.080  17.094 -3.8649  1.6703  1.0390
 8901SOL     OW38335   0.916   3.137   7.042 -0.4541  0.5102 -0.4431
 8901SOL    HW138336   0.991   3.109   6.990 -1.8325  0.6255 -2.4513
 8901SOL    HW238337   0.881   3.188   6.969  0.4283  0.0356 -1.1882
 8902SOL     OW38338   3.321   2.410   6.138 -0.4257  0.5945 -0.4579
 8902SOL    HW138339   3.311   2.404   6.233  0.6769  0.1201 -0.3785
 8902SOL    HW238340   3.337   2.503   6.122  1.2692  0.4205  0.2420
 8903SOL     OW38341   2.463   4.604   5.364 -0.8330 -0.1160  0.5646
 8903SOL    HW138342   2.373   4.580   5.385 -1.3793  1.9399  0.5421
 8903SOL    HW238343   2.481   4.560   5.282  0.1879 -0.1490  0.8055
 8904SOL     OW38344   1.320   3.599   5.951 -0.2659  0.1141  0.0380
 8904SOL    HW138345   1.259   3.556   5.890 -1.6524  2.5800 -0.3119
 8904SOL    HW238346   1.377   3.654   5.897  1.2301 -0.9758  0.4913
 8905SOL     OW38347   0.185   1.487   4.189  0.3472 -0.5223  0.1382
 8905SOL    HW138348   0.174   1.451   4.276 -0.9161 -0.4263  0.0280
 8905SOL    HW238349   0.177   1.413   4.129 -1.7913 -0.7398  0.6769
 8906SOL     OW38350   1.641   0.637  15.258 -0.1937 -0.0515 -0.1938
 8906SOL    HW138351   1.556   0.624  15.217 -0.9255  1.8808  0.7582
 8906SOL    HW238352   1.662   0.714  15.205  1.7025  0.3755  1.1889
 8907SOL     OW38353   2.063   3.593  16.283  1.0396 -0.7716 -0.1351
 8907SOL    HW138354   1.994   3.569  16.220 -1.0020  1.3152  1.2792
 8907SOL    HW238355   2.042   3.551  16.366  3.3584  2.0530  1.8958
 8908SOL     OW38356   3.864   2.670  11.535  0.1598 -0.4737 -0.1032
 8908SOL    HW138357   3.791   2.648  11.477  0.7652 -0.4800 -0.8605
 8908SOL    HW238358   3.881   2.585  11.576  1.9988  0.5193  1.1585
 8909SOL     OW38359   0.005   1.576   2.210 -0.5643  0.3995  0.0920
 8909SOL    HW138360   0.070   1.521   2.167  0.4547  0.2951  1.7492
 8909SOL    HW238361   4.677   1.509   2.231  0.7042 -0.3769  1.4525
 8910SOL     OW38362   1.947   3.785   3.694 -0.1420  0.2116 -0.2597
 8910SOL    HW138363   2.028   3.781   3.643 -0.6425 -1.3760 -0.9342
 8910SOL    HW238364   1.982   3.765   3.781  0.6730  0.1212 -0.6154
 8911SOL     OW38365   0.317   2.627   5.119 -0.4960 -0.0065  0.5886
 8911SOL    HW138366   0.272   2.639   5.035  0.6272 -0.8396 -0.1295
 8911SOL    HW238367   0.273   2.543   5.129 -1.1163 -0.0610 -2.6338
 8912SOL     OW38368   4.138   3.075   4.898  0.2806 -0.1783  0.1898
 8912SOL    HW138369   4.101   3.152   4.856  1.1373 -0.7412 -1.5799
 8912SOL    HW238370   4.087   3.002   4.864 -0.7544 -0.1856  1.7410
 8913SOL     OW38371   1.741   3.304   8.593  0.3209 -0.4695 -0.2553
 8913SOL    HW138372   1.784   3.390   8.591  0.0305 -0.2641  2.1392
 8913SOL    HW238373   1.663   3.324   8.644  0.4362  0.5023 -0.4516
 8914SOL     OW38374   2.513   2.609   6.595  0.3952  0.5339  0.2020
 8914SOL    HW138375   2.568   2.534   6.620 -0.1279  0.4159  0.9819
 8914SOL    HW238376   2.552   2.689   6.631  2.9439  0.3527 -2.0841
 8915SOL     OW38377   0.163   3.547   0.864  0.1764 -0.3464 -0.2506
 8915SOL    HW138378   0.112   3.623   0.838 -0.3064 -0.1623  1.2395
 8915SOL    HW238379   0.210   3.586   0.938 -0.1887  0.8911 -0.6689
 8916SOL     OW38380   0.457   0.329  13.190  0.2388 -0.2422 -0.0886
 8916SOL    HW138381   0.438   0.376  13.272 -0.6436  0.4889 -0.7114
 8916SOL    HW238382   0.415   0.245  13.205  1.1065 -1.1893 -3.0074
 8917SOL     OW38383   1.122   3.411   8.464  0.2523 -0.9218  0.1703
 8917SOL    HW138384   1.115   3.475   8.394 -0.4252 -1.9244 -0.6780
 8917SOL    HW238385   1.214   3.399   8.489  0.1742 -2.1829 -0.1259
 8918SOL     OW38386   1.597   3.885  15.376  0.3200  0.1000  0.0182
 8918SOL    HW138387   1.573   3.952  15.441  0.3701  0.2605 -0.1283
 8918SOL    HW238388   1.523   3.887  15.315  1.6350  0.0132 -1.5470
 8919SOL     OW38389   3.599   1.890   7.823  0.2325  0.2284  0.2233
 8919SOL    HW138390   3.535   1.953   7.856  1.0507  0.0823  2.0979
 8919SOL    HW238391   3.550   1.834   7.763  2.5574 -2.3415  0.6966
 8920SOL     OW38392   3.977   3.605   6.152  0.6040 -0.5310  0.1541
 8920SOL    HW138393   3.949   3.675   6.092  0.2462 -0.7259  0.0957
 8920SOL    HW238394   3.892   3.584   6.190  0.3489 -1.2492 -0.7946
 8921SOL     OW38395   1.610   1.132   7.586  0.4538 -0.0458 -0.0560
 8921SOL    HW138396   1.564   1.163   7.663  0.3458  2.1232 -0.9828
 8921SOL    HW238397   1.642   1.049   7.621  0.0387 -0.1256  0.1248
 8922SOL     OW38398   4.162   2.594   1.819 -0.1110 -0.0954 -0.3729
 8922SOL    HW138399   4.155   2.502   1.798 -0.0882  0.0018 -0.7997
 8922SOL    HW238400   4.071   2.622   1.809 -0.1937 -0.3479 -0.3155
 8923SOL     OW38401   1.351   0.289   6.041  0.3600  0.0891  0.5275
 8923SOL    HW138402   1.259   0.311   6.032  0.4360  0.3061  0.2683
 8923SOL    HW238403   1.353   0.250   6.128  2.1357 -0.3381  0.2934
 8924SOL     OW38404   2.030   3.466   8.221  0.0567  0.0553  0.0847
 8924SOL    HW138405   1.982   3.401   8.271  0.4460  0.2079  0.6535
 8924SOL    HW238406   1.988   3.456   8.135 -1.0061 -1.3209  0.7596
 8925SOL     OW38407   0.492   2.198  13.445 -0.0335  0.1972 -0.3742
 8925SOL    HW138408   0.469   2.116  13.489  0.8764  0.2001  0.1118
 8925SOL    HW238409   0.493   2.256  13.521  3.8274 -0.3373 -0.0136
 8926SOL     OW38410   4.022   1.857   8.774  0.5830  0.7472  0.1216
 8926SOL    HW138411   4.026   1.765   8.799  2.1024  0.4226 -1.3115
 8926SOL    HW238412   4.078   1.852   8.696  0.5783 -3.0847  0.3723
 8927SOL     OW38413   0.892   4.525   5.444  0.0028  0.2663 -0.0056
 8927SOL    HW138414   0.797   4.533   5.441 -0.2522 -3.3773 -1.0913
 8927SOL    HW238415   0.905   4.431   5.436  0.6710  0.3128  0.4733
 8928SOL     OW38416   2.008   3.740  14.631 -0.5036 -0.0736  0.1648
 8928SOL    HW138417   1.926   3.775  14.665  0.0462  1.3032  0.0607
 8928SOL    HW238418   1.990   3.729  14.538 -2.6132 -1.6603  0.7725
 8929SOL     OW38419   0.569   3.161   5.284 -0.0132  0.1180  0.1497
 8929SOL    HW138420   0.644   3.174   5.342 -0.6543 -1.1222  1.2706
 8929SOL    HW238421   0.602   3.107   5.212  0.9158 -1.0091  1.4417
 8930SOL     OW38422   4.173   1.184   8.230 -0.0234 -0.6852 -0.2938
 8930SOL    HW138423   4.152   1.243   8.302  2.3308  0.0141 -0.1811
 8930SOL    HW238424   4.090   1.195   8.184 -0.2943 -0.6607  0.2025
 8931SOL     OW38425   0.359   3.409  12.743  0.3344  0.1075  0.4773
 8931SOL    HW138426   0.398   3.475  12.686  1.1152  1.8050  2.9955
 8931SOL    HW238427   0.265   3.424  12.735 -0.1157 -2.3609  1.1260
 8932SOL     OW38428   2.908   1.432   1.742  0.1340  0.0478  0.4320
 8932SOL    HW138429   2.877   1.463   1.828 -1.2836 -1.8281  0.5815
 8932SOL    HW238430   2.879   1.341   1.734 -2.6283  0.9403  0.3389
 8933SOL     OW38431   3.807   0.810   7.804 -0.4716  0.0711  0.5160
 8933SOL    HW138432   3.820   0.888   7.859  0.8092 -0.5783  1.1504
 8933SOL    HW238433   3.809   0.855   7.720 -1.5980 -0.2776  0.3079
 8934SOL     OW38434   3.835   0.388   1.718 -0.3589  0.4046 -0.1138
 8934SOL    HW138435   3.753   0.388   1.768 -1.3937  1.0738 -1.8222
 8934SOL    HW238436   3.895   0.407   1.790 -1.9404 -0.7101  1.5167
 8935SOL     OW38437   3.108   1.801   6.252 -1.1844  0.6306 -0.3740
 8935SOL    HW138438   3.190   1.769   6.214 -2.3535 -0.5547 -1.8692
 8935SOL    HW238439   3.151   1.870   6.303 -2.4761 -0.8781  2.8104
 8936SOL     OW38440   2.418   4.365   6.025 -0.3096  0.2078 -0.8586
 8936SOL    HW138441   2.360   4.414   5.967 -1.5581 -0.3059 -0.0574
 8936SOL    HW238442   2.485   4.433   6.034 -0.2522 -0.1733  1.6337
 8937SOL     OW38443   3.841   4.560   2.066 -0.6365  0.6767 -0.5626
 8937SOL    HW138444   3.777   4.624   2.035 -1.5803 -0.0428 -0.1057
 8937SOL    HW238445   3.844   4.501   1.990 -1.5134  1.5830 -1.2967
 8938SOL     OW38446   2.727   3.556   6.679 -0.1393  0.1168  0.2564
 8938SOL    HW138447   2.685   3.504   6.611  0.8497 -0.3556  0.0026
 8938SOL    HW238448   2.653   3.599   6.722  0.6581  0.7135  1.0318
 8939SOL     OW38449   3.072   2.523   9.033 -0.2916 -0.0400 -0.5660
 8939SOL    HW138450   3.142   2.489   9.089  1.1054  0.4421 -2.0324
 8939SOL    HW238451   3.036   2.440   9.003 -0.5120  0.0805 -0.6324
 8940SOL     OW38452   4.446   1.772   9.022  0.7134  0.3383 -0.3840
 8940SOL    HW138453   4.377   1.806   9.079  0.7668 -1.0962  0.5675
 8940SOL    HW238454   4.418   1.810   8.939  1.9650 -1.9556 -1.8616
 8941SOL     OW38455   4.484   4.483   3.636  0.2317 -0.1229  0.5812
 8941SOL    HW138456   4.497   4.399   3.590  0.4955  0.5407 -0.5455
 8941SOL    HW238457   4.424   4.463   3.708  0.6901 -2.4170  0.3470
 8942SOL     OW38458   0.842   1.659   6.058 -0.0476  0.1069 -0.2284
 8942SOL    HW138459   0.906   1.674   5.988  1.5509 -0.1061  1.1877
 8942SOL    HW238460   0.765   1.620   6.017 -1.1627  0.7486  1.2979
 8943SOL     OW38461   3.254   2.947  17.170 -0.3812  0.0117 -0.0059
 8943SOL    HW138462   3.189   2.933  17.101  0.0199  0.9356 -0.5649
 8943SOL    HW238463   3.324   2.882  17.159  1.0285  1.6815 -0.9700
 8944SOL     OW38464   2.037   0.084  16.900 -0.2947 -0.1455 -0.2439
 8944SOL    HW138465   2.071   0.018  16.960 -2.1560 -0.6142  0.3072
 8944SOL    HW238466   1.943   0.080  16.916 -0.4807  0.0299 -1.2777
 8945SOL     OW38467   3.169   0.439  12.115 -0.2106  0.2273  0.2060
 8945SOL    HW138468   3.163   0.534  12.123 -2.5851  0.0960 -0.1015
 8945SOL    HW238469   3.255   0.426  12.076 -0.8042  2.8934 -2.0244
 8946SOL     OW38470   0.386   0.734  11.453 -0.1087 -0.5130  0.4386
 8946SOL    HW138471   0.399   0.764  11.363 -0.5619 -3.5702 -0.6480
 8946SOL    HW238472   0.471   0.701  11.482 -0.5808 -1.1857  1.0516
 8947SOL     OW38473   3.996   4.373   0.560 -0.2583  0.5047  0.0496
 8947SOL    HW138474   4.078   4.335   0.530 -0.3453 -0.5631  1.1675
 8947SOL    HW238475   4.001   4.340   0.650  0.0007  0.6730  0.0960
 8948SOL     OW38476   1.332   0.104   8.770  0.1158 -0.4982  0.2681
 8948SOL    HW138477   1.332   0.072   8.680 -0.3036  2.8317 -0.9111
 8948SOL    HW238478   1.282   0.186   8.772 -0.5485 -0.8736 -1.0347
 8949SOL     OW38479   0.982   3.628   3.205 -0.6032  0.3057  0.7404
 8949SOL    HW138480   0.998   3.535   3.190  0.1086  0.5243  0.2025
 8949SOL    HW238481   1.043   3.659   3.272 -0.9446  1.1414  0.6649
 8950SOL     OW38482   3.842   4.319  13.518 -0.1574  0.0136  0.0280
 8950SOL    HW138483   3.923   4.321  13.467  0.0583 -0.8444  0.3396
 8950SOL    HW238484   3.773   4.337  13.453 -1.8466  1.6426  2.2979
 8951SOL     OW38485   2.456   2.554   2.518  0.3030 -0.3355  0.4938
 8951SOL    HW138486   2.394   2.572   2.589 -1.7573 -0.4158 -1.2799
 8951SOL    HW238487   2.464   2.643   2.484  3.0620 -0.9737 -0.4599
 8952SOL     OW38488   3.752   2.639   4.696  0.3010  0.0365 -0.2142
 8952SOL    HW138489   3.670   2.689   4.708  0.7394  0.6764  0.1295
 8952SOL    HW238490   3.710   2.571   4.643 -1.9347  1.3568 -0.1611
 8953SOL     OW38491   2.477   4.667   6.434  0.5524  0.4822  0.0385
 8953SOL    HW138492   2.481   0.026   6.419 -2.1303  0.5082 -0.4121
 8953SOL    HW238493   2.409   4.653   6.369  1.4417 -1.2910 -0.5123
 8954SOL     OW38494   0.899   4.571  11.680 -0.0903  0.4624 -0.4356
 8954SOL    HW138495   0.887   4.516  11.602  0.1634 -0.0917 -0.0774
 8954SOL    HW238496   0.968   4.631  11.651 -0.5351  0.3786 -1.6734
 8955SOL     OW38497   0.319   0.596   5.146 -0.2250 -0.2885  0.2803
 8955SOL    HW138498   0.377   0.670   5.164 -2.7398  2.4206 -2.7669
 8955SOL    HW238499   0.259   0.596   5.222  0.9961  1.3088  1.2493
 8956SOL     OW38500   1.466   2.526   6.717 -0.3498  0.5429 -0.6621
 8956SOL    HW138501   1.559   2.524   6.740 -0.2330  1.7269 -1.0071
 8956SOL    HW238502   1.481   2.542   6.624  0.1953  1.1085 -0.4774
 8957SOL     OW38503   3.721   4.666   3.162  0.0748 -0.1566  0.3767
 8957SOL    HW138504   3.681   4.677   3.248 -0.0512 -1.1369  0.4423
 8957SOL    HW238505   3.813   4.687   3.181  0.1597  1.4014 -1.7709
 8958SOL     OW38506   1.317   2.393  17.417  0.0011 -0.6003 -0.2198
 8958SOL    HW138507   1.241   2.399  17.359 -1.2062  0.5460  1.4573
 8958SOL    HW238508   1.373   2.344  17.357  1.5027  0.8658 -0.0087
 8959SOL     OW38509   4.148   1.527   4.595  0.0322  0.5044  0.1810
 8959SOL    HW138510   4.212   1.510   4.526  1.4640  1.3064  1.3112
 8959SOL    HW238511   4.150   1.622   4.603  0.1640  0.6065 -1.1223
 8960SOL     OW38512   3.649   0.463   3.991 -0.0531 -0.4924  0.1920
 8960SOL    HW138513   3.714   0.392   3.986 -1.0513 -1.3617 -0.5905
 8960SOL    HW238514   3.634   0.444   4.084 -3.6908  1.2853 -0.0623
 8961SOL     OW38515   2.840   3.349   2.521 -0.2904  0.2572  0.1627
 8961SOL    HW138516   2.931   3.341   2.549 -0.9291  0.8009  2.3886
 8961SOL    HW238517   2.831   3.435   2.480  0.0257  0.9105  1.4584
 8962SOL     OW38518   1.495   1.785   6.569 -0.0735 -0.6607 -0.3674
 8962SOL    HW138519   1.448   1.867   6.587  1.0420  0.2359 -1.5234
 8962SOL    HW238520   1.573   1.791   6.624 -0.0344 -1.3506 -0.3442
 8963SOL     OW38521   4.557   1.822   1.654 -0.1054 -0.1201 -0.0697
 8963SOL    HW138522   4.499   1.749   1.634  2.1080 -2.4570  1.8754
 8963SOL    HW238523   4.628   1.817   1.590  1.1146 -0.0324  1.2457
 8964SOL     OW38524   4.634   3.269   4.422 -0.3031  0.1463  0.5827
 8964SOL    HW138525   4.722   3.302   4.438 -0.0253  0.2820 -1.2433
 8964SOL    HW238526   4.586   3.345   4.453 -0.7900 -0.9902  2.6022
 8965SOL     OW38527   1.985   1.946   0.789  0.2176  0.5615 -0.9065
 8965SOL    HW138528   2.004   1.877   0.725 -0.7903  0.1733 -0.7897
 8965SOL    HW238529   1.988   2.029   0.740  4.3018  0.4458 -0.8552
 8966SOL     OW38530   3.802   4.677   7.370 -0.1010  0.3488 -0.2664
 8966SOL    HW138531   3.869   4.704   7.433 -0.1597 -2.4368  0.9732
 8966SOL    HW238532   3.749   4.610   7.413  0.7534 -1.0716 -1.4393
 8967SOL     OW38533   3.740   4.361   9.468 -0.1028 -0.0160  0.0079
 8967SOL    HW138534   3.829   4.386   9.492  0.1388 -0.5102 -0.3702
 8967SOL    HW238535   3.764   4.271   9.448 -1.2705 -0.0624 -1.1727
 8968SOL     OW38536   2.944   2.225   3.601  0.0033 -0.3146  0.1367
 8968SOL    HW138537   2.980   2.277   3.528  1.5834 -0.4922  0.7823
 8968SOL    HW238538   2.920   2.289   3.667  0.4759 -1.2840  1.2451
 8969SOL     OW38539   1.943   4.528   6.597  0.5614  0.5690  0.7684
 8969SOL    HW138540   2.036   4.541   6.577  0.8076 -3.5178 -0.7381
 8969SOL    HW238541   1.948   4.458   6.662  0.4520 -0.1382  0.0089
 8970SOL     OW38542   0.823   3.248   3.353  0.3282  0.6211  0.2583
 8970SOL    HW138543   0.810   3.285   3.440  3.1529 -0.2620  1.0583
 8970SOL    HW238544   0.840   3.155   3.370 -0.4271  0.2143 -1.2322
 8971SOL     OW38545   1.293   3.979   6.563  1.0378  0.0788  0.3133
 8971SOL    HW138546   1.253   3.982   6.476 -1.1071 -3.2570  1.1914
 8971SOL    HW238547   1.338   3.895   6.559 -0.7712 -0.7886 -1.2344
 8972SOL     OW38548   0.267   0.868   9.340 -0.0461 -0.0220  0.2283
 8972SOL    HW138549   0.321   0.946   9.323 -2.0039  0.6117 -3.0573
 8972SOL    HW238550   0.180   0.905   9.329  0.1274  0.4515  0.4507
 8973SOL     OW38551   0.127   0.752   5.683  0.3338 -0.2377  0.7541
 8973SOL    HW138552   0.114   0.844   5.704 -0.1833  0.2180 -1.5879
 8973SOL    HW238553   0.046   0.741   5.634  1.0764 -0.7806 -0.3391
 8974SOL     OW38554   1.984   0.241   2.712 -0.3187 -0.3753  0.3250
 8974SOL    HW138555   1.906   0.186   2.708 -0.7350  0.1980  0.5574
 8974SOL    HW238556   1.959   0.295   2.786 -0.2442  1.1543 -0.7727
 8975SOL     OW38557   2.957   2.649   2.820 -0.1824  0.2801  0.6821
 8975SOL    HW138558   2.902   2.635   2.897 -3.5341  1.1130 -1.6047
 8975SOL    HW238559   3.031   2.596   2.852  0.9995 -0.2876 -2.9647
 8976SOL     OW38560   4.512   0.780   4.019  0.3141 -0.3311 -0.3220
 8976SOL    HW138561   4.428   0.774   4.065  0.2363  1.8135 -0.1858
 8976SOL    HW238562   4.492   0.758   3.928 -0.6690  0.1712 -0.2272
 8977SOL     OW38563   4.664   0.170   8.117 -0.1712  0.8356  0.4373
 8977SOL    HW138564   4.673   0.134   8.029  0.1609  1.2018  0.3205
 8977SOL    HW238565   4.700   0.259   8.113  0.7010  0.5115  1.0823
 8978SOL     OW38566   1.667   2.130   5.464  0.6138  0.2249 -0.1091
 8978SOL    HW138567   1.674   2.096   5.553 -0.3417  0.8691  0.2122
 8978SOL    HW238568   1.748   2.093   5.428  0.6223 -1.7727  1.9722
 8979SOL     OW38569   4.219   0.289  16.859  0.4629 -0.6350 -0.4357
 8979SOL    HW138570   4.221   0.384  16.876 -1.4080 -0.1512 -2.8470
 8979SOL    HW238571   4.259   0.295  16.773 -0.5823 -1.1793 -0.9578
 8980SOL     OW38572   2.505   4.018   1.914  0.3704 -0.3060 -0.0293
 8980SOL    HW138573   2.509   3.977   1.828  0.9995  1.3614 -0.7985
 8980SOL    HW238574   2.595   4.004   1.946 -0.1727 -0.1473  1.5985
 8981SOL     OW38575   3.964   4.462   2.388  0.5903 -0.1721 -0.5472
 8981SOL    HW138576   3.978   4.376   2.428 -1.6084 -0.3085 -0.0297
 8981SOL    HW238577   4.002   4.454   2.301  2.2197 -2.1641  0.3676
 8982SOL     OW38578   1.451   3.260  12.213  0.6938  0.1624  0.5293
 8982SOL    HW138579   1.361   3.283  12.189  1.1778 -1.6494 -3.0220
 8982SOL    HW238580   1.453   3.164  12.203 -1.3776  0.4629 -2.7738
 8983SOL     OW38581   3.030   2.629  15.450  0.1085 -0.4810  0.5238
 8983SOL    HW138582   3.073   2.710  15.477 -0.2012  0.0901 -0.7032
 8983SOL    HW238583   3.040   2.585  15.534 -3.9201 -1.7619  0.3380
 8984SOL     OW38584   1.414   4.342  14.119 -0.2896  0.1647 -0.3197
 8984SOL    HW138585   1.459   4.258  14.123 -0.0774  0.1662 -2.4803
 8984SOL    HW238586   1.329   4.302  14.100  0.7555 -3.0584  1.8192
 8985SOL     OW38587   0.778   1.981   2.530  0.1188  1.1605 -0.3539
 8985SOL    HW138588   0.716   1.998   2.601  1.9932 -0.1369  1.5935
 8985SOL    HW238589   0.718   1.979   2.456  1.4307  1.3779 -1.4137
 8986SOL     OW38590   3.082   3.953   1.666 -0.7007 -0.6620  0.4954
 8986SOL    HW138591   3.096   3.889   1.597 -0.7607  0.2126 -0.3348
 8986SOL    HW238592   3.047   4.029   1.619  1.1175 -0.3617 -0.3613
 8987SOL     OW38593   0.669   3.190   7.440  0.2976 -0.4397 -0.4043
 8987SOL    HW138594   0.718   3.134   7.380  1.0775  0.6474 -0.7925
 8987SOL    HW238595   0.699   3.278   7.415  0.1482  0.6251  3.1652
 8988SOL     OW38596   3.480   4.492   4.452 -1.1103  0.3313 -0.0133
 8988SOL    HW138597   3.442   4.565   4.502  0.6272  1.5083 -0.3992
 8988SOL    HW238598   3.506   4.536   4.371 -0.7237  0.8171  0.3704
 8989SOL     OW38599   2.274   2.999   1.080 -0.0766  0.3368 -0.0733
 8989SOL    HW138600   2.192   3.043   1.057 -1.3236 -1.6282  0.6137
 8989SOL    HW238601   2.240   2.920   1.122 -0.5462 -0.5277 -2.0495
 8990SOL     OW38602   1.391   2.977  12.487 -0.1760  0.1460 -0.2729
 8990SOL    HW138603   1.482   3.003  12.475 -0.1593  0.0176 -0.4249
 8990SOL    HW238604   1.348   3.055  12.521  1.9252  0.8290  0.8154
 8991SOL     OW38605   1.694   4.641  11.595 -0.1598  0.3976 -0.4752
 8991SOL    HW138606   1.773   4.684  11.561  0.4053 -0.1705  0.1317
 8991SOL    HW238607   1.714   4.644  11.689 -0.7587 -0.5450 -0.3296
 8992SOL     OW38608   1.173   0.305   3.156  0.2805 -0.2400  0.1040
 8992SOL    HW138609   1.171   0.271   3.067 -1.6122  1.2027 -0.4112
 8992SOL    HW238610   1.101   0.251   3.188 -0.0487 -0.1189 -0.4386
 8993SOL     OW38611   0.218   2.520  12.519 -1.1363 -0.0109  0.2108
 8993SOL    HW138612   0.277   2.589  12.551  1.6769 -0.6454 -3.6361
 8993SOL    HW238613   0.233   2.459  12.591  0.6064  1.6544  1.2729
 8994SOL     OW38614   3.775   4.493  11.541 -0.0485 -0.0341 -0.5895
 8994SOL    HW138615   3.809   4.558  11.479  0.1665 -0.0663 -0.5036
 8994SOL    HW238616   3.842   4.495  11.609 -0.5343 -3.4437  0.0165
 8995SOL     OW38617   3.915   2.806   4.305 -0.3894 -0.1770 -0.5046
 8995SOL    HW138618   3.823   2.798   4.327 -0.0169 -0.4999  0.9316
 8995SOL    HW238619   3.950   2.758   4.380 -0.7649  0.3290 -0.0115
 8996SOL     OW38620   2.239   4.028   1.956  0.5035  0.0177  0.2716
 8996SOL    HW138621   2.332   4.044   1.966  0.3235  0.9653  0.3917
 8996SOL    HW238622   2.233   3.934   1.937 -0.7799  0.7021 -2.7086
 8997SOL     OW38623   0.488   3.251  12.220  0.0647  0.4352 -0.3910
 8997SOL    HW138624   0.514   3.296  12.139  0.7712  0.2933 -0.2393
 8997SOL    HW238625   0.396   3.229  12.200  0.3895 -0.4977 -0.8733
 8998SOL     OW38626   0.469   3.755  14.864 -0.3802 -0.4771 -0.3706
 8998SOL    HW138627   0.426   3.818  14.807 -3.1036 -1.1931  0.9265
 8998SOL    HW238628   0.454   3.675  14.813  2.1222 -1.4310  0.3349
 8999SOL     OW38629   0.404   4.130  15.459 -0.8268  0.0338 -0.9288
 8999SOL    HW138630   0.354   4.211  15.449 -2.2666 -0.4868  2.2201
 8999SOL    HW238631   0.476   4.142  15.397 -1.8403  0.3364 -2.0700
 9000SOL     OW38632   4.200   2.905   2.147 -0.2263 -0.0844 -0.0758
 9000SOL    HW138633   4.227   2.877   2.060 -0.0391 -3.6983  1.1228
 9000SOL    HW238634   4.192   3.000   2.142  1.0558  0.1373  1.8059
 9001SOL     OW38635   0.840   4.326  16.293  0.1024  0.1758 -0.1733
 9001SOL    HW138636   0.889   4.305  16.372 -0.1415  0.6806  0.1137
 9001SOL    HW238637   0.794   4.244  16.277  0.0701  0.0001  0.8525
 9002SOL     OW38638   3.733   2.558   1.231 -0.0180  0.5496  0.4079
 9002SOL    HW138639   3.743   2.501   1.155 -3.5809  1.5506 -0.8345
 9002SOL    HW238640   3.669   2.618   1.192  0.5938 -0.9818 -2.9087
 9003SOL     OW38641   4.728   3.477   7.536 -0.0361 -0.4151 -0.7667
 9003SOL    HW138642   4.662   3.518   7.480 -0.4153 -0.3788 -0.2944
 9003SOL    HW238643   0.028   3.545   7.593 -2.2132  1.0078 -1.0890
 9004SOL     OW38644   1.846   0.124   9.930 -0.1928 -0.4836  0.0000
 9004SOL    HW138645   1.906   0.184   9.887 -1.8359  0.8607 -0.4439
 9004SOL    HW238646   1.880   0.042   9.894 -2.5885 -0.5826 -2.1074
 9005SOL     OW38647   0.237   2.992  17.493  0.3226  0.7679 -0.1000
 9005SOL    HW138648   0.268   2.967  17.580  0.4118  1.6360  0.1145
 9005SOL    HW238649   0.238   2.906  17.452 -0.4923  0.1642  1.1359
 9006SOL     OW38650   4.324   0.043   8.078 -0.0904  0.2102 -0.0576
 9006SOL    HW138651   4.307   4.697   8.032  0.5908  1.7064 -3.0438
 9006SOL    HW238652   4.394   0.082   8.025  2.5547 -0.3948  2.9955
 9007SOL     OW38653   0.620   1.653   8.976 -0.1791  0.3387  0.3683
 9007SOL    HW138654   0.700   1.696   9.005  0.0765  1.1744 -1.5605
 9007SOL    HW238655   0.581   1.625   9.058 -0.1158 -0.9991 -0.0530
 9008SOL     OW38656   2.750   1.219   7.883 -0.2035 -0.3706 -0.2145
 9008SOL    HW138657   2.698   1.142   7.860  1.4407 -2.2055  2.1763
 9008SOL    HW238658   2.687   1.289   7.898  1.8515  1.5989 -0.7975
 9009SOL     OW38659   4.628   4.520   3.117 -0.3555  0.1546 -0.7764
 9009SOL    HW138660   4.694   4.533   3.186 -0.2899  1.9411 -1.1726
 9009SOL    HW238661   4.549   4.513   3.170  0.1530 -0.1923 -0.0624
 9010SOL     OW38662   2.158   2.048   9.756  0.0736 -0.0439  0.2178
 9010SOL    HW138663   2.083   2.058   9.699  0.0429 -0.0938  0.2493
 9010SOL    HW238664   2.180   2.139   9.776 -1.4919  0.2054  0.7939
 9011SOL     OW38665   1.216   0.797  16.494  0.3316 -0.0910 -0.6059
 9011SOL    HW138666   1.177   0.726  16.545 -0.8140 -0.9971 -2.7516
 9011SOL    HW238667   1.306   0.768  16.479  0.3774 -0.4709  0.3551
 9012SOL     OW38668   3.081   3.608  14.990 -0.3035 -0.0246 -0.3384
 9012SOL    HW138669   3.126   3.591  14.907  0.2377  1.3260 -0.3193
 9012SOL    HW238670   3.146   3.661  15.037 -1.4187  0.3181  0.8154
 9013SOL     OW38671   2.264   0.178   8.708  0.2292 -0.1588  0.1853
 9013SOL    HW138672   2.301   0.216   8.788  0.6862  0.4115 -0.3018
 9013SOL    HW238673   2.227   0.095   8.738  0.0088 -0.0024  0.3507
 9014SOL     OW38674   2.744   1.477   5.709  0.0784 -0.3542  0.1957
 9014SOL    HW138675   2.772   1.488   5.618  1.0209 -0.1651  0.5126
 9014SOL    HW238676   2.731   1.569   5.732 -2.6930 -0.7545  0.2742
 9015SOL     OW38677   2.014   2.196  15.276 -0.7246  0.7375 -0.0255
 9015SOL    HW138678   1.921   2.220  15.281 -0.6760  1.0856 -0.8770
 9015SOL    HW238679   2.040   2.244  15.197 -1.0643  1.5867  0.3799
 9016SOL     OW38680   0.896   1.536  14.946 -0.0370 -0.0863 -0.2252
 9016SOL    HW138681   0.971   1.573  14.899  1.2248 -1.1079  0.9673
 9016SOL    HW238682   0.873   1.605  15.008  0.2034  1.1411 -1.5231
 9017SOL     OW38683   4.033   4.191   5.824 -0.2355  0.1164 -0.6928
 9017SOL    HW138684   4.011   4.233   5.907 -0.3049  0.7317 -1.0243
 9017SOL    HW238685   3.947   4.167   5.789 -0.1191 -2.4495  0.7482
 9018SOL     OW38686   3.924   1.758   6.164  0.0194  0.5362  0.0375
 9018SOL    HW138687   3.908   1.827   6.099 -0.0814 -0.5573 -1.1009
 9018SOL    HW238688   3.964   1.804   6.237  1.3376 -0.6220  0.0541
 9019SOL     OW38689   1.898   0.159   4.726  0.2214  0.0328  0.6419
 9019SOL    HW138690   1.815   0.116   4.706 -0.0409  0.8674 -0.0760
 9019SOL    HW238691   1.893   0.235   4.668 -2.5974  0.0366  0.9015
 9020SOL     OW38692   3.164   4.436   7.962  0.2034  0.4119 -0.5304
 9020SOL    HW138693   3.170   4.341   7.957  1.2092  0.4178  0.5802
 9020SOL    HW238694   3.220   4.462   7.889 -1.4890 -0.3903 -2.1145
 9021SOL     OW38695   3.715   3.560   3.122  0.0248  0.2177 -0.1316
 9021SOL    HW138696   3.634   3.509   3.111  1.0120 -1.0887 -1.3206
 9021SOL    HW238697   3.765   3.494   3.171 -0.6833 -0.0211  0.2708
 9022SOL     OW38698   4.730   4.610  12.469 -0.6837 -0.4503  0.1386
 9022SOL    HW138699   0.061   4.552  12.433  1.9826  1.9116  1.2609
 9022SOL    HW238700   4.657   4.579  12.415 -0.0155  0.4296 -1.2721
 9023SOL     OW38701   2.900   3.588   3.232 -0.0113  0.0103  0.1399
 9023SOL    HW138702   2.901   3.639   3.151 -0.2789 -0.4189 -0.1305
 9023SOL    HW238703   2.983   3.612   3.272  0.1058  0.5902 -0.4611
 9024SOL     OW38704   0.164   1.132   3.747  0.0730  0.5017  0.0734
 9024SOL    HW138705   0.178   1.155   3.655  0.4453  3.7215  0.9455
 9024SOL    HW238706   0.208   1.046   3.745 -1.9413 -0.5275 -0.1030
 9025SOL     OW38707   0.128   2.394   5.950 -1.0044 -0.0479 -0.3483
 9025SOL    HW138708   0.167   2.312   5.980 -0.0477  0.6975  0.4320
 9025SOL    HW238709   0.186   2.405   5.875  0.6465 -1.5997  0.7060
 9026SOL     OW38710   1.247   1.970  16.841 -0.4606  0.2080  0.0590
 9026SOL    HW138711   1.260   1.887  16.886 -1.2231  0.6229  1.0637
 9026SOL    HW238712   1.172   2.012  16.884 -0.3424 -1.9145  2.3047
 9027SOL     OW38713   1.970   0.730   6.093  0.3392  0.0013  0.3117
 9027SOL    HW138714   1.970   0.682   6.176  1.2179 -2.6042 -1.1981
 9027SOL    HW238715   1.933   0.669   6.030 -1.8972 -0.2823  1.8883
 9028SOL     OW38716   1.504   4.681   2.430  1.0120  0.4671 -0.0072
 9028SOL    HW138717   1.466   0.016   2.482  0.0596 -0.0365 -0.0253
 9028SOL    HW238718   1.522   4.618   2.499 -2.3451  0.1420  0.5625
 9029SOL     OW38719   1.881   0.377   8.178 -0.0890 -0.0767  0.5021
 9029SOL    HW138720   1.856   0.342   8.092 -0.2925 -1.7590  1.2503
 9029SOL    HW238721   1.934   0.308   8.218 -1.3225 -0.3016  1.7524
 9030SOL     OW38722   0.110   3.750   9.839 -0.4735  0.4818 -0.6391
 9030SOL    HW138723   0.076   3.661   9.829  1.5799 -0.3016 -0.8341
 9030SOL    HW238724   0.197   3.738   9.801 -0.2875 -1.6320  0.4540
 9031SOL     OW38725   1.985   2.993   8.009 -0.3978  0.0094  0.3182
 9031SOL    HW138726   2.080   2.997   8.017 -0.3375  0.1917 -0.5311
 9031SOL    HW238727   1.976   2.899   7.995 -0.4414  0.2976 -1.4667
 9032SOL     OW38728   3.229   1.614   8.689 -0.5271  0.5608  0.6492
 9032SOL    HW138729   3.267   1.532   8.656 -0.7575  0.7425 -0.0728
 9032SOL    HW238730   3.168   1.643   8.620 -0.4741  1.4544  0.9869
 9033SOL     OW38731   3.155   0.447  17.622 -0.1345 -0.4206  0.1177
 9033SOL    HW138732   3.119   0.486  17.702  0.2866 -0.1437  0.1712
 9033SOL    HW238733   3.246   0.443  17.650  0.0563 -2.4480 -0.7982
 9034SOL     OW38734   3.209   4.686   7.235  0.6163  0.1455 -0.3222
 9034SOL    HW138735   3.186   4.612   7.179  0.4801  0.5705 -0.8289
 9034SOL    HW238736   3.236   0.012   7.167  0.2484 -0.8107 -1.3305
 9035SOL     OW38737   0.606   2.034   4.284  0.1646  0.3405  0.4673
 9035SOL    HW138738   0.668   2.093   4.327 -0.1455 -0.5045  2.0563
 9035SOL    HW238739   0.647   1.997   4.206 -1.3916  0.8580 -0.6010
 9036SOL     OW38740   3.795   0.915   7.545  0.0738  0.1565  0.4404
 9036SOL    HW138741   3.703   0.892   7.557 -0.2345  0.2366 -1.7542
 9036SOL    HW238742   3.814   0.854   7.473 -0.5988 -0.1818  0.5526
 9037SOL     OW38743   3.003   2.057   7.668  0.2950 -0.0264 -0.4022
 9037SOL    HW138744   3.016   2.065   7.574 -1.1276 -0.1574 -0.6094
 9037SOL    HW238745   3.046   1.974   7.691  0.3658  0.1998  0.2695
 9038SOL     OW38746   2.286   2.107  15.689 -0.1547  0.2719 -0.0299
 9038SOL    HW138747   2.272   2.020  15.727 -0.7377  0.4703  0.2072
 9038SOL    HW238748   2.351   2.092  15.620  1.4745  1.8222  1.1642
 9039SOL     OW38749   2.848   0.293   7.734  0.3978  0.2877 -0.6969
 9039SOL    HW138750   2.786   0.349   7.779  1.4844 -1.3512  2.8629
 9039SOL    HW238751   2.915   0.289   7.803 -1.7896  1.6650  1.4690
 9040SOL     OW38752   1.957   0.065   7.772  0.2383  0.1344 -0.3118
 9040SOL    HW138753   1.954   0.104   7.859 -0.5534 -1.2997  0.2952
 9040SOL    HW238754   1.907   4.721   7.788  1.1010 -0.4209 -0.4067
 9041SOL     OW38755   2.533   3.394   5.785  0.0863  0.7801  0.0525
 9041SOL    HW138756   2.451   3.398   5.836 -0.5558 -3.3944 -0.7009
 9041SOL    HW238757   2.593   3.347   5.843 -0.8508  0.8693  1.1097
 9042SOL     OW38758   1.192   0.364   7.006 -0.3938 -0.2433  0.0536
 9042SOL    HW138759   1.165   0.364   7.098 -0.5499 -0.4072  0.0082
 9042SOL    HW238760   1.176   0.456   6.986 -0.1830  0.1039  1.5037
 9043SOL     OW38761   0.728   2.593   8.274 -0.4762 -0.5473 -0.0967
 9043SOL    HW138762   0.775   2.571   8.194 -1.3760 -1.6769 -0.3097
 9043SOL    HW238763   0.791   2.654   8.314 -2.3428  0.9432  0.5735
 9044SOL     OW38764   2.309   1.205   6.108 -0.1261 -0.0023 -0.0126
 9044SOL    HW138765   2.402   1.183   6.113  0.2678  1.7247  0.3290
 9044SOL    HW238766   2.315   1.277   6.171 -0.9519 -0.3115  0.4254
 9045SOL     OW38767   0.423   2.267   7.971 -0.4125 -0.3365 -0.1425
 9045SOL    HW138768   0.509   2.294   8.003  0.1326 -1.5371 -0.6188
 9045SOL    HW238769   0.391   2.355   7.951 -1.3404 -0.6169  0.1102
 9046SOL     OW38770   1.405   0.888   3.937  0.4664  0.1273 -0.2192
 9046SOL    HW138771   1.404   0.858   3.846 -0.7377 -1.1192  0.1999
 9046SOL    HW238772   1.330   0.837   3.968 -0.6183  0.1584 -2.8049
 9047SOL     OW38773   3.777   0.823   4.195  0.6532  0.5079 -0.0587
 9047SOL    HW138774   3.774   0.880   4.272  2.6887 -0.2679  0.6205
 9047SOL    HW238775   3.683   0.814   4.181  0.4637  0.9889  0.8804
 9048SOL     OW38776   3.259   3.112   4.186 -0.3675  0.1811 -0.5463
 9048SOL    HW138777   3.181   3.166   4.184 -0.4853  0.0190 -0.2619
 9048SOL    HW238778   3.217   3.052   4.247  1.0353  0.4633  0.7140
 9049SOL     OW38779   3.734   3.216   9.108  0.0909 -0.3007 -0.9777
 9049SOL    HW138780   3.653   3.200   9.061 -0.1717 -0.1336 -0.5763
 9049SOL    HW238781   3.739   3.312   9.103  1.2924 -0.2756  0.9263
 9050SOL     OW38782   3.284   3.226  14.313  0.1942  0.2259 -0.0255
 9050SOL    HW138783   3.258   3.313  14.284 -1.4329 -0.1171  0.3756
 9050SOL    HW238784   3.357   3.253  14.369 -0.5666 -0.3237  1.2319
 9051SOL     OW38785   0.052   3.943  12.938 -0.1280 -0.0523  0.0759
 9051SOL    HW138786   0.073   3.852  12.958  0.4032  0.0681  0.0757
 9051SOL    HW238787   4.721   3.964  13.004  0.6189  3.4354 -0.2681
 9052SOL     OW38788   2.432   4.138   7.834 -0.2206 -0.4055  0.0988
 9052SOL    HW138789   2.363   4.155   7.899  0.9342  0.7953  1.0271
 9052SOL    HW238790   2.390   4.118   7.751 -1.6020  0.0500  0.6913
 9053SOL     OW38791   2.228   1.787   3.449  0.4681 -0.1821 -0.2679
 9053SOL    HW138792   2.165   1.813   3.517  0.2965  0.2782 -0.6028
 9053SOL    HW238793   2.171   1.738   3.390 -0.8032  3.3441 -1.9432
 9054SOL     OW38794   0.244   2.899   5.100  0.1421  0.2680  0.1846
 9054SOL    HW138795   0.250   2.803   5.105  2.1958  0.2529 -2.6801
 9054SOL    HW238796   0.325   2.927   5.056 -1.0585  1.6646 -1.1441
 9055SOL     OW38797   3.347   0.172   4.332 -0.2677  0.0051  0.6057
 9055SOL    HW138798   3.275   0.168   4.395 -1.3304  1.1789 -0.5320
 9055SOL    HW238799   3.305   0.222   4.261 -0.3726 -1.0004 -0.0420
 9056SOL     OW38800   3.363   0.696   9.188  0.1543 -0.0218  0.2534
 9056SOL    HW138801   3.304   0.771   9.194 -2.0767 -1.8802  1.3296
 9056SOL    HW238802   3.341   0.677   9.097  0.1828  0.2567  0.1867
 9057SOL     OW38803   2.007   0.138   8.272  0.2843 -0.5389  0.0163
 9057SOL    HW138804   2.009   0.169   8.363  0.1627 -1.0574  0.1971
 9057SOL    HW238805   2.102   0.128   8.261  0.1893  0.5907 -1.8424
 9058SOL     OW38806   4.245   1.026  17.663 -0.0612 -0.1578 -0.2068
 9058SOL    HW138807   4.337   1.004  17.654  0.3049  0.0512  3.1904
 9058SOL    HW238808   4.209   0.942  17.634  1.5175 -1.4036  1.5120
 9059SOL     OW38809   1.858   0.930   8.681 -0.4263 -0.1717 -0.4479
 9059SOL    HW138810   1.925   0.966   8.623 -1.1999  0.3656 -0.9990
 9059SOL    HW238811   1.789   0.893   8.626 -1.3644  1.5816 -0.4581
 9060SOL     OW38812   0.950   1.933  16.375  0.0110 -0.0680 -0.7515
 9060SOL    HW138813   0.927   1.864  16.313  0.2070  0.9532 -1.9641
 9060SOL    HW238814   1.021   1.979  16.331 -0.0301  0.5023 -0.2275
 9061SOL     OW38815   4.565   3.805   2.732  0.5993 -0.4187 -0.7119
 9061SOL    HW138816   4.615   3.787   2.812  0.4210  2.2829  0.0092
 9061SOL    HW238817   4.478   3.774   2.757 -0.1592  2.1980 -0.0292
 9062SOL     OW38818   4.292   1.004   1.197 -0.2584  0.5552  0.7699
 9062SOL    HW138819   4.235   0.972   1.126  0.6676 -0.4444  0.4772
 9062SOL    HW238820   4.235   1.075   1.225  0.4188  1.1344  0.6793
 9063SOL     OW38821   2.337   2.920   8.928 -0.1177  0.3798 -0.0924
 9063SOL    HW138822   2.380   2.881   8.852  0.2774 -0.6027  0.6383
 9063SOL    HW238823   2.371   2.864   8.997 -0.6663  0.7598  0.4792
 9064SOL     OW38824   1.930   3.318  12.978  0.0272 -0.3949 -0.1376
 9064SOL    HW138825   1.901   3.228  12.996 -0.6713 -0.6305 -2.3917
 9064SOL    HW238826   1.979   3.330  13.058  1.0421 -1.4999 -0.5979
 9065SOL     OW38827   0.908   2.113   5.414  0.8374 -0.1011  0.2929
 9065SOL    HW138828   0.841   2.096   5.348  0.5838  0.9987  0.2698
 9065SOL    HW238829   0.902   2.028   5.459 -0.7663 -0.2003 -0.1109
 9066SOL     OW38830   3.791   3.710   9.391  0.4099  0.2609  0.0808
 9066SOL    HW138831   3.800   3.796   9.352  2.1015  0.0061 -0.1037
 9066SOL    HW238832   3.876   3.700   9.435 -0.2254  0.2476  1.3245
 9067SOL     OW38833   3.566   1.848   4.156 -1.0176  0.2705  0.3789
 9067SOL    HW138834   3.471   1.854   4.147 -0.8857 -0.9612 -1.8874
 9067SOL    HW238835   3.599   1.798   4.081 -3.0384 -0.3780 -0.0804
 9068SOL     OW38836   2.109   2.989   8.819  0.7263  0.2043 -0.5146
 9068SOL    HW138837   2.188   2.960   8.865  1.3367  1.7592 -0.6010
 9068SOL    HW238838   2.127   2.960   8.729 -0.7495 -0.0979 -0.7098
 9069SOL     OW38839   0.828   3.790   4.865  0.1028 -0.3226 -0.2916
 9069SOL    HW138840   0.882   3.725   4.823 -0.5917 -0.7910 -0.4563
 9069SOL    HW238841   0.760   3.735   4.904  0.4919 -0.1421  0.6418
 9070SOL     OW38842   3.026   0.054  17.578 -0.6342  0.3013  0.0023
 9070SOL    HW138843   3.117   0.067  17.553  0.2609 -0.5588  2.8252
 9070SOL    HW238844   3.014   4.702  17.543  1.7579 -0.3817  0.9234
 9071SOL     OW38845   4.108   1.902   4.204 -0.3992  0.0140 -0.2395
 9071SOL    HW138846   4.153   1.878   4.285  0.7718  0.8191 -0.6499
 9071SOL    HW238847   4.165   1.969   4.166 -1.1322 -0.0636 -1.4928
 9072SOL     OW38848   0.695   1.340   2.765 -0.2298  0.1613  0.3117
 9072SOL    HW138849   0.642   1.342   2.845 -0.7044  0.7598 -0.0157
 9072SOL    HW238850   0.646   1.279   2.711  0.1399 -0.6833  0.9254
 9073SOL     OW38851   2.460   1.281   6.924 -0.2168 -0.4002 -0.2063
 9073SOL    HW138852   2.430   1.216   6.860 -0.0027 -0.6505 -0.0490
 9073SOL    HW238853   2.508   1.216   6.975  0.7685 -0.4648 -1.2197
 9074SOL     OW38854   2.302   1.297   1.198  0.0870  0.0276 -0.1211
 9074SOL    HW138855   2.301   1.325   1.107 -3.3405 -1.1457 -0.4841
 9074SOL    HW238856   2.217   1.330   1.226  0.7226 -0.2569  2.1402
 9075SOL     OW38857   3.687   3.829   2.463  0.3053 -0.2295 -0.1874
 9075SOL    HW138858   3.670   3.912   2.420 -0.7737  0.0968  0.8937
 9075SOL    HW238859   3.720   3.778   2.389  1.4292  0.3214 -0.0660
 9076SOL     OW38860   0.673   1.914   7.060  0.5161 -0.1668  0.3963
 9076SOL    HW138861   0.648   1.927   7.151 -0.9547  0.6995 -0.1299
 9076SOL    HW238862   0.753   1.862   7.070  1.2966  0.9548  0.0057
 9077SOL     OW38863   0.712   0.568   2.866 -0.2038  0.5637 -0.2642
 9077SOL    HW138864   0.719   0.520   2.783  0.6464 -0.3812  0.3607
 9077SOL    HW238865   0.661   0.648   2.851 -1.0311 -0.4978 -3.1897
 9078SOL     OW38866   2.662   4.442   1.467 -0.7422  0.4460  0.0363
 9078SOL    HW138867   2.656   4.462   1.560  1.5216 -1.3846  0.5547
 9078SOL    HW238868   2.570   4.431   1.443 -1.1468  1.8156  0.9128
 9079SOL     OW38869   2.808   3.192   4.677 -0.3029  0.5458  0.3361
 9079SOL    HW138870   2.728   3.186   4.624  2.0820  3.2413 -3.4787
 9079SOL    HW238871   2.807   3.105   4.718 -1.7774  0.0869 -0.6582
 9080SOL     OW38872   3.642   1.701   5.942  0.3701  0.2192 -0.0291
 9080SOL    HW138873   3.698   1.713   5.865 -1.5534  2.7463 -1.0704
 9080SOL    HW238874   3.670   1.612   5.963 -3.6065 -0.7811  1.0438
 9081SOL     OW38875   0.451   1.439   7.091 -0.3447 -0.4594  0.1698
 9081SOL    HW138876   0.496   1.472   7.169  1.5418  0.3127 -1.2529
 9081SOL    HW238877   0.414   1.522   7.061 -0.2704 -0.9977 -1.3929
 9082SOL     OW38878   1.837   3.165  16.965 -0.4228 -0.4080  0.1246
 9082SOL    HW138879   1.927   3.189  16.943 -0.2840 -0.2242  0.9099
 9082SOL    HW238880   1.792   3.242  16.931 -0.7467 -1.0660 -0.9262
 9083SOL     OW38881   0.783   0.473   3.317 -0.1076  0.1319  0.0125
 9083SOL    HW138882   0.754   0.449   3.405  1.5863 -0.3653  0.4233
 9083SOL    HW238883   0.808   0.566   3.318 -1.9831  0.6456  0.2102
 9084SOL     OW38884   2.369   0.170   9.188 -0.0307 -0.4737  0.0366
 9084SOL    HW138885   2.425   0.247   9.194 -0.5217 -0.0843 -0.3499
 9084SOL    HW238886   2.286   0.215   9.203 -1.5324 -2.6342 -1.7393
 9085SOL     OW38887   1.208   4.362   2.439  0.0865  0.1082  0.1670
 9085SOL    HW138888   1.203   4.279   2.392 -1.6507 -1.1413  2.5649
 9085SOL    HW238889   1.241   4.429   2.379  0.9331  0.7705  1.3915
 9086SOL     OW38890   2.122   2.668   8.695 -0.2901  0.5298 -0.2203
 9086SOL    HW138891   2.110   2.630   8.608 -0.8244  0.6334 -0.1901
 9086SOL    HW238892   2.084   2.597   8.747 -1.3791  2.4664  1.6618
 9087SOL     OW38893   0.428   4.021   6.706  0.1684 -0.3923 -0.3317
 9087SOL    HW138894   0.516   4.039   6.672  0.7776 -1.8636  0.4716
 9087SOL    HW238895   0.424   3.926   6.691 -3.2338 -0.4090  0.7394
 9088SOL     OW38896   1.684   1.598  11.172 -0.5911  0.1472  0.0460
 9088SOL    HW138897   1.777   1.577  11.185  0.2858  2.6923 -2.0879
 9088SOL    HW238898   1.699   1.680  11.124  0.9593  0.2577  0.6979
 9089SOL     OW38899   1.946   4.207   6.378  0.0010 -0.4373 -0.2913
 9089SOL    HW138900   1.890   4.275   6.416  1.5363  0.6400  0.0505
 9089SOL    HW238901   1.962   4.148   6.452  1.0585  0.2061 -0.0114
 9090SOL     OW38902   4.323   4.651   8.387 -0.3585  0.3715  0.4673
 9090SOL    HW138903   4.357   4.669   8.475 -1.8934 -0.3957  1.2221
 9090SOL    HW238904   4.387   4.706   8.342 -0.7219  0.8087  0.4888
 9091SOL     OW38905   0.957   1.329   2.824 -0.4441  0.5974 -0.2985
 9091SOL    HW138906   0.953   1.321   2.919 -0.7949  0.3345 -0.3350
 9091SOL    HW238907   0.868   1.357   2.802 -0.4407  0.5834 -0.3306
 9092SOL     OW38908   3.840   2.613   7.052 -0.4478 -0.0402  0.5343
 9092SOL    HW138909   3.870   2.609   6.961  2.3557  0.0627  1.4691
 9092SOL    HW238910   3.916   2.635   7.106  0.4257 -0.5916 -0.4734
 9093SOL     OW38911   2.261   1.880  13.940  0.1327  0.1226  0.1817
 9093SOL    HW138912   2.294   1.911  14.025 -0.5291  0.0441  0.4722
 9093SOL    HW238913   2.255   1.789  13.970 -1.8243  0.2506  0.1608
 9094SOL     OW38914   0.750   3.977   2.638  0.6012  0.0961 -0.9483
 9094SOL    HW138915   0.843   3.998   2.633  1.6580 -4.5356 -0.3216
 9094SOL    HW238916   0.749   3.969   2.734 -0.4471  0.6496 -0.9084
 9095SOL     OW38917   0.842   3.725  14.695  0.1535 -0.2146  0.1520
 9095SOL    HW138918   0.913   3.660  14.692  0.3579  0.0360 -0.5133
 9095SOL    HW238919   0.807   3.708  14.782 -3.0059  1.2477 -0.8290
 9096SOL     OW38920   3.199   0.306   4.171 -0.3648  0.0218  0.3388
 9096SOL    HW138921   3.145   0.383   4.186  1.6311  1.7624 -1.3922
 9096SOL    HW238922   3.217   0.307   4.077  0.6807 -3.9810  0.4926
 9097SOL     OW38923   1.297   0.664   9.616  0.2145  0.1333 -0.5751
 9097SOL    HW138924   1.217   0.674   9.667  1.6421  0.6091  1.5373
 9097SOL    HW238925   1.365   0.684   9.680 -1.4964 -0.7414  1.4794
 9098SOL     OW38926   2.277   4.717   2.523  0.2043 -0.5664 -0.5854
 9098SOL    HW138927   2.198   4.664   2.519 -0.5068  0.4813 -0.5060
 9098SOL    HW238928   2.249   0.063   2.482  1.7198 -0.0556 -0.6087
 9099SOL     OW38929   1.258   4.400  16.278 -0.3875  0.5846  0.0391
 9099SOL    HW138930   1.339   4.384  16.326 -0.8156  0.0656  0.5911
 9099SOL    HW238931   1.273   4.494  16.269 -1.5002  0.8586  0.9893
 9100SOL     OW38932   0.709   2.584   6.409 -0.5502 -0.4254  0.2789
 9100SOL    HW138933   0.719   2.491   6.428 -1.8764 -1.4979 -4.1220
 9100SOL    HW238934   0.661   2.577   6.326  0.5159  0.8593 -0.4426
 9101SOL     OW38935   0.882   2.732  10.213 -0.1253  0.1538 -0.5771
 9101SOL    HW138936   0.919   2.747  10.126  0.2625 -0.1384 -0.4645
 9101SOL    HW238937   0.803   2.783  10.196  1.6977  3.5843  1.3298
 9102SOL     OW38938   0.752   2.115   8.034 -0.4458 -0.1308  0.4429
 9102SOL    HW138939   0.740   2.069   8.118 -1.3574 -1.7137 -0.5498
 9102SOL    HW238940   0.719   2.047   7.975  0.8701  0.1980 -0.6483
 9103SOL     OW38941   1.086   3.850   8.523 -0.3497 -0.3531 -0.0443
 9103SOL    HW138942   1.047   3.763   8.524 -0.3693 -0.3730 -3.4990
 9103SOL    HW238943   1.040   3.889   8.598  3.8171  1.6100  1.5001
 9104SOL     OW38944   3.376   2.940  16.552 -0.1585 -0.6535 -0.0939
 9104SOL    HW138945   3.445   2.904  16.608  0.4126 -1.4512 -1.3251
 9104SOL    HW238946   3.385   2.872  16.485 -0.1476  0.2740 -1.0375
 9105SOL     OW38947   1.301   0.462   2.580 -0.3720 -0.2778  0.0282
 9105SOL    HW138948   1.336   0.424   2.661 -1.2311  0.5348  0.7935
 9105SOL    HW238949   1.240   0.401   2.537 -0.4791  1.8126 -2.7212
 9106SOL     OW38950   1.304   1.744   3.367  0.3365  0.5002 -0.2862
 9106SOL    HW138951   1.231   1.711   3.419  0.7587  1.3491  0.8457
 9106SOL    HW238952   1.366   1.741   3.441 -0.6559  0.8162  0.5637
 9107SOL     OW38953   3.898   3.175  14.097  0.0762  0.0711  0.3907
 9107SOL    HW138954   3.948   3.171  14.016  1.4001 -0.0389  1.2165
 9107SOL    HW238955   3.918   3.089  14.133  0.6853  0.9069  2.0754
 9108SOL     OW38956   3.767   2.609  16.775 -0.3335  0.7336 -0.2225
 9108SOL    HW138957   3.753   2.515  16.780  0.9637  0.5066 -0.9716
 9108SOL    HW238958   3.848   2.623  16.726 -0.4431  0.5508 -0.4535
 9109SOL     OW38959   0.694   0.084  12.061 -0.1773  0.2503  0.6917
 9109SOL    HW138960   0.627   0.148  12.087 -1.6963 -0.7479 -0.7208
 9109SOL    HW238961   0.735   0.057  12.144  0.5911  0.0344  0.2330
 9110SOL     OW38962   3.203   4.056   3.754 -0.1614  0.0569  0.3440
 9110SOL    HW138963   3.204   4.133   3.811 -1.4815  0.1215  0.2734
 9110SOL    HW238964   3.166   3.990   3.813  0.7390 -1.3147 -0.6373
 9111SOL     OW38965   4.019   0.117  12.412  0.1779  0.1947  0.3778
 9111SOL    HW138966   3.989   0.207  12.404 -0.8803 -0.0126  1.9430
 9111SOL    HW238967   4.072   0.097  12.335  0.1059  0.0099  0.3764
 9112SOL     OW38968   1.084   4.724   9.507  0.0076 -0.2943 -0.0739
 9112SOL    HW138969   1.076   4.648   9.449 -0.1668  0.9424 -1.7012
 9112SOL    HW238970   1.040   0.062   9.465 -0.2964 -0.8992 -0.8183
 9113SOL     OW38971   0.201   3.894   1.724  0.0370 -0.6300 -0.5724
 9113SOL    HW138972   0.276   3.952   1.710 -1.3299  1.0605 -0.9322
 9113SOL    HW238973   0.243   3.814   1.754 -0.2950 -0.0467  1.4580
 9114SOL     OW38974   2.604   0.678   6.102  0.3732 -0.3168 -0.0263
 9114SOL    HW138975   2.604   0.736   6.178  1.4792 -0.8475  0.3786
 9114SOL    HW238976   2.556   0.729   6.036 -1.3315 -2.4238 -0.4101
 9115SOL     OW38977   3.991   0.444   1.927 -0.4368  0.0139 -0.5117
 9115SOL    HW138978   4.023   0.520   1.976  0.9036 -0.4704 -0.6496
 9115SOL    HW238979   4.040   0.366   1.955  0.2391  0.5204 -0.2686
 9116SOL     OW38980   0.760   2.449   1.649 -0.3476 -0.3221 -0.4076
 9116SOL    HW138981   0.740   2.421   1.559  0.4334 -1.8883 -0.1040
 9116SOL    HW238982   0.691   2.511   1.671 -1.6142 -2.2498  1.0184
 9117SOL     OW38983   2.551   2.492  12.428  0.2955  0.3425 -0.6018
 9117SOL    HW138984   2.593   2.436  12.364  0.6395  1.7133 -1.5669
 9117SOL    HW238985   2.616   2.479  12.497 -1.0881 -1.2530  0.4252
 9118SOL     OW38986   3.792   2.412   3.262 -0.5208  0.1880  0.3335
 9118SOL    HW138987   3.800   2.381   3.353 -0.9347 -1.0194 -0.0338
 9118SOL    HW238988   3.765   2.504   3.265  0.3267  0.4452  0.1481
 9119SOL     OW38989   4.141   3.500   3.825  0.0807 -0.3128  0.1383
 9119SOL    HW138990   4.182   3.583   3.803  1.6019 -1.3980 -1.1014
 9119SOL    HW238991   4.185   3.477   3.907  0.0955  2.7214  1.0047
 9120SOL     OW38992   1.412   4.397   4.369 -0.0693 -0.3674 -0.5789
 9120SOL    HW138993   1.329   4.354   4.390 -0.7684  0.8583 -0.8197
 9120SOL    HW238994   1.433   4.425   4.458 -0.6911  0.5713 -0.7216
 9121SOL     OW38995   3.572   2.468   6.695 -0.1395  0.1978 -0.2963
 9121SOL    HW138996   3.663   2.492   6.708 -0.5687  0.4392  2.1425
 9121SOL    HW238997   3.565   2.433   6.606  0.3024 -0.3659 -0.1055
 9122SOL     OW38998   4.046   0.840   6.474  0.4562 -0.2767 -0.2842
 9122SOL    HW138999   3.968   0.800   6.434 -0.1050  0.4029  0.1282
 9122SOL    HW239000   4.056   0.914   6.415 -1.2865  1.7796  2.0131
 9123SOL     OW39001   0.234   2.293   7.185  0.0174 -0.4143  0.2090
 9123SOL    HW139002   0.143   2.293   7.156  0.2566 -0.1267 -0.5158
 9123SOL    HW239003   0.246   2.350   7.261 -2.1462  0.6334 -0.2348
 9124SOL     OW39004   1.673   2.619   7.677 -0.6275 -0.5278 -0.0457
 9124SOL    HW139005   1.690   2.632   7.770  0.7171 -1.6506 -0.1228
 9124SOL    HW239006   1.601   2.681   7.668  2.1289  2.7262  0.1594
 9125SOL     OW39007   3.578   4.199  16.851 -0.3542  0.2196  0.2804
 9125SOL    HW139008   3.539   4.279  16.887 -1.3023 -0.9954  1.9849
 9125SOL    HW239009   3.516   4.187  16.779 -0.9048 -1.8503  1.0795
 9126SOL     OW39010   3.616   1.566  11.408  0.1540  0.3275 -0.8172
 9126SOL    HW139011   3.669   1.527  11.477 -2.5282  1.5025  1.9314
 9126SOL    HW239012   3.603   1.655  11.441  0.9775 -0.5352  1.7776
 9127SOL     OW39013   2.783   3.251   7.526 -0.7171 -0.3503  0.4120
 9127SOL    HW139014   2.777   3.184   7.459 -0.1177 -1.2212  1.2276
 9127SOL    HW239015   2.865   3.230   7.572 -0.8251 -2.3188 -0.3051
 9128SOL     OW39016   0.562   2.317  11.914  0.1236 -0.4024 -0.2493
 9128SOL    HW139017   0.596   2.229  11.925  5.2015  1.6289  0.3285
 9128SOL    HW239018   0.479   2.310  11.961  0.6320 -3.1781  0.2041
 9129SOL     OW39019   4.383   2.917   9.760 -0.2189 -0.0159  0.0091
 9129SOL    HW139020   4.310   2.903   9.820  0.4092 -0.0535  0.7655
 9129SOL    HW239021   4.378   3.013   9.760  1.6383  0.1031  1.2196
 9130SOL     OW39022   0.135   3.021  13.421  0.3896 -0.1301  0.4918
 9130SOL    HW139023   0.087   3.033  13.339 -1.1440 -0.1193  1.3907
 9130SOL    HW239024   0.214   2.978  13.389 -0.2143  0.4792 -1.8570
 9131SOL     OW39025   4.327   3.263   1.503  0.0166  0.6341  0.5085
 9131SOL    HW139026   4.412   3.222   1.519 -0.1055  0.5453  0.9191
 9131SOL    HW239027   4.357   3.342   1.459  0.2052 -0.3836 -1.2075
 9132SOL     OW39028   4.317   1.279  16.456 -0.1663  0.0819 -0.0504
 9132SOL    HW139029   4.294   1.363  16.417 -0.0087  0.2398  0.1943
 9132SOL    HW239030   4.392   1.299  16.513 -0.2323  0.7057 -0.1845
 9133SOL     OW39031   3.023   2.331   3.260 -0.4869 -0.4584  0.4290
 9133SOL    HW139032   3.003   2.310   3.169  2.3312  0.1916 -0.3450
 9133SOL    HW239033   3.009   2.425   3.262 -1.1705 -0.5325 -0.9290
 9134SOL     OW39034   4.045   0.773   6.015 -0.7525 -0.0716  0.4448
 9134SOL    HW139035   4.020   0.681   6.015  0.1500 -0.3234 -1.0912
 9134SOL    HW239036   3.993   0.803   5.939  0.6626 -0.9678 -0.8740
 9135SOL     OW39037   1.875   2.339  14.432  0.1777 -0.7365 -0.5813
 9135SOL    HW139038   1.924   2.388  14.366 -1.2702 -0.9156 -1.7910
 9135SOL    HW239039   1.909   2.250  14.422 -1.7209 -1.7043  1.7656
 9136SOL     OW39040   4.171   3.922  16.798  0.6127 -0.1632 -0.3341
 9136SOL    HW139041   4.093   3.897  16.748  0.6570 -3.1096  1.0137
 9136SOL    HW239042   4.134   3.984  16.860  1.1778  2.7589 -2.9534
 9137SOL     OW39043   2.686   4.058   3.844  0.5695  0.5491  0.1684
 9137SOL    HW139044   2.689   4.083   3.752 -0.7153  0.5260  0.1196
 9137SOL    HW239045   2.764   4.092   3.888  1.0497  1.0154 -1.0348
 9138SOL     OW39046   4.066   2.018  12.940  0.5555 -0.2114  0.5109
 9138SOL    HW139047   4.092   2.103  12.977  0.1097 -0.2125  0.8249
 9138SOL    HW239048   4.137   1.993  12.880 -0.2156  0.3495 -0.6266
 9139SOL     OW39049   1.125   1.570  12.245 -0.4836 -0.3637 -0.9180
 9139SOL    HW139050   1.154   1.636  12.309  0.0497 -0.7814 -0.7283
 9139SOL    HW239051   1.209   1.561  12.201 -0.4019  1.3695 -1.1023
 9140SOL     OW39052   4.152   4.001   2.203 -0.4529  0.4202 -0.3862
 9140SOL    HW139053   4.160   3.993   2.108  0.4052  1.7350 -0.4240
 9140SOL    HW239054   4.057   4.010   2.205 -0.4561  0.5540 -1.0984
 9141SOL     OW39055   2.593   2.958   6.115 -0.4230 -0.2781 -0.2598
 9141SOL    HW139056   2.661   2.945   6.049 -0.9196 -1.7176 -0.4870
 9141SOL    HW239057   2.544   2.878   6.093  0.7717 -0.4948 -2.0890
 9142SOL     OW39058   0.971   1.387   3.866 -0.2059  0.2352 -0.2518
 9142SOL    HW139059   0.989   1.334   3.788  0.6486 -0.5001  0.4428
 9142SOL    HW239060   1.057   1.389   3.908 -0.1094 -0.5608 -0.4117
 9143SOL     OW39061   1.183   0.292  15.189 -0.4003 -0.1076  0.2112
 9143SOL    HW139062   1.093   0.274  15.161 -0.4939 -0.0461  0.4771
 9143SOL    HW239063   1.181   0.387  15.195 -1.6696 -0.0169 -1.4793
 9144SOL     OW39064   3.339   0.840   3.280  0.1209 -0.0022  0.2800
 9144SOL    HW139065   3.405   0.826   3.212  0.1529 -1.1408  0.5490
 9144SOL    HW239066   3.384   0.837   3.364  0.4802 -0.1249  0.0831
 9145SOL     OW39067   0.825   2.104   4.512  0.6000 -0.1286 -0.5295
 9145SOL    HW139068   0.917   2.124   4.529  0.3715  0.3921  0.0864
 9145SOL    HW239069   0.792   2.170   4.573  1.0592  1.2200 -1.7451
 9146SOL     OW39070   2.936   1.850   5.240 -0.2192 -0.5238  0.0042
 9146SOL    HW139071   2.979   1.934   5.256  0.7415 -0.8165 -0.9582
 9146SOL    HW239072   2.902   1.830   5.327  1.8236 -0.3731  0.8450
 9147SOL     OW39073   2.554   3.061   7.460  0.1760 -0.3688  0.0674
 9147SOL    HW139074   2.633   3.007   7.460 -0.4171 -1.2260 -1.0774
 9147SOL    HW239075   2.535   3.060   7.554  0.6122 -0.6459  0.1560
 9148SOL     OW39076   1.626   2.848  16.469  0.1668  0.3904  0.1683
 9148SOL    HW139077   1.606   2.755  16.454 -0.3173  0.2031  1.9691
 9148SOL    HW239078   1.704   2.865  16.417  0.2091 -0.1652  0.0451
 9149SOL     OW39079   2.286   3.524   6.779 -0.0111 -0.3241 -0.0453
 9149SOL    HW139080   2.222   3.594   6.794 -1.5445 -1.1992 -2.5125
 9149SOL    HW239081   2.232   3.455   6.818 -1.6507  1.0762  0.1940
 9150SOL     OW39082   1.141   4.667   5.088  0.2434 -0.0290 -0.4169
 9150SOL    HW139083   1.059   4.617   5.094  0.6509 -0.4243  2.1511
 9150SOL    HW239084   1.110   4.729   5.022 -0.2971 -1.7005 -1.7138
 9151SOL     OW39085   4.214   0.288  13.052 -0.4750 -0.4990  0.3150
 9151SOL    HW139086   4.177   0.375  13.045  3.2595  0.8419 -2.5850
 9151SOL    HW239087   4.284   0.310  13.112  0.7532  0.7528 -1.5950
 9152SOL     OW39088   0.589   2.658  17.674 -0.1661  0.2177  0.1762
 9152SOL    HW139089   0.583   2.586  17.737 -0.2098 -0.0707 -0.1581
 9152SOL    HW239090   0.553   2.622  17.593  0.1566  0.4896 -0.0866
 9153SOL     OW39091   1.882   1.791   9.004  0.3117 -0.2750  0.3167
 9153SOL    HW139092   1.913   1.700   9.002  1.2524  0.1109 -2.4126
 9153SOL    HW239093   1.810   1.768   8.945 -0.4794 -0.3556  1.2996
 9154SOL     OW39094   1.828   1.783   6.121  0.4954  0.7857  0.2267
 9154SOL    HW139095   1.807   1.834   6.199  1.6452  0.0470  1.0155
 9154SOL    HW239096   1.853   1.847   6.055 -1.9055  0.0802 -1.3656
 9155SOL     OW39097   4.192   1.591   8.850  0.1651 -0.3672 -0.3339
 9155SOL    HW139098   4.249   1.663   8.879  0.1894  0.0592 -1.4437
 9155SOL    HW239099   4.244   1.530   8.799  1.0411 -0.9197  1.2093
 9156SOL     OW39100   2.407   4.323   1.357 -0.0014 -0.0512 -0.4547
 9156SOL    HW139101   2.406   4.342   1.264 -0.7182 -1.6835 -0.7823
 9156SOL    HW239102   2.402   4.228   1.364  1.1453 -0.1949 -1.6843
 9157SOL     OW39103   3.300   0.008   2.795 -0.2428  0.4503 -0.2752
 9157SOL    HW139104   3.234   4.678   2.773  1.3038 -1.3808  0.5500
 9157SOL    HW239105   3.378   4.696   2.767  0.3146  2.4676 -2.2196
 9158SOL     OW39106   0.180   1.127   7.957 -0.5157  0.5143 -0.0463
 9158SOL    HW139107   0.166   1.116   8.051 -2.1133  0.1968 -0.3129
 9158SOL    HW239108   0.122   1.057   7.929 -0.6955  1.0141 -0.9228
 9159SOL     OW39109   3.673   0.421   7.118 -0.2941  0.0304  0.9123
 9159SOL    HW139110   3.719   0.340   7.099  0.1064  0.6512 -0.7319
 9159SOL    HW239111   3.642   0.446   7.031  0.0687 -0.7115  0.5746
 9160SOL     OW39112   2.741   0.884   3.032 -0.3583  0.5012 -0.7721
 9160SOL    HW139113   2.692   0.911   2.954 -1.4017  1.3856  0.1924
 9160SOL    HW239114   2.720   0.791   3.022 -1.1769  0.6981 -0.8884
 9161SOL     OW39115   1.386   1.791   9.479  0.1090 -0.0018 -0.1238
 9161SOL    HW139116   1.375   1.784   9.384 -0.4815 -0.2902 -0.0388
 9161SOL    HW239117   1.406   1.883   9.498 -1.2638  0.8364 -2.7173
 9162SOL     OW39118   2.006   0.234   8.512 -0.0752 -0.3298  0.3226
 9162SOL    HW139119   1.929   0.264   8.560 -1.8679 -2.1300 -1.4515
 9162SOL    HW239120   2.064   0.215   8.586  1.6212  0.0264 -0.9176
 9163SOL     OW39121   3.011   4.031   4.481  0.5093  0.2089 -0.1466
 9163SOL    HW139122   2.966   3.977   4.545 -2.6871  1.2730 -1.4917
 9163SOL    HW239123   2.963   4.110   4.506 -0.6844 -0.8449  0.8492
 9164SOL     OW39124   0.536   0.915   4.787  0.0209  0.4483  0.1054
 9164SOL    HW139125   0.453   0.868   4.780  0.6904 -0.4490 -1.7583
 9164SOL    HW239126   0.546   0.950   4.698  0.3871 -1.4870 -0.5943
 9165SOL     OW39127   0.124   3.335   8.713 -0.1743 -0.3223  0.1978
 9165SOL    HW139128   0.050   3.361   8.659 -0.2917  0.3148  0.6726
 9165SOL    HW239129   0.169   3.272   8.656 -1.3700  0.6623 -1.8481
 9166SOL     OW39130   3.718   1.914   1.195 -0.0933 -0.1952  0.2491
 9166SOL    HW139131   3.657   1.844   1.173 -1.1697  0.4079  1.3335
 9166SOL    HW239132   3.655   1.984   1.213 -0.5567 -0.4214 -0.4886
 9167SOL     OW39133   1.552   3.183  12.802  0.4137  0.7769 -0.0161
 9167SOL    HW139134   1.492   3.245  12.843 -2.5019 -2.0452  0.0016
 9167SOL    HW239135   1.541   3.111  12.865 -1.2543  0.8913 -0.1847
 9168SOL     OW39136   4.199   2.577   7.991  0.5559  0.0513  0.4727
 9168SOL    HW139137   4.220   2.577   7.898 -0.9722 -0.2481  0.1225
 9168SOL    HW239138   4.105   2.576   8.012 -0.2445  3.9913 -2.8738
 9169SOL     OW39139   4.435   4.683   6.916 -0.4230  0.4605  0.5307
 9169SOL    HW139140   4.517   4.718   6.882 -0.4926  0.2285  0.1234
 9169SOL    HW239141   4.392   0.029   6.939  1.6781  1.3413  1.3063
 9170SOL     OW39142   0.522   0.193   4.576 -0.5827 -0.4200  0.0044
 9170SOL    HW139143   0.471   0.261   4.532 -1.1502 -1.1860 -0.5400
 9170SOL    HW239144   0.511   0.134   4.501 -0.2736 -1.6683  0.9453
 9171SOL     OW39145   3.123   1.342   9.551  0.5562 -0.4801 -0.3032
 9171SOL    HW139146   3.070   1.411   9.591 -1.2460 -0.5765 -2.5546
 9171SOL    HW239147   3.138   1.290   9.630  1.0117 -1.6295 -1.1584
 9172SOL     OW39148   4.632   2.477   7.730 -0.3171 -0.0229  0.7705
 9172SOL    HW139149   4.606   2.391   7.696 -1.2260  0.0059  1.3842
 9172SOL    HW239150   4.581   2.479   7.811 -1.1995  0.0530  0.2155
 9173SOL     OW39151   2.808   1.529   5.456  0.2063  0.0733  0.4155
 9173SOL    HW139152   2.814   1.621   5.431  0.9924  0.5322  2.2454
 9173SOL    HW239153   2.869   1.489   5.394 -1.0188  1.7481 -1.8879
 9174SOL     OW39154   0.054   1.348  13.043 -0.6633  0.1737  0.0413
 9174SOL    HW139155   0.032   1.440  13.053  1.8093  0.8879 -1.0369
 9174SOL    HW239156   0.131   1.347  13.100  0.9697  1.1380 -2.1563
 9175SOL     OW39157   0.366   2.974   4.365 -0.6604 -0.1907  0.1694
 9175SOL    HW139158   0.376   3.068   4.349 -0.9304 -0.3708 -1.0042
 9175SOL    HW239159   0.294   2.948   4.308 -0.6346 -0.2058  0.1440
 9176SOL     OW39160   3.953   1.444  11.322  0.2242  0.4633  0.5732
 9176SOL    HW139161   3.904   1.432  11.404 -0.7545 -0.0153 -0.0857
 9176SOL    HW239162   3.900   1.511  11.280  0.4092 -0.2544 -0.7794
 9177SOL     OW39163   2.684   4.082   0.849 -0.5173 -0.6849  0.4078
 9177SOL    HW139164   2.777   4.063   0.864 -0.3698  0.2150  0.5845
 9177SOL    HW239165   2.656   3.991   0.861 -2.1965 -0.2374 -0.1052
 9178SOL     OW39166   4.314   1.382   8.708 -0.2779 -0.2778 -0.0497
 9178SOL    HW139167   4.369   1.317   8.663 -0.1213  0.2552 -0.6359
 9178SOL    HW239168   4.250   1.328   8.754 -0.2835 -0.0327  0.2328
 9179SOL     OW39169   1.057   1.040  16.239 -0.0789  0.4680  0.1687
 9179SOL    HW139170   1.007   1.006  16.164 -0.5566 -1.2342  1.2863
 9179SOL    HW239171   1.047   1.136  16.234  0.4520  0.3801 -2.6430
 9180SOL     OW39172   0.800   4.229   8.138  0.3251  0.0808 -0.3161
 9180SOL    HW139173   0.802   4.306   8.081 -0.8299 -0.6241 -1.3256
 9180SOL    HW239174   0.814   4.274   8.221 -2.0293 -0.4107  0.3479
 9181SOL     OW39175   0.871   3.564   3.682  0.0856  0.0903 -0.7069
 9181SOL    HW139176   0.925   3.588   3.606  2.0202 -1.8173  0.0408
 9181SOL    HW239177   0.788   3.550   3.636 -0.5687  2.8874 -0.3665
 9182SOL     OW39178   4.577   2.296   4.765  0.8195 -0.3684  0.0587
 9182SOL    HW139179   4.541   2.363   4.822  1.5645  0.8590 -0.9082
 9182SOL    HW239180   4.591   2.351   4.688  1.4572  2.0095  1.8739
 9183SOL     OW39181   2.074   2.656   4.454  0.4574 -0.6576  0.9523
 9183SOL    HW139182   2.067   2.561   4.440  0.1862 -0.2017 -1.9750
 9183SOL    HW239183   2.082   2.669   4.360  2.1503 -0.0962  1.1730
 9184SOL     OW39184   3.824   0.316   2.731 -0.7503  0.5545  0.1536
 9184SOL    HW139185   3.833   0.399   2.778 -0.1073  1.2590 -1.1859
 9184SOL    HW239186   3.776   0.340   2.652  0.5117  1.7440 -0.2653
 9185SOL     OW39187   1.155   1.199   0.667 -0.2499  0.1822  0.2139
 9185SOL    HW139188   1.154   1.281   0.715 -1.0182 -0.2783  0.9885
 9185SOL    HW239189   1.232   1.189   0.612 -1.5713  1.8033 -1.9096
 9186SOL     OW39190   2.394   3.320  15.749 -0.2209 -0.0802 -0.5488
 9186SOL    HW139191   2.382   3.326  15.654  3.5214  0.5536 -0.9909
 9186SOL    HW239192   2.305   3.312  15.782 -0.6142  0.3653 -1.4871
 9187SOL     OW39193   0.066   0.864   6.611  0.3071  0.3065  1.0032
 9187SOL    HW139194   4.729   0.917   6.579  0.5426 -0.3150 -0.5520
 9187SOL    HW239195   0.021   0.826   6.687  0.2979 -0.9900  0.3463
 9188SOL     OW39196   2.388   0.014   4.354  0.4933 -0.0509  0.2709
 9188SOL    HW139197   2.403   4.660   4.326 -0.0932 -0.4055  1.0988
 9188SOL    HW239198   2.458   0.044   4.411  0.0083  1.5171  0.0424
 9189SOL     OW39199   0.158   3.507   7.765 -0.0589 -0.5943  0.2870
 9189SOL    HW139200   0.197   3.440   7.709  0.7481  0.6226 -0.6190
 9189SOL    HW239201   0.219   3.580   7.755  2.0316 -2.3419  0.5280
 9190SOL     OW39202   0.891   3.696   5.853 -0.1749 -0.3437  0.4697
 9190SOL    HW139203   0.849   3.644   5.785 -0.9529 -0.0931  0.7634
 9190SOL    HW239204   0.815   3.742   5.888 -1.0612 -2.3185  1.1310
 9191SOL     OW39205   1.630   0.609   6.991  0.3663 -0.7810  0.1812
 9191SOL    HW139206   1.594   0.520   6.993  0.7999 -0.9466  0.4505
 9191SOL    HW239207   1.603   0.639   7.077 -0.5696 -1.1208  0.0126
 9192SOL     OW39208   3.956   2.293   7.449 -0.1907  0.0967  0.0436
 9192SOL    HW139209   3.919   2.284   7.361 -1.6141 -1.5513  0.8067
 9192SOL    HW239210   3.880   2.310   7.504  1.1862 -2.1660  2.6418
 9193SOL     OW39211   1.614   1.136  13.568  0.0301  0.0818 -0.3838
 9193SOL    HW139212   1.596   1.227  13.548  0.1493  0.4276  1.0878
 9193SOL    HW239213   1.577   1.093  13.491 -1.3778 -2.2126  1.5632
 9194SOL     OW39214   3.410   2.145   6.589  0.0854  0.0204  0.4174
 9194SOL    HW139215   3.483   2.186   6.542  2.4875 -3.3799  1.2049
 9194SOL    HW239216   3.459   2.110   6.664 -3.7741  1.1070  3.4281
 9195SOL     OW39217   0.403   0.547   6.196 -0.0141 -0.4404 -0.1681
 9195SOL    HW139218   0.339   0.589   6.138 -0.5761 -0.3438  0.5105
 9195SOL    HW239219   0.447   0.499   6.126 -1.3932 -0.3941 -1.0756
 9196SOL     OW39220   1.617   1.608  17.032  0.1026 -0.3038  1.2253
 9196SOL    HW139221   1.523   1.605  17.051 -0.1181  3.7880  0.7672
 9196SOL    HW239222   1.626   1.662  16.953 -1.6747 -1.2131  0.4013
 9197SOL     OW39223   0.658   4.163   2.334  0.0316 -0.0207  0.1250
 9197SOL    HW139224   0.730   4.227   2.337  0.2449 -0.3098  1.2729
 9197SOL    HW239225   0.706   4.082   2.315  2.0869  0.9324  1.1652
 9198SOL     OW39226   4.585   4.277  10.361  0.9256  0.1453  0.1400
 9198SOL    HW139227   4.529   4.217  10.411  0.2170  0.1540 -0.6369
 9198SOL    HW239228   4.670   4.236  10.373 -0.0839 -1.8585  0.4760
 9199SOL     OW39229   3.929   3.068   7.031 -0.1171 -0.1991  0.5386
 9199SOL    HW139230   3.968   3.129   6.968  0.8353 -2.4907 -1.0995
 9199SOL    HW239231   3.846   3.112   7.048 -0.0070 -0.8660  2.7472
 9200SOL     OW39232   3.441   1.934   3.748 -0.3627  0.1919 -0.5827
 9200SOL    HW139233   3.412   1.857   3.797 -1.1299  1.1790  0.4895
 9200SOL    HW239234   3.361   1.986   3.748  0.4306  1.4188 -1.0208
 9201SOL     OW39235   1.884   1.166   2.536  0.0184  0.3988 -0.2478
 9201SOL    HW139236   1.899   1.143   2.628  0.3220 -0.7816 -0.5991
 9201SOL    HW239237   1.914   1.257   2.544 -0.0794  0.2420  1.9929
 9202SOL     OW39238   3.276   0.334   8.520  0.5990  0.2234  0.0297
 9202SOL    HW139239   3.365   0.359   8.544  0.4852  0.6180  0.0355
 9202SOL    HW239240   3.229   0.414   8.544 -0.3648 -0.7300  1.3507
 9203SOL     OW39241   1.088   3.666   3.468 -0.0548  0.3916 -0.2840
 9203SOL    HW139242   1.110   3.579   3.436 -0.3335  0.1343  0.2130
 9203SOL    HW239243   1.111   3.662   3.561 -0.7752  0.9012 -0.0810
 9204SOL     OW39244   0.664   1.591  12.788 -0.1689 -0.0352  0.2846
 9204SOL    HW139245   0.649   1.571  12.695  0.3800  0.1353  0.1601
 9204SOL    HW239246   0.759   1.603  12.793 -0.1023 -1.4429  2.0941
 9205SOL     OW39247   3.905   2.890   0.428 -0.4181  0.1775 -0.3728
 9205SOL    HW139248   3.912   2.895   0.333 -0.9709 -0.3118 -0.4364
 9205SOL    HW239249   3.964   2.960   0.458  1.8174 -1.6094 -0.6077
 9206SOL     OW39250   0.358   0.845   7.969 -0.2267  0.0528  0.3685
 9206SOL    HW139251   0.425   0.888   8.023 -1.8649 -0.5298  2.8581
 9206SOL    HW239252   0.347   0.911   7.901  0.8679 -0.4323 -0.2788
 9207SOL     OW39253   0.894   4.490  14.792 -0.3469  0.2816 -0.2306
 9207SOL    HW139254   0.930   4.425  14.731  1.9263  0.5978  0.7861
 9207SOL    HW239255   0.920   4.565  14.739 -0.7480  1.8522  1.8077
 9208SOL     OW39256   4.229   0.695  14.398  0.9977 -0.1549  0.0699
 9208SOL    HW139257   4.250   0.788  14.412  5.8972 -1.4307  1.1617
 9208SOL    HW239258   4.173   0.705  14.321  0.6085  2.4710  0.6763
 9209SOL     OW39259   0.260   0.498   3.213 -0.0730  0.2442  0.1682
 9209SOL    HW139260   0.281   0.459   3.129  1.0938 -1.2745  1.1602
 9209SOL    HW239261   0.296   0.441   3.281 -0.8903 -0.0997  0.3188
 9210SOL     OW39262   0.334   1.426  16.557 -0.5467  0.1133 -0.4907
 9210SOL    HW139263   0.351   1.507  16.509 -0.2543  0.8178  0.8033
 9210SOL    HW239264   0.402   1.432  16.625  1.2986  0.9672 -2.4214
 9211SOL     OW39265   4.357   0.026   5.598 -0.0071 -0.7242  0.0927
 9211SOL    HW139266   4.388   4.715   5.521 -0.9011  1.2722 -1.4978
 9211SOL    HW239267   4.394   0.114   5.590 -2.3971  0.2556 -0.1273
 9212SOL     OW39268   2.355   2.346   2.370  0.3294 -0.5854  0.1667
 9212SOL    HW139269   2.305   2.304   2.440 -1.8060  3.3311  0.9815
 9212SOL    HW239270   2.384   2.424   2.417 -0.3288 -0.3555  0.1816
 9213SOL     OW39271   2.741   3.787  16.297 -0.2373  0.0356  0.3924
 9213SOL    HW139272   2.780   3.817  16.215 -0.1226  0.2279  0.5170
 9213SOL    HW239273   2.789   3.706  16.310 -1.6964 -1.1411 -1.5353
 9214SOL     OW39274   4.669   2.252   7.324  0.2608  0.3441  0.1284
 9214SOL    HW139275   4.676   2.290   7.237 -1.3020 -0.0592 -0.1856
 9214SOL    HW239276   4.687   2.328   7.379  1.3238  0.5380 -0.4928
 9215SOL     OW39277   3.676   3.007   4.029  0.1843 -0.2831 -0.4759
 9215SOL    HW139278   3.591   2.964   4.036  0.2871 -0.2044  1.2529
 9215SOL    HW239279   3.638   3.094   4.017  0.2775 -0.2569 -0.5826
 9216SOL     OW39280   0.658   2.948   2.817 -0.0586 -0.1270 -0.1441
 9216SOL    HW139281   0.750   2.974   2.814  0.0670 -0.8118 -2.1068
 9216SOL    HW239282   0.646   2.953   2.722  0.1383 -1.5847 -0.2346
 9217SOL     OW39283   0.589   2.148  16.078 -0.2630  0.0677 -0.3413
 9217SOL    HW139284   0.628   2.126  16.162 -2.1558  0.2789  0.5813
 9217SOL    HW239285   0.551   2.232  16.104 -0.7871 -0.8214  1.7330
 9218SOL     OW39286   2.312   1.982  14.858 -0.3346 -0.1337 -0.1807
 9218SOL    HW139287   2.307   1.923  14.783  1.8387  1.4576 -1.5664
 9218SOL    HW239288   2.295   1.933  14.939 -1.2515  0.0465 -0.2689
 9219SOL     OW39289   2.843   4.214   6.404 -0.1437  0.0792  0.4516
 9219SOL    HW139290   2.889   4.156   6.344 -1.6990 -0.1350 -0.5068
 9219SOL    HW239291   2.769   4.163   6.437  0.0648 -1.2948 -1.2287
 9220SOL     OW39292   2.256   2.527   9.879 -0.9042  0.5919 -0.1605
 9220SOL    HW139293   2.194   2.553   9.811 -0.9687 -1.1554 -0.7835
 9220SOL    HW239294   2.199   2.470   9.930 -2.9386  1.7503 -1.1705
 9221SOL     OW39295   2.748   3.174  12.352  0.8555 -0.1990 -0.2359
 9221SOL    HW139296   2.759   3.136  12.439  1.1044 -0.8723 -0.5583
 9221SOL    HW239297   2.716   3.262  12.369  0.3916 -0.0553 -1.8107
 9222SOL     OW39298   4.248   0.857   5.319  0.3843 -0.5623 -0.4787
 9222SOL    HW139299   4.288   0.944   5.315  0.5104 -0.4953  1.9239
 9222SOL    HW239300   4.239   0.834   5.227  0.2003 -2.3697  0.0032
 9223SOL     OW39301   0.181   3.503   4.921  0.2018  0.1697  0.0536
 9223SOL    HW139302   0.162   3.529   4.830  0.8967  3.1229  0.7521
 9223SOL    HW239303   0.269   3.466   4.911  0.8485  2.0185 -1.0431
 9224SOL     OW39304   2.717   4.696   3.349 -0.0167  0.4860  0.0386
 9224SOL    HW139305   2.727   0.051   3.322  0.3347 -0.1793 -2.1103
 9224SOL    HW239306   2.622   4.682   3.348  0.0744 -0.0942 -0.5811
 9225SOL     OW39307   0.895   1.497  16.869 -0.0790  0.0907 -0.1506
 9225SOL    HW139308   0.950   1.445  16.929 -0.4127 -2.3727 -1.9664
 9225SOL    HW239309   0.812   1.458  16.894  0.9046 -1.3329  0.9046
 9226SOL     OW39310   3.047   4.064   9.008 -0.1185  0.0407  0.4412
 9226SOL    HW139311   3.103   4.007   8.955  1.6332  0.3676  1.9413
 9226SOL    HW239312   2.975   4.069   8.945 -1.0605 -0.8608  1.4636
 9227SOL     OW39313   3.052   0.360   0.814 -0.3492 -0.4828  0.1579
 9227SOL    HW139314   3.021   0.431   0.758  1.8927  0.9385  0.7388
 9227SOL    HW239315   3.038   0.403   0.898  3.3921  1.0228  0.0207
 9228SOL     OW39316   0.754   3.990   8.942  0.1591  0.5215  0.7127
 9228SOL    HW139317   0.844   4.000   8.975 -0.3222  0.2423  2.1084
 9228SOL    HW239318   0.744   3.902   8.905  2.8579  0.1584  0.7977
 9229SOL     OW39319   3.834   4.288   8.697  0.1286 -0.0032  0.4528
 9229SOL    HW139320   3.900   4.221   8.680 -1.0070 -1.2027  0.8062
 9229SOL    HW239321   3.840   4.344   8.619  1.0584  1.9424  1.9340
 9230SOL     OW39322   0.234   0.984  17.544 -0.1647  0.0165 -1.0524
 9230SOL    HW139323   0.316   0.952  17.582 -0.5579 -0.2567 -0.4362
 9230SOL    HW239324   0.265   1.029  17.465  1.9315 -1.8532 -1.3284
 9231SOL     OW39325   0.550   1.073   7.418 -0.4339  0.4212  0.2479
 9231SOL    HW139326   0.541   1.085   7.323  1.2862  0.9383  0.1453
 9231SOL    HW239327   0.582   0.983   7.426  0.8328  0.6205 -2.6392
 9232SOL     OW39328   3.420   2.145   9.030  0.0212 -0.2264 -0.9848
 9232SOL    HW139329   3.442   2.209   9.098 -1.2023  1.4701 -2.1660
 9232SOL    HW239330   3.367   2.085   9.082  1.5730 -0.1438  0.6691
 9233SOL     OW39331   2.349   3.511  17.036  0.5262  0.6564  0.5742
 9233SOL    HW139332   2.360   3.537  16.944  2.0876 -0.1355  0.5313
 9233SOL    HW239333   2.370   3.592  17.083  3.0648  1.2698 -1.5978
 9234SOL     OW39334   2.704   2.892   9.527  0.3837 -0.1026  0.0216
 9234SOL    HW139335   2.763   2.899   9.602 -0.0596 -0.9604  0.4457
 9234SOL    HW239336   2.676   2.983   9.521  1.3348  0.2223  0.5341
 9235SOL     OW39337   3.945   4.561   7.899  0.7856  0.4337 -0.4449
 9235SOL    HW139338   3.872   4.624   7.902  1.3525  1.1210 -1.0212
 9235SOL    HW239339   3.912   4.483   7.944  0.7772  0.7644  0.1205
 9236SOL     OW39340   3.473   2.676   1.433  0.2391 -0.0730 -0.2180
 9236SOL    HW139341   3.424   2.758   1.430  1.3027  0.5353 -0.6726
 9236SOL    HW239342   3.556   2.713   1.463  0.4797 -2.7779  2.4523
 9237SOL     OW39343   1.102   1.113   9.883 -0.0895 -0.4132 -0.5011
 9237SOL    HW139344   1.158   1.036   9.896 -0.7582 -1.0271 -1.2117
 9237SOL    HW239345   1.012   1.088   9.907  1.5697 -2.1913  3.8009
 9238SOL     OW39346   2.129   1.192   5.128  0.0994 -0.5341 -0.2088
 9238SOL    HW139347   2.073   1.195   5.206 -1.2453 -0.6840 -1.1637
 9238SOL    HW239348   2.065   1.226   5.065  0.5817  1.0481  0.1571
 9239SOL     OW39349   4.634   4.630  11.782 -0.2559 -0.2875  0.5129
 9239SOL    HW139350   4.683   4.553  11.812  1.6944  1.4639  1.8301
 9239SOL    HW239351   4.620   4.689  11.856  4.0442 -0.3328  1.3549
 9240SOL     OW39352   4.166   2.884   9.903  0.2442 -0.1660 -0.0347
 9240SOL    HW139353   4.171   2.833   9.983 -1.1780 -1.3656 -0.7111
 9240SOL    HW239354   4.107   2.948   9.944  1.3314  2.0939 -1.9715
 9241SOL     OW39355   0.623   4.582  10.522 -0.1648 -0.3994 -0.0160
 9241SOL    HW139356   0.602   4.646  10.590  0.6005 -2.5074  2.2258
 9241SOL    HW239357   0.536   4.545  10.507 -0.1277  0.1656 -1.6282
 9242SOL     OW39358   1.975   0.824   2.974 -0.1699 -0.5509  0.0461
 9242SOL    HW139359   1.981   0.729   2.981 -0.1521 -0.5690 -0.2051
 9242SOL    HW239360   1.881   0.821   2.953 -0.5818 -1.0089  1.9575
 9243SOL     OW39361   0.834   4.600  15.566 -0.2066 -0.2718  0.0435
 9243SOL    HW139362   0.827   4.695  15.567  1.0064 -0.1915  1.2982
 9243SOL    HW239363   0.865   4.581  15.655  0.3722  0.2553 -0.0448
 9244SOL     OW39364   3.347   4.518   7.777 -0.1238 -0.1696 -0.1847
 9244SOL    HW139365   3.379   4.604   7.750  1.0068 -0.4575  0.2641
 9244SOL    HW239366   3.426   4.467   7.762 -0.1971 -0.5408  0.6488
 9245SOL     OW39367   4.485   0.946   7.719 -0.4420  0.5212  0.1247
 9245SOL    HW139368   4.414   0.924   7.780 -0.6283  2.5238  0.6503
 9245SOL    HW239369   4.544   0.872   7.727 -1.5635 -0.2680  1.1648
 9246SOL     OW39370   0.615   1.461   8.291  0.6133 -0.0769 -0.4384
 9246SOL    HW139371   0.655   1.418   8.215 -1.4547  0.8629 -2.0431
 9246SOL    HW239372   0.542   1.513   8.259 -0.4566 -1.5619 -0.3900
 9247SOL     OW39373   3.280   3.284   9.301 -0.0936 -0.1690 -0.3574
 9247SOL    HW139374   3.270   3.201   9.349  2.3049  1.0636  2.3221
 9247SOL    HW239375   3.219   3.331   9.358  1.6961  1.0436  0.5498
 9248SOL     OW39376   2.522   3.661   6.801 -0.2570  0.0010  0.1072
 9248SOL    HW139377   2.496   3.749   6.828  2.2707  0.6014  0.5747
 9248SOL    HW239378   2.439   3.613   6.795  0.6595 -1.5096 -0.5608
 9249SOL     OW39379   4.065   2.435   0.743  0.3980  0.4428 -0.0880
 9249SOL    HW139380   4.020   2.361   0.785 -1.6797  0.1867 -2.7667
 9249SOL    HW239381   4.000   2.474   0.686  0.4844  0.7426  0.0187
 9250SOL     OW39382   4.098   1.801  13.117 -0.3653  0.3024  0.0258
 9250SOL    HW139383   4.070   1.858  13.045  2.2938  0.4278 -0.9128
 9250SOL    HW239384   4.098   1.866  13.187 -0.7518  2.0077 -1.5480
 9251SOL     OW39385   4.521   3.033  17.290 -0.0800  0.0691 -0.4393
 9251SOL    HW139386   4.614   3.057  17.297 -0.6704  1.4871  2.6228
 9251SOL    HW239387   4.528   2.968  17.221  0.0982 -0.6200  0.2290
 9252SOL     OW39388   0.996   2.465  15.659 -0.0803 -0.6288  0.8907
 9252SOL    HW139389   1.055   2.395  15.685  1.0279  1.6207  4.5926
 9252SOL    HW239390   1.042   2.483  15.577 -1.5497  1.2983  0.4780
 9253SOL     OW39391   2.869   3.205   8.781 -0.1807  0.6449 -0.5112
 9253SOL    HW139392   2.956   3.208   8.820 -1.1572  2.0751  1.5237
 9253SOL    HW239393   2.817   3.269   8.829 -0.2643  2.6655 -3.3253
 9254SOL     OW39394   2.541   0.070  14.480 -0.4650 -0.4242 -0.2222
 9254SOL    HW139395   2.628   0.110  14.472 -0.1695 -1.3568 -1.5354
 9254SOL    HW239396   2.567   4.724  14.522  1.6417  0.6738  0.6522
 9255SOL     OW39397   1.290   0.729   8.950  0.4947  0.3273 -0.2884
 9255SOL    HW139398   1.260   0.643   8.919 -1.0826  1.5325 -2.1159
 9255SOL    HW239399   1.369   0.709   8.999  1.3282  2.7833 -0.6384
 9256SOL     OW39400   3.706   4.491  12.504 -0.3963 -0.5607 -0.3752
 9256SOL    HW139401   3.722   4.401  12.532 -3.0590 -0.4296  1.5917
 9256SOL    HW239402   3.754   4.532  12.576 -0.3815 -0.2382 -0.5692
 9257SOL     OW39403   4.427   0.881   3.163  0.2369 -0.0142  0.0216
 9257SOL    HW139404   4.427   0.879   3.259  1.4407 -0.6639  0.0164
 9257SOL    HW239405   4.337   0.852   3.148  0.3970  0.4001 -1.7426
 9258SOL     OW39406   4.449   1.564   2.511  0.1530 -0.3591 -0.5553
 9258SOL    HW139407   4.484   1.650   2.533 -1.7996  0.7261 -1.7618
 9258SOL    HW239408   4.445   1.519   2.596 -0.1191 -0.1679 -0.4708
 9259SOL     OW39409   1.897   1.974   3.846 -0.1366  0.1807  0.4721
 9259SOL    HW139410   1.947   1.915   3.791 -0.3777  0.2108  0.2185
 9259SOL    HW239411   1.954   1.963   3.922 -0.9501 -0.0014  1.0643
 9260SOL     OW39412   3.910   4.706   8.673  0.4690 -0.0281 -0.0385
 9260SOL    HW139413   3.909   0.055   8.629  0.5144 -0.3754 -0.7202
 9260SOL    HW239414   3.869   4.652   8.605 -0.2344  0.3159  0.1179
 9261SOL     OW39415   2.815   0.410   8.288  0.0702 -0.4651  0.7487
 9261SOL    HW139416   2.747   0.434   8.224 -0.3245  1.1537  1.7795
 9261SOL    HW239417   2.758   0.384   8.360 -2.2636  0.6221 -0.6956
 9262SOL     OW39418   0.852   2.979   3.428 -0.0070  0.1510  0.1600
 9262SOL    HW139419   0.763   2.976   3.464 -0.1847  1.5766 -0.1269
 9262SOL    HW239420   0.870   2.888   3.449  0.5800 -0.1131 -1.4872
 9263SOL     OW39421   0.313   2.577   1.255  0.0639 -0.0719 -0.7496
 9263SOL    HW139422   0.378   2.507   1.243  0.5367 -0.0199  1.3889
 9263SOL    HW239423   0.280   2.542   1.338 -2.8742  0.6048 -1.6400
 9264SOL     OW39424   4.438   3.701   8.812 -0.0406  0.3620 -0.0294
 9264SOL    HW139425   4.435   3.759   8.736  3.6030  0.8473  0.1619
 9264SOL    HW239426   4.465   3.765   8.879  0.7129  0.7763 -0.7360
 9265SOL     OW39427   1.116   1.048   4.079  0.1199 -0.4567 -0.1187
 9265SOL    HW139428   1.029   1.037   4.038  0.2915  0.6199 -0.7764
 9265SOL    HW239429   1.109   1.116   4.146  2.1999 -1.5805  1.2147
 9266SOL     OW39430   1.082   4.346   3.147 -0.1230  0.9408  0.0249
 9266SOL    HW139431   1.107   4.313   3.234  0.5530 -3.0990 -1.6878
 9266SOL    HW239432   0.986   4.337   3.145 -0.2030  1.8705 -0.2519
 9267SOL     OW39433   3.656   0.914   8.961 -0.6555  0.0739  0.3225
 9267SOL    HW139434   3.711   0.856   9.014 -0.3572 -0.2314 -0.3212
 9267SOL    HW239435   3.618   0.981   9.018 -0.9894 -0.6248  0.9203
 9268SOL     OW39436   1.187   1.288   8.877  0.1590  0.0870 -0.1068
 9268SOL    HW139437   1.091   1.284   8.873  0.2154 -0.2561 -1.0862
 9268SOL    HW239438   1.213   1.268   8.788 -0.1011  0.3188 -0.2364
 9269SOL     OW39439   0.346   4.596  10.521 -0.7935  0.2685  0.0092
 9269SOL    HW139440   0.327   4.650  10.444 -1.5613  2.6697  1.8878
 9269SOL    HW239441   0.271   4.620  10.575 -1.9262  0.0708 -1.4862
 9270SOL     OW39442   2.610   2.564   4.357 -0.2337 -0.1636 -0.3389
 9270SOL    HW139443   2.607   2.580   4.451 -0.5078 -1.0329 -0.2020
 9270SOL    HW239444   2.561   2.483   4.352  1.9261 -1.4253 -1.2999
 9271SOL     OW39445   2.664   1.275   7.287  0.0270  0.2081 -0.1723
 9271SOL    HW139446   2.698   1.362   7.265 -0.8228  0.1226 -1.8455
 9271SOL    HW239447   2.621   1.242   7.208  0.6375  0.3271 -0.5572
 9272SOL     OW39448   2.580   2.779   8.688 -0.2195 -0.2976  0.2260
 9272SOL    HW139449   2.552   2.747   8.602 -0.5957  1.1961 -0.1952
 9272SOL    HW239450   2.591   2.693   8.728  0.8736  0.6594  1.9304
 9273SOL     OW39451   3.290   4.057   6.813  0.4017 -0.2715  0.2010
 9273SOL    HW139452   3.362   4.043   6.752 -0.5442  0.5596 -1.1178
 9273SOL    HW239453   3.235   3.981   6.793  0.1191  0.1303 -0.5893
 9274SOL     OW39454   1.284   3.850  13.869 -0.1149  0.1193 -0.6401
 9274SOL    HW139455   1.196   3.888  13.870  0.8229  2.2667 -0.5320
 9274SOL    HW239456   1.271   3.780  13.805  3.2446 -0.6727 -0.4689
 9275SOL     OW39457   4.734   1.926  11.372  0.5088 -0.3346 -0.1117
 9275SOL    HW139458   4.681   1.852  11.343 -0.3153 -0.9383  2.9403
 9275SOL    HW239459   0.023   1.970  11.290 -2.3365 -1.5625 -1.6386
 9276SOL     OW39460   0.944   4.549  13.945 -0.3244  0.8550 -0.7176
 9276SOL    HW139461   0.961   4.494  13.868 -0.5381 -0.5244  0.2197
 9276SOL    HW239462   0.895   4.621  13.906 -0.8425  1.3327  0.8128
 9277SOL     OW39463   0.916   4.517   1.993 -0.1360  0.1612  0.2736
 9277SOL    HW139464   0.951   4.606   1.992  0.5694 -0.1039  1.9601
 9277SOL    HW239465   0.984   4.462   2.030 -2.4057 -1.6519  1.7658
 9278SOL     OW39466   1.748   3.479  17.705  0.1163  0.7147  0.0911
 9278SOL    HW139467   1.653   3.473  17.695  0.1218  2.3688 -0.9771
 9278SOL    HW239468   1.759   3.395   0.007 -1.3647  0.3743 -0.1764
 9279SOL     OW39469   3.485   4.523   2.020  0.3332 -0.7800  0.0247
 9279SOL    HW139470   3.398   4.484   2.016 -0.4214  0.8472  0.5895
 9279SOL    HW239471   3.541   4.446   2.007  0.7624 -0.3321 -0.7896
 9280SOL     OW39472   0.119   2.034   5.437  0.1585 -0.1779 -0.3180
 9280SOL    HW139473   0.161   1.992   5.362 -1.8494 -1.6391 -0.6143
 9280SOL    HW239474   0.027   2.017   5.418  0.0569 -3.0370  2.8782
 9281SOL     OW39475   0.496   0.146   5.786  0.0124 -0.1296  0.2045
 9281SOL    HW139476   0.430   0.186   5.729 -1.3019  0.9551  2.4689
 9281SOL    HW239477   0.567   0.149   5.722 -0.6944 -0.9618 -0.6233
 9282SOL     OW39478   0.145   2.690   3.885  0.4499 -0.1067  0.1730
 9282SOL    HW139479   0.171   2.622   3.824 -0.3755  0.6220 -0.9900
 9282SOL    HW239480   0.232   2.697   3.926  0.5276 -2.3346  0.3876
 9283SOL     OW39481   4.279   1.960  10.656  0.3401  0.2171 -0.1822
 9283SOL    HW139482   4.298   1.942  10.748 -0.4341  0.5985  0.0448
 9283SOL    HW239483   4.213   1.891  10.652  0.6762 -0.0946 -0.4234
 9284SOL     OW39484   4.520   1.590   6.392  0.1427  0.6614 -0.1997
 9284SOL    HW139485   4.583   1.612   6.460 -0.0161 -0.2166  0.2281
 9284SOL    HW239486   4.565   1.517   6.350 -1.6282 -0.9098  0.6206
 9285SOL     OW39487   1.183   0.655  17.019 -0.5498 -0.1644  0.4139
 9285SOL    HW139488   1.203   0.709  16.943 -2.4434  1.6694  1.2129
 9285SOL    HW239489   1.232   0.574  17.005 -0.5441 -0.1872  0.5684
 9286SOL     OW39490   2.426   4.392   4.001 -0.3121  0.0559  0.5090
 9286SOL    HW139491   2.419   4.371   3.908  0.9039 -0.3760  0.5206
 9286SOL    HW239492   2.457   4.309   4.035  1.8402 -0.2012 -2.0640
 9287SOL     OW39493   4.588   0.627   0.017 -0.0958  0.1617 -0.4300
 9287SOL    HW139494   4.518   0.568   0.046 -1.1344  1.8283  0.4643
 9287SOL    HW239495   4.659   0.587   0.066  1.1042  0.7460 -1.7171
 9288SOL     OW39496   2.506   0.387   9.191 -0.2644  0.3613  0.2908
 9288SOL    HW139497   2.601   0.400   9.192 -0.3106  0.8015 -0.3525
 9288SOL    HW239498   2.483   0.478   9.171 -2.0249  0.3574  2.3988
 9289SOL     OW39499   3.182   1.551  11.989  0.2068 -0.0716  0.0169
 9289SOL    HW139500   3.193   1.630  12.041 -0.8224 -0.4747  0.8594
 9289SOL    HW239501   3.133   1.592  11.918 -0.8668  0.8740  1.3101
 9290SOL     OW39502   3.849   2.847   5.453  0.4424  0.0042 -0.0673
 9290SOL    HW139503   3.925   2.790   5.452  1.5370  1.4670 -0.3022
 9290SOL    HW239504   3.808   2.832   5.367  0.9242 -0.9249 -0.1297
 9291SOL     OW39505   2.746   4.402   3.889  0.1898 -0.3931 -0.3081
 9291SOL    HW139506   2.813   4.470   3.890  0.2403 -0.4326 -0.8543
 9291SOL    HW239507   2.795   4.338   3.941  1.1836  0.6745  0.0546
 9292SOL     OW39508   2.403   0.176   6.381  0.2900 -0.5671 -0.3117
 9292SOL    HW139509   2.426   0.228   6.304  2.2947 -1.9124 -0.6359
 9292SOL    HW239510   2.320   0.147   6.345  0.0004 -1.4894  1.0784
 9293SOL     OW39511   0.224   1.953  10.944  0.2144 -0.2143 -0.1307
 9293SOL    HW139512   0.246   1.867  10.980 -0.2678 -0.0056  0.6754
 9293SOL    HW239513   0.131   1.944  10.925  0.5426 -1.1484 -1.2632
 9294SOL     OW39514   3.204   4.494  13.588 -0.0554  0.2776 -1.1084
 9294SOL    HW139515   3.171   4.464  13.673  2.2051  0.6192 -0.0944
 9294SOL    HW239516   3.175   4.417  13.540 -0.5323 -0.8508  0.9916
 9295SOL     OW39517   0.983   4.389   2.560  0.7242  0.0398 -0.0579
 9295SOL    HW139518   1.073   4.407   2.533  0.7374 -1.2050 -0.8226
 9295SOL    HW239519   0.924   4.391   2.484  0.8126  0.7886 -0.1104
 9296SOL     OW39520   2.595   3.354   9.688 -0.4711 -0.2382 -0.0491
 9296SOL    HW139521   2.503   3.335   9.705 -1.0404  2.1447 -0.4197
 9296SOL    HW239522   2.603   3.421   9.756 -0.3387 -1.1466  0.8363
 9297SOL     OW39523   1.346   4.376   5.700  0.6912  0.3403  0.4360
 9297SOL    HW139524   1.335   4.418   5.615 -1.0809 -0.4401  0.2801
 9297SOL    HW239525   1.274   4.314   5.690  0.7754 -0.0533  2.3570
 9298SOL     OW39526   1.575   4.488  14.478  0.1434 -0.6893 -0.1369
 9298SOL    HW139527   1.524   4.562  14.510  2.6588  0.5825  0.9866
 9298SOL    HW239528   1.571   4.494  14.383  1.5299  0.1332 -0.1496
 9299SOL     OW39529   2.358   2.191   8.259  0.0311 -0.1876 -0.6397
 9299SOL    HW139530   2.320   2.165   8.342 -1.5336 -2.3441 -2.0379
 9299SOL    HW239531   2.375   2.282   8.284 -0.2371 -0.5508  0.8660
 9300SOL     OW39532   0.976   3.139  16.138 -0.2151  0.1775  0.2088
 9300SOL    HW139533   0.959   3.225  16.176 -0.0117  0.5740 -0.6147
 9300SOL    HW239534   1.054   3.150  16.084 -0.6673 -2.6050 -1.0550
 9301SOL     OW39535   4.732   2.254   1.014  0.2232 -0.4050 -0.0468
 9301SOL    HW139536   4.697   2.311   1.082 -0.8779  0.3673 -1.2418
 9301SOL    HW239537   4.689   2.288   0.935 -1.1328 -1.3466  0.2895
 9302SOL     OW39538   0.645   1.976   9.166 -0.1297  0.1134  0.1230
 9302SOL    HW139539   0.607   2.025   9.238 -0.2853 -2.4131  1.7329
 9302SOL    HW239540   0.697   1.919   9.223 -1.8165 -1.0033  0.5374
 9303SOL     OW39541   3.615   3.616  13.482 -1.0214 -0.2846 -0.2254
 9303SOL    HW139542   3.535   3.647  13.440 -1.3332 -1.0848 -0.2276
 9303SOL    HW239543   3.675   3.682  13.448  0.8365 -0.1507  3.3205
 9304SOL     OW39544   3.509   0.069   3.710  0.4802  0.3266  0.4685
 9304SOL    HW139545   3.501   0.025   3.625  0.4319 -0.9526  1.1247
 9304SOL    HW239546   3.439   0.134   3.708 -0.8726 -1.1192  0.8819
 9305SOL     OW39547   4.175   1.375  15.497  0.6200 -0.0072  0.2012
 9305SOL    HW139548   4.200   1.326  15.575 -1.9204 -0.4108  0.7646
 9305SOL    HW239549   4.255   1.428  15.501  1.5247 -1.3372 -0.3433
 9306SOL     OW39550   1.603   1.640  11.431  0.4028 -0.1192  0.0292
 9306SOL    HW139551   1.693   1.641  11.465  1.6657  2.0522 -3.4256
 9306SOL    HW239552   1.618   1.618  11.340  0.3260 -0.5521  0.1247
 9307SOL     OW39553   2.715   3.470  16.706 -0.1138  0.2919  0.4554
 9307SOL    HW139554   2.752   3.389  16.743  1.8439  0.9254 -0.1706
 9307SOL    HW239555   2.762   3.532  16.762  1.1856 -1.5364  1.3995
 9308SOL     OW39556   2.669   0.210   3.273  0.1288 -0.0497  0.4706
 9308SOL    HW139557   2.575   0.212   3.291 -0.4928  1.3277 -2.9166
 9308SOL    HW239558   2.695   0.300   3.295 -1.8783 -0.3189  4.0088
 9309SOL     OW39559   3.829   0.618   4.865  0.3590 -0.1837  0.0860
 9309SOL    HW139560   3.845   0.682   4.934 -2.8087 -0.5046  1.1571
 9309SOL    HW239561   3.865   0.544   4.915 -0.2387 -0.9770 -0.6395
 9310SOL     OW39562   0.124   0.568   1.820  0.0970  0.1861  0.0432
 9310SOL    HW139563   0.151   0.503   1.885 -0.3928  2.0970  2.1553
 9310SOL    HW239564   0.076   0.516   1.756 -1.5786  1.0894  0.5541
 9311SOL     OW39565   3.709   1.651   7.376 -0.1097 -0.1571  0.4154
 9311SOL    HW139566   3.783   1.643   7.436  0.7052  0.6562 -0.4721
 9311SOL    HW239567   3.637   1.646   7.439  0.1580 -1.7606  0.6024
 9312SOL     OW39568   0.849   2.309   6.103 -0.1556  0.1568 -0.6261
 9312SOL    HW139569   0.777   2.260   6.063 -0.5015  1.5524 -1.7389
 9312SOL    HW239570   0.901   2.237   6.137  2.0252  1.1992 -1.7123
 9313SOL     OW39571   0.437   1.098   9.272  0.4043  0.3373  0.2270
 9313SOL    HW139572   0.527   1.075   9.293  1.2216 -0.2618 -4.0746
 9313SOL    HW239573   0.424   1.171   9.332 -0.9548  1.0904 -0.9773
 9314SOL     OW39574   1.837   2.708   5.317 -0.2927  0.2970 -0.3968
 9314SOL    HW139575   1.848   2.730   5.410 -0.9981  1.1142 -0.5084
 9314SOL    HW239576   1.750   2.669   5.315 -0.6526  1.1290 -1.0965
 9315SOL     OW39577   0.932   4.159   2.053  0.0068 -0.2773  0.6280
 9315SOL    HW139578   0.972   4.231   2.101  0.1081  3.0392 -4.4199
 9315SOL    HW239579   0.987   4.140   1.976 -0.4527 -0.7315  0.4109
 9316SOL     OW39580   0.039   1.511   2.800 -0.2566  0.3836 -0.1333
 9316SOL    HW139581   0.065   1.560   2.878  2.8855  0.8627 -1.4669
 9316SOL    HW239582   0.026   1.585   2.741 -0.1767  1.4456  1.1726
 9317SOL     OW39583   2.405   1.579   8.644  0.0341 -0.3404  0.9200
 9317SOL    HW139584   2.467   1.583   8.717  1.5755 -1.1168 -0.3263
 9317SOL    HW239585   2.416   1.663   8.600 -0.3836 -1.0596 -0.5682
 9318SOL     OW39586   1.849   1.840   3.501  0.0081 -0.1785  0.1390
 9318SOL    HW139587   1.771   1.873   3.457  0.1951  0.2517  0.1256
 9318SOL    HW239588   1.896   1.821   3.420  0.1820 -0.4142  0.2973
 9319SOL     OW39589   0.783   3.000   5.140  0.2386  1.2384 -0.0021
 9319SOL    HW139590   0.814   2.915   5.171 -0.1502  0.5724 -1.4438
 9319SOL    HW239591   0.756   2.980   5.050 -0.2976 -0.3038  0.5015
 9320SOL     OW39592   3.128   0.805   6.124  0.2448  0.1899  0.2426
 9320SOL    HW139593   3.213   0.848   6.124  0.5403 -0.3785  1.8346
 9320SOL    HW239594   3.127   0.764   6.211 -2.1793  0.5920  0.4212
 9321SOL     OW39595   1.094   1.476   3.236  0.6513  0.5180 -0.1677
 9321SOL    HW139596   1.097   1.390   3.278 -0.4284  1.0892  1.0881
 9321SOL    HW239597   1.188   1.483   3.224  0.7738  0.2539  0.6363
 9322SOL     OW39598   4.159   1.144   4.334  0.0335 -0.0050  0.6620
 9322SOL    HW139599   4.116   1.226   4.360  0.8206  1.3484 -2.3974
 9322SOL    HW239600   4.085   1.107   4.287  0.3847 -0.7545  0.7019
 9323SOL     OW39601   3.273   2.104   4.461 -0.0124 -0.0613 -0.4367
 9323SOL    HW139602   3.366   2.121   4.468 -0.2935  1.6275 -0.8935
 9323SOL    HW239603   3.265   2.023   4.411 -0.5149  0.4074 -1.1088
 9324SOL     OW39604   3.021   1.532   7.872  0.4535  0.2145  0.2289
 9324SOL    HW139605   3.013   1.590   7.797 -2.4120  1.7183  1.7206
 9324SOL    HW239606   3.047   1.594   7.941  1.7802 -0.9720  0.8132
 9325SOL     OW39607   3.578   0.327   7.862  0.1904 -0.1039  0.4805
 9325SOL    HW139608   3.517   0.400   7.858 -1.9728 -1.8200  1.9914
 9325SOL    HW239609   3.519   0.261   7.898  0.4702 -0.0137  1.1235
 9326SOL     OW39610   0.317   3.359  15.281 -0.1918 -0.1044 -0.0250
 9326SOL    HW139611   0.358   3.430  15.232 -2.8132  1.1113 -0.4774
 9326SOL    HW239612   0.313   3.408  15.363  2.3008 -0.0072  0.0243
 9327SOL     OW39613   1.101   0.333  16.787  0.0582 -0.1340  0.6529
 9327SOL    HW139614   1.126   0.359  16.698  0.2699 -0.7967  0.5207
 9327SOL    HW239615   1.171   0.378  16.835  0.3988 -1.2773  1.2203
 9328SOL     OW39616   4.313   4.359  11.115  0.3050  0.3173 -0.1907
 9328SOL    HW139617   4.284   4.449  11.130  0.8022  0.1302  1.8750
 9328SOL    HW239618   4.331   4.329  11.204 -0.3321 -0.2093 -0.2433
 9329SOL     OW39619   4.393   3.199   9.798  0.1161  0.3613 -0.1629
 9329SOL    HW139620   4.404   3.274   9.740  2.7534  1.2406  1.4837
 9329SOL    HW239621   4.486   3.188   9.820  0.2155 -0.2431 -0.8597
 9330SOL     OW39622   4.110   0.229   1.391 -0.6504 -0.2615  0.0443
 9330SOL    HW139623   4.169   0.304   1.396  0.1591 -0.8737 -0.2590
 9330SOL    HW239624   4.163   0.161   1.351  0.2795  1.2871 -1.3318
 9331SOL     OW39625   2.128   4.070   1.333  0.3205 -0.4004  0.0646
 9331SOL    HW139626   2.134   4.016   1.254 -0.0766 -0.0985 -0.1737
 9331SOL    HW239627   2.219   4.094   1.348  0.1744 -0.1331  0.5169
 9332SOL     OW39628   2.164   1.602  10.525 -0.0311 -0.0109 -0.3591
 9332SOL    HW139629   2.131   1.553  10.450  0.3435 -0.7816 -0.0253
 9332SOL    HW239630   2.170   1.519  10.573  0.2440 -1.4090 -2.7895
 9333SOL     OW39631   2.833   1.495  10.588 -0.1003  0.1475 -0.3171
 9333SOL    HW139632   2.886   1.529  10.516 -1.0160  0.2807 -0.9256
 9333SOL    HW239633   2.836   1.405  10.556 -0.3237 -0.2328  0.7420
 9334SOL     OW39634   1.967   2.524   5.857 -0.3540 -0.5223  0.7383
 9334SOL    HW139635   2.044   2.564   5.816 -1.6796  0.8734 -0.3887
 9334SOL    HW239636   1.935   2.466   5.788  1.6477  0.5721 -1.1037
 9335SOL     OW39637   2.056   2.196  12.552  0.0826 -1.0766  0.2059
 9335SOL    HW139638   2.005   2.115  12.558  0.1438 -1.1366 -0.0801
 9335SOL    HW239639   2.142   2.158  12.568  0.2104 -1.0624 -0.4703
 9336SOL     OW39640   0.792   4.411   6.709  1.1344  0.1055 -0.5022
 9336SOL    HW139641   0.794   4.325   6.667  0.9625  1.2040 -2.7613
 9336SOL    HW239642   0.734   4.396   6.784  3.0880  1.3850  1.2537
 9337SOL     OW39643   0.719   3.091  10.193 -0.0946 -0.0079 -0.5654
 9337SOL    HW139644   0.735   3.050  10.108  1.9567  0.6522 -0.4845
 9337SOL    HW239645   0.807   3.108  10.225 -0.0948 -0.1108 -0.5081
 9338SOL     OW39646   4.190   1.495   2.249 -0.1203 -0.0040 -0.2349
 9338SOL    HW139647   4.221   1.540   2.170 -1.2592 -0.9079 -1.1915
 9338SOL    HW239648   4.244   1.547   2.308  1.2094 -3.1708  1.3284
 9339SOL     OW39649   1.693   2.711   0.466 -0.3943 -0.3296  0.4212
 9339SOL    HW139650   1.713   2.773   0.536 -4.2629 -0.3711  1.5274
 9339SOL    HW239651   1.743   2.742   0.391  1.5262 -3.0473  0.5549
 9340SOL     OW39652   2.421   4.500   7.474  0.2374 -0.1982 -0.1766
 9340SOL    HW139653   2.416   4.592   7.447  0.5520 -0.3235 -0.6654
 9340SOL    HW239654   2.454   4.516   7.562  1.7748  0.5103 -0.8829
 9341SOL     OW39655   1.877   3.255   7.667  0.3273 -0.4307 -0.0909
 9341SOL    HW139656   1.966   3.278   7.639  0.3325 -0.7218 -0.3150
 9341SOL    HW239657   1.829   3.338   7.665 -0.8035 -1.0964 -0.5846
 9342SOL     OW39658   0.504   3.282   6.628  0.0140 -0.1314 -0.3162
 9342SOL    HW139659   0.554   3.362   6.645  0.7793 -0.0642 -2.8886
 9342SOL    HW239660   0.418   3.313   6.655 -0.0150 -1.1244  0.7523
 9343SOL     OW39661   2.363   3.663   3.287  0.1648  0.2295  0.4454
 9343SOL    HW139662   2.438   3.612   3.257 -0.3020  0.7482 -1.5896
 9343SOL    HW239663   2.344   3.607   3.363  1.5563 -0.0731  0.5674
 9344SOL     OW39664   2.239   4.042   7.622  0.0931  0.2764  0.4445
 9344SOL    HW139665   2.243   3.949   7.601  0.3735  0.9561 -2.5531
 9344SOL    HW239666   2.172   4.049   7.690  0.5914 -0.1856  0.9857
 9345SOL     OW39667   0.083   3.696   8.616  0.0364  0.1855  0.6208
 9345SOL    HW139668   0.042   3.752   8.683 -0.2917 -0.6441  1.1090
 9345SOL    HW239669   0.117   3.762   8.556  0.1464 -1.3226 -0.9555
 9346SOL     OW39670   2.772   2.139   2.105  0.2384  0.7855 -0.2823
 9346SOL    HW139671   2.798   2.048   2.121 -0.6486  0.2399 -1.9128
 9346SOL    HW239672   2.714   2.147   2.181  1.0312  1.7325  0.2264
 9347SOL     OW39673   0.682   1.519   5.876 -0.1194  0.3103 -0.3119
 9347SOL    HW139674   0.590   1.540   5.889 -0.4344 -1.4797  0.2491
 9347SOL    HW239675   0.675   1.439   5.825 -1.1066  1.2007 -1.5722
 9348SOL     OW39676   0.621   0.129   8.195  0.2804 -0.1541  0.8537
 9348SOL    HW139677   0.529   0.110   8.213  0.0417 -1.7145 -1.8757
 9348SOL    HW239678   0.619   0.209   8.143  0.1384 -0.3050  0.6258
 9349SOL     OW39679   4.451   1.489  12.681  0.9505  0.1286 -0.2768
 9349SOL    HW139680   4.520   1.446  12.732  1.9728  2.4787  0.3210
 9349SOL    HW239681   4.487   1.468  12.595 -1.7640 -1.9433 -0.9308
 9350SOL     OW39682   0.750   1.101   3.139 -0.0258 -0.6482  0.3512
 9350SOL    HW139683   0.839   1.066   3.134 -0.8358 -3.1026  2.8738
 9350SOL    HW239684   0.710   1.024   3.180  0.5061 -0.7568  0.6590
 9351SOL     OW39685   2.738   2.953   3.628 -0.7001  0.6429  0.1172
 9351SOL    HW139686   2.760   3.034   3.583 -0.4629 -1.1516 -2.9844
 9351SOL    HW239687   2.816   2.922   3.673 -0.0520  0.1712 -1.3472
 9352SOL     OW39688   1.845   2.105   3.125 -0.0540 -0.1156 -0.3468
 9352SOL    HW139689   1.761   2.072   3.092 -0.7908 -0.2164  1.6168
 9352SOL    HW239690   1.897   2.118   3.046 -1.6338  0.7895 -1.2468
 9353SOL     OW39691   0.007   2.607   3.082 -0.3737  0.0218  0.4829
 9353SOL    HW139692   0.088   2.652   3.107 -1.7315  1.2906  2.6695
 9353SOL    HW239693   4.671   2.646   3.132  0.2867 -0.6188  1.9272
 9354SOL     OW39694   0.637   2.255   8.941 -0.4970 -0.3859 -0.5702
 9354SOL    HW139695   0.719   2.270   8.988 -0.9638  2.4300 -0.6350
 9354SOL    HW239696   0.617   2.164   8.963  1.0174 -0.6053 -0.1004
 9355SOL     OW39697   3.907   4.053  10.476 -0.5162  0.5572  0.3351
 9355SOL    HW139698   3.911   4.023  10.386  1.6392  0.7835  0.3465
 9355SOL    HW239699   3.942   3.977  10.522  0.9382  1.9102  1.4761
 9356SOL     OW39700   1.637   3.293  12.572  0.5461  0.3244 -0.1561
 9356SOL    HW139701   1.697   3.220  12.579  0.2239 -0.0167 -1.0286
 9356SOL    HW239702   1.596   3.297  12.659 -0.8982 -0.1695 -0.8092
 9357SOL     OW39703   4.682   4.491   4.779  0.0403 -0.2597  0.4964
 9357SOL    HW139704   4.655   4.468   4.690 -0.2162  3.5004 -0.4163
 9357SOL    HW239705   0.016   4.552   4.758  0.3131 -0.1735  1.6534
 9358SOL     OW39706   1.380   1.410   2.510 -0.1289 -0.1421  0.1315
 9358SOL    HW139707   1.304   1.446   2.555 -0.3242 -3.1949  2.3008
 9358SOL    HW239708   1.338   1.395   2.425 -0.2717  0.8730  0.0291
 9359SOL     OW39709   0.593   2.354   5.614  0.3216  0.3185 -0.1475
 9359SOL    HW139710   0.554   2.302   5.543 -0.1004  1.5588 -0.8438
 9359SOL    HW239711   0.662   2.294   5.639 -1.5734 -0.9765  1.9576
 9360SOL     OW39712   3.510   0.024  11.263 -0.2268  0.7241 -0.3613
 9360SOL    HW139713   3.501   4.691  11.198  0.5295 -0.4694  0.8036
 9360SOL    HW239714   3.543   0.091  11.203  1.8878  1.8711  2.0854
 9361SOL     OW39715   3.293   1.634   2.851  1.0870 -0.6890  0.0323
 9361SOL    HW139716   3.219   1.653   2.793  0.6650 -1.7087  0.2466
 9361SOL    HW239717   3.263   1.549   2.882  0.1346 -0.2496  0.3406
 9362SOL     OW39718   3.033   0.689  14.123 -0.0688 -0.4460 -0.7207
 9362SOL    HW139719   3.026   0.595  14.105  0.0715 -0.4107 -0.9657
 9362SOL    HW239720   2.972   0.706  14.052 -0.2324  0.4161 -0.3700
 9363SOL     OW39721   0.266   3.398   6.699 -0.4990  0.1464 -0.0564
 9363SOL    HW139722   0.182   3.361   6.670 -0.3609 -2.3561  2.7865
 9363SOL    HW239723   0.255   3.493   6.697 -2.9285 -0.0839  3.0626
 9364SOL     OW39724   0.476   4.207  17.006  1.1556 -0.0115  0.3997
 9364SOL    HW139725   0.520   4.142  17.061  1.3488  1.0497  1.4848
 9364SOL    HW239726   0.463   4.160  16.923 -0.1590 -2.3162  1.9026
 9365SOL     OW39727   2.171   3.341   2.547  0.3702  0.3121 -0.4471
 9365SOL    HW139728   2.221   3.274   2.594 -0.4803 -0.3670 -0.5119
 9365SOL    HW239729   2.105   3.366   2.612 -1.9924  0.0714 -2.7594
 9366SOL     OW39730   1.274   1.731  16.969 -0.3467 -0.0258  0.7097
 9366SOL    HW139731   1.291   1.637  16.962  1.3572  0.2883  0.6347
 9366SOL    HW239732   1.257   1.737  17.063 -0.8427 -0.2397  0.6298
 9367SOL     OW39733   1.763   1.561  15.981 -0.9871 -0.5011  0.1885
 9367SOL    HW139734   1.688   1.542  15.926  0.5757 -2.1394 -1.3871
 9367SOL    HW239735   1.830   1.578  15.914 -1.6572 -1.9159 -0.8356
 9368SOL     OW39736   3.198   2.234   8.785 -0.0136  0.1237  0.3543
 9368SOL    HW139737   3.128   2.240   8.851  2.4794 -1.4222  3.1449
 9368SOL    HW239738   3.280   2.226   8.833  0.7919  1.1217 -0.8626
 9369SOL     OW39739   4.661   3.710   1.299 -0.7847 -0.3513 -0.5713
 9369SOL    HW139740   4.657   3.671   1.211 -3.6385  0.9613 -0.9930
 9369SOL    HW239741   4.605   3.655   1.353  1.2702 -1.8147  0.0688
 9370SOL     OW39742   1.405   0.188   7.824 -0.7233 -0.4728 -0.0797
 9370SOL    HW139743   1.369   0.182   7.912 -0.5114  3.1913  0.2590
 9370SOL    HW239744   1.461   0.110   7.817  0.2875  0.4572 -2.3936
 9371SOL     OW39745   0.999   4.311  14.599  0.0681 -0.3762  0.2699
 9371SOL    HW139746   1.017   4.301  14.505 -3.1568  0.0223 -0.4104
 9371SOL    HW239747   0.909   4.279  14.604 -0.0029 -0.3986 -1.0452
 9372SOL     OW39748   0.379   4.204   4.365  0.1237 -0.2087 -0.4151
 9372SOL    HW139749   0.341   4.218   4.452  4.3353  2.0647  1.0389
 9372SOL    HW239750   0.338   4.280   4.323 -3.8020 -1.8386  0.4643
 9373SOL     OW39751   0.256   0.599  10.450  0.1827  0.0580 -0.0386
 9373SOL    HW139752   0.206   0.679  10.432  1.2595  0.9190  0.8285
 9373SOL    HW239753   0.340   0.645  10.443  1.5569 -2.4614  0.1907
 9374SOL     OW39754   4.497   4.143  10.820 -0.1223  0.7957  0.4504
 9374SOL    HW139755   4.467   4.203  10.752 -0.2575  0.0434 -0.1476
 9374SOL    HW239756   4.547   4.081  10.767 -0.5088 -0.3048  1.3504
 9375SOL     OW39757   2.779   0.964   4.221 -0.0705 -0.0475  0.1202
 9375SOL    HW139758   2.775   1.050   4.178 -3.0218 -1.3131 -2.1232
 9375SOL    HW239759   2.709   0.927   4.167  1.7647 -3.2479 -0.0606
 9376SOL     OW39760   0.129   3.999   9.697 -0.3197  0.1962 -0.4768
 9376SOL    HW139761   0.101   3.911   9.721  2.2651 -0.4869  0.1057
 9376SOL    HW239762   0.131   3.991   9.601 -1.2245  0.5627 -0.5249
 9377SOL     OW39763   4.240   0.784   2.891 -0.0604 -0.3429 -0.0404
 9377SOL    HW139764   4.209   0.744   2.972  0.1800 -1.3029 -0.4255
 9377SOL    HW239765   4.325   0.745   2.872 -1.2291 -1.7653 -2.3942
 9378SOL     OW39766   3.276   4.008   8.626 -0.4695 -0.3015  0.2889
 9378SOL    HW139767   3.289   3.923   8.584  0.3761 -0.4492  0.8520
 9378SOL    HW239768   3.350   4.052   8.585 -1.6838 -1.0711 -2.7394
 9379SOL     OW39769   3.174   4.498   7.049  0.3630  0.0708 -0.2953
 9379SOL    HW139770   3.206   4.469   6.964  0.1692  1.4571 -0.8311
 9379SOL    HW239771   3.112   4.426   7.061 -0.2435  0.5533 -0.5803
 9380SOL     OW39772   1.503   1.800  11.767  0.0006  0.7345 -0.1209
 9380SOL    HW139773   1.444   1.754  11.707 -1.6436 -0.3229  2.3464
 9380SOL    HW239774   1.480   1.890  11.744 -1.6207  0.2378 -0.4561
 9381SOL     OW39775   4.424   0.700   8.354  0.2547 -0.2942  0.1059
 9381SOL    HW139776   4.470   0.783   8.365  1.4190 -0.7801 -0.9503
 9381SOL    HW239777   4.336   0.736   8.361  1.0996  1.5460  1.2164
 9382SOL     OW39778   1.598   2.999  17.711  0.0725  0.3563  0.1299
 9382SOL    HW139779   1.534   3.061   0.005 -1.1806 -0.7271 -0.2085
 9382SOL    HW239780   1.614   3.037  17.625 -2.5648  1.0212 -0.0697
 9383SOL     OW39781   0.183   1.274   5.449  0.1728  0.3644  0.4409
 9383SOL    HW139782   0.142   1.264   5.535  0.9576 -2.3185  0.5123
 9383SOL    HW239783   0.269   1.299   5.480  0.2054  0.3770  0.3389
 9384SOL     OW39784   0.888   0.754  11.971  0.5082 -0.1689 -0.4446
 9384SOL    HW139785   0.927   0.668  11.983  0.1152 -0.1210  1.1463
 9384SOL    HW239786   0.897   0.771  11.877  1.2021 -1.1703 -0.5451
 9385SOL     OW39787   1.165   3.025  10.693 -0.5860  0.0944 -0.0864
 9385SOL    HW139788   1.231   3.094  10.682 -2.6087  1.9644 -0.4738
 9385SOL    HW239789   1.224   2.962  10.735  0.8486  0.1679 -2.0062
 9386SOL     OW39790   0.188   1.295   4.746  0.5865  0.4271  0.0441
 9386SOL    HW139791   0.156   1.244   4.672 -2.2329  1.8849  0.2422
 9386SOL    HW239792   0.274   1.260   4.769 -0.7006 -0.5709  3.4026
 9387SOL     OW39793   1.142   4.585   3.339  0.2271 -0.0314  0.2725
 9387SOL    HW139794   1.142   4.570   3.434  1.7387 -1.3293  0.0637
 9387SOL    HW239795   1.055   4.624   3.329 -0.0285 -0.9816 -1.0990
 9388SOL     OW39796   3.745   0.574   3.147 -0.0269 -0.4635  0.3002
 9388SOL    HW139797   3.776   0.484   3.151 -0.2818 -0.5516  0.3022
 9388SOL    HW239798   3.652   0.557   3.131 -0.5805  0.1351  2.8858
 9389SOL     OW39799   3.226   3.942   1.888  0.6564 -0.2717 -0.5202
 9389SOL    HW139800   3.198   3.975   1.803 -0.7005  0.7538  0.3307
 9389SOL    HW239801   3.216   3.848   1.875  0.8373 -0.2030 -1.1707
 9390SOL     OW39802   3.321   2.325   3.980  0.3741  0.0083 -0.5467
 9390SOL    HW139803   3.262   2.251   3.965 -2.4883  2.2510 -0.5585
 9390SOL    HW239804   3.270   2.396   3.940  0.9303 -0.6692 -2.4555
 9391SOL     OW39805   3.832   2.340   4.312 -0.2640  0.3427 -0.0497
 9391SOL    HW139806   3.899   2.335   4.380 -1.8822  3.2043  1.7340
 9391SOL    HW239807   3.809   2.247   4.314  2.6466 -0.3928 -0.0441
 9392SOL     OW39808   3.802   2.324   0.594  0.2073  0.1789 -0.7720
 9392SOL    HW139809   3.876   2.264   0.584  0.7858  1.0284 -1.6292
 9392SOL    HW239810   3.755   2.295   0.672 -2.3234 -0.3890 -2.5191
 9393SOL     OW39811   0.667   2.003  14.912 -0.3082 -0.3015 -0.0857
 9393SOL    HW139812   0.616   2.082  14.933  1.0645  0.1027  1.6823
 9393SOL    HW239813   0.711   2.023  14.829  1.0377  0.2128  0.7617
 9394SOL     OW39814   2.923   4.243   5.457  0.2801  0.4072  0.1258
 9394SOL    HW139815   3.010   4.213   5.429 -0.0669 -0.0291 -0.4818
 9394SOL    HW239816   2.924   4.205   5.545 -2.7272  0.8161  0.3343
 9395SOL     OW39817   2.540   4.163   0.261  0.3904  0.5048  0.1411
 9395SOL    HW139818   2.478   4.134   0.329  1.8782  0.0469  1.2956
 9395SOL    HW239819   2.577   4.245   0.293  0.6461  0.7194 -0.7244
 9396SOL     OW39820   1.092   4.263   6.526 -0.0668 -0.1558  0.3594
 9396SOL    HW139821   1.136   4.340   6.491  0.6159 -0.9655 -0.5553
 9396SOL    HW239822   1.158   4.244   6.593  1.5082  1.0835 -0.8486
 9397SOL     OW39823   4.371   2.665   7.566  0.4770 -0.1554  0.0286
 9397SOL    HW139824   4.362   2.570   7.572 -1.5536  0.0932  0.9491
 9397SOL    HW239825   4.463   2.688   7.582  0.5481  0.0116 -0.6213
 9398SOL     OW39826   3.596   1.967   9.943 -0.5222  0.1674  0.0573
 9398SOL    HW139827   3.627   2.042   9.995 -0.3785 -0.4819  0.9032
 9398SOL    HW239828   3.607   1.894  10.003  2.3124  0.6699  0.1379
 9399SOL     OW39829   0.773   3.412   5.012 -0.1084 -0.5659  0.2621
 9399SOL    HW139830   0.800   3.489   5.062  1.2866 -1.1623  0.4112
 9399SOL    HW239831   0.848   3.376   4.965  0.2640 -0.9029  1.1137
 9400SOL     OW39832   2.437   3.818  14.671  0.5480 -0.4684  0.2119
 9400SOL    HW139833   2.426   3.907  14.704 -1.3331 -0.2394 -0.9771
 9400SOL    HW239834   2.532   3.823  14.668  0.5465  0.5368  1.9247
 9401SOL     OW39835   3.590   0.207   5.016 -0.0586 -0.0777 -0.2242
 9401SOL    HW139836   3.672   0.161   5.032  0.4711  0.7856 -0.4260
 9401SOL    HW239837   3.544   0.177   5.094  2.1111  0.5420  1.2974
 9402SOL     OW39838   4.102   3.946   1.493 -0.4080  0.5908  0.5957
 9402SOL    HW139839   4.060   4.021   1.450  0.9273  1.0859  0.1729
 9402SOL    HW239840   4.193   3.944   1.465 -0.1442 -0.2080  1.5269
 9403SOL     OW39841   4.562   0.742  17.449 -0.3455 -0.5840  0.3817
 9403SOL    HW139842   4.652   0.757  17.418 -0.2444 -2.2437 -0.1346
 9403SOL    HW239843   4.556   0.647  17.441 -2.4311 -0.4744  0.7966
 9404SOL     OW39844   3.980   1.047   1.772  0.6724 -0.4382 -0.0579
 9404SOL    HW139845   3.970   0.965   1.725  1.3906 -0.4666 -0.1710
 9404SOL    HW239846   3.984   1.121   1.711 -2.2753  1.0913  1.6003
 9405SOL     OW39847   4.286   4.037  13.703 -0.3590 -0.3786  0.4028
 9405SOL    HW139848   4.234   3.970  13.747 -0.8872 -0.4994 -0.4075
 9405SOL    HW239849   4.225   4.074  13.640 -2.4822  0.0013  2.6632
 9406SOL     OW39850   2.141   4.260   2.087  0.1982  0.6772  0.0472
 9406SOL    HW139851   2.053   4.259   2.126 -0.2072  1.3351 -0.8492
 9406SOL    HW239852   2.144   4.182   2.031 -0.7839  1.0360 -0.4982
 9407SOL     OW39853   0.593   4.679  13.582  0.7265 -0.3610  0.9116
 9407SOL    HW139854   0.518   4.620  13.588  0.2959  0.3555  2.5042
 9407SOL    HW239855   0.558   0.032  13.574 -0.3812 -0.9372 -0.7477
 9408SOL     OW39856   1.310   1.685   7.554 -1.0589 -0.1948 -0.0582
 9408SOL    HW139857   1.322   1.703   7.647 -0.2408 -0.4238 -0.1165
 9408SOL    HW239858   1.400   1.687   7.521 -0.8319  0.7207  0.6175
 9409SOL     OW39859   2.671   2.715   3.511  0.0068 -0.3866  1.2381
 9409SOL    HW139860   2.700   2.786   3.569 -2.5024  1.3045  0.4161
 9409SOL    HW239861   2.625   2.658   3.572 -3.4384 -0.6423 -1.6119
 9410SOL     OW39862   4.280   1.125  12.812 -0.7946 -0.1271 -0.3056
 9410SOL    HW139863   4.210   1.170  12.766  1.5130  4.2153  0.3987
 9410SOL    HW239864   4.226   1.071  12.870 -2.3122  1.6096 -0.0888
 9411SOL     OW39865   4.286   1.233   6.997  0.1221  0.1610  0.2745
 9411SOL    HW139866   4.214   1.178   6.966 -1.4131  1.7960  0.9086
 9411SOL    HW239867   4.238   1.316   6.987  2.1563  1.1355 -1.2371
 9412SOL     OW39868   1.620   0.148  10.094  0.6383  0.2981 -0.1926
 9412SOL    HW139869   1.701   0.147  10.043  1.5890 -1.5640  1.3625
 9412SOL    HW239870   1.586   0.065  10.059  2.0659  0.4957 -2.0631
 9413SOL     OW39871   1.146   3.803   4.906 -0.1553 -0.0344 -0.2078
 9413SOL    HW139872   1.062   3.843   4.929 -0.5035 -0.5781 -0.5323
 9413SOL    HW239873   1.163   3.735   4.971  0.5066 -2.3169 -2.7696
 9414SOL     OW39874   3.456   2.427   1.851 -0.0101  0.5496  0.1896
 9414SOL    HW139875   3.467   2.517   1.820  0.2679  1.0162  1.6064
 9414SOL    HW239876   3.364   2.413   1.829 -0.0819  3.6318 -1.3939
 9415SOL     OW39877   4.091   1.670   2.836 -0.7192  0.6015 -0.0827
 9415SOL    HW139878   4.021   1.609   2.809 -0.3705  0.5863 -0.9739
 9415SOL    HW239879   4.040   1.747   2.861 -1.5277 -0.5707  1.8360
 9416SOL     OW39880   4.609   4.564   6.636  0.1057  0.1837  0.1491
 9416SOL    HW139881   4.637   4.478   6.669  0.2124  0.2657  0.2743
 9416SOL    HW239882   4.654   4.627   6.693 -1.1333  0.8571  0.3758
 9417SOL     OW39883   3.535   0.937   3.836 -0.1731  0.4796  0.0546
 9417SOL    HW139884   3.589   0.860   3.818  1.2174  1.3221  0.6234
 9417SOL    HW239885   3.594   1.011   3.822  2.5223 -1.8445 -0.9378
 9418SOL     OW39886   2.071   1.057  10.683 -0.0037  0.3380 -0.1552
 9418SOL    HW139887   2.161   1.024  10.677 -0.6607 -1.2955 -1.1276
 9418SOL    HW239888   2.041   1.017  10.765 -0.1988 -2.3239 -1.4985
 9419SOL     OW39889   2.253   1.582  15.645 -0.2320  0.5364 -0.2129
 9419SOL    HW139890   2.219   1.507  15.694  1.8671 -0.7260 -0.6738
 9419SOL    HW239891   2.343   1.564  15.616 -0.1798  0.3292  0.0800
 9420SOL     OW39892   0.143   4.487  11.582 -0.0983  0.3933  0.5215
 9420SOL    HW139893   0.191   4.454  11.658  1.2352  1.4067  0.1109
 9420SOL    HW239894   0.204   4.468  11.510  0.8740 -1.2570  1.7635
 9421SOL     OW39895   3.337   0.014  14.064 -0.1064 -0.8067 -0.1073
 9421SOL    HW139896   3.338   0.050  14.153  1.7297 -1.1911  0.0214
 9421SOL    HW239897   3.351   0.089  14.006 -0.6133  1.2123  2.3648
 9422SOL     OW39898   4.135   1.972   6.623  0.0391  0.6059 -0.3442
 9422SOL    HW139899   4.191   1.995   6.549  1.0216  0.8395  0.4672
 9422SOL    HW239900   4.200   1.930   6.679  2.5707  1.2905 -2.7744
 9423SOL     OW39901   0.831   1.416   6.768  0.8408  0.1052 -0.0913
 9423SOL    HW139902   0.926   1.422   6.754  0.9573 -1.1724  0.1921
 9423SOL    HW239903   0.827   1.454   6.856 -1.5337 -1.9639  0.6896
 9424SOL     OW39904   2.044   3.175   9.099  0.2312  0.3605 -0.2781
 9424SOL    HW139905   2.114   3.196   9.038  0.5976  2.5358  0.8862
 9424SOL    HW239906   1.971   3.205   9.045 -0.6401  0.6629  1.0642
 9425SOL     OW39907   3.795   0.830   2.403  0.3674 -0.4023 -0.0025
 9425SOL    HW139908   3.808   0.856   2.312 -0.4869  0.2601  0.0669
 9425SOL    HW239909   3.718   0.775   2.386 -0.3565  0.3155  1.0097
 9426SOL     OW39910   4.636   0.806   5.254  0.5739  0.7852  0.9248
 9426SOL    HW139911   4.559   0.862   5.264  1.3483  1.9459  0.3419
 9426SOL    HW239912   4.634   0.761   5.339 -3.1967 -0.4186  0.1843
 9427SOL     OW39913   0.429   2.665  15.698  0.2039 -0.5428 -0.0533
 9427SOL    HW139914   0.464   2.722  15.629 -1.9846  0.3928 -0.3829
 9427SOL    HW239915   0.471   2.711  15.771  1.0188 -0.7971 -0.3617
 9428SOL     OW39916   1.944   3.550   8.857  0.2562  0.3659  0.0664
 9428SOL    HW139917   1.930   3.474   8.800 -2.2126 -1.5231  3.1727
 9428SOL    HW239918   2.038   3.568   8.864  0.5217 -0.8613 -0.3778
 9429SOL     OW39919   1.837   0.836  14.152 -0.3319 -0.6766 -0.0513
 9429SOL    HW139920   1.930   0.818  14.169 -0.6114 -0.9897  1.1689
 9429SOL    HW239921   1.814   0.888  14.230  0.1868  1.0009 -1.0144
 9430SOL     OW39922   0.002   0.071   8.543 -0.3478 -0.3907  0.4959
 9430SOL    HW139923   0.024   0.034   8.458  2.6980  0.4606  0.9381
 9430SOL    HW239924   0.056   0.149   8.555 -1.6540  0.4420  1.0130
 9431SOL     OW39925   3.464   4.681   4.004  0.2930  0.0203  0.0082
 9431SOL    HW139926   3.468   0.038   3.984  2.1926  0.0371  0.4903
 9431SOL    HW239927   3.500   4.642   3.924 -0.0507 -0.6567  0.1783
 9432SOL     OW39928   3.837   0.246   1.300 -0.3506 -0.4659 -0.0765
 9432SOL    HW139929   3.859   0.318   1.241  1.4699  0.1367  1.3363
 9432SOL    HW239930   3.912   0.244   1.360 -2.9890 -1.0995  3.2420
 9433SOL     OW39931   3.768   4.686  11.359  0.4187  0.0152  0.7877
 9433SOL    HW139932   3.775   0.029  11.413  1.7438 -0.2037  0.9282
 9433SOL    HW239933   3.674   4.680  11.340  0.8521  2.7045 -2.2941
 9434SOL     OW39934   4.597   4.509   5.899  0.2502 -0.1683  0.0354
 9434SOL    HW139935   4.582   4.459   5.979  0.0650  2.3491  1.5745
 9434SOL    HW239936   4.550   4.459   5.833 -1.9252  3.4903 -1.2159
 9435SOL     OW39937   0.700   2.798   5.815 -0.1577 -0.0709 -0.2050
 9435SOL    HW139938   0.606   2.782   5.822 -0.2757  1.7128  2.1625
 9435SOL    HW239939   0.726   2.809   5.906  0.5413  0.4526 -0.4721
 9436SOL     OW39940   2.952   4.027   5.201 -0.0544 -0.2168  0.5065
 9436SOL    HW139941   3.018   3.970   5.240  1.0829  1.1471  0.6040
 9436SOL    HW239942   2.880   3.966   5.184 -0.1822  0.0723 -0.0215
 9437SOL     OW39943   4.226   0.557  10.648 -0.7352  0.2268 -0.3457
 9437SOL    HW139944   4.201   0.529  10.560 -1.8327  0.6371 -0.1585
 9437SOL    HW239945   4.293   0.490  10.662  0.2649  1.5943  1.5021
 9438SOL     OW39946   3.017   3.172  15.969 -0.1752  0.0055 -0.4780
 9438SOL    HW139947   2.959   3.233  16.015  0.0530 -1.2530  1.4408
 9438SOL    HW239948   2.970   3.159  15.886  1.9736 -0.6257 -1.5997
 9439SOL     OW39949   0.270   2.758   3.154 -0.0627 -0.3788 -0.2021
 9439SOL    HW139950   0.279   2.828   3.090 -0.6504  1.4313  1.6828
 9439SOL    HW239951   0.331   2.796   3.218 -0.5868 -0.9719  0.6570
 9440SOL     OW39952   0.211   0.168  13.974 -0.6382 -0.3910  0.6743
 9440SOL    HW139953   0.251   0.096  14.023 -0.9266 -0.3585  0.9484
 9440SOL    HW239954   0.159   0.210  14.042 -0.2621 -2.7266  2.3788
 9441SOL     OW39955   3.081   1.791   2.265 -0.4774  0.4888 -0.4785
 9441SOL    HW139956   3.142   1.731   2.223 -0.2855  0.1169  0.3311
 9441SOL    HW239957   3.127   1.787   2.349 -1.2936  1.2626  0.0135
 9442SOL     OW39958   4.719   1.713   8.492 -0.3067  0.4755  0.1329
 9442SOL    HW139959   4.700   1.708   8.586  0.8576 -0.4396  0.3167
 9442SOL    HW239960   4.659   1.787   8.481  2.4103  2.5898 -0.6276
 9443SOL     OW39961   2.453   1.997   9.266  0.3769 -0.0057  0.1396
 9443SOL    HW139962   2.498   2.060   9.322 -1.4063  0.7673  0.7069
 9443SOL    HW239963   2.482   2.028   9.180  0.3417 -1.7684 -0.5255
 9444SOL     OW39964   2.802   2.834   6.486 -0.0564  0.4075  0.8626
 9444SOL    HW139965   2.775   2.911   6.436 -2.7553 -2.0244 -1.4363
 9444SOL    HW239966   2.771   2.859   6.573 -1.0701  0.7011  0.4148
 9445SOL     OW39967   1.604   2.132   7.156  0.2416  0.0685 -0.1104
 9445SOL    HW139968   1.561   2.052   7.125  0.4782  0.3206 -1.0671
 9445SOL    HW239969   1.530   2.187   7.181 -0.0372  0.7536 -2.5162
 9446SOL     OW39970   4.621   4.061   4.719 -0.1228 -0.0860  0.1822
 9446SOL    HW139971   4.570   4.130   4.763 -0.6939 -0.0489 -0.5332
 9446SOL    HW239972   4.629   3.990   4.783  0.2373 -0.3185 -0.1229
 9447SOL     OW39973   1.515   4.383  16.407 -0.3959 -0.3090  0.2221
 9447SOL    HW139974   1.562   4.456  16.448 -4.0389  0.8414  2.3212
 9447SOL    HW239975   1.572   4.318  16.448 -1.8731 -1.8436 -0.1905
 9448SOL     OW39976   1.660   4.356   4.840 -0.0594 -0.1988 -0.2361
 9448SOL    HW139977   1.711   4.380   4.763  2.5749 -0.9786  1.2626
 9448SOL    HW239978   1.682   4.266   4.863  1.4769  0.7459  2.0474
 9449SOL     OW39979   0.052   2.829   5.955 -0.7677  0.0483  0.3781
 9449SOL    HW139980   0.121   2.875   5.907 -0.5435  2.3959  2.9566
 9449SOL    HW239981   0.101   2.803   6.033  0.3723  0.4782 -0.1883
 9450SOL     OW39982   2.393   3.863   7.146  0.3048 -0.2381 -0.6261
 9450SOL    HW139983   2.372   3.770   7.135 -0.6392  0.1945 -2.5225
 9450SOL    HW239984   2.462   3.851   7.211  1.1180 -2.9720 -1.9788
 9451SOL     OW39985   2.297   3.280   3.413  0.1271  0.1565 -0.7765
 9451SOL    HW139986   2.353   3.336   3.466  1.0266 -2.4224  1.0110
 9451SOL    HW239987   2.337   3.304   3.330  0.9351 -0.6765 -0.6315
 9452SOL     OW39988   3.996   0.172   3.005  0.3466 -0.0154 -0.3046
 9452SOL    HW139989   4.030   0.255   2.970 -0.0023  0.1761 -0.1951
 9452SOL    HW239990   3.991   0.140   2.915 -2.2607 -1.5717  0.3957
 9453SOL     OW39991   1.011   3.458   1.350 -0.1130  0.4908 -0.0900
 9453SOL    HW139992   0.973   3.545   1.339 -0.6903  0.3308  0.5796
 9453SOL    HW239993   1.004   3.424   1.261 -0.2481  1.6015 -0.5099
 9454SOL     OW39994   2.497   1.789   9.890  0.0150  0.1854  0.4581
 9454SOL    HW139995   2.554   1.760   9.962  1.0283  0.8121 -0.0861
 9454SOL    HW239996   2.548   1.780   9.809 -0.6933  1.9496 -0.1710
 9455SOL     OW39997   4.460   2.849   6.417  0.2978  0.2108 -0.2802
 9455SOL    HW139998   4.385   2.889   6.374 -0.9976 -0.4375  1.3648
 9455SOL    HW239999   4.425   2.824   6.503  2.2771  1.6602  0.9382
 9456SOL     OW40000   1.065   3.255   7.266  0.2790 -0.2624 -0.0761
 9456SOL    HW140001   1.003   3.194   7.225 -0.0684 -0.1837  0.3371
 9456SOL    HW240002   1.146   3.210   7.241  1.4928  1.0841  1.4050
 9457SOL     OW40003   4.183   0.789   9.806 -0.4116 -0.2739 -0.0410
 9457SOL    HW140004   4.147   0.703   9.784  0.6580 -0.7364  0.0486
 9457SOL    HW240005   4.159   0.791   9.899 -0.3240 -2.2487  0.0189
 9458SOL     OW40006   4.566   2.833   0.744 -0.3759  0.0279  0.1613
 9458SOL    HW140007   4.558   2.828   0.840 -1.6525 -0.7060  0.0204
 9458SOL    HW240008   4.530   2.918   0.719 -1.3290  0.3924  2.6764
 9459SOL     OW40009   1.409   0.326   2.805  0.3067  0.2928  0.4126
 9459SOL    HW140010   1.441   0.410   2.836 -0.6419  0.3637  1.2125
 9459SOL    HW240011   1.424   0.264   2.877 -0.4586 -1.4125 -0.8885
 9460SOL     OW40012   0.279   3.797   5.286  0.6800  0.5703 -0.1782
 9460SOL    HW140013   0.297   3.709   5.252  1.0020  0.3024  0.6761
 9460SOL    HW240014   0.207   3.774   5.344  0.9696 -0.9594 -0.4366
 9461SOL     OW40015   3.647   4.438  13.659 -0.0336 -0.3409  0.7581
 9461SOL    HW140016   3.717   4.397  13.607  0.2286  1.2863 -0.1813
 9461SOL    HW240017   3.689   4.509  13.708  2.0332 -1.5986  0.8098
 9462SOL     OW40018   4.150   3.434  11.302 -0.2368  0.2873 -0.2571
 9462SOL    HW140019   4.123   3.347  11.333  2.6721 -0.4119  0.2895
 9462SOL    HW240020   4.064   3.472  11.283  0.4090  1.0575 -1.6663
 9463SOL     OW40021   2.055   3.601  11.848  0.0348 -0.3237 -0.3071
 9463SOL    HW140022   2.015   3.581  11.763  0.4827  1.0427 -0.8407
 9463SOL    HW240023   1.988   3.574  11.911 -0.0091 -0.5933 -0.4687
 9464SOL     OW40024   1.664   2.995  17.446  0.2567  0.5982  0.0892
 9464SOL    HW140025   1.710   2.966  17.368  1.1008 -0.5062  1.0039
 9464SOL    HW240026   1.574   2.964  17.431  0.3440  0.3132  0.1660
 9465SOL     OW40027   3.579   2.430  16.397  0.2727 -0.7552 -0.1354
 9465SOL    HW140028   3.588   2.419  16.492  2.4528 -0.8887 -0.3471
 9465SOL    HW240029   3.648   2.372  16.364  0.5822  0.8556 -2.3341
 9466SOL     OW40030   4.721   4.210   8.347  0.4072  0.4239 -0.1279
 9466SOL    HW140031   0.020   4.147   8.411  1.9943  1.3710 -0.0867
 9466SOL    HW240032   0.063   4.248   8.309  0.6666 -0.4167 -0.4474
 9467SOL     OW40033   2.598   4.257   5.154  0.0457  0.4581  0.2278
 9467SOL    HW140034   2.625   4.348   5.169  0.5882  0.3313  0.0325
 9467SOL    HW240035   2.509   4.277   5.124  0.4280 -0.4077 -1.4712
 9468SOL     OW40036   0.326   1.594  13.897  0.8412 -0.0901  0.1918
 9468SOL    HW140037   0.285   1.530  13.839  1.3691 -0.1889 -0.0831
 9468SOL    HW240038   0.336   1.545  13.979 -0.2430 -0.0739  0.3238
 9469SOL     OW40039   3.848   4.186   0.247 -0.1158 -0.6509  0.5100
 9469SOL    HW140040   3.756   4.157   0.254 -0.8772  1.3949 -1.1515
 9469SOL    HW240041   3.861   4.154   0.158 -0.0419  0.9855 -0.0574
 9470SOL     OW40042   3.922   3.810  11.049  0.3236  0.0963  0.0826
 9470SOL    HW140043   3.916   3.877  10.981 -1.9981 -0.9257 -0.7420
 9470SOL    HW240044   3.962   3.861  11.119 -2.7563  1.3566  0.9031
 9471SOL     OW40045   3.752   3.718   3.620  0.0573  0.5071 -0.3586
 9471SOL    HW140046   3.713   3.780   3.558  1.7903  1.0828 -0.8927
 9471SOL    HW240047   3.826   3.687   3.567  0.5791  0.1280  0.6037
 9472SOL     OW40048   1.640   4.492   8.979  0.1964  0.0822  0.5405
 9472SOL    HW140049   1.600   4.420   9.029 -1.2487  0.0491 -0.6544
 9472SOL    HW240050   1.568   4.553   8.963  0.8281 -0.1951 -3.2863
 9473SOL     OW40051   2.758   0.847   4.844 -0.1891  0.0371  0.0812
 9473SOL    HW140052   2.669   0.857   4.878 -1.2401 -1.3670 -2.2062
 9473SOL    HW240053   2.802   0.904   4.907 -0.2885  0.2026  0.0016
 9474SOL     OW40054   2.871   4.253   3.438  0.4028  0.5462  0.5009
 9474SOL    HW140055   2.966   4.266   3.444  0.4410 -0.5748  2.3736
 9474SOL    HW240056   2.843   4.342   3.419 -1.7659 -0.1640  0.4100
 9475SOL     OW40057   0.485   2.771   5.255  0.1964 -0.0800 -0.3543
 9475SOL    HW140058   0.493   2.843   5.192 -0.6966  1.6246  1.4735
 9475SOL    HW240059   0.416   2.716   5.218 -0.5156  0.5641  0.0093
 9476SOL     OW40060   3.699   0.363   6.469  0.2063 -0.6020  0.2612
 9476SOL    HW140061   3.699   0.297   6.399 -1.7352  0.1053 -0.4090
 9476SOL    HW240062   3.608   0.392   6.476  1.3522  2.9616  0.6138
 9477SOL     OW40063   4.524   3.532   8.203  0.5063 -0.4738 -0.1376
 9477SOL    HW140064   4.572   3.608   8.237  0.3889 -0.0742 -0.8811
 9477SOL    HW240065   4.556   3.467   8.266  0.8817 -0.8246 -0.6989
 9478SOL     OW40066   1.214   0.993   7.379 -0.2699  0.1151 -0.0018
 9478SOL    HW140067   1.182   1.051   7.448 -1.5471 -0.7790  0.1583
 9478SOL    HW240068   1.221   1.064   7.315  0.2818  0.0098 -0.0592
 9479SOL     OW40069   3.386   4.647   0.296  0.4541 -0.4399  0.0945
 9479SOL    HW140070   3.377   4.598   0.378 -0.9898 -1.3417 -0.6050
 9479SOL    HW240071   3.363   4.582   0.230 -1.3010 -0.9034  1.1725
 9480SOL     OW40072   0.934   2.654  12.620  0.0909 -0.8937 -0.0992
 9480SOL    HW140073   0.955   2.652  12.527 -1.1847 -0.1136 -0.3889
 9480SOL    HW240074   1.019   2.684  12.651  0.5823 -1.9828 -0.3797
 9481SOL     OW40075   4.549   4.409  16.783 -0.8396 -0.4357 -0.3336
 9481SOL    HW140076   4.580   4.462  16.709 -0.9239  2.6808  1.8464
 9481SOL    HW240077   4.522   4.476  16.846 -2.0445  1.4206 -2.8568
 9482SOL     OW40078   3.805   1.369   7.082 -0.2567  0.2164  0.3991
 9482SOL    HW140079   3.827   1.388   6.991 -0.7111 -3.1622 -0.4140
 9482SOL    HW240080   3.745   1.441   7.098  0.8088  0.6725  2.2961
 9483SOL     OW40081   1.465   2.160   9.310 -0.6417  0.1006  0.1143
 9483SOL    HW140082   1.456   2.244   9.264 -0.3483 -0.2325 -0.5551
 9483SOL    HW240083   1.536   2.123   9.256  0.7318  0.7899  1.4437
 9484SOL     OW40084   3.269   2.720   9.217  0.5889 -0.1185  0.1298
 9484SOL    HW140085   3.228   2.806   9.228  0.4442  0.3813 -4.4611
 9484SOL    HW240086   3.215   2.667   9.275  0.2610  0.4101  0.3037
 9485SOL     OW40087   0.346   0.717   3.483 -0.4784  0.1103  0.8983
 9485SOL    HW140088   0.441   0.722   3.486 -0.3876 -1.3877  0.6664
 9485SOL    HW240089   0.336   0.639   3.428  0.5486  0.1021  0.7163
 9486SOL     OW40090   2.435   2.627   3.303  0.3993 -0.1687  0.5697
 9486SOL    HW140091   2.462   2.536   3.320  2.4107  0.0206 -1.6062
 9486SOL    HW240092   2.396   2.651   3.387 -1.8762 -0.0626 -0.5285
 9487SOL     OW40093   4.250   3.296   4.403  0.0397  0.2430  0.5205
 9487SOL    HW140094   4.203   3.252   4.332 -0.2070  0.0301  0.8201
 9487SOL    HW240095   4.210   3.244   4.472  1.5765 -0.9920  0.4874
 9488SOL     OW40096   0.778   0.503   5.885  0.1071  0.2946 -0.2603
 9488SOL    HW140097   0.784   0.567   5.957 -0.4521 -1.9427  1.7708
 9488SOL    HW240098   0.703   0.451   5.915  0.6309  1.3233  2.8963
 9489SOL     OW40099   1.112   1.151   2.398 -0.7168  0.7337 -0.5155
 9489SOL    HW140100   1.118   1.169   2.492  2.1046 -0.7954 -0.4081
 9489SOL    HW240101   1.112   1.056   2.391  1.9357  0.4777  3.0115
 9490SOL     OW40102   0.923   0.003   8.657  0.2914  0.0036 -0.4551
 9490SOL    HW140103   0.969   4.675   8.711 -1.7676 -1.3236 -0.2702
 9490SOL    HW240104   0.964   4.726   8.571 -0.3352  0.7615 -0.8730
 9491SOL     OW40105   0.094   3.263   5.311 -0.4163  0.2684 -0.4715
 9491SOL    HW140106   0.113   3.173   5.283 -1.7331  1.0670 -3.9732
 9491SOL    HW240107   0.150   3.303   5.245 -0.5232  0.5834 -0.3694
 9492SOL     OW40108   4.299   4.075   3.663 -0.1116 -0.1870  0.0425
 9492SOL    HW140109   4.370   4.133   3.634 -0.5444  0.5249  0.3947
 9492SOL    HW240110   4.296   4.097   3.756 -0.6055 -0.0599 -0.0070
 9493SOL     OW40111   1.997   3.039   2.444  0.5161  0.3329  0.1868
 9493SOL    HW140112   2.034   3.024   2.531  0.4903  1.7954  0.4521
 9493SOL    HW240113   2.077   3.036   2.390 -0.2888 -0.7968 -0.9560
 9494SOL     OW40114   1.805   3.596   3.935 -0.5639  0.4205  0.0425
 9494SOL    HW140115   1.746   3.604   4.009  0.2813  1.6323  0.5840
 9494SOL    HW240116   1.858   3.674   3.950  0.5094 -0.4643  0.8191
 9495SOL     OW40117   0.014   0.441   8.142 -0.1383  0.2390 -0.5834
 9495SOL    HW140118   4.681   0.492   8.100 -0.4249 -0.4851 -0.9980
 9495SOL    HW240119   0.090   0.494   8.120 -1.0953  2.1614  0.6859
 9496SOL     OW40120   3.934   2.109   1.253  0.5981  0.2485  0.2610
 9496SOL    HW140121   3.845   2.074   1.255 -0.2371  2.5433  2.9904
 9496SOL    HW240122   3.921   2.203   1.256  0.6989  0.1537  3.1837
 9497SOL     OW40123   3.176   4.280   8.386 -0.1032  0.2852 -0.2518
 9497SOL    HW140124   3.106   4.240   8.335 -1.9505  0.4076  2.1749
 9497SOL    HW240125   3.147   4.275   8.478  2.3591 -0.4492  0.4717
 9498SOL     OW40126   3.239   2.342  15.089  0.4101 -0.4855  0.4407
 9498SOL    HW140127   3.306   2.407  15.067  0.4920 -0.1999  1.5276
 9498SOL    HW240128   3.233   2.372  15.179 -1.4324 -1.6326  0.6936
 9499SOL     OW40129   4.337   0.701   5.703 -0.0450 -0.1436 -0.1172
 9499SOL    HW140130   4.348   0.782   5.752  0.5013  0.0922 -0.6185
 9499SOL    HW240131   4.329   0.730   5.612 -3.1992 -2.3550 -0.5363
 9500SOL     OW40132   2.853   4.016   6.001 -0.5362  0.3294 -0.2770
 9500SOL    HW140133   2.770   4.054   5.974 -0.8998 -0.3417 -0.1145
 9500SOL    HW240134   2.851   4.024   6.096 -1.8365 -2.1615 -0.0893
 9501SOL     OW40135   0.775   0.489   2.165 -0.3496  0.2093  0.4155
 9501SOL    HW140136   0.743   0.549   2.233  0.7621  1.1947  0.0653
 9501SOL    HW240137   0.870   0.494   2.178 -0.2709 -0.2596 -0.0152
 9502SOL     OW40138   4.478   2.649   0.414 -0.4680 -0.2363 -0.5353
 9502SOL    HW140139   4.440   2.730   0.447  0.8842 -0.4113  1.4371
 9502SOL    HW240140   4.547   2.637   0.479 -0.9864  0.5106  0.1474
 9503SOL     OW40141   0.562   3.463  13.230  1.0286 -0.4306 -0.0569
 9503SOL    HW140142   0.537   3.455  13.322 -0.5508 -0.5416 -0.4984
 9503SOL    HW240143   0.478   3.467  13.185  1.5803  1.2004 -0.9648
 9504SOL     OW40144   2.637   3.691  17.395  0.1313 -0.1605  0.1187
 9504SOL    HW140145   2.621   3.767  17.338  0.6977  0.6476  1.0172
 9504SOL    HW240146   2.666   3.625  17.332  1.9411  0.4073  0.3438
 9505SOL     OW40147   2.531   0.948  14.921 -0.3454  0.3348  0.6837
 9505SOL    HW140148   2.600   0.977  14.980  0.6317  0.6621 -0.6203
 9505SOL    HW240149   2.577   0.890  14.859  1.0950 -0.9172  2.9109
 9506SOL     OW40150   3.372   2.427   4.817 -0.1827  0.7399 -0.3018
 9506SOL    HW140151   3.302   2.363   4.829  0.2481  0.4296  0.5925
 9506SOL    HW240152   3.373   2.444   4.723  0.5387 -1.7938 -0.7758
 9507SOL     OW40153   2.029   2.300   5.312 -0.5846 -0.1064  0.0079
 9507SOL    HW140154   1.983   2.221   5.341 -1.5618  0.5405  0.2101
 9507SOL    HW240155   1.954   2.358   5.301  0.0524  0.7123 -0.0409
 9508SOL     OW40156   1.132   1.326   8.133  0.1002  0.4429  0.4968
 9508SOL    HW140157   1.079   1.388   8.185 -3.9846 -1.3056 -1.6085
 9508SOL    HW240158   1.108   1.243   8.174  2.4616  0.2547  1.4709
 9509SOL     OW40159   2.385   0.495   2.084  0.0710  0.1938  0.0732
 9509SOL    HW140160   2.458   0.479   2.025 -0.8122 -2.3102 -0.3274
 9509SOL    HW240161   2.382   0.587   2.111  0.1564  0.5162 -1.0207
 9510SOL     OW40162   3.772   0.923   4.461 -0.6277  0.1750 -0.0021
 9510SOL    HW140163   3.762   0.829   4.478  1.0067  0.0386  0.2061
 9510SOL    HW240164   3.834   0.929   4.534 -0.0060 -0.7215 -0.4595
 9511SOL     OW40165   3.982   2.230   6.160  0.3264 -0.7577 -0.5686
 9511SOL    HW140166   3.998   2.319   6.190 -0.9850  0.0431 -2.2856
 9511SOL    HW240167   3.945   2.196   6.241  2.6075 -0.2936  0.6728
 9512SOL     OW40168   1.449   3.515   0.329 -0.1140 -0.2507  0.0927
 9512SOL    HW140169   1.382   3.524   0.397  1.2518  0.4808  1.3419
 9512SOL    HW240170   1.514   3.476   0.388  3.2673  0.1787 -3.3502
 9513SOL     OW40171   0.790   2.573   7.633 -0.3744 -0.3803  0.1692
 9513SOL    HW140172   0.784   2.667   7.620 -0.8385 -0.7527 -2.2802
 9513SOL    HW240173   0.751   2.545   7.550  1.0490 -2.7627  0.2843
 9514SOL     OW40174   3.476   0.666   6.399 -0.4258 -0.7129 -0.0158
 9514SOL    HW140175   3.560   0.690   6.439 -1.0910 -0.1640  1.0340
 9514SOL    HW240176   3.458   0.743   6.344  2.3032 -0.0131  0.0725
 9515SOL     OW40177   3.815   0.345   3.447  0.5235  0.3395  0.6584
 9515SOL    HW140178   3.729   0.318   3.416  2.3049 -3.2835 -1.2012
 9515SOL    HW240179   3.867   0.328   3.368  1.4422  1.7619  0.9557
 9516SOL     OW40180   1.141   2.047   5.119 -0.2610  0.4144 -0.1728
 9516SOL    HW140181   1.047   2.063   5.105  0.1096  0.6562 -2.3510
 9516SOL    HW240182   1.180   2.135   5.115 -1.0350  0.8576  1.6628
 9517SOL     OW40183   3.662   3.113   8.340  0.1814 -0.0405  0.1873
 9517SOL    HW140184   3.589   3.145   8.287  0.5799 -1.2319 -1.0900
 9517SOL    HW240185   3.689   3.190   8.390  0.3030  1.0502 -1.5335
 9518SOL     OW40186   1.761   2.026   4.209  0.3232 -0.3101 -0.2571
 9518SOL    HW140187   1.706   2.093   4.170 -0.2235  0.5011  1.9134
 9518SOL    HW240188   1.730   2.038   4.299  0.2307 -0.2317 -0.2992
 9519SOL     OW40189   0.603   3.762  15.519 -0.0758  0.1371  0.4420
 9519SOL    HW140190   0.650   3.731  15.441 -0.1859  2.1190 -0.4037
 9519SOL    HW240191   0.671   3.810  15.565 -0.0028 -0.0290  0.5101
 9520SOL     OW40192   0.335   3.315  10.533 -0.5177  0.3869 -0.0007
 9520SOL    HW140193   0.311   3.229  10.566 -1.4529  0.6614  0.0388
 9520SOL    HW240194   0.406   3.295  10.471 -0.9633 -0.0541 -0.3709
 9521SOL     OW40195   2.971   1.417   6.836 -0.0214 -0.0619  0.0049
 9521SOL    HW140196   3.036   1.367   6.788  1.9065  1.7599  0.7273
 9521SOL    HW240197   2.939   1.482   6.774 -0.8504 -1.1879 -0.7494
 9522SOL     OW40198   2.982   0.460   2.510  0.0202 -0.4553  0.5551
 9522SOL    HW140199   3.076   0.473   2.501 -0.0904 -0.3834 -0.4959
 9522SOL    HW240200   2.959   0.481   2.601 -0.4143  1.9380 -0.0966
 9523SOL     OW40201   1.943   1.638   4.796  0.1815  0.0118  0.7232
 9523SOL    HW140202   1.894   1.709   4.754 -1.5930 -0.7821  1.4543
 9523SOL    HW240203   1.910   1.655   4.884 -0.0198  0.9283  0.4645
 9524SOL     OW40204   3.618   1.625   9.900 -0.3381 -0.5038  0.4504
 9524SOL    HW140205   3.629   1.630   9.995  2.1065  0.5494  0.1379
 9524SOL    HW240206   3.646   1.710   9.865  0.4319 -0.6884  0.6141
 9525SOL     OW40207   0.611   2.384   4.397  0.1479  0.0174  0.1474
 9525SOL    HW140208   0.661   2.345   4.469  0.2798 -0.4760 -0.2099
 9525SOL    HW240209   0.584   2.463   4.443 -1.6564  0.1413 -1.1369
 9526SOL     OW40210   1.344   2.036   0.198  0.4792 -0.0384 -0.2023
 9526SOL    HW140211   1.307   1.976   0.263  1.8127  0.9707  1.5039
 9526SOL    HW240212   1.300   2.117   0.222  0.1572 -1.1641  3.0105
 9527SOL     OW40213   1.309   4.453  13.581 -0.2192  0.3378 -0.3418
 9527SOL    HW140214   1.352   4.488  13.659 -0.2427  0.2105 -0.2708
 9527SOL    HW240215   1.367   4.479  13.510  0.0893 -0.5729 -0.4263
 9528SOL     OW40216   1.366   0.948   9.506  0.0356  0.1326  0.0668
 9528SOL    HW140217   1.392   1.028   9.460 -0.3841 -0.5749 -1.4210
 9528SOL    HW240218   1.414   0.961   9.588 -1.1438  0.0026  0.7644
 9529SOL     OW40219   1.461   0.576   1.943  0.9771  0.4099 -0.0995
 9529SOL    HW140220   1.419   0.611   1.865  1.4110  1.3152  0.0776
 9529SOL    HW240221   1.551   0.598   1.919  1.1885 -1.2250 -0.8118
 9530SOL     OW40222   3.780   2.424   1.003  1.1097 -0.3062 -0.3008
 9530SOL    HW140223   3.865   2.382   1.015  1.9331  1.4564  0.0728
 9530SOL    HW240224   3.806   2.508   0.964 -3.2186  0.5851 -1.2139
 9531SOL     OW40225   0.194   1.825   2.808 -0.2815  0.1384 -0.1362
 9531SOL    HW140226   0.149   1.833   2.724 -2.6271 -2.7940  0.8446
 9531SOL    HW240227   0.215   1.916   2.826 -0.3535  0.4206 -1.4585
 9532SOL     OW40228   2.440   0.667   7.339 -0.3484  0.4254  0.3002
 9532SOL    HW140229   2.516   0.631   7.385 -1.1397 -1.2190  0.3459
 9532SOL    HW240230   2.405   0.715   7.415  0.7438 -0.6769  1.5091
 9533SOL     OW40231   0.057   4.198   3.020 -0.6063  0.2196  0.4519
 9533SOL    HW140232   0.018   4.116   3.051  2.2724 -1.1888  0.4170
 9533SOL    HW240233   4.723   4.232   2.964 -0.5945  1.0259  0.9288
 9534SOL     OW40234   2.679   1.566   7.245  0.0542 -0.6228  0.5142
 9534SOL    HW140235   2.639   1.573   7.332  0.9936  0.3706  0.8724
 9534SOL    HW240236   2.744   1.636   7.248 -1.4124  0.6708  2.5121
 9535SOL     OW40237   4.331   2.002   6.411 -0.0640 -0.2386 -0.2574
 9535SOL    HW140238   4.423   2.014   6.388  0.3885  1.7906  2.6087
 9535SOL    HW240239   4.320   1.912   6.440  0.3986 -0.3853 -0.5276
 9536SOL     OW40240   1.847   1.951  10.088 -0.4279 -0.2082 -0.2462
 9536SOL    HW140241   1.848   1.951  10.184 -1.2310  4.3752 -0.2500
 9536SOL    HW240242   1.926   1.904  10.065 -1.6673 -0.9749 -2.9508
 9537SOL     OW40243   3.799   2.768   4.927  0.5525 -0.4816 -0.2980
 9537SOL    HW140244   3.865   2.821   4.881  0.9703 -1.3306 -0.6638
 9537SOL    HW240245   3.775   2.710   4.854  0.9428 -2.8745  1.5105
 9538SOL     OW40246   0.299   1.356   6.394 -0.6339 -0.9379 -0.2341
 9538SOL    HW140247   0.271   1.267   6.414 -2.0394 -0.4090  0.1054
 9538SOL    HW240248   0.342   1.387   6.473  0.5307  1.0211 -1.6285
 9539SOL     OW40249   2.824   1.157  14.695  0.0537  0.5366 -0.2237
 9539SOL    HW140250   2.852   1.249  14.687  0.0328  0.5222 -0.4595
 9539SOL    HW240251   2.789   1.128  14.611 -0.3444  0.3729 -0.0019
 9540SOL     OW40252   1.869   3.290  16.605 -0.6196  0.3158  0.2007
 9540SOL    HW140253   1.908   3.286  16.517 -0.8185 -0.0223  0.1275
 9540SOL    HW240254   1.947   3.264  16.653 -0.5405 -2.1662 -1.2350
 9541SOL     OW40255   3.861   4.687   9.541  0.0788  0.1065 -0.0085
 9541SOL    HW140256   3.885   0.002   9.464 -1.7569 -0.1866 -0.7769
 9541SOL    HW240257   3.917   4.610   9.526 -1.2489 -0.7073 -0.8446
 9542SOL     OW40258   0.750   2.453   0.157 -0.2392  0.2804 -0.6333
 9542SOL    HW140259   0.702   2.431   0.077 -0.6256  0.9864 -0.5966
 9542SOL    HW240260   0.826   2.395   0.149  0.5060  0.9688  1.5400
 9543SOL     OW40261   1.519   2.063  10.438  0.5882  0.0260  0.3885
 9543SOL    HW140262   1.577   1.994  10.406  1.9073  2.0702 -1.6115
 9543SOL    HW240263   1.579   2.116  10.490  0.5324  1.3425 -0.8909
 9544SOL     OW40264   3.411   1.620  11.684 -0.0429  0.5147  0.4683
 9544SOL    HW140265   3.377   1.679  11.752 -1.0350  1.5438 -0.9254
 9544SOL    HW240266   3.432   1.685  11.617 -0.6508 -0.7120 -0.9197
 9545SOL     OW40267   0.616   0.564   4.108 -0.2365 -0.4603 -0.4570
 9545SOL    HW140268   0.655   0.643   4.145  0.0996 -1.6020  1.6185
 9545SOL    HW240269   0.602   0.589   4.017 -0.4597  1.4209  0.0897
 9546SOL     OW40270   3.012   3.101   2.930 -0.0686  0.3599  0.1045
 9546SOL    HW140271   2.979   3.147   2.853 -0.6813  0.9593  0.7239
 9546SOL    HW240272   3.106   3.112   2.923  0.3162 -2.7036  0.2945
 9547SOL     OW40273   4.540   0.551   4.632 -0.3027 -0.0960 -0.2185
 9547SOL    HW140274   4.628   0.587   4.649 -1.6520  3.6704 -1.0519
 9547SOL    HW240275   4.485   0.629   4.625  0.2947  0.2677 -0.8842
 9548SOL     OW40276   2.718   1.950  11.490  0.2418  0.1626 -0.0068
 9548SOL    HW140277   2.786   1.929  11.425 -1.0821  0.1695 -1.3936
 9548SOL    HW240278   2.654   1.985  11.428 -0.9248  0.7904  1.5693
 9549SOL     OW40279   3.492   1.870   3.486  0.3708  0.1008  0.1760
 9549SOL    HW140280   3.557   1.928   3.448  2.3708 -2.0153  0.3671
 9549SOL    HW240281   3.473   1.919   3.567  1.1940 -0.4412  0.6938
 9550SOL     OW40282   2.589   2.124   3.810  0.0717 -0.1210 -0.6010
 9550SOL    HW140283   2.605   2.047   3.864 -0.1191  0.0366 -0.3192
 9550SOL    HW240284   2.494   2.130   3.816  0.0457  1.2879 -2.5600
 9551SOL     OW40285   4.175   2.422   7.548  0.3965 -0.2277  0.0393
 9551SOL    HW140286   4.128   2.460   7.623 -0.4761 -0.1662 -0.5417
 9551SOL    HW240287   4.100   2.374   7.512  0.1019  1.2206 -1.2760
 9552SOL     OW40288   1.774   3.026  15.681 -0.1889  0.3647 -0.1347
 9552SOL    HW140289   1.866   3.003  15.666 -0.5665 -1.2273  0.0239
 9552SOL    HW240290   1.750   2.962  15.748  0.4638 -1.8942 -2.0793
 9553SOL     OW40291   3.400   0.080   3.036  0.2316 -0.2310 -0.1157
 9553SOL    HW140292   3.463   0.147   3.011 -0.7456  0.2120 -1.3914
 9553SOL    HW240293   3.362   0.050   2.954  1.9955  0.1450 -1.0526
 9554SOL     OW40294   3.175   0.452  15.283 -0.5335 -0.3984  0.6292
 9554SOL    HW140295   3.211   0.413  15.203 -1.2923  0.3597 -0.0835
 9554SOL    HW240296   3.101   0.399  15.311  1.1685 -2.5704  1.0013
 9555SOL     OW40297   0.139   1.505   3.381  0.2872  0.3457 -0.1592
 9555SOL    HW140298   0.205   1.518   3.448  1.8715 -0.6253 -1.5237
 9555SOL    HW240299   0.196   1.478   3.309 -1.3261  0.1968 -1.3928
 9556SOL     OW40300   2.796   2.726   5.725  0.4467 -0.6064  0.1513
 9556SOL    HW140301   2.834   2.753   5.809 -1.1624  1.8345  0.0724
 9556SOL    HW240302   2.707   2.701   5.749  0.0756  0.6737  0.0848
 9557SOL     OW40303   1.651   4.011   3.026 -0.1898 -0.3099  0.0110
 9557SOL    HW140304   1.640   3.954   2.949 -1.3166 -1.1366  0.7746
 9557SOL    HW240305   1.565   4.052   3.022  0.9627  2.1989  1.4202
 9558SOL     OW40306   0.806   2.727   0.116  0.1641 -0.1265  0.2783
 9558SOL    HW140307   0.723   2.718   0.068 -0.6316  2.2890  1.1789
 9558SOL    HW240308   0.770   2.740   0.203  1.0818 -0.6248  0.7279
 9559SOL     OW40309   3.096   0.080   5.084  0.1946  0.0265  0.3581
 9559SOL    HW140310   3.069   0.002   5.132  1.1725 -0.7698 -0.3922
 9559SOL    HW240311   3.066   0.061   4.995  0.5977 -0.9976  0.4472
 9560SOL     OW40312   2.024   4.377  15.736 -0.2773  0.2326  0.6272
 9560SOL    HW140313   1.944   4.416  15.699 -0.0684 -1.1569 -1.3230
 9560SOL    HW240314   2.085   4.449  15.721 -0.7937  0.5910  0.2330
 9561SOL     OW40315   2.189   1.977   5.596 -0.0559  0.6423  0.2736
 9561SOL    HW140316   2.155   1.901   5.644  1.0460  0.9597  1.5574
 9561SOL    HW240317   2.162   1.954   5.507 -0.8117 -0.7805  0.8689
 9562SOL     OW40318   2.194   0.222   3.454  0.2865  0.1841 -0.5115
 9562SOL    HW140319   2.103   0.218   3.484  0.9772 -0.2664  1.4850
 9562SOL    HW240320   2.231   0.266   3.530  0.2640 -0.5627 -0.0685
 9563SOL     OW40321   2.815   1.420  15.689  0.2040 -0.3791 -0.3504
 9563SOL    HW140322   2.766   1.338  15.694  1.7362 -1.1787  1.8469
 9563SOL    HW240323   2.898   1.381  15.663 -0.1622  0.2160 -2.3880
 9564SOL     OW40324   2.012   4.567   1.388  0.3208  0.6217 -0.1652
 9564SOL    HW140325   2.024   4.651   1.344  1.1026  0.9914  0.7484
 9564SOL    HW240326   2.010   4.503   1.317  4.0498  1.7564 -1.2862
 9565SOL     OW40327   0.592   3.755  10.977 -0.6035  0.1546 -0.2438
 9565SOL    HW140328   0.548   3.670  10.972 -0.5679  0.1086  0.1682
 9565SOL    HW240329   0.552   3.782  11.060  1.3646  0.2824  0.6725
 9566SOL     OW40330   1.839   0.908   5.763 -0.2015 -0.1733  0.3674
 9566SOL    HW140331   1.850   0.894   5.669  0.0057  1.5576  0.1304
 9566SOL    HW240332   1.853   1.002   5.771  1.2213 -0.5806  2.4632
 9567SOL     OW40333   2.498   4.587  11.318  0.4193  0.8780  0.0334
 9567SOL    HW140334   2.530   4.521  11.258 -0.6556  0.6513 -0.2921
 9567SOL    HW240335   2.488   4.525  11.390 -1.0726 -0.6028 -1.4698
 9568SOL     OW40336   0.963   4.316  13.244  0.6802  0.0532  0.1031
 9568SOL    HW140337   0.998   4.401  13.272 -1.3682  0.2810  1.8937
 9568SOL    HW240338   1.031   4.261  13.284 -0.5563 -3.0039 -1.9764
 9569SOL     OW40339   3.792   0.494   7.417 -0.6917  0.1007 -0.2816
 9569SOL    HW140340   3.750   0.449   7.344 -0.5207 -1.3122  0.4963
 9569SOL    HW240341   3.830   0.574   7.380  0.7110 -0.8775 -0.9501
 9570SOL     OW40342   1.113   3.514   2.021 -0.6223 -0.0921 -0.5108
 9570SOL    HW140343   1.202   3.549   2.031  1.0889 -4.2033 -1.2936
 9570SOL    HW240344   1.088   3.466   2.100  1.4661  0.2550  0.3807
 9571SOL     OW40345   3.720   0.018   7.936 -0.0193 -0.4303 -0.4612
 9571SOL    HW140346   3.637   0.065   7.927 -0.4066 -1.0678 -0.1677
 9571SOL    HW240347   3.726   4.730   8.029 -1.6281 -0.0765 -0.2653
   4.73600   4.73600  17.74262
