Membrane in water
40347
    1TMC1    C1    1   4.520   1.779  11.554 -0.2158 -0.1198 -0.4829
    1TMC1    C2    2   4.421   1.807  11.468  0.0149  0.6779 -0.1379
    1TMC1    C3    3   4.445   1.789  11.333 -0.3228  0.2444 -0.6088
    1TMC1    C4    4   4.633   1.713  11.506 -0.4757  0.6232  0.8045
    1TMC1    C5    5   4.649   1.693  11.372 -0.7219  0.2984 -0.2966
    1TMC1    C6    6   4.560   1.739  11.279 -0.2667  0.7579  0.5667
    1TMC1     C    7   4.476   1.764  11.696  0.1756  0.0791 -0.6553
    1TMC1     O    8   4.362   1.786  11.726  0.1432  0.0102 -0.2262
    1TMC1     H    9   4.330   1.843  11.514  0.3023  1.6456 -0.3256
    1TMC1    H1   10   4.697   1.660  11.575 -0.2876  0.0754  0.2090
    1TMC1    H2   11   4.579   1.738  11.173 -2.1873  1.4839  0.2073
    1TMC1    C7   12   0.033   1.616  11.336  0.3118 -0.0056  0.6865
    1TMC1    C8   13   4.367   1.879  11.247 -0.0199  0.4774  0.3768
    1TMC1    O1   14   0.137   1.635  11.399 -0.0320  0.3525 -0.1823
    1TMC1    O2   15   4.430   1.936  11.160  0.5418  0.0028 -0.8165
    1TMC1    O3   16   0.025   1.588  11.208 -0.0623 -0.2288 -0.3438
    1TMC1    H3   17   4.672   1.573  11.165 -0.5889  1.7651  0.0309
    1TMC1    O5   18   4.239   1.840  11.244  0.0295 -0.1735  0.4828
    1TMC1    H5   19   4.219   1.773  11.313  1.8594 -0.3692  0.7986
    2MPD2     C   20   4.579   1.667  12.189 -0.4526 -0.1615  0.0028
    2MPD2    C1   21   4.463   1.697  12.126 -0.0235  0.5610  0.4155
    2MPD2    C2   22   4.464   1.721  11.984 -0.0345  0.6422  0.3334
    2MPD2    C3   23   4.582   1.715  11.909 -0.2421 -0.3446  0.4603
    2MPD2    C4   24   4.703   1.697  11.980  0.2955  1.3298  0.0651
    2MPD2    C5   25   4.697   1.669  12.117 -0.3579  0.5595  0.3983
    2MPD2     H   26   4.369   1.742  11.936  0.9873  1.3557 -1.3938
    2MPD2    H1   27   0.065   1.688  11.931  1.2836  0.7389  2.1024
    2MPD2    H2   28   4.581   1.644  12.295  1.6134  1.1072  0.2377
    2MPD2    H3   29   0.046   1.630  12.173  1.3481 -0.7931 -3.0607
    2MPD2     N   30   4.588   1.733  11.767  0.1390  0.2399  0.0596
    2MPD2    H5   31   4.675   1.730  11.714  0.5399  0.5456  0.6952
    2MPD2    N1   32   4.341   1.722  12.190 -0.5420  0.2783  0.4621
    2MPD2    H7   33   4.265   1.747  12.128 -1.6896  0.4892  1.9486
    3TMC1    C1   34   3.579   4.329  10.375 -0.2386 -0.2430  0.3860
    3TMC1    C2   35   3.689   4.369  10.446 -0.4911 -0.3094  0.3607
    3TMC1    C3   36   3.804   4.386  10.370  0.8025  0.3554 -0.3933
    3TMC1    C4   37   3.580   4.289  10.240 -0.2593 -0.3002 -0.3764
    3TMC1    C5   38   3.702   4.292  10.178  0.2107  0.2604 -0.1501
    3TMC1    C6   39   3.810   4.352  10.237  0.0220 -0.0897 -0.4900
    3TMC1     C   40   3.452   4.323  10.449 -0.1633  0.2751 -0.2616
    3TMC1     O   41   3.366   4.240  10.418  0.1275 -0.5134  0.3283
    3TMC1     H   42   3.693   4.394  10.551 -2.1658  1.7194 -0.0761
    3TMC1    H1   43   3.488   4.265  10.187 -0.7721 -0.2847  0.5113
    3TMC1    H2   44   3.891   4.381  10.171  0.6236 -0.8025 -0.0636
    3TMC1    C7   45   3.715   4.268  10.038 -0.0819 -0.2044 -0.4048
    3TMC1    C8   46   3.919   4.452  10.436 -0.2180 -0.3841 -0.0935
    3TMC1    O1   47   3.776   4.341   9.961  0.2234  0.2280 -0.0569
    3TMC1    O2   48   3.914   4.526  10.529  0.4766  0.1012  0.6334
    3TMC1    O3   49   3.635   4.164  10.014 -0.2331  0.3367 -0.5139
    3TMC1    H3   50   3.622   4.107  10.093  4.2695  0.2048  0.1499
    3TMC1    O5   51   4.030   4.438  10.363 -0.0584  0.1498 -0.2102
    3TMC1    H5   52   4.037   4.363  10.301 -2.2623  0.3693 -0.7382
    4MPD2     C   53   3.178   4.477  10.845 -0.9006 -0.0783  0.4159
    4MPD2    C1   54   3.297   4.543  10.848 -0.2734 -0.4792 -0.2741
    4MPD2    C2   55   3.392   4.520  10.748  0.3017 -0.0631  1.0100
    4MPD2    C3   56   3.359   4.436  10.646  0.2351  0.0548 -0.1538
    4MPD2    C4   57   3.237   4.378  10.646  0.8087 -0.6236  0.5389
    4MPD2    C5   58   3.145   4.399  10.738  0.3781 -0.1690 -0.7764
    4MPD2     H   59   3.486   4.574  10.745  0.3258 -0.0927  1.2408
    4MPD2    H1   60   3.210   4.298  10.579  0.5905 -0.1334  0.0358
    4MPD2    H2   61   3.112   4.503  10.927 -0.2297  0.9546  0.6236
    4MPD2    H3   62   3.048   4.352  10.738  0.9420 -1.3204 -1.5584
    4MPD2     N   63   3.454   4.416  10.549  0.5255  0.2666  0.1048
    4MPD2    H5   64   3.531   4.480  10.535 -0.9991  1.6652 -1.9731
    4MPD2    N1   65   3.329   4.633  10.949 -0.4007  0.0777 -0.0009
    4MPD2    H7   66   3.424   4.668  10.952 -0.7492  1.0936 -0.6364
    5TCq1    O1   67   0.778   0.517  11.982 -0.2242  0.0278  0.0301
    5TCq1    C1   68   0.685   0.443  12.039 -0.4167  0.7251 -0.0081
    5TCq1    O2   69   0.697   0.331  12.080 -0.8089 -0.4010  0.5217
    5TCq1    C2   70   0.568   0.523  12.037 -0.1504 -0.1401  0.8197
    5TCq1    C3   71   0.474   0.495  12.136  0.2061  0.9617  0.2986
    5TCq1    C4   72   0.362   0.580  12.140 -0.2450 -0.1171  0.0851
    5TCq1    C5   73   0.354   0.679  12.045  1.0283 -0.0168  0.1071
    5TCq1    C6   74   0.438   0.696  11.943  0.8244 -0.6875  0.2849
    5TCq1    C7   75   0.552   0.615  11.939 -0.3370 -0.1211 -0.2025
    5TCq1    C8   76   0.402   0.764  11.821  0.3888 -0.3403 -0.8341
    5TCq1    O4   77   0.453   0.729  11.714 -0.4276  0.3037 -0.0453
    5TCq1    C9   78   0.272   0.572  12.255 -0.3199  0.2822 -0.1650
    5TCq1    O5   79   0.162   0.626  12.244  0.2465 -0.2103 -0.3210
    5TCq1    O6   80   0.299   0.482  12.340 -0.1146  0.4222 -0.6623
    5TCq1    H1   81   0.756   0.611  11.962 -1.6546 -0.2304  0.3377
    5TCq1    H2   82   0.501   0.426  12.215 -0.0193  0.2854 -0.2207
    5TCq1    H3   83   0.273   0.751  12.057  2.1562  1.3323 -0.3453
    5TCq1    H4   84   0.612   0.605  11.849  0.2203 -1.5596  0.3348
    6MPD2     C   85   0.116   0.968  11.789 -0.5588 -0.2779 -0.1684
    6MPD2    C1   86   0.229   0.915  11.739  0.2087 -0.3395  0.2235
    6MPD2    C2   87   0.261   0.921  11.603 -0.4379 -0.2669 -0.1476
    6MPD2    C3   88   0.171   0.981  11.515  0.6288  0.0330 -0.7330
    6MPD2    C4   89   0.055   1.033  11.567  0.0032 -0.2468  0.4641
    6MPD2    C5   90   0.034   1.035  11.707  0.0905 -0.2075  0.4940
    6MPD2     H   91   0.355   0.882  11.567  0.4764  1.3302  0.4925
    6MPD2    H1   92   4.700   1.063  11.512 -0.0880  2.2489  1.9799
    6MPD2    H2   93   0.091   0.963  11.894 -1.2187  0.3251 -0.2941
    6MPD2    H3   94   4.673   1.079  11.738  1.0154  1.4318  1.0214
    6MPD2     N   95   0.191   0.985  11.373 -0.4266 -0.6287 -0.4382
    6MPD2    H5   96   0.268   0.928  11.340  0.6959 -0.3709  1.7387
    6MPD2    N1   97   0.296   0.851  11.842  0.6870 -0.5328  0.4070
    6MPD2    H7   98   0.260   0.865  11.936  0.7634  1.4536  0.1558
    7TCq1    O1   99   2.778   0.235  13.217  0.5554 -0.8722 -0.0759
    7TCq1    C1  100   2.654   0.283  13.247 -0.7336 -0.1342  0.1523
    7TCq1    O2  101   2.614   0.330  13.353  0.0297  0.0933  0.8133
    7TCq1    C2  102   2.560   0.210  13.161 -0.0784 -0.0520 -0.4984
    7TCq1    C3  103   2.571   0.219  13.022 -0.3304 -0.0300  0.3873
    7TCq1    C4  104   2.489   0.132  12.951 -0.8409  1.1597  0.5733
    7TCq1    C5  105   2.402   0.049  13.025 -0.1451  0.6105 -0.4494
    7TCq1    C6  106   2.412   0.036  13.157  0.2805  0.0715  0.7152
    7TCq1    C7  107   2.482   0.127  13.229  0.1065  0.3135 -0.2987
    7TCq1    C8  108   2.326   4.676  13.235  0.1675  0.6549 -0.8724
    7TCq1    O4  109   2.304   4.690  13.350  0.1120 -0.1671 -0.0960
    7TCq1    C9  110   2.492   0.126  12.807  0.3763  0.3967  0.4416
    7TCq1    O5  111   2.433   0.021  12.765 -0.2456  0.1980 -0.6407
    7TCq1    O6  112   2.509   0.235  12.745 -0.1644 -0.6522 -0.2367
    7TCq1    H1  113   2.784   0.168  13.146  0.0932 -2.5694  1.4579
    7TCq1    H2  114   2.635   0.293  12.975 -0.7925 -0.2310 -0.5602
    7TCq1    H3  115   2.346   4.710  12.967  0.1066  0.1499 -0.1127
    7TCq1    H4  116   2.489   0.113  13.336 -2.0070  0.5515 -0.1350
    8MPD2     C  117   2.006   4.284  13.190 -0.1328 -0.0065 -0.3163
    8MPD2    C1  118   2.026   4.369  13.298 -0.0766  0.5137  0.1442
    8MPD2    C2  119   2.131   4.459  13.294 -0.2386 -0.0851  0.2580
    8MPD2    C3  120   2.206   4.462  13.177 -0.9307  0.1189 -0.1826
    8MPD2    C4  121   2.188   4.374  13.065 -0.0383 -0.5747  0.4297
    8MPD2    C5  122   2.083   4.292  13.072 -0.6245 -0.0977  0.5943
    8MPD2     H  123   2.141   4.535  13.371 -0.3694  0.2220 -0.0255
    8MPD2    H1  124   2.241   4.387  12.971 -0.0497 -0.5754  0.4232
    8MPD2    H2  125   1.933   4.204  13.194 -0.9818  0.8344  1.1125
    8MPD2    H3  126   2.070   4.220  12.992  0.0203 -1.8161  2.0405
    8MPD2     N  127   2.293   4.567  13.155 -0.4464 -0.7716  0.4924
    8MPD2    H5  128   2.328   4.578  13.060 -0.9774  0.7226  0.4781
    8MPD2    N1  129   1.938   4.352  13.407  0.4940  0.4406  0.1842
    8MPD2    H7  130   1.858   4.291  13.394  0.3007  0.9344 -0.8705
    9TMC1    C1  131   3.336   3.028  10.907  0.4808  1.1342  1.3978
    9TMC1    C2  132   3.429   3.115  10.955 -0.3408 -0.2436 -0.6385
    9TMC1    C3  133   3.417   3.246  10.914  0.4776  0.0161 -0.2200
    9TMC1    C4  134   3.229   3.068  10.829  0.3635 -0.0842 -0.1299
    9TMC1    C5  135   3.219   3.198  10.788  0.3426 -0.2413  0.8559
    9TMC1    C6  136   3.313   3.293  10.832  0.1475  0.0250  0.1500
    9TMC1     C  137   3.342   2.894  10.937  0.0988 -0.5068 -0.1758
    9TMC1     O  138   3.271   2.821  10.875  0.3776 -0.0288 -0.5930
    9TMC1     H  139   3.515   3.088  11.015 -0.2738  1.7237  0.1589
    9TMC1    H1  140   3.163   3.000  10.777  0.1843  0.7071 -0.9279
    9TMC1    H2  141   3.305   3.398  10.804 -2.4234  0.2184  1.5954
    9TMC1    C7  142   3.167   3.215  10.658 -0.4313 -0.2154  0.2997
    9TMC1    C8  143   3.510   3.345  10.964 -0.3878 -0.3623  0.0676
    9TMC1    O1  144   3.129   3.114  10.594 -0.4301 -0.5801  0.0624
    9TMC1    O2  145   3.502   3.461  10.920 -0.2488 -0.3171  0.0633
    9TMC1    O3  146   3.139   3.343  10.639 -0.2277  0.2919 -0.0831
    9TMC1    H3  147   3.166   3.410  10.705  1.1285  2.2744 -2.6411
    9TMC1    O5  148   3.528   3.313  11.093  0.1772 -0.3433  0.0454
    9TMC1    H5  149   3.522   3.220  11.121 -0.5458 -0.5938 -0.9422
   10MPD2     C  150   3.404   2.616  11.030 -0.2277  0.3960  0.2707
   10MPD2    C1  151   3.439   2.733  11.096  0.2613  0.5904  0.7073
   10MPD2    C2  152   3.509   2.719  11.215  0.3449  0.1834  0.7669
   10MPD2    C3  153   3.543   2.591  11.266 -0.1896 -0.0630  0.1167
   10MPD2    C4  154   3.489   2.483  11.203  0.0145  0.5301  1.1694
   10MPD2    C5  155   3.419   2.495  11.084 -0.2652  0.2121 -0.4646
   10MPD2     H  156   3.535   2.804  11.277 -0.6577  0.6100  0.6020
   10MPD2    H1  157   3.504   2.382  11.239  1.2448  0.3412  0.1168
   10MPD2    H2  158   3.355   2.623  10.933 -0.8746 -2.1625  0.4076
   10MPD2    H3  159   3.393   2.403  11.033 -1.1792 -0.5405  1.3851
   10MPD2     N  160   3.632   2.579  11.374 -0.0212 -0.2113  0.1794
   10MPD2    H5  161   3.628   2.488  11.418 -0.7482  0.2550  1.0671
   10MPD2    N1  162   3.412   2.864  11.052 -0.1621 -0.5752  0.3562
   10MPD2    H7  163   3.450   2.941  11.107 -0.5431 -0.1630  0.0426
   11TCq1    O1  164   0.975   3.394  14.247  0.7569 -0.3054  0.1365
   11TCq1    C1  165   0.845   3.367  14.256 -0.4296 -0.2051 -0.5318
   11TCq1    O2  166   0.788   3.263  14.219  0.0416  0.0731  0.1528
   11TCq1    C2  167   0.776   3.499  14.271 -0.7902  0.1554  0.1248
   11TCq1    C3  168   0.837   3.594  14.354 -0.3303 -0.6598  0.1541
   11TCq1    C4  169   0.754   3.700  14.406 -0.1310 -0.3668  0.0631
   11TCq1    C5  170   0.622   3.701  14.382  0.6232 -0.5037  0.0993
   11TCq1    C6  171   0.562   3.597  14.311 -0.1914  0.1904 -0.1209
   11TCq1    C7  172   0.638   3.502  14.247 -0.7031 -0.3358 -0.6754
   11TCq1    C8  173   0.419   3.576  14.322 -0.8612 -0.3195 -0.2171
   11TCq1    O4  174   0.366   3.638  14.412 -0.1005  0.1623 -0.8857
   11TCq1    C9  175   0.816   3.809  14.475  0.3990 -0.0427 -0.1849
   11TCq1    O5  176   0.933   3.787  14.521 -0.0704  0.0137 -0.1799
   11TCq1    O6  177   0.743   3.908  14.512 -0.3348  0.2384 -0.1184
   11TCq1    H1  178   0.981   3.490  14.263  0.5478 -0.4265  0.9413
   11TCq1    H2  179   0.939   3.582  14.388 -0.3516  0.3539  0.5930
   11TCq1    H3  180   0.557   3.774  14.427  0.7069 -0.7318  0.5897
   11TCq1    H4  181   0.600   3.418  14.189 -2.5379  0.9819 -1.3833
   12MPD2     C  182   0.131   3.543  14.248  0.6427 -0.5958  0.0451
   12MPD2    C1  183   0.232   3.475  14.193  0.1355 -0.2084 -0.0328
   12MPD2    C2  184   0.211   3.367  14.109  0.6773 -0.0224 -0.2540
   12MPD2    C3  185   0.082   3.328  14.078  0.2990 -0.1169 -0.2173
   12MPD2    C4  186   4.717   3.392  14.136 -0.3469  0.9265  0.0452
   12MPD2    C5  187   0.002   3.500  14.217  0.2581 -0.2419 -0.0175
   12MPD2     H  188   0.300   3.325  14.064  1.1954  0.3258  0.4437
   12MPD2    H1  189   4.613   3.370  14.114  0.0321  0.4201 -1.2552
   12MPD2    H2  190   0.140   3.634  14.307  1.4283 -0.2959 -0.5404
   12MPD2    H3  191   4.652   3.556  14.256  0.2577 -1.3016  1.5409
   12MPD2     N  192   0.050   3.230  13.990  0.1810 -0.4545 -0.6548
   12MPD2    H5  193   4.685   3.209  13.981 -0.4209  2.0981 -0.0427
   12MPD2    N1  194   0.367   3.502  14.222 -0.0646  0.0841  0.0752
   12MPD2    H7  195   0.434   3.456  14.162  0.4228  1.3748 -0.3670
   13TCq1    O1  196   4.382   3.824   9.779  0.0982 -0.0019  0.0940
   13TCq1    C1  197   4.341   3.803   9.908 -1.0876 -0.4974 -0.2653
   13TCq1    O2  198   4.352   3.702   9.976  0.7596 -0.0950  0.2402
   13TCq1    C2  199   4.289   3.931   9.955  0.3836 -0.1834 -0.6002
   13TCq1    C3  200   4.284   4.038   9.871 -0.2676 -0.3682  0.1266
   13TCq1    C4  201   4.214   4.152   9.901 -0.7125 -0.3598 -0.5058
   13TCq1    C5  202   4.137   4.142  10.012 -0.3841 -0.4619  0.4627
   13TCq1    C6  203   4.131   4.029  10.087  0.4811 -0.2279 -0.0594
   13TCq1    C7  204   4.221   3.928  10.071  0.3606  0.0783  0.2079
   13TCq1    C8  205   4.064   4.037  10.214  0.6245  0.1304  0.2021
   13TCq1    O4  206   4.042   4.149  10.254 -0.2988  0.3753 -0.8229
   13TCq1    C9  207   4.220   4.272   9.824  0.3630 -0.5061 -0.6013
   13TCq1    O5  208   4.185   4.376   9.876  0.4769 -0.4249 -0.1076
   13TCq1    O6  209   4.303   4.267   9.731  0.4642 -0.1889  0.6486
   13TCq1    H1  210   4.344   3.911   9.752 -0.3037 -0.0105  0.6387
   13TCq1    H2  211   4.348   4.051   9.785 -0.7441  0.2794 -0.1294
   13TCq1    H3  212   4.073   4.224  10.042  0.8480  1.2725 -1.6486
   13TCq1    H4  213   4.229   3.850  10.145 -0.8557 -0.4815 -0.2344
   14MPD2     C  214   3.854   3.769  10.355 -0.6179  0.1548 -0.4333
   14MPD2    C1  215   3.919   3.889  10.355  0.4138  0.4894 -0.3766
   14MPD2    C2  216   3.898   3.970  10.460 -0.2911 -0.2523  0.4775
   14MPD2    C3  217   3.805   3.946  10.559 -0.0461  0.8263  0.1334
   14MPD2    C4  218   3.746   3.821  10.564  0.4662  0.1422 -0.3154
   14MPD2    C5  219   3.771   3.739  10.458  0.5084 -0.0467 -0.1634
   14MPD2     H  220   3.940   4.070  10.461  0.7962 -0.7347  2.5302
   14MPD2    H1  221   3.674   3.789  10.638  0.7733 -0.1975 -0.1625
   14MPD2    H2  222   3.874   3.691  10.282  0.6034  1.4295 -1.4542
   14MPD2    H3  223   3.713   3.647  10.458  1.0884 -0.4144  1.2737
   14MPD2     N  224   3.747   4.040  10.653  0.1192 -0.2106  0.1595
   14MPD2    H5  225   3.679   4.001  10.717  1.5358  1.1901  2.5545
   14MPD2    N1  226   4.002   3.914  10.240 -0.2404 -0.6757 -0.2834
   14MPD2    H7  227   4.016   3.838  10.174  1.4539 -0.0189 -0.6930
   15TCq1    O1  228   2.015   3.206   1.653  0.9112 -0.0834  0.3400
   15TCq1    C1  229   2.035   3.081   1.617  0.3422 -0.6244 -0.7630
   15TCq1    O2  230   2.099   3.051   1.516  0.0383  0.4665  0.6853
   15TCq1    C2  231   1.902   3.020   1.628  0.3696  0.0052 -0.3992
   15TCq1    C3  232   1.790   3.098   1.632  0.2949  0.3974 -0.1105
   15TCq1    C4  233   1.670   3.045   1.600 -0.8339 -0.8184 -0.2838
   15TCq1    C5  234   1.655   2.915   1.552  0.4338 -0.8389  0.8537
   15TCq1    C6  235   1.767   2.832   1.561  0.2882  0.1489  0.1736
   15TCq1    C7  236   1.889   2.890   1.592 -0.2789  1.1130  0.1334
   15TCq1    C8  237   1.767   2.698   1.499 -0.2176  0.3036  0.2612
   15TCq1    O4  238   1.849   2.619   1.539  0.2943  0.6224  0.2675
   15TCq1    C9  239   1.558   3.133   1.582  0.3155  0.6991 -0.1524
   15TCq1    O5  240   1.567   3.262   1.623  0.1540  0.5570 -0.3714
   15TCq1    O6  241   1.460   3.077   1.525 -0.1942  0.1738 -0.0165
   15TCq1    H1  242   1.954   3.193   1.729 -0.8089  1.7542 -0.7095
   15TCq1    H2  243   1.790   3.198   1.675  3.3742  0.9520 -1.3842
   15TCq1    H3  244   1.559   2.872   1.526  0.4129 -0.4426  0.2846
   15TCq1    H4  245   1.979   2.829   1.593 -0.1252  1.3383 -0.6596
   16MPD2     C  246   1.592   2.628   1.176 -0.1165  0.8788 -0.1589
   16MPD2    C1  247   1.663   2.600   1.292  0.5093  0.3393  0.6863
   16MPD2    C2  248   1.719   2.477   1.306  0.5212  0.5188  0.4490
   16MPD2    C3  249   1.718   2.382   1.205 -0.1439 -0.2807 -0.2820
   16MPD2    C4  250   1.657   2.423   1.082 -0.0094  0.5548  0.5178
   16MPD2    C5  251   1.591   2.544   1.069  0.2727  0.4711 -0.3750
   16MPD2     H  252   1.775   2.452   1.395  0.7877 -0.7092 -0.0551
   16MPD2    H1  253   1.665   2.368   0.989 -0.7385 -1.0604  1.4127
   16MPD2    H2  254   1.558   2.730   1.164  1.2507  0.9304 -3.7090
   16MPD2    H3  255   1.549   2.567   0.972 -1.3287 -1.2182 -0.0790
   16MPD2     N  256   1.802   2.262   1.218  0.0010  0.1334  0.1348
   16MPD2    H5  257   1.825   2.241   1.314 -2.3225 -2.3481  0.1222
   16MPD2    N1  258   1.678   2.699   1.388 -0.3832  0.4978  0.3980
   16MPD2    H7  259   1.613   2.776   1.373  0.4153  1.3004  1.0391
   17TMC1    C1  260   3.744   2.935   9.923 -0.1713 -0.3345 -0.3030
   17TMC1    C2  261   3.654   2.966  10.021  0.4479 -0.3646  0.3073
   17TMC1    C3  262   3.550   2.884  10.044 -0.0016  0.4857 -0.4862
   17TMC1    C4  263   3.732   2.830   9.839 -0.1249 -0.3692 -0.8133
   17TMC1    C5  264   3.624   2.748   9.872 -0.2559  0.1475 -0.6622
   17TMC1    C6  265   3.538   2.770   9.976  0.6041  0.5630  0.0611
   17TMC1     C  266   3.860   3.019   9.896  0.2605  1.0733 -0.1577
   17TMC1     O  267   3.912   3.019   9.785  0.5530  0.0085 -0.8527
   17TMC1     H  268   3.664   3.060  10.074  1.4390 -0.6377  0.6000
   17TMC1    H1  269   3.808   2.794   9.770 -0.9888 -1.2244 -1.3116
   17TMC1    H2  270   3.451   2.709  10.000  1.0512 -0.8442 -1.8761
   17TMC1    C7  271   3.612   2.624   9.805  0.1664  0.0266 -0.0579
   17TMC1    C8  272   3.446   2.918  10.136  0.6450  0.7047  0.8741
   17TMC1    O1  273   3.542   2.534   9.855 -0.3356 -0.0524  0.4801
   17TMC1    O2  274   3.327   2.880  10.121 -0.5696  0.0435  0.4063
   17TMC1    O3  275   3.648   2.631   9.676 -0.7655  0.1797 -0.3531
   17TMC1    H3  276   3.644   2.724   9.645  0.8124  0.8554  1.5052
   17TMC1    O5  277   3.491   2.979  10.243  0.1039  0.1424 -0.3531
   17TMC1    H5  278   3.589   2.979  10.251 -0.1191 -0.7648  2.2448
   18MPD2     C  279   4.107   3.195   9.939 -0.8420  1.0608 -0.2407
   18MPD2    C1  280   4.016   3.164  10.032 -0.1035 -0.1546 -0.7305
   18MPD2    C2  281   4.018   3.222  10.161  0.3026 -0.4491  0.1286
   18MPD2    C3  282   4.113   3.319  10.188 -0.3960  0.0410  0.9298
   18MPD2    C4  283   4.198   3.352  10.087 -0.9160  0.1166  0.6574
   18MPD2    C5  284   4.200   3.291   9.968  0.1237  0.0207  0.0170
   18MPD2     H  285   3.952   3.191  10.241 -0.1799  0.0181 -0.0935
   18MPD2    H1  286   4.279   3.420  10.114 -1.7728  0.2102  2.9073
   18MPD2    H2  287   4.114   3.156   9.838 -0.0519 -2.4760  1.1559
   18MPD2    H3  288   4.276   3.325   9.898 -0.7054  1.1399 -0.3383
   18MPD2     N  289   4.129   3.385  10.309 -0.6392 -0.4194  0.2284
   18MPD2    H5  290   4.206   3.452  10.308 -2.0136  1.1550  0.0794
   18MPD2    N1  291   3.909   3.077  10.016  0.8885  0.4481 -0.2327
   18MPD2    H7  292   3.871   3.044  10.105 -0.3460  1.8022 -0.2530
   19TMC2    C1  293   1.261   3.386  13.765  0.6498 -0.4478  0.2981
   19TMC2    C2  294   1.184   3.462  13.846  0.5222  0.3405  0.0205
   19TMC2    C3  295   1.071   3.416  13.899  0.4599 -0.4003  0.0839
   19TMC2    C4  296   1.224   3.258  13.731  0.2722 -0.5142 -0.2078
   19TMC2    C5  297   1.103   3.213  13.775  0.1874  0.1207 -0.5240
   19TMC2    C6  298   1.032   3.288  13.865  0.0204  0.5484  0.1403
   19TMC2     C  299   1.401   3.404  13.764 -0.3360  0.0850  0.0542
   19TMC2     O  300   1.453   3.377  13.659  0.7501 -0.5160 -0.1803
   19TMC2     H  301   1.227   3.560  13.865 -2.8676  1.8480 -0.1299
   19TMC2    H1  302   1.283   3.205  13.658 -0.5905 -0.9573 -0.5897
   19TMC2    H2  303   0.926   3.264  13.869  0.1890 -0.1992  0.2885
   19TMC2    C7  304   1.072   3.070  13.758  0.1372  0.4819  0.0561
   19TMC2    C8  305   0.961   3.497  13.941  0.3387  0.2353 -0.6086
   19TMC2    O1  306   1.118   3.007  13.664 -0.3970  0.7042 -1.0244
   19TMC2    O2  307   0.845   3.463  13.945  1.0356  0.5100  0.1117
   19TMC2    O5  308   1.004   3.621  13.926  0.8312 -0.0998 -0.4260
   19TMC2    H5  309   0.937   3.692  13.936 -1.3077 -2.1479 -0.0705
   20MPD2     C  310   1.650   3.564  13.770  0.3920  0.0597  0.4248
   20MPD2    C1  311   1.575   3.535  13.882 -0.3656 -0.2212  0.5949
   20MPD2    C2  312   1.627   3.571  14.006 -0.0580 -0.3672 -0.3239
   20MPD2    C3  313   1.750   3.634  14.017  0.0885 -0.3638  0.5122
   20MPD2    C4  314   1.829   3.653  13.900 -0.6919  0.1327  0.5090
   20MPD2    C5  315   1.772   3.626  13.781 -0.5679 -0.0120 -0.2716
   20MPD2     H  316   1.554   3.542  14.081  0.9818 -0.3975  0.6842
   20MPD2    H1  317   1.935   3.675  13.897 -0.2511 -2.3084 -1.8619
   20MPD2    H2  318   1.614   3.542  13.670  1.2927 -0.8859  0.3113
   20MPD2    H3  319   1.827   3.629  13.687 -0.7167 -0.9103 -0.3845
   20MPD2     N  320   1.812   3.654  14.140  0.3541 -0.7503 -0.3701
   20MPD2    H5  321   1.904   3.697  14.140  0.1944 -0.4057 -0.8546
   20MPD2    N1  322   1.457   3.473  13.874  0.5789  0.1647  0.2468
   20MPD2    H7  323   1.408   3.466  13.963 -0.1549 -1.5015 -0.2921
   21TMC2    C1  324   3.479   3.734  14.521 -0.4133 -0.0830  0.2883
   21TMC2    C2  325   3.536   3.625  14.472  0.1321 -0.4667 -0.6938
   21TMC2    C3  326   3.473   3.505  14.491  0.4064 -0.3229  0.2007
   21TMC2    C4  327   3.355   3.727  14.579  0.5569  0.0648  0.4290
   21TMC2    C5  328   3.298   3.607  14.601 -0.3799 -0.0389 -0.8495
   21TMC2    C6  329   3.354   3.490  14.565  0.3162 -0.1220  0.1616
   21TMC2     C  330   3.557   3.862  14.525  0.0966  0.2341  0.1963
   21TMC2     O  331   3.679   3.845  14.508  0.4327  0.1056 -0.2924
   21TMC2     H  332   3.634   3.636  14.426  0.9168 -1.3669  0.7728
   21TMC2    H1  333   3.317   3.814  14.631  0.4880 -0.6757  1.6379
   21TMC2    H2  334   3.306   3.392  14.568 -3.1415  1.7102  3.3733
   21TMC2    C7  335   3.156   3.591  14.607 -0.0118 -0.0017  0.1860
   21TMC2    C8  336   3.546   3.384  14.473 -0.8913  0.1378  0.1489
   21TMC2    O1  337   3.119   3.480  14.638  0.3085  0.3588 -0.0520
   21TMC2    O2  338   3.522   3.283  14.541  0.6847 -0.0437 -0.6418
   21TMC2    O5  339   3.642   3.398  14.382  0.3201 -0.2635  0.2196
   21TMC2    H5  340   3.649   3.477  14.324 -1.9861  0.6198  1.1275
   22MPD2     C  341   3.595   4.371  14.552 -0.0582  0.2381 -0.1558
   22MPD2    C1  342   3.687   4.273  14.556  0.3222 -0.1731 -0.1074
   22MPD2    C2  343   3.652   4.141  14.552  0.0424 -0.1854  0.6152
   22MPD2    C3  344   3.520   4.110  14.532  0.1240  0.0355 -0.0398
   22MPD2    C4  345   3.426   4.212  14.523 -0.1009  0.2000  0.0801
   22MPD2    C5  346   3.469   4.345  14.523 -0.1776 -0.6056  0.4637
   22MPD2     H  347   3.731   4.069  14.573  0.0586 -0.1088  0.8122
   22MPD2    H1  348   3.320   4.190  14.512  0.5454 -3.3416  1.1502
   22MPD2    H2  349   3.625   4.475  14.558 -1.2418  0.3810  3.0719
   22MPD2    H3  350   3.395   4.423  14.509 -0.1193 -0.8002 -0.9194
   22MPD2     N  351   3.477   3.979  14.515  0.7816 -0.3235 -0.0936
   22MPD2    H5  352   3.377   3.961  14.506  0.6288  0.0843  0.8325
   22MPD2    N1  353   3.822   4.312  14.568  0.8348 -0.4732 -0.5175
   22MPD2    H7  354   3.847   4.394  14.623  3.2433 -1.2266 -0.4575
   23TMC2    C1  355   4.248   0.102  14.279 -0.6258 -0.0839  0.2833
   23TMC2    C2  356   4.249   0.111  14.143 -0.5846 -0.3793 -0.3937
   23TMC2    C3  357   4.136   0.112  14.066 -0.2000  0.1800 -0.5670
   23TMC2    C4  358   4.123   0.086  14.333  1.0143 -0.2001  1.1278
   23TMC2    C5  359   4.007   0.079  14.257 -0.4953  0.6665  0.0125
   23TMC2    C6  360   4.016   0.088  14.121  0.0653  0.0055  0.3408
   23TMC2     C  361   4.375   0.113  14.345  0.1140  0.0577 -0.3363
   23TMC2     O  362   4.398   0.049  14.445  0.2213  0.3998  0.3594
   23TMC2     H  363   4.338   0.094  14.083 -1.0636  0.0181 -1.2211
   23TMC2    H1  364   4.117   0.101  14.440  0.9746 -0.7984  1.2056
   23TMC2    H2  365   3.927   0.097  14.060 -1.2256  0.0464  2.2129
   23TMC2    C7  366   3.885   0.101  14.325  0.3922 -0.1155 -0.8162
   23TMC2    C8  367   4.151   0.068  13.925 -0.2735 -0.5398 -0.1020
   23TMC2    O1  368   3.878   0.156  14.434  0.3035  0.4041 -0.4467
   23TMC2    O2  369   4.246   0.109  13.858 -0.0384  0.0926  0.4625
   23TMC2    O5  370   4.068   4.702  13.886 -0.3865 -0.0690 -0.1400
   23TMC2    H5  371   3.996   4.693  13.952 -0.6098 -1.6602 -0.6013
   24MPD2     C  372   0.129   0.295  14.404 -0.1069  0.1874  0.2553
   24MPD2    C1  373   0.043   0.246  14.501  0.4518 -0.8001 -0.1280
   24MPD2    C2  374   4.644   0.212  14.465  0.2396 -0.3465  0.2650
   24MPD2    C3  375   4.592   0.245  14.339  0.2282  0.0125 -0.3867
   24MPD2    C4  376   4.673   0.317  14.252 -0.9114  0.3476  0.3826
   24MPD2    C5  377   0.076   0.334  14.285 -0.0217  0.2465 -0.6669
   24MPD2     H  378   4.589   0.153  14.538 -0.5454  0.9571  0.7145
   24MPD2    H1  379   4.652   0.344  14.150 -0.6502  1.9954  0.7631
   24MPD2    H2  380   0.236   0.306  14.416 -0.3134  0.2390  2.0664
   24MPD2    H3  381   0.142   0.388  14.219  1.6020 -1.1414 -0.1973
   24MPD2     N  382   4.462   0.204  14.287  0.0874  1.0597  0.2019
   24MPD2    H5  383   4.429   0.259  14.208  0.2279  3.1430  1.5935
   24MPD2    N1  384   0.094   0.204  14.628  0.0566 -0.0278 -0.0763
   24MPD2    H7  385   0.036   0.152  14.693 -0.0110 -1.2717 -1.1201
   25TMC2    C1  386   3.424   3.253  11.584 -0.3799 -0.5870  0.0839
   25TMC2    C2  387   3.560   3.263  11.578  0.2567  0.0923 -0.2695
   25TMC2    C3  388   3.628   3.232  11.691 -0.8634 -0.1865 -0.0620
   25TMC2    C4  389   3.362   3.208  11.697  0.3595 -0.0858  0.1138
   25TMC2    C5  390   3.434   3.203  11.807  0.5507 -0.7721  0.2303
   25TMC2    C6  391   3.572   3.202  11.811 -0.3906 -0.6059  0.6369
   25TMC2     C  392   3.347   3.256  11.456 -0.1899  0.0156  0.1558
   25TMC2     O  393   3.368   3.341  11.374 -0.3090  0.2973 -0.2429
   25TMC2     H  394   3.603   3.298  11.485  0.5902  0.5698  0.0615
   25TMC2    H1  395   3.257   3.182  11.687  0.1284  1.3473 -1.2778
   25TMC2    H2  396   3.624   3.214  11.905  0.0789  0.4841  0.2340
   25TMC2    C7  397   3.375   3.146  11.928  0.9420 -0.4619  0.4984
   25TMC2    C8  398   3.770   3.260  11.689  0.2482 -0.0933 -0.1154
   25TMC2    O1  399   3.441   3.096  12.015  0.5529  0.4306  0.2081
   25TMC2    O2  400   3.818   3.341  11.614 -0.1512  0.5702  0.2003
   25TMC2    O5  401   3.829   3.160  11.759  0.3536 -0.7077  0.9179
   25TMC2    H5  402   3.761   3.091  11.775  0.8655 -0.9387  2.1517
   26MPD2     C  403   3.022   3.013  11.145 -0.1270 -0.0413 -0.2762
   26MPD2    C1  404   3.072   2.925  11.233  0.3512 -0.0560  0.5856
   26MPD2    C2  405   3.148   2.970  11.336 -0.2998 -0.2245  0.0212
   26MPD2    C3  406   3.184   3.101  11.346 -0.4190  0.6907 -0.1175
   26MPD2    C4  407   3.136   3.191  11.249  0.2023  0.2461 -0.0558
   26MPD2    C5  408   3.054   3.146  11.149 -0.1913 -0.5612  0.6418
   26MPD2     H  409   3.198   2.897  11.400 -0.0528  0.4317  0.5747
   26MPD2    H1  410   3.153   3.298  11.257  0.9072  0.0939  0.5513
   26MPD2    H2  411   2.957   2.984  11.063  0.5541 -2.2157 -0.0340
   26MPD2    H3  412   3.005   3.222  11.089  0.1632  0.2029  1.3120
   26MPD2     N  413   3.267   3.145  11.450  0.0021  0.0985  0.6091
   26MPD2    H5  414   3.275   3.074  11.522 -0.5834 -0.8891 -0.2999
   26MPD2    N1  415   3.037   2.791  11.210 -0.2972 -0.2054  0.1653
   26MPD2    H7  416   2.987   2.763  11.126 -1.0500  0.9880  0.2167
   27TMC2    C1  417   2.699   0.231  12.050  1.0069  0.0344  0.6692
   27TMC2    C2  418   2.717   0.361  12.054  0.2610  0.3506  0.3876
   27TMC2    C3  419   2.823   0.416  12.122  0.3045 -1.0197 -0.5782
   27TMC2    C4  420   2.773   0.151  12.125 -0.0385 -0.0264 -0.5402
   27TMC2    C5  421   2.881   0.202  12.197  0.2895 -0.5543 -0.3808
   27TMC2    C6  422   2.905   0.338  12.196  0.0141  0.3573 -0.4026
   27TMC2     C  423   2.568   0.189  11.994 -0.1812  0.5567 -0.0227
   27TMC2     O  424   2.512   0.268  11.917 -0.1241  0.2530 -0.2952
   27TMC2     H  425   2.660   0.432  11.994 -1.3670 -0.3598  1.0870
   27TMC2    H1  426   2.758   0.044  12.126  2.6696 -0.3751  1.2968
   27TMC2    H2  427   2.983   0.386  12.255  0.3349 -0.1417 -0.4221
   27TMC2    C7  428   2.931   0.120  12.309 -0.7252  0.3366  0.3978
   27TMC2    C8  429   2.869   0.546  12.077  0.0951 -0.0147 -0.5110
   27TMC2    O1  430   2.887   0.008  12.316 -0.4034 -0.5617  0.5322
   27TMC2    O2  431   2.873   0.570  11.957 -0.3140 -0.7389 -0.3893
   27TMC2    O5  432   2.944   0.599  12.172 -0.3000 -0.5166 -0.5714
   27TMC2    H5  433   2.917   0.560  12.258 -2.4287  2.9866  0.3196
   28MPD2     C  434   2.106   0.008  12.084  0.2678 -0.0809 -0.9655
   28MPD2    C1  435   2.189   4.674  12.175  0.1908  0.2463 -0.1431
   28MPD2    C2  436   2.324   4.706  12.176  0.1972 -0.5316  0.0154
   28MPD2    C3  437   2.372   0.062  12.077 -0.2453  1.0555 -0.0271
   28MPD2    C4  438   2.292   0.098  11.969  0.2287  0.0619 -0.6762
   28MPD2    C5  439   2.162   0.073  11.974 -0.3146 -0.2242  0.2883
   28MPD2     H  440   2.400   4.671  12.245  1.2953 -0.6676 -1.2795
   28MPD2    H1  441   2.332   0.143  11.878 -0.7168 -0.7922 -1.5140
   28MPD2    H2  442   2.000   4.720  12.089  0.1849  0.5148 -0.1230
   28MPD2    H3  443   2.101   0.111  11.893 -1.0647 -0.4753  0.7333
   28MPD2     N  444   2.512   0.096  12.076 -0.4366 -1.3035  0.0154
   28MPD2    H5  445   2.571   0.062  12.151  0.4472  0.4294  0.1160
   28MPD2    N1  446   2.131   4.589  12.270  0.0796  0.5087 -0.7473
   28MPD2    H7  447   2.036   4.560  12.248  0.4420  0.1052 -1.8191
   29TMC2    C1  448   2.950   2.183  13.975 -0.0562 -1.1404 -0.4437
   29TMC2    C2  449   2.866   2.228  14.080  0.0729 -0.6391  0.1893
   29TMC2    C3  450   2.835   2.359  14.085 -0.3352  0.1024 -0.1156
   29TMC2    C4  451   2.995   2.276  13.883  0.6241  0.4713 -0.0259
   29TMC2    C5  452   2.962   2.402  13.899 -0.2435  0.6757 -0.2971
   29TMC2    C6  453   2.871   2.445  13.987 -0.0472  0.7533  0.0533
   29TMC2     C  454   2.972   2.039  13.958  0.7370 -0.3200  0.0428
   29TMC2     O  455   2.896   1.975  14.024  0.3005 -0.0563  0.2260
   29TMC2     H  456   2.820   2.162  14.153  2.0840  2.4813  4.3039
   29TMC2    H1  457   3.062   2.246  13.802 -0.7719 -1.1715 -0.5712
   29TMC2    H2  458   2.841   2.549  13.979  0.4614  0.8528 -0.5521
   29TMC2    C7  459   3.050   2.500  13.834 -0.2184  0.4192  0.1352
   29TMC2    C8  460   2.706   2.358  14.139 -0.1196 -0.0750 -0.3111
   29TMC2    O1  461   3.112   2.461  13.738 -0.7992  0.1831 -0.0031
   29TMC2    O2  462   2.612   2.282  14.109 -0.4028 -0.5107  0.3326
   29TMC2    O5  463   2.691   2.488  14.170  0.1021  0.3137 -0.0202
   29TMC2    H5  464   2.773   2.542  14.174 -0.3756  0.9892  0.7553
   30MPD2     C  465   3.007   1.628  13.650 -0.4756 -0.0945 -0.3777
   30MPD2    C1  466   2.943   1.645  13.773 -0.2815 -0.3768  0.1270
   30MPD2    C2  467   2.960   1.766  13.835 -0.1239 -0.2338 -0.0408
   30MPD2    C3  468   3.027   1.878  13.782  0.2030 -0.8470  0.4042
   30MPD2    C4  469   3.093   1.855  13.669 -0.2808  0.0134 -0.2337
   30MPD2    C5  470   3.086   1.733  13.600 -0.1546  0.0195 -0.2206
   30MPD2     H  471   2.913   1.774  13.932  0.2928  0.2481  0.1199
   30MPD2    H1  472   3.153   1.932  13.622 -0.7791  0.2614 -0.4608
   30MPD2    H2  473   3.010   1.540  13.587  0.9965  0.2093 -0.7174
   30MPD2    H3  474   3.131   1.721  13.503  0.9281 -1.9725  0.5217
   30MPD2     N  475   3.038   2.005  13.843  0.2159 -0.6524 -0.2149
   30MPD2    H5  476   3.094   2.082  13.808  1.0516 -2.5517 -3.0574
   30MPD2    N1  477   2.870   1.550  13.839 -0.5555  0.0077 -1.0031
   30MPD2    H7  478   2.834   1.573  13.931  0.3062 -0.9396 -0.4310
   31TMC2    C1  479   0.377   1.261  15.249  0.0528 -0.2574 -0.8827
   31TMC2    C2  480   0.257   1.312  15.263  0.6687  0.3339  0.0967
   31TMC2    C3  481   0.192   1.289  15.381 -0.3970 -0.1533 -0.0951
   31TMC2    C4  482   0.435   1.176  15.341  0.0709 -0.2814  0.1419
   31TMC2    C5  483   0.361   1.146  15.454 -0.2816  0.1189 -0.0264
   31TMC2    C6  484   0.239   1.203  15.475 -0.0376 -0.0005  0.1508
   31TMC2     C  485   0.435   1.269  15.114  0.0125  0.2757 -0.5964
   31TMC2     O  486   0.357   1.286  15.023  0.1116  0.6119 -0.3359
   31TMC2     H  487   0.219   1.380  15.188  0.8914  1.4718  1.0253
   31TMC2    H1  488   0.527   1.121  15.327 -1.5953 -2.4339 -2.2741
   31TMC2    H2  489   0.177   1.184  15.563 -0.6571 -1.2746 -0.5553
   31TMC2    C7  490   0.400   1.030  15.523  0.5321 -0.5579  0.0370
   31TMC2    C8  491   0.057   1.348  15.383 -0.2099  0.9983 -0.7453
   31TMC2    O1  492   0.518   1.032  15.555 -0.5270  0.0466 -0.0294
   31TMC2    O2  493   4.725   1.356  15.280 -0.4432 -0.9725 -0.2961
   31TMC2    O5  494   0.004   1.327  15.502 -0.3798  0.0402 -0.4708
   31TMC2    H5  495   0.077   1.331  15.567 -0.3541  1.6111 -0.5815
   32MPD2     C  496   0.836   1.234  14.805  0.1385  0.2518  0.5269
   32MPD2    C1  497   0.701   1.242  14.775 -0.2734  0.1750 -0.2345
   32MPD2    C2  498   0.611   1.252  14.879 -0.6429  0.2678 -0.3618
   32MPD2    C3  499   0.658   1.249  15.008  0.7293  0.6135  0.0963
   32MPD2    C4  500   0.795   1.246  15.034 -0.8144  0.1900 -0.7861
   32MPD2    C5  501   0.885   1.234  14.937  0.5322 -0.2924 -0.0782
   32MPD2     H  502   0.504   1.253  14.861 -0.5070  0.1080 -1.1821
   32MPD2    H1  503   0.846   1.241  15.130  2.1726  1.0817 -2.3103
   32MPD2    H2  504   0.909   1.238  14.725 -1.6114  3.5051 -0.8915
   32MPD2    H3  505   0.990   1.227  14.961  0.3338 -1.8925  0.3041
   32MPD2     N  506   0.572   1.249  15.118  0.2620  0.7702 -0.2936
   32MPD2    H5  507   0.621   1.249  15.207  2.1121 -0.0944 -1.3154
   32MPD2    N1  508   0.667   1.245  14.638  0.1050 -0.0534 -0.8942
   32MPD2    H7  509   0.749   1.244  14.578 -0.9073  1.4822 -2.2823
   33TMC2    C1  510   4.559   4.211  10.124  0.4495  0.4538 -0.0045
   33TMC2    C2  511   4.596   4.149  10.010 -0.5383 -0.4065  0.2020
   33TMC2    C3  512   4.577   4.217   9.896 -0.0553  0.1322 -0.0611
   33TMC2    C4  513   4.538   4.351  10.121  0.3520 -0.6068 -0.3266
   33TMC2    C5  514   4.526   4.412  10.004  0.1868  0.3486  0.0473
   33TMC2    C6  515   4.534   4.346   9.890  0.6562  0.3838  0.1748
   33TMC2     C  516   4.496   4.129  10.236  0.2086 -0.2089 -0.3654
   33TMC2     O  517   4.494   4.007  10.217 -0.6938  0.2340  0.0987
   33TMC2     H  518   4.625   4.044  10.008  1.4148  0.1038  1.4367
   33TMC2    H1  519   4.546   4.400  10.218  2.3207  0.1152 -0.8556
   33TMC2    H2  520   4.503   4.399   9.801 -1.5393  1.3714  1.5489
   33TMC2    C7  521   4.600   4.536   9.999 -0.3285 -0.7758  0.0827
   33TMC2    C8  522   4.620   4.161   9.774  0.9161  0.4087 -0.0484
   33TMC2    O1  523   4.647   4.565   9.890  0.1562 -0.0817  0.7545
   33TMC2    O2  524   4.725   4.093   9.761  1.0561  0.0361 -0.0075
   33TMC2    O5  525   4.551   4.210   9.666  0.1886  0.2192 -0.8395
   33TMC2    H5  526   4.473   4.259   9.699  0.4454 -0.3640  0.6637
   34MPD2     C  527   4.199   4.079  10.640  0.6554 -0.3255 -0.7272
   34MPD2    C1  528   4.252   3.983  10.554  0.1382 -0.2997 -0.2625
   34MPD2    C2  529   4.322   4.029  10.444  0.7164  0.1094 -0.2132
   34MPD2    C3  530   4.351   4.166  10.431  0.1657 -0.3304 -0.3449
   34MPD2    C4  531   4.311   4.255  10.529  0.4775 -0.4974 -0.3829
   34MPD2    C5  532   4.225   4.213  10.627  1.0177  0.0227 -0.3358
   34MPD2     H  533   4.351   3.951  10.375 -1.2969  0.5936 -1.6168
   34MPD2    H1  534   4.340   4.359  10.516  0.5237 -0.0574  3.2812
   34MPD2    H2  535   4.130   4.049  10.719  1.3060 -0.4740 -0.2145
   34MPD2    H3  536   4.178   4.289  10.689 -1.3767  0.4802 -2.7316
   34MPD2     N  537   4.433   4.213  10.327 -0.3306  0.0081 -0.2162
   34MPD2    H5  538   4.435   4.314  10.319  1.7531 -0.2286 -2.5093
   34MPD2    N1  539   4.210   3.847  10.550 -0.0353 -0.2047 -0.8410
   34MPD2    H7  540   4.244   3.788  10.474  0.7436 -0.0296 -0.6249
   35TMC2    C1  541   0.635   0.114  11.339 -0.4390 -0.7626 -0.2380
   35TMC2    C2  542   0.523   0.190  11.308  0.0183 -0.2455 -1.0204
   35TMC2    C3  543   0.407   0.157  11.365 -0.8518 -0.1106 -0.1041
   35TMC2    C4  544   0.630   0.005  11.420 -0.2904  0.0429  0.6982
   35TMC2    C5  545   0.510   4.704  11.480  0.3782  0.6157 -0.1975
   35TMC2    C6  546   0.395   0.046  11.453  0.3173  0.0947  0.9728
   35TMC2     C  547   0.758   0.148  11.268 -0.6015  0.5524  0.3610
   35TMC2     O  548   0.747   0.231  11.179 -0.0536 -0.4807 -0.2347
   35TMC2     H  549   0.528   0.277  11.244 -0.9902  0.2240 -0.4692
   35TMC2    H1  550   0.719   4.685  11.449 -0.3159 -1.0911 -1.3541
   35TMC2    H2  551   0.304   0.026  11.508  1.1181 -0.6340  2.0279
   35TMC2    C7  552   0.501   4.587  11.570 -0.9234  0.1406 -0.0770
   35TMC2    C8  553   0.282   0.227  11.332  0.4320  0.8335 -0.3265
   35TMC2    O1  554   0.606   4.534  11.606  0.0746 -0.0880  0.0345
   35TMC2    O2  555   0.292   0.348  11.324  0.3607  0.2469 -0.2682
   35TMC2    O5  556   0.198   0.144  11.259 -0.0876 -0.0337 -0.0202
   35TMC2    H5  557   0.238   0.057  11.236  1.2162  0.5455  0.0380
   36MPD2     C  558   1.268   0.246  11.262  0.4886 -0.3630 -0.7391
   36MPD2    C1  559   1.238   0.149  11.354 -0.7377  0.2621 -0.5062
   36MPD2    C2  560   1.115   0.096  11.371  0.2175 -0.2136  0.3453
   36MPD2    C3  561   1.007   0.152  11.303  0.0255  0.3128 -0.2299
   36MPD2    C4  562   1.037   0.248  11.209  0.0613  0.0716  0.4596
   36MPD2    C5  563   1.164   0.298  11.192 -0.6098 -0.4375 -0.8189
   36MPD2     H  564   1.093   0.021  11.446 -1.4742 -1.1453 -1.0579
   36MPD2    H1  565   0.958   0.290  11.148  0.7139 -1.8067 -1.6683
   36MPD2    H2  566   1.368   0.277  11.234  0.3392 -0.2441 -1.1420
   36MPD2    H3  567   1.178   0.382  11.125  0.7187 -0.0455 -0.0496
   36MPD2     N  568   0.873   0.108  11.337 -0.0774  0.3333 -0.3318
   36MPD2    H5  569   0.866   0.046  11.417  0.2637 -3.2672 -3.0910
   36MPD2    N1  570   1.345   0.108  11.430 -0.4540  0.0944  0.3934
   36MPD2    H7  571   1.433   0.156  11.418  0.0066 -1.0581 -0.8945
   37TMC2    C1  572   3.722   0.634  11.387 -0.4647  0.0229 -0.0209
   37TMC2    C2  573   3.634   0.731  11.360  0.8101  0.1691 -0.2936
   37TMC2    C3  574   3.687   0.852  11.315  0.2412 -0.9914 -0.2960
   37TMC2    C4  575   3.856   0.659  11.371  0.6838  0.5990  0.5218
   37TMC2    C5  576   3.901   0.778  11.321  0.3944 -0.0348  0.5565
   37TMC2    C6  577   3.819   0.883  11.298 -1.1826  0.3209 -0.4958
   37TMC2     C  578   3.671   0.522  11.463 -0.4863  0.3396  0.7403
   37TMC2     O  579   3.561   0.532  11.507  0.2881  0.0992  0.3319
   37TMC2     H  580   3.532   0.698  11.347 -0.0080  2.3558  0.7598
   37TMC2    H1  581   3.921   0.584  11.415  2.6013  2.9887  1.7431
   37TMC2    H2  582   3.854   0.978  11.259  0.4971  0.7774  2.1200
   37TMC2    C7  583   4.048   0.810  11.325  0.5917  0.4689 -0.0064
   37TMC2    C8  584   3.601   0.958  11.273  0.3089 -0.2799 -0.0219
   37TMC2    O1  585   4.108   0.738  11.401  0.3654 -0.2327  0.6417
   37TMC2    O2  586   3.641   1.058  11.216  0.2788  0.0606 -0.7826
   37TMC2    O5  587   3.501   0.956  11.361 -0.7780 -0.4536 -0.2207
   37TMC2    H5  588   3.494   0.878  11.420  0.4830 -0.0127  0.5205
   38MPD2     C  589   3.733   0.069  11.682 -0.0702  0.3585  0.0489
   38MPD2    C1  590   3.827   0.081  11.590 -0.1461 -0.5370 -0.5655
   38MPD2    C2  591   3.835   0.201  11.521 -0.7020 -0.6189  0.9611
   38MPD2    C3  592   3.751   0.298  11.539  0.2599  0.2217  0.2639
   38MPD2    C4  593   3.650   0.290  11.636  0.0148  0.0039  0.3369
   38MPD2    C5  594   3.636   0.167  11.695  0.1788  0.6580 -0.9014
   38MPD2     H  595   3.907   0.225  11.443 -0.6361 -0.3472  1.1047
   38MPD2    H1  596   3.579   0.370  11.653 -2.0514 -2.2045  2.0533
   38MPD2    H2  597   3.716   4.708  11.731 -2.6489  1.5152  1.4047
   38MPD2    H3  598   3.551   0.146  11.759 -0.8166  1.9198 -1.8146
   38MPD2     N  599   3.759   0.415  11.461 -0.0374  0.1950  0.2218
   38MPD2    H5  600   3.833   0.429  11.394  0.7445 -0.6824  0.8918
   38MPD2    N1  601   3.907   4.708  11.540  0.5974  0.1562  0.3813
   38MPD2    H7  602   3.951   4.724  11.450 -2.0954  0.6513 -0.8573
   39TMC2    C1  603   2.494   1.685   1.558  0.5603 -0.3012 -0.5949
   39TMC2    C2  604   2.573   1.626   1.465  0.1772  0.1025  0.0739
   39TMC2    C3  605   2.701   1.637   1.486  0.1648  0.1353  0.7439
   39TMC2    C4  606   2.534   1.731   1.679 -0.3926 -0.3176 -0.5329
   39TMC2    C5  607   2.669   1.754   1.690 -0.4290 -0.2136  0.3076
   39TMC2    C6  608   2.758   1.702   1.594 -0.2344  0.4520  0.3555
   39TMC2     C  609   2.354   1.679   1.524 -0.3444  0.6941  0.2730
   39TMC2     O  610   2.319   1.639   1.412 -0.6513 -0.3053  0.3449
   39TMC2     H  611   2.530   1.590   1.373  0.2113  1.8423 -0.6278
   39TMC2    H1  612   2.478   1.778   1.759 -0.6214 -2.1290  0.3589
   39TMC2    H2  613   2.861   1.675   1.616 -0.1656  2.2643  2.3389
   39TMC2    C7  614   2.723   1.830   1.803 -0.1421 -0.6449  0.7664
   39TMC2    C8  615   2.793   1.563   1.399  0.2160 -0.3396 -0.3717
   39TMC2    O1  616   2.655   1.830   1.907 -0.5417 -0.6063  0.2658
   39TMC2    O2  617   2.913   1.599   1.396 -0.3581  0.3089  0.1396
   39TMC2    O5  618   2.743   1.448   1.351 -0.3446  0.5476 -0.4355
   39TMC2    H5  619   2.651   1.428   1.378 -0.3395  0.6807 -0.3220
   40MPD2     C  620   2.098   1.714   1.768  0.1699 -0.2329 -0.4684
   40MPD2    C1  621   2.136   1.700   1.637  0.5823  0.3269  0.2300
   40MPD2    C2  622   2.043   1.697   1.531 -0.3348  0.1701  0.3987
   40MPD2    C3  623   1.906   1.716   1.558  0.1265  0.2978  0.7572
   40MPD2    C4  624   1.871   1.721   1.689  0.1744  0.1129  0.1234
   40MPD2    C5  625   1.961   1.711   1.791  0.1659  0.9591  0.2563
   40MPD2     H  626   2.075   1.693   1.427 -2.0434  2.2520 -0.2070
   40MPD2    H1  627   1.769   1.747   1.717 -0.0143 -1.0219  0.4706
   40MPD2    H2  628   2.171   1.715   1.848  1.0917  1.1606 -1.3124
   40MPD2    H3  629   1.930   1.716   1.894  1.4588 -1.3569  0.7426
   40MPD2     N  630   1.810   1.755   1.461  0.0166 -0.2775  0.0607
   40MPD2    H5  631   1.729   1.804   1.499 -0.5575 -0.3124 -1.1185
   40MPD2    N1  632   2.277   1.691   1.635 -0.1503  0.3949 -0.4632
   40MPD2    H7  633   2.330   1.676   1.720  1.0364  2.0924 -0.9046
   41TMC2    C1  634   0.906   0.006  14.029 -0.1375 -0.1958  0.2772
   41TMC2    C2  635   0.917   4.603  13.996  0.4308 -0.7705 -0.0007
   41TMC2    C3  636   1.019   4.568  13.916 -0.1008 -0.2295  0.2627
   41TMC2    C4  637   0.998   0.103  13.991  0.3251  0.0066  0.4104
   41TMC2    C5  638   1.101   0.060  13.907  0.4239  0.3498 -0.3361
   41TMC2    C6  639   1.105   4.662  13.862  0.0720 -0.4897 -0.2472
   41TMC2     C  640   0.796   0.042  14.117  0.2734  0.2077  0.2702
   41TMC2     O  641   0.707   4.695  14.130 -0.1617  0.3410 -0.1248
   41TMC2     H  642   0.848   4.527  14.030 -0.2841  0.5865  1.5512
   41TMC2    H1  643   0.984   0.209  14.008  0.4813 -0.2056  1.8264
   41TMC2    H2  644   1.177   4.630  13.788 -1.1036 -0.5946 -1.3473
   41TMC2    C7  645   1.160   0.168  13.826 -0.7556  0.5303  0.2396
   41TMC2    C8  646   0.988   4.462  13.817  0.6036  0.6923 -0.3006
   41TMC2    O1  647   1.167   0.274  13.882 -0.3394 -0.1807  0.3248
   41TMC2    O2  648   1.041   4.474  13.708 -0.0816  0.4257 -0.3655
   41TMC2    O5  649   0.933   4.346  13.875 -0.4999 -0.2512  0.0457
   41TMC2    H5  650   0.945   4.339  13.972  2.2192  1.5955 -0.1497
   42MPD2     C  651   0.592   0.179  14.290  0.1068  0.4739  0.9107
   42MPD2    C1  652   0.717   0.224  14.259  0.2077  0.0950 -0.3861
   42MPD2    C2  653   0.775   0.323  14.335 -0.4859  0.3732 -0.2472
   42MPD2    C3  654   0.702   0.394  14.424  0.1263  0.9450 -0.2284
   42MPD2    C4  655   0.566   0.366  14.439 -0.3914 -0.3001 -0.1459
   42MPD2    C5  656   0.513   0.260  14.371  0.5830  0.0304  0.0174
   42MPD2     H  657   0.877   0.356  14.321 -0.3346 -1.1368 -2.5878
   42MPD2    H1  658   0.511   0.413  14.519  0.7236 -0.3198  0.6333
   42MPD2    H2  659   0.545   0.095  14.241  1.1381  0.4816 -0.0935
   42MPD2    H3  660   0.407   0.239  14.386  0.2441  1.2848 -0.5632
   42MPD2     N  661   0.749   0.491  14.511  0.1068 -0.1285 -0.5439
   42MPD2    H5  662   0.680   0.531  14.573 -1.4852  0.8702 -2.9662
   42MPD2    N1  663   0.813   0.161  14.178  0.3181  0.2254 -0.0678
   42MPD2    H7  664   0.907   0.200  14.177 -0.0896  1.1831 -0.5777
   43TMC2    C1  665   2.393   2.973   0.588 -0.1737  0.1307 -0.2824
   43TMC2    C2  666   2.432   2.888   0.687  0.2849 -0.2121 -0.0912
   43TMC2    C3  667   2.467   2.942   0.808 -0.2078 -0.1760 -0.5214
   43TMC2    C4  668   2.408   3.109   0.600 -1.0654  0.0907  0.4823
   43TMC2    C5  669   2.444   3.160   0.723 -0.0309  0.6079 -0.6160
   43TMC2    C6  670   2.487   3.080   0.822 -0.0932 -0.0823 -0.4697
   43TMC2     C  671   2.374   2.918   0.452  0.8576 -0.3275 -0.3976
   43TMC2     O  672   2.306   2.984   0.374  0.0001  0.2979  0.1584
   43TMC2     H  673   2.400   2.785   0.680  0.1514 -0.2576  1.2119
   43TMC2    H1  674   2.365   3.179   0.530 -0.0299  0.0797 -0.1759
   43TMC2    H2  675   2.532   3.118   0.913  1.4560  0.6325 -1.5450
   43TMC2    C7  676   2.491   3.295   0.737  0.3542 -0.4879  1.0809
   43TMC2    C8  677   2.528   2.851   0.907  0.1788  0.0036 -0.3821
   43TMC2    O1  678   2.521   3.349   0.628  0.2970 -0.5892  0.3827
   43TMC2    O2  679   2.614   2.767   0.871 -0.2280  0.5223 -0.5328
   43TMC2    O5  680   2.481   2.870   1.026 -0.2174  0.0764  0.6827
   43TMC2    H5  681   2.398   2.922   1.019  0.2200  0.8011  0.8518
   44MPD2     C  682   2.482   2.552   0.094  0.2015 -0.3369  0.7822
   44MPD2    C1  683   2.570   2.545   0.202 -0.2781 -0.2272  0.5560
   44MPD2    C2  684   2.547   2.623   0.311  0.1534  0.0047 -0.5461
   44MPD2    C3  685   2.448   2.719   0.315  0.0843 -0.1205 -0.3341
   44MPD2    C4  686   2.364   2.733   0.209 -1.2617  0.0116  0.0120
   44MPD2    C5  687   2.379   2.647   0.104  0.2424  0.3855  0.4867
   44MPD2     H  688   2.623   2.615   0.388  0.3830  1.0589 -0.6625
   44MPD2    H1  689   2.286   2.806   0.194 -0.9953  0.1576 -0.6809
   44MPD2    H2  690   2.482   2.471   0.022  0.0749  0.0989  0.2924
   44MPD2    H3  691   2.304   2.653   0.026 -0.4969  1.2624  1.2658
   44MPD2     N  692   2.447   2.802   0.429 -0.3018  0.3250  0.0639
   44MPD2    H5  693   2.513   2.775   0.501 -2.2937 -0.8727  1.4192
   44MPD2    N1  694   2.682   2.456   0.212  0.4152  0.3551 -0.0681
   44MPD2    H7  695   2.728   2.463   0.302  0.7777 -1.4972 -0.1095
   45TMC2    C1  696   3.305   0.546  10.124  0.3254 -0.5736 -0.4609
   45TMC2    C2  697   3.318   0.482  10.248  0.0347  0.4931  0.1068
   45TMC2    C3  698   3.387   0.556  10.341 -0.4217  0.0260  0.0137
   45TMC2    C4  699   3.367   0.662  10.093  0.3411  0.2377 -0.3189
   45TMC2    C5  700   3.441   0.723  10.189 -0.0239 -0.0351 -0.3749
   45TMC2    C6  701   3.456   0.670  10.312  0.2884 -0.0904  0.3300
   45TMC2     C  702   3.209   0.505  10.033 -0.0616  0.2176  0.1223
   45TMC2     O  703   3.209   0.554   9.924  0.6932  0.2628  0.2033
   45TMC2     H  704   3.300   0.376  10.262 -0.9289  0.7833  1.0050
   45TMC2    H1  705   3.348   0.715  10.001 -1.2932  0.4794  0.1471
   45TMC2    H2  706   3.513   0.731  10.382 -1.2153  1.8172 -0.1001
   45TMC2    C7  707   3.463   0.875  10.188 -0.0696  0.3786  0.8322
   45TMC2    C8  708   3.420   0.485  10.463  0.5275 -0.1375  0.1111
   45TMC2    O1  709   3.492   0.927  10.297  0.1661 -0.1023 -0.2594
   45TMC2    O2  710   3.518   0.512  10.532  0.5377  0.3485  0.4492
   45TMC2    O5  711   3.308   0.416  10.507 -0.0086  0.0965  0.0934
   45TMC2    H5  712   3.246   0.379  10.441  0.9659 -0.5876 -0.4265
   46MPD2     C  713   2.983   0.222  10.062  0.6783 -0.3717  0.0151
   46MPD2    C1  714   3.017   0.351  10.020 -0.6072  0.7287  0.4236
   46MPD2    C2  715   2.933   0.419   9.937 -0.9109  0.3405 -0.3227
   46MPD2    C3  716   2.826   0.355   9.885 -0.2540  0.1019  0.0554
   46MPD2    C4  717   2.794   0.224   9.931  0.7943 -0.2223 -0.5675
   46MPD2    C5  718   2.878   0.154  10.016  0.2970 -0.2667 -0.2236
   46MPD2     H  719   2.954   0.524   9.922  0.4104  0.4589  2.4588
   46MPD2    H1  720   2.716   0.167   9.882  0.4491  0.6659 -1.0587
   46MPD2    H2  721   3.040   0.158  10.127  0.9133 -0.0709  0.1066
   46MPD2    H3  722   2.869   0.049  10.039  1.7737 -0.5905 -1.1503
   46MPD2     N  723   2.736   0.430   9.803 -1.4819 -1.0891  0.6770
   46MPD2    H5  724   2.761   0.526   9.782  1.6146 -2.0421  0.0860
   46MPD2    N1  725   3.134   0.400  10.083  0.4194 -0.1387  0.6897
   46MPD2    H7  726   3.158   0.349  10.167 -1.1557  0.0192  1.2288
   47TMC2    C1  727   0.335   1.693   9.211  0.1039 -0.5590 -0.1103
   47TMC2    C2  728   0.317   1.562   9.180 -0.6887 -0.1135 -0.1744
   47TMC2    C3  729   0.210   1.524   9.107  0.4236 -0.3132  0.0994
   47TMC2    C4  730   0.239   1.784   9.160 -0.4750 -0.1264  0.0072
   47TMC2    C5  731   0.127   1.743   9.089 -0.2993  0.2879 -0.2912
   47TMC2    C6  732   0.118   1.613   9.062  0.3777  0.0461 -0.5803
   47TMC2     C  733   0.450   1.754   9.268 -0.9366  0.5304 -0.0837
   47TMC2     O  734   0.462   1.874   9.258 -0.0366 -0.5199 -0.1668
   47TMC2     H  735   0.397   1.493   9.201  0.1773  1.1045  0.5501
   47TMC2    H1  736   0.238   1.886   9.196 -1.4966 -0.6147  1.3530
   47TMC2    H2  737   0.027   1.582   9.012  0.3304  2.8210 -2.2137
   47TMC2    C7  738   4.729   1.805   9.111 -0.0960 -0.4462  0.4087
   47TMC2    C8  739   0.164   1.388   9.111 -0.4112 -0.0067 -0.3003
   47TMC2    O1  740   4.631   1.739   9.089  0.4278  0.1869 -0.2364
   47TMC2    O2  741   0.053   1.362   9.062 -0.0628 -0.4293 -0.1377
   47TMC2    O5  742   0.196   1.338   9.234  0.0953  0.0803  0.1483
   47TMC2    H5  743   0.279   1.377   9.268  0.9802 -1.2174 -0.5165
   48MPD2     C  744   0.749   1.782   9.318  0.0036  0.7589 -0.2238
   48MPD2    C1  745   0.678   1.670   9.336  0.9276  0.0383  0.2662
   48MPD2    C2  746   0.750   1.565   9.382 -0.6308 -0.2314 -1.0933
   48MPD2    C3  747   0.886   1.567   9.407 -0.2111 -0.1189 -0.2916
   48MPD2    C4  748   0.957   1.684   9.385  0.0589 -0.8385 -0.7302
   48MPD2    C5  749   0.887   1.792   9.347  0.5600 -0.0565 -0.9544
   48MPD2     H  750   0.693   1.473   9.385  0.1593 -0.6702  0.1201
   48MPD2    H1  751   1.065   1.690   9.385 -0.0039  0.3390 -1.9730
   48MPD2    H2  752   0.699   1.874   9.288 -1.7447  0.7457  2.6697
   48MPD2    H3  753   0.936   1.885   9.323 -0.4080  0.6036 -0.4060
   48MPD2     N  754   0.947   1.448   9.449 -0.1447 -0.1712 -0.4227
   48MPD2    H5  755   0.887   1.376   9.487 -1.2441  1.5267  1.1038
   48MPD2    N1  756   0.541   1.653   9.300  0.4550  0.0018 -0.1304
   48MPD2    H7  757   0.503   1.560   9.317 -0.2692 -0.0302 -1.9403
   49TMC2    C1  758   2.743   2.994  10.457 -0.0274  0.2650  0.6540
   49TMC2    C2  759   2.824   2.989  10.569  0.2599  0.0056  0.2025
   49TMC2    C3  760   2.791   2.901  10.669  0.5922 -0.2386  0.5665
   49TMC2    C4  761   2.631   2.906  10.445  0.1694  0.1800 -0.0032
   49TMC2    C5  762   2.605   2.818  10.545  0.5090  0.2690  0.1651
   49TMC2    C6  763   2.694   2.807  10.648  0.0664  0.3640 -0.7477
   49TMC2     C  764   2.765   3.085  10.349 -0.8006 -0.4178 -0.1269
   49TMC2     O  765   2.714   3.056  10.239 -0.3133  0.0211  0.4814
   49TMC2     H  766   2.912   3.052  10.575 -0.9096  1.8536 -1.8113
   49TMC2    H1  767   2.567   2.930  10.361 -0.8298 -0.2839  0.6232
   49TMC2    H2  768   2.682   2.737  10.730 -1.2166 -1.1520 -2.2053
   49TMC2    C7  769   2.474   2.758  10.559 -0.7359  0.1506  0.1958
   49TMC2    C8  770   2.839   2.920  10.799  0.5900 -0.0470  0.4541
   49TMC2    O1  771   2.467   2.703  10.665  0.4436  0.6581  0.8688
   49TMC2    O2  772   2.805   2.850  10.892 -0.3371  0.6911 -0.3693
   49TMC2    O5  773   2.854   3.051  10.803 -0.0981  0.3298  0.0893
   49TMC2    H5  774   2.843   3.091  10.714 -0.1687  0.4638  0.1584
   50MPD2     C  775   2.887   3.295  10.175  1.0669  0.2569 -0.0243
   50MPD2    C1  776   2.868   3.307  10.311  0.2970  0.0535 -0.2291
   50MPD2    C2  777   2.916   3.417  10.375 -0.1656  0.1978  1.1257
   50MPD2    C3  778   2.976   3.516  10.302 -0.5342  0.7617  0.4386
   50MPD2    C4  779   2.999   3.505  10.166 -0.2776 -1.1596  0.4174
   50MPD2    C5  780   2.954   3.390  10.107 -0.4618 -0.0761 -0.1943
   50MPD2     H  781   2.887   3.428  10.479  0.2727 -2.9432  1.5680
   50MPD2    H1  782   3.046   3.589  10.118 -1.7702 -1.1376 -1.0292
   50MPD2    H2  783   2.845   3.210  10.123  1.1533  0.0174  0.2926
   50MPD2    H3  784   2.976   3.379  10.002 -2.2167 -2.7396 -0.2947
   50MPD2     N  785   3.026   3.632  10.361 -0.7132 -0.6607 -0.6909
   50MPD2    H5  786   3.074   3.709  10.316 -1.2062 -1.1364 -2.0183
   50MPD2    N1  787   2.819   3.204  10.395 -0.7420 -0.0849  0.1322
   50MPD2    H7  788   2.818   3.217  10.496  0.8079  1.7826 -0.0767
   51TMC2    C1  789   3.879   3.088   1.268 -0.0829  0.1287 -0.2023
   51TMC2    C2  790   3.930   3.187   1.345  0.5955  0.5331 -0.5705
   51TMC2    C3  791   4.040   3.255   1.305  0.1401 -0.3368 -0.4828
   51TMC2    C4  792   3.942   3.060   1.148 -0.6978 -0.4419 -0.5502
   51TMC2    C5  793   4.059   3.115   1.121 -0.2943  1.0770  0.6075
   51TMC2    C6  794   4.117   3.210   1.199 -0.5411 -0.5205 -0.4324
   51TMC2     C  795   3.807   2.971   1.327  0.3472  0.2668  0.5406
   51TMC2     O  796   3.797   2.865   1.257  0.0033 -0.6268  0.2513
   51TMC2     H  797   3.884   3.214   1.439  0.6595  0.8695 -0.6362
   51TMC2    H1  798   3.900   2.977   1.092  1.6765 -2.4123  0.5274
   51TMC2    H2  799   4.201   3.271   1.169 -1.5541  1.0902  0.0137
   51TMC2    C7  800   4.161   3.028   1.062  0.3054 -0.9262 -0.0035
   51TMC2    C8  801   4.091   3.350   1.409  0.2052  0.4255 -0.1301
   51TMC2    O1  802   4.275   3.054   1.090 -0.0525  0.8364  0.7465
   51TMC2    O2  803   4.007   3.414   1.472  0.2258 -0.5025 -0.4190
   51TMC2    O5  804   4.206   3.396   1.372  0.0962  0.7077  0.0453
   51TMC2    H5  805   4.259   3.325   1.330  2.2054  0.9112  2.3236
   52MPD2     C  806   3.610   2.704   1.728 -0.0492  0.3072  0.2685
   52MPD2    C1  807   3.641   2.660   1.601  1.2823  0.4418 -0.0507
   52MPD2    C2  808   3.697   2.750   1.514  0.6434 -0.2196 -0.6420
   52MPD2    C3  809   3.712   2.887   1.543  0.1908  0.6107  0.7889
   52MPD2    C4  810   3.676   2.925   1.673 -0.4017 -0.2102 -0.6126
   52MPD2    C5  811   3.628   2.835   1.764 -0.2608  0.1590 -0.3643
   52MPD2     H  812   3.725   2.723   1.413  0.0941  1.4786 -1.2369
   52MPD2    H1  813   3.689   3.028   1.705  1.9338 -0.5113 -0.5600
   52MPD2    H2  814   3.602   2.627   1.804 -1.3596  0.3626  0.1935
   52MPD2    H3  815   3.590   2.869   1.860 -1.1408  0.0589 -0.6740
   52MPD2     N  816   3.766   2.988   1.459  0.3596  0.1897  0.5797
   52MPD2    H5  817   3.769   3.079   1.503 -1.0601 -0.2157  1.5003
   52MPD2    N1  818   3.625   2.528   1.559 -0.4363  0.4087  0.4507
   52MPD2    H7  819   3.656   2.509   1.464 -0.6685 -0.4817  0.5500
   53TMC2    C1  820   0.005   0.699  11.305  0.0493 -0.6137 -0.0538
   53TMC2    C2  821   0.139   0.692  11.283 -0.8856  0.4004  0.1565
   53TMC2    C3  822   0.216   0.636  11.374  0.9405  0.3011  0.5048
   53TMC2    C4  823   4.681   0.646  11.418 -0.2924 -0.1685 -0.0838
   53TMC2    C5  824   0.029   0.590  11.505  0.1081 -0.0672  0.4138
   53TMC2    C6  825   0.166   0.589  11.491  0.7892 -0.0829 -0.3530
   53TMC2     C  826   4.666   0.774  11.211 -0.1934 -0.2312 -0.3675
   53TMC2     O  827   4.728   0.813  11.115 -0.0697  0.1381  0.1641
   53TMC2     H  828   0.188   0.711  11.188 -0.2717  3.2805  1.0594
   53TMC2    H1  829   4.573   0.635  11.430 -0.1732 -0.2141  0.9540
   53TMC2    H2  830   0.236   0.556  11.567 -1.7906 -2.7837  0.8606
   53TMC2    C7  831   4.694   0.487  11.584  0.0664  0.0301 -0.4134
   53TMC2    C8  832   0.361   0.667  11.359 -0.0326 -0.0972 -0.0384
   53TMC2    O1  833   4.571   0.494  11.592 -0.2747  0.0356 -0.5506
   53TMC2    O2  834   0.385   0.784  11.326  0.1719  0.2999 -0.1430
   53TMC2    O5  835   0.435   0.579  11.426 -0.2519  0.0813  0.0350
   53TMC2    H5  836   0.383   0.500  11.451  1.3603 -0.6902  0.9928
   54MPD2     C  837   4.455   0.918  11.057 -0.1888  0.6521  0.1998
   54MPD2    C1  838   4.444   0.873  11.187 -0.2144  0.5589 -0.7393
   54MPD2    C2  839   4.322   0.880  11.239  0.5352  0.2347  0.6645
   54MPD2    C3  840   4.218   0.911  11.162  0.1412 -0.4354  0.5440
   54MPD2    C4  841   4.229   0.982  11.047  0.3391  0.1285  0.9712
   54MPD2    C5  842   4.352   0.990  10.998  0.6028  0.1044  0.3722
   54MPD2     H  843   4.312   0.831  11.336 -1.5425  0.0378  0.3446
   54MPD2    H1  844   4.144   1.013  10.986 -0.2655 -0.1661  1.6633
   54MPD2    H2  845   4.551   0.915  11.006  0.6531  0.7770  1.7967
   54MPD2    H3  846   4.386   1.045  10.911  0.0489 -1.9698 -1.1452
   54MPD2     N  847   4.088   0.885  11.214 -0.3466 -0.3286  0.3425
   54MPD2    H5  848   4.012   0.916  11.153 -0.5655 -1.1199  0.2079
   54MPD2    N1  849   4.541   0.804  11.256 -0.1795  0.2818  0.3312
   54MPD2    H7  850   4.526   0.783  11.354 -0.4311 -1.6634 -0.1167
   55TMC2    C1  851   0.987   3.829   0.034 -0.1018  0.8562  0.7543
   55TMC2    C2  852   1.052   3.889  17.666 -0.3321 -0.9256  0.6833
   55TMC2    C3  853   1.151   3.814  17.604 -0.1901 -0.0387  0.0472
   55TMC2    C4  854   1.009   3.697   0.073  0.0727 -0.1319 -0.4214
   55TMC2    C5  855   1.108   3.630   0.008  0.8596  0.1826  0.1651
   55TMC2    C6  856   1.181   3.686  17.640 -0.1251 -0.5967 -0.7391
   55TMC2     C  857   0.866   3.881   0.093  0.4124  0.4858  0.4163
   55TMC2     O  858   0.810   3.824   0.184  0.0518 -0.9564  0.1678
   55TMC2     H  859   1.037   3.991  17.631  2.2125 -1.1086 -0.9627
   55TMC2    H1  860   0.934   3.646   0.133 -1.8743  1.2371 -1.6862
   55TMC2    H2  861   1.251   3.624  17.586 -0.1362 -1.2794  0.0254
   55TMC2    C7  862   1.105   3.484   0.017  0.0575 -0.6761  0.1968
   55TMC2    C8  863   1.196   3.859  17.476 -0.2806 -0.0880 -0.3540
   55TMC2    O1  864   1.143   3.420  17.656  0.3076 -0.1481 -0.2115
   55TMC2    O2  865   1.125   3.928  17.406  0.0028 -0.1830 -0.8389
   55TMC2    O5  866   1.325   3.831  17.457 -0.2604 -0.0417 -0.0862
   55TMC2    H5  867   1.379   3.792  17.529  0.0759  0.9439  0.1845
   56MPD2     C  868   0.692   4.185  17.721 -0.8413  0.1303  0.1682
   56MPD2    C1  869   0.704   4.064   0.049  0.4123 -0.1505  0.9867
   56MPD2    C2  870   0.597   4.012   0.126  0.1979  0.0578 -0.0289
   56MPD2    C3  871   0.482   4.089   0.144 -0.1434  0.2740  0.3131
   56MPD2    C4  872   0.478   4.216   0.089  0.2948  0.2104 -0.1348
   56MPD2    C5  873   0.574   4.256   0.002  0.2163  0.4433  0.4235
   56MPD2     H  874   0.605   3.915   0.173 -2.3455  0.3633  1.0298
   56MPD2    H1  875   0.397   4.284   0.110  0.5536  0.4454  0.1147
   56MPD2    H2  876   0.763   4.223  17.649  0.7413 -2.2437  0.4644
   56MPD2    H3  877   0.571   4.353  17.689 -1.7585  0.9623  1.6350
   56MPD2     N  878   0.378   4.029   0.209 -0.1537  0.0937  0.8261
   56MPD2    H5  879   0.386   3.929   0.227  2.1797  0.2185  0.5180
   56MPD2    N1  880   0.830   3.996   0.030  0.0483  0.2731  0.2742
   56MPD2    H7  881   0.893   4.013  17.687 -1.5527  0.2475 -1.0255
   57TMC2    C1  882   4.302   3.604  13.806  0.2250 -0.8527 -0.6308
   57TMC2    C2  883   4.248   3.594  13.683 -0.5951 -0.1468  0.6735
   57TMC2    C3  884   4.316   3.526  13.587  0.2418 -0.0432  0.0574
   57TMC2    C4  885   4.427   3.545  13.835  0.5953  0.6100  0.9576
   57TMC2    C5  886   4.495   3.479  13.733 -1.3204  0.2633  0.0451
   57TMC2    C6  887   4.435   3.464  13.606  0.3070  0.0172 -0.1488
   57TMC2     C  888   4.224   3.685  13.900 -0.3593 -0.7082  0.1754
   57TMC2     O  889   4.123   3.736  13.856 -0.2429 -0.4939  0.6192
   57TMC2     H  890   4.161   3.644  13.641 -0.4851 -0.4442  0.0792
   57TMC2    H1  891   4.482   3.557  13.927  1.3050  0.4106  0.5652
   57TMC2    H2  892   4.473   3.408  13.521  2.5884 -1.3418  1.7824
   57TMC2    C7  893   4.637   3.469  13.748  0.0777  0.1084 -0.0575
   57TMC2    C8  894   4.267   3.515  13.449  0.4346 -0.5455  0.2138
   57TMC2    O1  895   4.679   3.505  13.857 -0.1662 -0.0436 -0.6241
   57TMC2    O2  896   4.242   3.411  13.387 -0.0019  0.0644 -0.4637
   57TMC2    O5  897   4.222   3.637  13.406 -0.7613 -0.2962 -0.0962
   57TMC2    H5  898   4.279   3.709  13.441 -1.0588 -0.7423  1.3093
   58MPD2     C  899   4.148   3.889  14.357 -0.2819  0.0325 -0.3959
   58MPD2    C1  900   4.055   3.886  14.255  0.0916  0.1963 -0.5093
   58MPD2    C2  901   4.106   3.817  14.143  0.7376  0.5243  0.0939
   58MPD2    C3  902   4.230   3.759  14.134 -0.5554  0.0377 -0.0101
   58MPD2    C4  903   4.306   3.761  14.245  0.3297 -0.3575 -0.2544
   58MPD2    C5  904   4.270   3.826  14.351  0.5723 -0.7040  0.2413
   58MPD2     H  905   4.058   3.842  14.049  3.0806 -0.2148 -1.3092
   58MPD2    H1  906   4.401   3.708  14.249  0.1236 -0.6261  1.1565
   58MPD2    H2  907   4.127   3.945  14.447  1.1734  0.1057 -0.0898
   58MPD2    H3  908   4.335   3.815  14.438 -0.1401 -0.8824  0.7512
   58MPD2     N  909   4.280   3.692  14.025  0.2383 -0.4537  0.4345
   58MPD2    H5  910   4.371   3.647  14.030 -0.0489 -1.0108  0.6742
   58MPD2    N1  911   3.932   3.947  14.275  0.3336  0.0251 -0.1232
   58MPD2    H7  912   3.917   3.990  14.366  0.2347 -1.2606  0.4661
   59TMC2    C1  913   1.978   4.079  12.487  0.1236 -0.7159 -0.2733
   59TMC2    C2  914   1.928   4.015  12.591  0.3492  0.0724 -0.1052
   59TMC2    C3  915   1.834   3.917  12.565  0.3103  0.1661 -0.9520
   59TMC2    C4  916   1.932   4.060  12.358  0.7444  0.5139 -0.2331
   59TMC2    C5  917   1.826   3.969  12.342 -0.7492  0.0412 -0.2025
   59TMC2    C6  918   1.785   3.893  12.444  0.0010 -0.7821 -0.2997
   59TMC2     C  919   2.123   4.114  12.495 -0.3789 -0.4432  0.3214
   59TMC2     O  920   2.178   4.140  12.391 -0.0166  0.3402 -0.4706
   59TMC2     H  921   1.965   4.029  12.692  0.6055 -0.7740 -0.0899
   59TMC2    H1  922   1.984   4.113  12.279 -0.3109  0.1555 -1.1633
   59TMC2    H2  923   1.701   3.825  12.437 -0.4732 -0.0272 -2.0752
   59TMC2    C7  924   1.751   3.949  12.219  0.2488  0.4558  0.3580
   59TMC2    C8  925   1.761   3.851  12.676  0.3273  0.2792  0.2907
   59TMC2    O1  926   1.693   3.837  12.217  1.0021 -0.1556  0.6204
   59TMC2    O2  927   1.704   3.743  12.665 -0.6047  0.3888  0.5264
   59TMC2    O5  928   1.757   3.922  12.793 -0.0926 -0.0109 -0.0294
   59TMC2    H5  929   1.775   4.018  12.791  1.8192 -0.3806 -0.3848
   60MPD2     C  930   2.388   4.199  12.568  0.1733 -0.3448  0.3347
   60MPD2    C1  931   2.312   4.132  12.654 -0.4018  1.0318  0.0196
   60MPD2    C2  932   2.363   4.089  12.771  0.0244  0.0410 -0.4661
   60MPD2    C3  933   2.500   4.101  12.793  0.2377  0.3794  0.0141
   60MPD2    C4  934   2.580   4.159  12.698 -0.2418  0.7178 -0.1487
   60MPD2    C5  935   2.522   4.215  12.591  0.2003  0.0678  0.0125
   60MPD2     H  936   2.291   4.043  12.837  0.8116 -1.8951 -0.9480
   60MPD2    H1  937   2.686   4.183  12.699 -0.0911 -0.2184  3.6900
   60MPD2    H2  938   2.358   4.233  12.469  0.1348 -0.0021  0.4653
   60MPD2    H3  939   2.574   4.262  12.509 -2.2645  1.7841 -0.5886
   60MPD2     N  940   2.569   4.040  12.903 -0.2489  0.0032 -0.2238
   60MPD2    H5  941   2.669   4.055  12.908 -0.6641  2.2262  1.0948
   60MPD2    N1  942   2.178   4.103  12.623  0.3378  0.5131  0.2321
   60MPD2    H7  943   2.120   4.068  12.699 -0.4420 -1.1259 -1.1182
   61TMC2    C1  944   1.646   0.509  15.369 -0.2841  0.3111 -0.2071
   61TMC2    C2  945   1.545   0.452  15.437 -0.2428 -0.4240  0.0329
   61TMC2    C3  946   1.438   0.530  15.467  0.4462 -0.0430 -0.4402
   61TMC2    C4  947   1.666   0.644  15.352  0.5488 -0.1165  0.8343
   61TMC2    C5  948   1.555   0.715  15.384  0.5093 -0.7469  0.9734
   61TMC2    C6  949   1.436   0.660  15.432  0.1017  0.5295 -0.8000
   61TMC2     C  950   1.727   0.418  15.288  0.0083  0.0820  0.3695
   61TMC2     O  951   1.724   0.298  15.311  0.2147 -0.4729  0.8864
   61TMC2     H  952   1.544   0.344  15.445  1.9206 -0.2802  2.2508
   61TMC2    H1  953   1.762   0.683  15.322  1.3793 -1.7371  1.4383
   61TMC2    H2  954   1.342   0.711  15.452 -0.4561 -0.7416 -0.0965
   61TMC2    C7  955   1.561   0.858  15.344 -0.5272  0.0874  0.4942
   61TMC2    C8  956   1.316   0.450  15.501 -0.3348 -0.4465  0.0659
   61TMC2    O1  957   1.671   0.905  15.327 -0.5099  0.2285  0.5113
   61TMC2    O2  958   1.214   0.473  15.441 -0.7663  0.6104 -0.0688
   61TMC2    O5  959   1.345   0.344  15.577  0.3568  0.1395 -0.4396
   61TMC2    H5  960   1.437   0.352  15.609 -0.2631  2.7914  0.7388
   62MPD2     C  961   1.879   0.301  15.062 -0.0209 -0.1698 -0.0203
   62MPD2    C1  962   1.824   0.429  15.062  0.0238 -0.9297  0.3041
   62MPD2    C2  963   1.839   0.508  14.945  0.4842  0.0981  0.6344
   62MPD2    C3  964   1.907   0.461  14.833 -0.1664 -0.5333 -0.7096
   62MPD2    C4  965   1.954   0.330  14.833 -0.2011  1.3148 -0.4466
   62MPD2    C5  966   1.939   0.255  14.948 -0.1405 -1.0830  0.2592
   62MPD2     H  967   1.798   0.608  14.948  0.1494 -0.0209  0.0671
   62MPD2    H1  968   1.998   0.290  14.742 -1.5915 -1.3192  0.0376
   62MPD2    H2  969   1.876   0.227  15.140  0.0700  1.8087  1.8528
   62MPD2    H3  970   1.973   0.152  14.949 -2.1238 -1.7393  0.4886
   62MPD2     N  971   1.942   0.542  14.721  0.0141 -0.4875 -0.0530
   62MPD2    H5  972   1.993   0.500  14.644 -0.1999 -1.5478  0.3789
   62MPD2    N1  973   1.766   0.486  15.173 -0.1793  0.0125 -0.0073
   62MPD2    H7  974   1.728   0.579  15.167 -1.2190 -0.2149  3.1520
   63TMC2    C1  975   1.060   1.476  10.362 -0.6778 -0.0422 -0.1297
   63TMC2    C2  976   1.155   1.574  10.389 -0.0374 -0.3368  0.6421
   63TMC2    C3  977   1.148   1.685  10.309 -0.0859 -0.4452 -0.0522
   63TMC2    C4  978   0.968   1.492  10.262  0.6017 -0.3271 -0.0318
   63TMC2    C5  979   0.973   1.608  10.195 -0.7909 -0.2242  0.1657
   63TMC2    C6  980   1.047   1.713  10.235 -0.2786 -0.2739 -0.1631
   63TMC2     C  981   1.078   1.352  10.436 -0.0508 -0.0165 -0.0969
   63TMC2     O  982   1.151   1.359  10.533  0.6468  0.4965  0.3461
   63TMC2     H  983   1.238   1.565  10.458 -0.7308 -1.4088  1.3197
   63TMC2    H1  984   0.895   1.420  10.226  0.0621 -0.1836  0.7686
   63TMC2    H2  985   1.046   1.798  10.167  0.8671  1.0922  1.5013
   63TMC2    C7  986   0.864   1.627  10.101  0.2004 -0.9858 -0.2783
   63TMC2    C8  987   1.261   1.769  10.285  0.4131  0.1011 -0.4240
   63TMC2    O1  988   0.756   1.571  10.122 -0.1263  0.1728  0.1746
   63TMC2    O2  989   1.254   1.855  10.199  0.3678 -0.3075 -0.0085
   63TMC2    O5  990   1.365   1.694  10.291  0.5255 -0.2533 -0.1689
   63TMC2    H5  991   1.357   1.602  10.325 -3.0705 -1.2780 -3.8108
   64MPD2     C  992   0.888   0.899  10.590 -0.4143 -1.0950  0.4473
   64MPD2    C1  993   0.849   0.928  10.460 -0.0325  1.1394 -0.0663
   64MPD2    C2  994   0.873   1.052  10.411 -0.3620  0.2901 -0.4550
   64MPD2    C3  995   0.947   1.151  10.477 -0.0751  0.0329 -0.5215
   64MPD2    C4  996   0.987   1.121  10.606  0.3622  0.3805  0.3957
   64MPD2    C5  997   0.949   0.998  10.659 -0.0778 -0.6864 -0.4223
   64MPD2     H  998   0.848   1.071  10.307  0.4367 -1.3758 -0.9427
   64MPD2    H1  999   1.043   1.198  10.657  0.6814  2.3677 -2.9566
   64MPD2    H2 1000   0.876   0.812  10.654 -2.0586 -1.2734 -0.1043
   64MPD2    H3 1001   0.970   0.971  10.762  1.6739 -0.6700 -0.7805
   64MPD2     N 1002   0.972   1.270  10.409  0.1991 -0.3264 -0.4394
   64MPD2    H5 1003   0.934   1.291  10.318 -1.1419 -2.3278 -0.3289
   64MPD2    N1 1004   0.808   0.821  10.373  0.4959 -0.4126 -0.5797
   64MPD2    H7 1005   0.791   0.836  10.274 -0.9535  0.9493 -0.1284
   65TMC2    C1 1006   2.048   0.085  15.442 -0.5254 -0.5323  0.2900
   65TMC2    C2 1007   2.126   0.009  15.364 -0.2417  0.0027 -0.3130
   65TMC2    C3 1008   2.198   0.072  15.267  0.2451  0.4188 -0.5384
   65TMC2    C4 1009   2.042   0.223  15.424 -0.4052 -0.2893 -0.0985
   65TMC2    C5 1010   2.114   0.279  15.322  0.1105 -0.8446  1.4087
   65TMC2    C6 1011   2.185   0.204  15.233 -0.1127  0.0047  0.2482
   65TMC2     C 1012   1.956   0.021  15.534 -0.8578 -0.1219  0.0507
   65TMC2     O 1013   1.922   0.072  15.642 -0.0386  0.0675 -0.7367
   65TMC2     H 1014   2.157   4.645  15.398 -0.7017  0.1567  0.5344
   65TMC2    H1 1015   1.976   0.275  15.493  1.5374  0.7953  0.9348
   65TMC2    H2 1016   2.243   0.248  15.152 -1.0528  0.8825  0.0441
   65TMC2    C7 1017   2.101   0.418  15.296  0.2184  0.9373 -0.3164
   65TMC2    C8 1018   2.329   0.026  15.257 -0.1341 -0.5334  0.2884
   65TMC2    O1 1019   2.161   0.466  15.196 -0.7114  0.4833  0.4689
   65TMC2    O2 1020   2.406   0.056  15.346 -0.1193 -0.0809 -0.0647
   65TMC2    O5 1021   2.349   0.012  15.127  0.6128 -0.1614 -0.2260
   65TMC2    H5 1022   2.273   4.713  15.074 -0.7130  0.5850  1.2434
   66MPD2     C 1023   1.867   4.519  15.705 -0.0600  0.1044 -0.1983
   66MPD2    C1 1024   1.881   4.519  15.566 -0.0334 -0.1244 -0.5063
   66MPD2    C2 1025   1.845   4.410  15.487  0.2592  0.2500 -0.5680
   66MPD2    C3 1026   1.777   4.304  15.546  0.4250 -0.3263 -0.0717
   66MPD2    C4 1027   1.762   4.305  15.690  0.5992  0.3558  0.2590
   66MPD2    C5 1028   1.807   4.409  15.770  0.0334 -0.6052  0.1475
   66MPD2     H 1029   1.871   4.417  15.382  1.0278  2.0088 -0.2601
   66MPD2    H1 1030   1.726   4.217  15.742 -0.3778  0.8385  0.4178
   66MPD2    H2 1031   1.910   4.598  15.766  0.7398 -0.0698 -0.5376
   66MPD2    H3 1032   1.803   4.396  15.877 -0.0552 -0.6516  0.1382
   66MPD2     N 1033   1.724   4.198  15.474  0.4308 -0.6757  0.1334
   66MPD2    H5 1034   1.653   4.149  15.528 -0.2036 -0.7354 -0.7613
   66MPD2    N1 1035   1.932   4.623  15.491 -0.0051  0.1730  0.0691
   66MPD2    H7 1036   1.944   4.593  15.395 -0.6656 -0.6424  0.2384
   67TMC2    C1 1037   2.179   4.335  14.457 -0.0290 -0.2705 -0.2527
   67TMC2    C2 1038   2.069   4.400  14.512  0.9204  0.4404 -0.3026
   67TMC2    C3 1039   2.070   4.418  14.643  0.0279 -0.5087  0.1301
   67TMC2    C4 1040   2.284   4.289  14.531 -0.3388 -0.1527 -0.1600
   67TMC2    C5 1041   2.275   4.307  14.671 -0.9553 -0.3738 -0.0637
   67TMC2    C6 1042   2.173   4.374  14.723  0.1908 -0.2693  0.8314
   67TMC2     C 1043   2.175   4.286  14.318 -0.3325  0.7483 -0.4554
   67TMC2     O 1044   2.281   4.254  14.266 -0.0281  0.0708 -0.0153
   67TMC2     H 1045   1.988   4.442  14.452  1.1445 -0.2053 -1.0510
   67TMC2    H1 1046   2.368   4.246  14.479 -0.5333  1.0664 -1.5008
   67TMC2    H2 1047   2.138   4.364  14.825  2.3804 -0.4453  1.5617
   67TMC2    C7 1048   2.393   4.279  14.751 -0.4875  0.2468  0.5411
   67TMC2    C8 1049   1.973   4.511  14.701  0.2257  0.1891  0.4703
   67TMC2    O1 1050   2.490   4.228  14.699 -0.8368 -0.5400  0.0154
   67TMC2    O2 1051   2.003   4.561  14.808 -0.8726 -0.4393  0.3684
   67TMC2    O5 1052   1.858   4.445  14.669  0.7730  0.3041  0.3195
   67TMC2    H5 1053   1.867   4.378  14.599 -0.7456 -1.5246  1.8779
   68MPD2     C 1054   2.092   4.163  14.079  0.1188  0.3179  0.4027
   68MPD2    C1 1055   2.009   4.176  14.183  0.9125  0.6939 -0.6671
   68MPD2    C2 1056   1.879   4.119  14.190  0.4273 -0.3447 -0.4416
   68MPD2    C3 1057   1.828   4.051  14.084 -0.3390 -0.7576 -0.8088
   68MPD2    C4 1058   1.923   4.033  13.986 -0.1093  0.4694 -0.3887
   68MPD2    C5 1059   2.049   4.074  13.983 -0.1428  0.3860 -1.0674
   68MPD2     H 1060   1.818   4.132  14.278  1.6800 -0.7899  0.4919
   68MPD2    H1 1061   1.897   3.969  13.902  0.6225 -1.8659  1.1822
   68MPD2    H2 1062   2.194   4.200  14.081  0.4355 -0.5361  0.1558
   68MPD2    H3 1063   2.105   4.040  13.896  0.4418  0.0515 -0.5597
   68MPD2     N 1064   1.700   3.992  14.079  0.4375 -0.3998  0.2178
   68MPD2    H5 1065   1.674   3.962  13.985  3.1425  1.7286 -1.2519
   68MPD2    N1 1066   2.044   4.261  14.292 -0.9116 -0.4059  0.2455
   68MPD2    H7 1067   1.978   4.287  14.364  0.7743 -0.9237  1.9599
   69TMC2    C1 1068   4.624   0.316  12.085  0.1919  0.6438 -0.4408
   69TMC2    C2 1069   4.580   0.443  12.066  0.0041 -0.0627  0.6637
   69TMC2    C3 1070   4.667   0.523  12.005  0.2062  0.1288  0.0728
   69TMC2    C4 1071   0.014   0.273  12.059  1.1406 -0.8737 -0.9332
   69TMC2    C5 1072   0.101   0.359  11.991 -0.2740 -0.3110  0.4355
   69TMC2    C6 1073   0.060   0.493  11.971  0.3260 -0.5100 -0.5648
   69TMC2     C 1074   4.544   0.230  12.165  0.1307 -0.1861  0.1303
   69TMC2     O 1075   4.605   0.152  12.238  0.6389 -0.3454 -0.4754
   69TMC2     H 1076   4.486   0.478  12.108 -1.4758 -2.6434 -0.5058
   69TMC2    H1 1077   0.047   0.177  12.097  1.0747  0.0145  1.3837
   69TMC2    H2 1078   0.122   0.566  11.919  1.0468 -1.2863 -0.7980
   69TMC2    C7 1079   0.224   0.322  11.937 -0.2323  0.6279 -0.7130
   69TMC2    C8 1080   4.653   0.662  12.008  0.1034 -0.1848 -0.0672
   69TMC2    O1 1081   0.261   0.393  11.843 -0.6881  0.3297 -0.1247
   69TMC2    O2 1082   4.577   0.722  11.929 -0.6317 -0.4109 -0.1531
   69TMC2    O5 1083   0.027   0.717  12.062 -0.6670 -0.7359  0.2667
   69TMC2    H5 1084   0.074   0.663  12.129 -1.5414 -0.4383  1.1072
   70MPD2     C 1085   4.185   0.219  12.217  0.1577 -0.6344  0.3681
   70MPD2    C1 1086   4.314   0.168  12.211 -0.7478 -0.1169  1.0198
   70MPD2    C2 1087   4.345   0.040  12.255 -0.4295  0.0204 -0.5900
   70MPD2    C3 1088   4.242   4.701  12.314  0.6897  0.0223 -0.0147
   70MPD2    C4 1089   4.116   0.018  12.319 -0.2012  0.2403  0.3704
   70MPD2    C5 1090   4.091   0.143  12.279  0.1758  0.1037  1.0048
   70MPD2     H 1091   4.445   4.732  12.245 -0.5289  0.0939 -1.8801
   70MPD2    H1 1092   4.031   4.699  12.361  0.4305  0.2179  1.6481
   70MPD2    H2 1093   4.146   0.317  12.191 -0.0575 -0.6899  0.4774
   70MPD2    H3 1094   3.990   0.181  12.272  0.7855  1.5789 -0.0017
   70MPD2     N 1095   4.262   4.578  12.374  0.1000  1.1360  0.4550
   70MPD2    H5 1096   4.186   4.538  12.428  1.9723 -2.5247  0.4004
   70MPD2    N1 1097   4.409   0.250  12.149  0.2829 -0.0092  0.2167
   70MPD2    H7 1098   4.378   0.334  12.100  0.0629  0.7207  1.6090
   71TMC2    C1 1099   1.312   1.722   1.503  0.2332  0.6677 -1.1165
   71TMC2    C2 1100   1.427   1.760   1.567  0.8970 -0.2075 -0.2328
   71TMC2    C3 1101   1.420   1.857   1.667 -1.0471  0.7944 -0.3472
   71TMC2    C4 1102   1.199   1.790   1.530 -0.2380 -0.4779 -0.2769
   71TMC2    C5 1103   1.200   1.896   1.617  0.3405 -0.6921 -0.6479
   71TMC2    C6 1104   1.305   1.925   1.692  0.9180  0.0516 -0.6629
   71TMC2     C 1105   1.327   1.636   1.388 -0.2452 -0.2113  0.5607
   71TMC2     O 1106   1.430   1.571   1.387 -0.1289 -0.2929 -0.3224
   71TMC2     H 1107   1.522   1.708   1.554  1.6143  0.9672  0.3229
   71TMC2    H1 1108   1.107   1.755   1.484 -0.5367 -0.9006  0.6505
   71TMC2    H2 1109   1.305   2.009   1.761  0.5772 -1.0514  0.6757
   71TMC2    C7 1110   1.070   1.935   1.670  0.2613  0.3241 -0.0406
   71TMC2    C8 1111   1.543   1.920   1.687  0.2930 -0.1853  0.2545
   71TMC2    O1 1112   1.058   1.961   1.789 -0.0655  0.0259 -0.5347
   71TMC2    O2 1113   1.628   1.910   1.599 -0.0752  0.8080  0.1184
   71TMC2    O5 1114   1.562   1.967   1.808 -0.3138 -0.1756 -0.4808
   71TMC2    H5 1115   1.492   1.947   1.873  0.0627 -1.3344 -0.4349
   72MPD2     C 1116   1.182   1.458   0.925 -0.0818  0.5232 -0.1839
   72MPD2    C1 1117   1.295   1.432   0.997  0.3321  0.4393  0.0387
   72MPD2    C2 1118   1.324   1.496   1.119 -0.0155  0.2087 -0.1525
   72MPD2    C3 1119   1.226   1.575   1.174  0.0418  0.1652  0.4151
   72MPD2    C4 1120   1.110   1.595   1.100  0.4265 -0.1982  0.2245
   72MPD2    C5 1121   1.090   1.543   0.978  0.5639 -0.6068  0.0879
   72MPD2     H 1122   1.411   1.475   1.180  0.3292  1.5200 -0.2127
   72MPD2    H1 1123   1.033   1.659   1.142  1.3512  0.5926  0.7289
   72MPD2    H2 1124   1.153   1.425   0.825 -1.8281 -0.0929  0.5224
   72MPD2    H3 1125   1.000   1.557   0.920  1.3872 -0.1863 -1.0912
   72MPD2     N 1126   1.229   1.638   1.298 -0.4405 -0.3041 -0.3800
   72MPD2    H5 1127   1.149   1.696   1.319 -0.1873 -0.2700  0.4903
   72MPD2    N1 1128   1.391   1.342   0.937  0.7734 -0.6218 -0.3829
   72MPD2    H7 1129   1.479   1.323   0.983  0.1683  0.8376  1.3459
   73TMC2    C1 1130   1.234   2.323  12.904  0.4263 -0.0079 -0.0670
   73TMC2    C2 1131   1.240   2.196  12.939 -0.1056 -0.5786  0.7065
   73TMC2    C3 1132   1.291   2.091  12.866 -0.8123  0.1727 -0.1756
   73TMC2    C4 1133   1.288   2.353  12.785 -0.3150  0.4662 -0.0693
   73TMC2    C5 1134   1.365   2.254  12.721  0.6365 -0.0526 -0.2402
   73TMC2    C6 1135   1.371   2.125  12.757 -0.2095 -0.2771  0.0077
   73TMC2     C 1136   1.284   2.429  12.985 -0.2794  0.1825 -0.3243
   73TMC2     O 1137   1.360   2.503  12.929 -0.1208  0.4877 -0.3155
   73TMC2     H 1138   1.214   2.171  13.041  0.8535  0.3645  1.1805
   73TMC2    H1 1139   1.283   2.450  12.736  0.1001 -0.7507 -2.5138
   73TMC2    H2 1140   1.429   2.051  12.703  0.6327  0.2467  0.1818
   73TMC2    C7 1141   1.493   2.301  12.665 -0.1814 -0.3021 -0.4234
   73TMC2    C8 1142   1.309   1.957  12.924  0.0605  0.5710  0.0219
   73TMC2    O1 1143   1.563   2.222  12.607 -0.1511  0.1790  0.2090
   73TMC2    O2 1144   1.286   1.933  13.042 -0.8640  0.1326 -0.6606
   73TMC2    O5 1145   1.285   1.862  12.826 -0.2682 -0.1528  0.5160
   73TMC2    H5 1146   1.275   1.909  12.741 -2.1684 -0.9594  0.2903
   74MPD2     C 1147   1.425   2.644  13.423  0.0373  0.0768  0.3335
   74MPD2    C1 1148   1.445   2.685  13.294 -0.4351  0.0637 -0.2899
   74MPD2    C2 1149   1.382   2.611  13.194  0.4058 -0.1892 -0.6059
   74MPD2    C3 1150   1.313   2.493  13.223 -0.7727  0.2424 -0.2720
   74MPD2    C4 1151   1.301   2.448  13.347 -0.3886  0.2156  0.3050
   74MPD2    C5 1152   1.362   2.520  13.445 -0.3883  0.0404  0.8054
   74MPD2     H 1153   1.387   2.649  13.092 -0.5264 -0.6832 -0.8367
   74MPD2    H1 1154   1.254   2.354  13.373 -1.0631  0.8167  1.2485
   74MPD2    H2 1155   1.475   2.689  13.508 -0.3737  0.4849  0.3583
   74MPD2    H3 1156   1.365   2.480  13.546  1.4170 -1.5292  0.1286
   74MPD2     N 1157   1.261   2.409  13.117 -0.2919 -0.2471  0.1456
   74MPD2    H5 1158   1.190   2.343  13.146 -0.5461 -0.9103 -2.0269
   74MPD2    N1 1159   1.519   2.794  13.255 -0.5406 -0.1537 -0.3675
   74MPD2    H7 1160   1.523   2.794  13.154 -2.6180  0.9971 -0.4581
   75TMC2    C1 1161   1.490   3.935  14.153  0.3140  0.0416 -0.6727
   75TMC2    C2 1162   1.435   3.833  14.222  0.0580 -0.0194 -0.4577
   75TMC2    C3 1163   1.312   3.796  14.173  0.3105 -0.5856  0.4839
   75TMC2    C4 1164   1.439   4.006  14.048  1.0047 -0.3679 -0.3716
   75TMC2    C5 1165   1.313   3.964  14.011 -0.1211 -0.0617 -0.6705
   75TMC2    C6 1166   1.254   3.850  14.065  0.4020 -0.2984 -0.4791
   75TMC2     C 1167   1.633   3.945  14.185  0.1565  0.5132  0.5739
   75TMC2     O 1168   1.669   3.921  14.297 -0.2567  0.3636  0.5915
   75TMC2     H 1169   1.481   3.796  14.312  1.1069  1.2194 -0.4824
   75TMC2    H1 1170   1.494   4.085  13.999  0.6572  0.4312  0.5160
   75TMC2    H2 1171   1.155   3.818  14.033 -0.0803  0.9818 -0.2488
   75TMC2    C7 1172   1.253   4.017  13.892 -0.7188 -0.3822 -0.7562
   75TMC2    C8 1173   1.247   3.678  14.234 -0.4974  0.1374  0.2522
   75TMC2    O1 1174   1.187   3.939  13.825 -0.1001 -0.0077 -0.1294
   75TMC2    O2 1175   1.312   3.589  14.285  0.6670 -0.3850  0.4827
   75TMC2    O5 1176   1.109   3.677  14.232  0.0313  0.1989  0.6084
   75TMC2    H5 1177   1.065   3.762  14.208 -4.2385 -2.4018 -0.7937
   76TMC2    C1 1178   1.217   4.334  12.043  0.1097  0.4034  0.8140
   76TMC2    C2 1179   1.178   4.232  11.959  0.0709  0.4346 -0.3253
   76TMC2    C3 1180   1.100   4.131  12.015  0.5442 -0.5246 -0.2071
   76TMC2    C4 1181   1.192   4.337  12.177 -0.3133  0.1440  0.2127
   76TMC2    C5 1182   1.122   4.228  12.221 -0.3092  0.2866 -0.2471
   76TMC2    C6 1183   1.074   4.130  12.151 -0.0494  0.4597  0.6763
   76TMC2     C 1184   1.259   4.458  11.969 -0.0453 -0.1963 -0.1201
   76TMC2     O 1185   1.191   4.472  11.867  0.1727 -0.2389  0.4137
   76TMC2     H 1186   1.196   4.224  11.852  3.0168  0.9170  0.1573
   76TMC2    H1 1187   1.238   4.407  12.246  1.3804  0.2986 -1.0757
   76TMC2    H2 1188   1.012   4.054  12.196  2.6260  0.0357  3.5873
   76TMC2    C7 1189   1.098   4.216  12.361 -0.0621 -0.4596  0.7869
   76TMC2    C8 1190   1.021   4.051  11.932 -0.0107 -0.3412  0.5534
   76TMC2    O1 1191   0.998   4.147  12.396 -0.3032  0.0853 -0.8303
   76TMC2    O2 1192   0.999   4.077  11.810  0.1722  0.0142 -0.1582
   76TMC2    O5 1193   1.046   3.927  11.972 -0.9023  0.0258 -0.2696
   76TMC2    H5 1194   1.092   3.927  12.059  0.0115  1.0958 -0.7646
   77MPD2     C 1195   1.412   0.203  11.935 -0.6286  0.0821  0.4296
   77MPD2    C1 1196   1.297   0.143  11.898  0.4502  0.7428  0.1697
   77MPD2    C2 1197   1.275   0.014  11.933 -0.3442 -0.2655 -0.3404
   77MPD2    C3 1198   1.366   4.674  12.009 -0.2837  0.3104  0.5075
   77MPD2    C4 1199   1.475   0.007  12.057 -0.1751  0.2569 -0.0216
   77MPD2    C5 1200   1.498   0.133  12.017 -0.1000 -0.2742  0.1507
   77MPD2     H 1201   1.189   4.701  11.888  0.8012 -1.7755 -0.9417
   77MPD2    H1 1202   1.549   4.697  12.123 -0.4671 -0.9107 -0.4732
   77MPD2    H2 1203   1.441   0.305  11.913 -1.8528  0.3580  0.1152
   77MPD2    H3 1204   1.583   0.186  12.058 -0.4818  1.7101 -1.6387
   77MPD2     N 1205   1.345   4.541  12.045  0.3461  0.7898  0.5680
   77MPD2    H5 1206   1.407   4.496  12.112  1.5666  0.2669 -0.8984
   77MPD2    N1 1207   1.194   0.201  11.811  0.0297  0.0629 -0.0729
   77MPD2    H7 1208   1.113   0.147  11.781 -0.1050  0.6641 -0.7971
   78TMC2    C1 1209   1.112   1.150   1.145 -0.2956  0.2121 -0.8639
   78TMC2    C2 1210   1.000   1.163   1.067 -0.3489  1.0494 -0.2205
   78TMC2    C3 1211   0.999   1.082   0.954  0.0260 -0.5840 -0.6708
   78TMC2    C4 1212   1.217   1.073   1.098 -0.1685  0.4480 -0.6009
   78TMC2    C5 1213   1.212   1.002   0.980 -0.3345 -0.4563  0.3948
   78TMC2    C6 1214   1.099   1.005   0.909  0.4065 -0.3049 -0.5695
   78TMC2     C 1215   1.125   1.201   1.276  0.8519  0.1823 -0.1487
   78TMC2     O 1216   1.226   1.168   1.341  0.7784  0.0134 -0.0613
   78TMC2     H 1217   0.908   1.212   1.096 -1.1702 -2.0215  2.3515
   78TMC2    H1 1218   1.306   1.057   1.157 -2.2626  0.9627  2.7326
   78TMC2    H2 1219   1.091   0.953   0.814 -0.1900 -0.6008 -0.3644
   78TMC2    C7 1220   1.332   0.931   0.936  0.0547  0.6714 -0.5560
   78TMC2    C8 1221   0.871   1.038   0.912 -0.0323 -0.6464  0.0572
   78TMC2    O1 1222   1.433   0.950   1.002 -0.5280 -0.1643 -0.2156
   78TMC2    O2 1223   0.843   1.015   0.796 -0.1357  0.2176 -0.3559
   78TMC2    O5 1224   0.779   1.032   1.012 -0.0795  0.6026 -0.0992
   78TMC2    H5 1225   0.804   1.052   1.105 -0.7250  0.8426  0.0206
   79MPD1     C 1226   0.983   1.540   1.613 -0.0983  0.0847 -0.2001
   79MPD1    C1 1227   1.090   1.457   1.613  0.0418  0.1986  0.2707
   79MPD1    C2 1228   1.098   1.369   1.508 -0.1493 -0.0787  0.2875
   79MPD1    C3 1229   1.026   1.394   1.398  0.3274 -0.1905 -0.5488
   79MPD1    C4 1230   0.934   1.492   1.384 -0.2769  0.2111  0.2225
   79MPD1    C5 1231   0.904   1.555   1.502 -0.1215  0.0141 -0.1776
   79MPD1     H 1232   1.160   1.280   1.519  1.1391  0.3481 -3.4216
   79MPD1    H1 1233   0.884   1.517   1.291 -3.0844 -1.3076  1.3477
   79MPD1    H2 1234   0.961   1.601   1.700  0.5930  0.9684 -0.6519
   79MPD1    H3 1235   0.819   1.621   1.511  0.1803  0.1296  1.9218
   79MPD1     N 1236   1.032   1.303   1.290  0.0950 -0.0646 -0.5526
   79MPD1    H5 1237   0.974   1.336   1.213  0.0068  1.0143 -0.0287
   79MPD1    N1 1238   1.159   1.425   1.733  0.2365 -0.4605  0.4007
   79MPD1    H6 1239   1.255   1.395   1.717 -0.5805 -1.7015 -2.1134
   79MPD1    H7 1240   1.166   1.504   1.797 -2.1161  0.4762 -0.5186
   80TMC2    C1 1241   3.459   3.822  11.356  1.4850  0.7356  0.0450
   80TMC2    C2 1242   3.382   3.783  11.250  0.2410  0.2164  0.1281
   80TMC2    C3 1243   3.291   3.689  11.275 -0.5149  0.2931  0.5384
   80TMC2    C4 1244   3.445   3.771  11.484 -0.0026 -0.1552 -0.0655
   80TMC2    C5 1245   3.354   3.672  11.498 -0.0230  0.2871  0.3946
   80TMC2    C6 1246   3.274   3.630  11.397 -0.0604  0.6159  0.6523
   80TMC2     C 1247   3.576   3.903  11.326 -0.2360  0.2812  0.1923
   80TMC2     O 1248   3.629   3.972  11.411  0.7482 -0.0015 -0.2331
   80TMC2     H 1249   3.390   3.828  11.152  1.4326  2.2616  1.1851
   80TMC2    H1 1250   3.501   3.817  11.566  1.7002 -0.1767 -1.2041
   80TMC2    H2 1251   3.205   3.549  11.418 -0.3661  0.4080 -1.1904
   80TMC2    C7 1252   3.343   3.608  11.630  0.1296 -0.2190 -0.1025
   80TMC2    C8 1253   3.220   3.628  11.161  0.2187 -1.1915  0.0778
   80TMC2    O1 1254   3.240   3.553  11.662 -0.4585 -0.1545 -0.3012
   80TMC2    O2 1255   3.195   3.675  11.053 -0.0217 -0.0979  0.6704
   80TMC2    O5 1256   3.270   3.500  11.180 -0.2299  0.2886 -0.1355
   80TMC2    H5 1257   3.300   3.467  11.267  2.6407 -2.5252 -2.1945
   81MPD2     C 1258   3.780   3.885  11.014 -0.1744 -0.3452  0.4283
   81MPD2    C1 1259   3.724   3.942  11.129  0.1089  0.5291 -0.1379
   81MPD2    C2 1260   3.788   4.055  11.172 -0.1467 -0.5701  0.1124
   81MPD2    C3 1261   3.897   4.112  11.110  0.6551 -0.0536  0.5446
   81MPD2    C4 1262   3.952   4.046  11.007  0.0130 -0.2505 -0.2370
   81MPD2    C5 1263   3.889   3.936  10.947 -0.3131 -0.1796  0.4875
   81MPD2     H 1264   3.752   4.094  11.266 -0.5837 -1.0799  0.1608
   81MPD2    H1 1265   4.045   4.078  10.962 -0.9609 -0.9152 -2.7170
   81MPD2    H2 1266   3.727   3.795  10.984  1.6387 -1.2537 -0.0088
   81MPD2    H3 1267   3.927   3.887  10.858  1.5053 -0.9234  1.6900
   81MPD2     N 1268   3.972   4.215  11.167  0.0112 -0.1345 -0.8502
   81MPD2    H5 1269   4.065   4.244  11.141  0.1955  0.8624  0.8804
   81MPD2    N1 1270   3.617   3.878  11.201  0.2587  0.0731  1.0737
   81MPD2    H7 1271   3.585   3.786  11.170  0.4564 -0.2683  1.8793
   82TMC2    C1 1272   1.898   4.219  11.593 -0.3813  0.2243  0.0350
   82TMC2    C2 1273   1.950   4.271  11.704  0.4423 -0.5343  0.5594
   82TMC2    C3 1274   1.960   4.187  11.816  0.1606  0.1525 -0.5117
   82TMC2    C4 1275   1.849   4.087  11.602 -0.4973  0.4880 -0.2048
   82TMC2    C5 1276   1.871   4.006  11.716 -0.2587  0.4705 -0.3179
   82TMC2    C6 1277   1.935   4.050  11.823  0.3779 -0.7552 -0.0254
   82TMC2     C 1278   1.906   4.276  11.461  0.2792 -0.3287 -0.4141
   82TMC2     O 1279   1.857   4.215  11.364 -0.2885  0.3872  0.1346
   82TMC2     H 1280   1.985   4.374  11.701 -0.2119 -0.3126  0.5643
   82TMC2    H1 1281   1.799   4.045  11.515 -0.2356 -0.5770  0.1596
   82TMC2    H2 1282   1.937   3.991  11.914 -1.5136 -0.5481  0.1497
   82TMC2    C7 1283   1.863   3.859  11.703 -0.9353 -0.2727  0.0054
   82TMC2    C8 1284   1.980   4.269  11.930  0.4696  0.3755 -0.1957
   82TMC2    O1 1285   1.887   3.803  11.808  0.0990  0.5539 -0.2398
   82TMC2    O2 1286   1.994   4.390  11.925  0.1824 -0.2907 -0.1226
   82TMC2    O5 1287   1.997   4.208  12.054  0.0334  0.3009  0.5840
   82TMC2    H5 1288   2.014   4.112  12.051 -3.1668 -0.2283 -1.5204
   83MPD2     C 1289   2.049   4.628  11.126 -0.4895 -0.8511 -0.6887
   83MPD2    C1 1290   1.950   4.528  11.116  0.5389  0.2899 -0.0714
   83MPD2    C2 1291   1.929   4.450  11.222 -0.7387  0.7874  0.0136
   83MPD2    C3 1292   1.993   4.474  11.340  0.5804  0.3078  0.4991
   83MPD2    C4 1293   2.084   4.568  11.351 -0.3312 -0.4640  0.1698
   83MPD2    C5 1294   2.121   4.638  11.240 -1.1141  0.2216  0.4412
   83MPD2     H 1295   1.842   4.384  11.218 -1.0061  1.1030  0.6781
   83MPD2    H1 1296   2.130   4.582  11.448 -1.1715 -2.6143  0.8765
   83MPD2    H2 1297   2.070   4.691  11.040 -0.9850 -1.3891 -1.2031
   83MPD2    H3 1298   2.200   4.711  11.255 -0.5466 -0.1505 -0.7744
   83MPD2     N 1299   1.959   4.402  11.460  0.1292 -0.0023  0.2484
   83MPD2    H5 1300   1.993   4.446  11.545 -2.1161 -0.1564  1.2176
   83MPD2    N1 1301   1.868   4.532  11.002  0.0723  0.6593 -0.4292
   83MPD2    H7 1302   1.893   4.601  10.932  0.2962  0.5930 -0.4160
   84TMC2    C1 1303   3.046   3.958  10.697 -0.1313 -0.1603 -0.5794
   84TMC2    C2 1304   3.168   4.004  10.661 -0.0995  0.3196  0.7491
   84TMC2    C3 1305   3.239   3.934  10.568  0.0363 -0.4281 -0.5069
   84TMC2    C4 1306   2.995   3.836  10.644 -0.1936  0.4324  0.0038
   84TMC2    C5 1307   3.062   3.778  10.542  0.2715  0.0846 -0.2870
   84TMC2    C6 1308   3.179   3.830  10.497 -0.0679  0.0208 -0.6260
   84TMC2     C 1309   2.996   3.998  10.829 -0.2051  0.1117  0.7517
   84TMC2     O 1310   3.020   4.112  10.861 -0.2767  0.0053  0.5799
   84TMC2     H 1311   3.206   4.089  10.717 -0.3003  1.3622 -0.7162
   84TMC2    H1 1312   2.890   3.819  10.665  0.0296 -1.9068 -0.8156
   84TMC2    H2 1313   3.231   3.777  10.418  0.8852 -0.8073  0.5718
   84TMC2    C7 1314   2.989   3.669  10.487 -0.5878  0.0889 -0.5197
   84TMC2    C8 1315   3.382   3.954  10.561 -0.6761  0.3034 -0.3183
   84TMC2    O1 1316   2.897   3.628  10.549 -0.1416 -0.0379  0.6008
   84TMC2    O2 1317   3.451   3.923  10.465 -0.7131  0.5677 -0.3125
   84TMC2    O5 1318   3.425   3.978  10.687  0.0360 -0.3715 -0.2970
   84TMC2    H5 1319   3.365   3.962  10.762  1.2332 -1.2430  0.4755
   85TMC2    C1 1320   4.160   1.522  16.031 -0.1030  0.5205 -0.6744
   85TMC2    C2 1321   4.111   1.534  15.901  0.2850 -0.0378  0.0781
   85TMC2    C3 1322   4.175   1.629  15.827 -0.6235 -0.4160 -0.6103
   85TMC2    C4 1323   4.271   1.588  16.074 -0.4653 -0.0790 -0.0674
   85TMC2    C5 1324   4.344   1.668  15.983  0.6320 -0.6750 -0.3028
   85TMC2    C6 1325   4.292   1.700  15.861  0.0902 -0.1477  0.2940
   85TMC2     C 1326   4.080   1.459  16.126 -0.3300  0.5745 -0.8492
   85TMC2     O 1327   4.078   1.504  16.240 -0.1119  0.2394  0.6207
   85TMC2     H 1328   4.026   1.474  15.871 -0.8303  1.4638  0.2607
   85TMC2    H1 1329   4.301   1.582  16.178 -2.9028 -0.4626  0.6104
   85TMC2    H2 1330   4.331   1.761  15.781 -2.7226  2.3467  0.8047
   85TMC2    C7 1331   4.463   1.740  16.022  0.4741 -0.4139  0.2698
   85TMC2    C8 1332   4.103   1.681  15.716 -0.3928 -0.0767 -0.5742
   85TMC2    O1 1333   4.509   1.706  16.130 -0.0054 -0.1397 -0.3863
   85TMC2    O2 1334   4.129   1.795  15.687  0.0035 -0.6248 -0.1790
   85TMC2    O5 1335   4.099   1.578  15.629  0.1615  0.0525 -0.0969
   85TMC2    H5 1336   4.103   1.486  15.664 -0.1630  0.3695  0.7906
   86MPD2     C 1337   3.834   1.035  16.280 -0.1699  0.7087 -0.1141
   86MPD2    C1 1338   3.942   0.999  16.204  0.4527  0.2087  0.0013
   86MPD2    C2 1339   4.007   1.097  16.128 -0.3848 -0.0458 -0.2198
   86MPD2    C3 1340   3.977   1.236  16.148 -0.3491  0.6238 -0.6902
   86MPD2    C4 1341   3.888   1.275  16.243 -0.3566  0.6755 -0.1990
   86MPD2    C5 1342   3.809   1.171  16.300  0.7827  0.5536  0.4833
   86MPD2     H 1343   4.086   1.069  16.060 -0.0982 -1.4094  0.6795
   86MPD2    H1 1344   3.855   1.374  16.269 -0.9907  0.7296 -1.2097
   86MPD2    H2 1345   3.773   0.963  16.333 -0.8767  0.9781 -0.5673
   86MPD2    H3 1346   3.732   1.198  16.371 -0.9600 -1.6819 -0.5601
   86MPD2     N 1347   4.049   1.337  16.076 -0.1275 -0.5378  0.4320
   86MPD2    H5 1348   4.093   1.304  15.991 -0.3713 -0.4863  0.2845
   86MPD2    N1 1349   3.974   0.859  16.190  0.0344 -0.1674  1.1722
   86MPD2    H7 1350   4.048   0.837  16.124 -0.1094 -1.5029  1.4631
   87TMC2    C1 1351   1.849   4.167   0.467 -0.5077 -0.2705  0.3287
   87TMC2    C2 1352   1.850   4.200   0.599 -0.7030 -0.1417 -0.0844
   87TMC2    C3 1353   1.786   4.316   0.638 -0.4554 -0.2102  0.5993
   87TMC2    C4 1354   1.785   4.239   0.366 -0.6117  0.0591 -0.6146
   87TMC2    C5 1355   1.709   4.350   0.415 -0.1012  0.2655 -0.6887
   87TMC2    C6 1356   1.713   4.385   0.548 -0.0186  0.8352  0.1923
   87TMC2     C 1357   1.929   4.054   0.420 -0.0373 -0.6084  0.3165
   87TMC2     O 1358   1.899   4.010   0.312  0.6281 -0.0348  0.2394
   87TMC2     H 1359   1.887   4.130   0.674 -1.1529  1.0146  1.2168
   87TMC2    H1 1360   1.796   4.223   0.260  0.2146 -1.0612 -0.3638
   87TMC2    H2 1361   1.648   4.465   0.583 -0.1301  0.4796  0.7998
   87TMC2    C7 1362   1.640   4.447   0.328  1.1859 -0.0447 -0.1591
   87TMC2    C8 1363   1.728   4.341   0.770  0.1647 -0.0216 -0.1860
   87TMC2    O1 1364   1.609   4.559   0.375  0.1580  0.4453 -0.2925
   87TMC2    O2 1365   1.613   4.377   0.790 -0.2750 -0.3751  0.5710
   87TMC2    O5 1366   1.809   4.284   0.859 -0.4268  0.3338  0.2793
   87TMC2    H5 1367   1.894   4.266   0.815 -0.9467 -0.5673 -0.3521
   88MPD2     C 1368   1.648   4.439  17.705 -1.2489  0.5960  0.1198
   88MPD2    C1 1369   1.606   4.490   0.085  1.0940  0.4051 -1.3659
   88MPD2    C2 1370   1.549   4.615   0.093 -0.1705 -0.3851 -0.2148
   88MPD2    C3 1371   1.541   4.693  17.717  0.2564 -0.1109  0.0585
   88MPD2    C4 1372   1.571   4.637  17.594 -0.0213  0.0318  0.1450
   88MPD2    C5 1373   1.617   4.503  17.588  0.1168 -1.0058  0.0984
   88MPD2     H 1374   1.527   4.659   0.190  0.9079 -0.0642 -0.1150
   88MPD2    H1 1375   1.540   4.685  17.502 -2.8160  0.8277  1.5304
   88MPD2    H2 1376   1.692   4.340  17.696  0.4493  1.6382 -2.9040
   88MPD2    H3 1377   1.636   4.454  17.493  0.0293  0.8310 -0.8648
   88MPD2     N 1378   1.493   0.094  17.712  0.1420 -0.0018  0.0680
   88MPD2    H5 1379   1.521   0.162  17.643  1.8158 -2.5316 -1.7079
   88MPD2    N1 1380   1.631   4.409   0.197  0.6369 -0.3863 -0.7163
   88MPD2    H7 1381   1.657   4.313   0.178 -0.1951 -0.2526 -2.4825
   89TMC2    C1 1382   3.220   2.479   1.648  0.4566 -0.7707  0.7574
   89TMC2    C2 1383   3.208   2.429   1.527  0.0577  0.2715  0.1212
   89TMC2    C3 1384   3.249   2.502   1.418  0.0376 -0.2744 -0.0291
   89TMC2    C4 1385   3.244   2.613   1.665 -0.0607 -0.1562 -0.7729
   89TMC2    C5 1386   3.286   2.685   1.556  0.2081 -0.2773  0.4162
   89TMC2    C6 1387   3.276   2.636   1.430 -0.0116 -0.4453 -0.1962
   89TMC2     C 1388   3.155   2.415   1.761 -0.1697 -0.3784 -0.2543
   89TMC2     O 1389   3.134   2.476   1.861 -0.3035  0.0072  0.0960
   89TMC2     H 1390   3.167   2.332   1.500  0.4017 -0.3206  1.7238
   89TMC2    H1 1391   3.287   2.633   1.763 -0.3489 -0.1185 -0.6510
   89TMC2    H2 1392   3.309   2.695   1.345 -0.6580  1.9478  1.2083
   89TMC2    C7 1393   3.317   2.824   1.586  0.5431 -0.4272  0.2762
   89TMC2    C8 1394   3.269   2.424   1.293  0.1587  0.1168  0.6318
   89TMC2    O1 1395   3.266   2.861   1.690 -0.0424 -0.5232  0.1562
   89TMC2    O2 1396   3.280   2.298   1.290  0.0435  0.3395 -0.2005
   89TMC2    O5 1397   3.227   2.501   1.185 -0.3269 -0.2492 -0.3199
   89TMC2    H5 1398   3.173   2.573   1.225  1.6969  0.6136  0.8306
   90MPD2     C 1399   2.824   2.066   1.947  0.5868  0.0578  0.1971
   90MPD2    C1 1400   2.880   2.018   1.837 -0.3402  1.1621 -0.3815
   90MPD2    C2 1401   2.985   2.090   1.776 -0.1305 -0.4846  0.7049
   90MPD2    C3 1402   3.028   2.208   1.827 -0.1865 -0.0543  0.2800
   90MPD2    C4 1403   2.969   2.260   1.941 -0.4009 -0.4990  0.2454
   90MPD2    C5 1404   2.866   2.189   1.992 -0.4896  0.4252  0.5819
   90MPD2     H 1405   3.024   2.052   1.682 -0.6466  0.7935 -0.0255
   90MPD2    H1 1406   2.987   2.361   1.977  1.9863 -1.9193  3.0763
   90MPD2    H2 1407   2.749   2.006   1.997 -1.0871  0.8493 -1.4058
   90MPD2    H3 1408   2.816   2.239   2.074  1.5106  1.4369  1.2030
   90MPD2     N 1409   3.119   2.283   1.740 -0.1630  0.2750  0.0135
   90MPD2    H5 1410   3.138   2.229   1.656  0.8449  0.6168  0.0303
   90MPD2    N1 1411   2.831   1.909   1.769  0.5994 -0.3846  0.5668
   90MPD2    H7 1412   2.870   1.894   1.677  0.7345  0.3098  0.5166
   91TMC2    C1 1413   4.073   2.200  16.165 -0.3311 -0.1766 -1.2918
   91TMC2    C2 1414   4.102   2.199  16.298  0.5911 -0.4975 -0.4445
   91TMC2    C3 1415   4.000   2.201  16.388  0.0070  0.1983 -0.0457
   91TMC2    C4 1416   3.943   2.192  16.113 -0.6404 -0.3215  0.3294
   91TMC2    C5 1417   3.846   2.185  16.209  0.3733  0.2007 -0.0438
   91TMC2    C6 1418   3.869   2.197  16.343 -0.6778 -0.1774  0.5012
   91TMC2     C 1419   4.182   2.225  16.077  0.3999 -0.5056 -0.9254
   91TMC2     O 1420   4.148   2.267  15.968  0.6229  0.3385  0.4839
   91TMC2     H 1421   4.207   2.197  16.325  1.2157  1.6185 -2.6817
   91TMC2    H1 1422   3.925   2.199  16.007 -1.4998  1.3028  0.5789
   91TMC2    H2 1423   3.800   2.164  16.419 -2.5357  2.5112 -0.0493
   91TMC2    C7 1424   3.718   2.122  16.186 -0.3503  0.0370  0.7902
   91TMC2    C8 1425   4.027   2.140  16.516 -0.2394  0.3388 -0.5843
   91TMC2    O1 1426   3.647   2.086  16.276  0.3140 -0.2313 -0.1249
   91TMC2    O2 1427   3.945   2.071  16.571 -0.8235 -0.4252 -0.1132
   91TMC2    O5 1428   4.148   2.182  16.564 -0.4473  0.1108  0.2663
   91TMC2    H5 1429   4.186   2.253  16.508  0.3041  1.3004  2.2708
   92MPD2     C 1430   4.437   2.308  15.941  0.4697 -0.2052 -0.1604
   92MPD2    C1 1431   4.428   2.238  16.057  0.5023  0.3424  0.0175
   92MPD2    C2 1432   4.546   2.211  16.128 -0.3767  0.1242 -0.0816
   92MPD2    C3 1433   4.664   2.269  16.089 -0.8553 -0.2219 -0.3474
   92MPD2    C4 1434   4.675   2.337  15.967  0.9078  0.0725 -0.6760
   92MPD2    C5 1435   4.559   2.351  15.890  0.1904 -0.7918 -0.2732
   92MPD2     H 1436   4.550   2.144  16.213 -0.7094  1.1049  0.7022
   92MPD2    H1 1437   0.035   2.371  15.925 -1.2097  3.1265 -2.9632
   92MPD2    H2 1438   4.348   2.334  15.885 -1.0078 -0.7970  1.9031
   92MPD2    H3 1439   4.560   2.394  15.790  1.4137 -0.1738 -0.0018
   92MPD2     N 1440   0.044   2.245  16.169 -0.5521  0.1002 -0.2015
   92MPD2    H5 1441   0.027   2.167  16.232  0.5675  0.0630  0.0386
   92MPD2    N1 1442   4.309   2.194  16.121 -0.5783  0.2651  0.2002
   92MPD2    H7 1443   4.321   2.143  16.208  1.3839  1.0678  0.3844
   93TMC2    C1 1444   1.876   1.850  13.526 -0.0054  0.1421 -0.8415
   93TMC2    C2 1445   1.771   1.933  13.570 -0.1586 -0.3750 -0.2338
   93TMC2    C3 1446   1.804   2.060  13.621  0.7129 -0.7230  0.7221
   93TMC2    C4 1447   2.008   1.880  13.543  0.3004 -0.3968 -0.4529
   93TMC2    C5 1448   2.031   2.000  13.597  0.5486 -0.3023 -0.0683
   93TMC2    C6 1449   1.936   2.097  13.635 -0.0537 -0.0681  0.2384
   93TMC2     C 1450   1.848   1.738  13.441  0.1192 -0.1071  0.5535
   93TMC2     O 1451   1.935   1.688  13.373  0.1324  0.2389  0.3787
   93TMC2     H 1452   1.666   1.916  13.551 -0.1963 -0.4976  0.0949
   93TMC2    H1 1453   2.088   1.808  13.527  0.7069 -0.4770  1.9094
   93TMC2    H2 1454   1.958   2.198  13.667  0.7276  0.3255 -1.5626
   93TMC2    C7 1455   2.173   2.031  13.600  0.3309 -0.2040  0.0211
   93TMC2    C8 1456   1.697   2.156  13.647  0.6067  0.6649  0.8730
   93TMC2    O1 1457   2.251   1.955  13.540 -0.2762  0.0457 -0.1099
   93TMC2    O2 1458   1.584   2.114  13.634  0.2721  0.3822 -0.7246
   93TMC2    O5 1459   1.736   2.225  13.756 -0.0942  0.2506  0.3391
   93TMC2    H5 1460   1.827   2.254  13.774 -0.3383  0.4043  1.3176
   94MPD2     C 1461   1.703   1.536  13.260  0.6065  0.3710  0.3773
   94MPD2    C1 1462   1.642   1.634  13.340  0.4897 -0.0667 -0.2330
   94MPD2    C2 1463   1.502   1.651  13.326  0.0232  0.3065  0.1527
   94MPD2    C3 1464   1.429   1.565  13.243 -0.1416 -0.0454  0.5679
   94MPD2    C4 1465   1.491   1.477  13.158  0.2481 -0.2353 -0.1978
   94MPD2    C5 1466   1.630   1.469  13.168 -0.1878 -0.9095  0.4372
   94MPD2     H 1467   1.448   1.727  13.381 -2.6403 -1.2480 -0.3061
   94MPD2    H1 1468   1.449   1.410  13.083 -1.8537 -0.4299  1.1496
   94MPD2    H2 1469   1.811   1.525  13.260  0.3790 -1.9945  3.4616
   94MPD2    H3 1470   1.686   1.397  13.109  0.1392 -1.2059  1.0989
   94MPD2     N 1471   1.289   1.569  13.252 -0.0702 -0.4118  0.3872
   94MPD2    H5 1472   1.239   1.509  13.186 -3.0472 -0.2354  2.4884
   94MPD2    N1 1473   1.709   1.723  13.424 -0.2502 -0.1398  0.2009
   94MPD2    H7 1474   1.651   1.794  13.468 -0.1525  1.1074 -1.6966
   95TMC2    C1 1475   1.168   3.550  16.020  0.0341  1.0175  0.4661
   95TMC2    C2 1476   1.046   3.506  16.037  0.1215  0.3784  0.4560
   95TMC2    C3 1477   1.022   3.499  16.170  1.0372  0.2813  0.5337
   95TMC2    C4 1478   1.256   3.592  16.115  0.5493 -0.1864 -0.1994
   95TMC2    C5 1479   1.223   3.579  16.245  0.5998  0.3707 -0.1823
   95TMC2    C6 1480   1.102   3.530  16.273  0.0742  1.0111  0.4504
   95TMC2     C 1481   1.203   3.588  15.880  0.0555  0.0873 -0.4641
   95TMC2     O 1482   1.262   3.695  15.872 -0.4022  0.6954 -0.2470
   95TMC2     H 1483   0.976   3.486  15.957  0.2789 -1.4901  0.7779
   95TMC2    H1 1484   1.358   3.611  16.084  1.2865 -0.1854  2.2082
   95TMC2    H2 1485   1.061   3.536  16.373  0.8394 -1.5455  0.9115
   95TMC2    C7 1486   1.314   3.605  16.357 -0.3066  0.3720  0.2347
   95TMC2    C8 1487   0.883   3.483  16.212 -0.0915 -0.9389  0.8493
   95TMC2    O1 1488   1.395   3.694  16.342  1.2907  0.4890  0.1800
   95TMC2    O2 1489   0.865   3.428  16.323  0.0608 -0.3721 -0.0925
   95TMC2    O5 1490   0.824   3.598  16.166  0.4700  0.5904  0.3531
   95TMC2    H5 1491   0.873   3.629  16.087  2.1543 -1.1579  0.7162
   96MPD2     C 1492   1.208   3.536  15.378 -0.1460 -0.6740 -0.2628
   96MPD2    C1 1493   1.295   3.609  15.452  0.4457  0.5893 -0.4807
   96MPD2    C2 1494   1.277   3.604  15.585 -0.6868 -0.2840 -0.1979
   96MPD2    C3 1495   1.176   3.518  15.644  0.3199  0.1649 -0.1353
   96MPD2    C4 1496   1.102   3.450  15.558  0.0692 -0.1095 -0.8686
   96MPD2    C5 1497   1.115   3.457  15.427  0.0089  0.0597 -0.4272
   96MPD2     H 1498   1.346   3.657  15.650 -1.8935  0.6290  0.3330
   96MPD2    H1 1499   1.019   3.391  15.594  0.8124 -0.0321  0.9898
   96MPD2    H2 1500   1.202   3.538  15.270  1.3043 -1.5013 -0.3575
   96MPD2    H3 1501   1.043   3.412  15.360  1.0528 -1.1430 -0.7298
   96MPD2     N 1502   1.155   3.502  15.783  0.0075 -0.0298 -0.0702
   96MPD2    H5 1503   1.103   3.419  15.807 -1.5990  0.5017 -1.7402
   96MPD2    N1 1504   1.380   3.695  15.380  0.3051  0.7369 -0.2978
   96MPD2    H7 1505   1.363   3.693  15.280 -0.0710  0.9845 -0.2395
   97TMC2    C1 1506   4.117   1.798   0.209  0.0861  0.4732  0.5431
   97TMC2    C2 1507   4.090   1.712   0.108 -0.1362 -1.0016 -0.6172
   97TMC2    C3 1508   4.039   1.765  17.731  0.0113 -0.1850  0.3089
   97TMC2    C4 1509   4.120   1.935   0.189 -0.5493  0.4582  0.0641
   97TMC2    C5 1510   4.073   1.982   0.068  0.5671  0.5828 -0.7815
   97TMC2    C6 1511   4.026   1.901  17.699  0.6126  0.6507 -0.3346
   97TMC2     C 1512   4.059   1.755   0.335  0.5332  0.2336 -0.7120
   97TMC2     O 1513   4.022   1.639   0.334 -0.3781 -0.0714 -0.1438
   97TMC2     H 1514   4.085   1.606   0.132 -1.6813 -0.5905  0.9531
   97TMC2    H1 1515   4.169   2.000   0.260  0.9151 -0.7924  0.2038
   97TMC2    H2 1516   3.989   1.933  17.602  0.0045  1.3075  0.1150
   97TMC2    C7 1517   4.122   2.115   0.038 -0.0303  0.5446  0.4920
   97TMC2    C8 1518   4.016   1.668  17.624  0.4776 -0.6514 -0.4585
   97TMC2    O1 1519   4.218   2.150   0.108  0.3994  0.3702  0.0624
   97TMC2    O2 1520   4.071   1.555  17.616 -0.1504 -0.1583 -0.0667
   97TMC2    O5 1521   3.910   1.713  17.556  0.3509  0.0010  0.1234
   97TMC2    H5 1522   3.856   1.775  17.610 -1.5377 -2.0799  0.6493
   98MPD2     C 1523   3.839   1.809   0.804 -1.0119 -0.5581  0.2099
   98MPD2    C1 1524   3.841   1.702   0.719  0.4756 -1.1730  0.0520
   98MPD2    C2 1525   3.919   1.711   0.599 -0.1899  0.3479 -0.3714
   98MPD2    C3 1526   3.973   1.830   0.557  0.1143 -0.1458 -0.1648
   98MPD2    C4 1527   3.965   1.938   0.642 -0.6709 -0.1785 -0.0830
   98MPD2    C5 1528   3.890   1.930   0.759 -0.0749  0.5012  0.1243
   98MPD2     H 1529   3.919   1.621   0.539  2.5340  1.2419 -1.7325
   98MPD2    H1 1530   4.008   2.034   0.615 -3.7841  1.5780  1.2282
   98MPD2    H2 1531   3.791   1.807   0.901  1.2176  1.6360  1.3541
   98MPD2    H3 1532   3.877   2.016   0.823  1.9407 -0.8327  2.3574
   98MPD2     N 1533   4.047   1.854   0.433 -0.2664  0.2095 -0.0003
   98MPD2    H5 1534   4.076   1.949   0.413 -0.7313  0.4529  0.4794
   98MPD2    N1 1535   3.797   1.579   0.767 -0.1694 -0.5229 -0.3609
   98MPD2    H7 1536   3.765   1.579   0.863 -0.8030 -1.9593 -0.5786
   99TMC2    C1 1537   2.630   3.734   1.437 -0.2895  0.2038 -0.0959
   99TMC2    C2 1538   2.732   3.751   1.522  0.5917 -0.0866 -0.2140
   99TMC2    C3 1539   2.714   3.729   1.651  0.0090  0.6172 -0.4626
   99TMC2    C4 1540   2.502   3.719   1.478 -0.2833 -0.6283  0.7553
   99TMC2    C5 1541   2.483   3.698   1.616 -0.1008 -0.2147  1.2342
   99TMC2    C6 1542   2.587   3.696   1.707 -0.8077 -0.8912 -0.5715
   99TMC2     C 1543   2.666   3.727   1.293 -0.2150 -0.0280 -0.3044
   99TMC2     O 1544   2.774   3.777   1.262  0.5197  0.8646 -0.3479
   99TMC2     H 1545   2.831   3.742   1.478  1.1374  0.1166  0.9799
   99TMC2    H1 1546   2.422   3.727   1.405  0.4711 -0.8532 -0.0898
   99TMC2    H2 1547   2.576   3.703   1.815  2.0759 -0.8572 -0.3002
   99TMC2    C7 1548   2.352   3.719   1.676  0.9205 -0.1420 -0.3784
   99TMC2    C8 1549   2.823   3.770   1.737  0.0981 -0.3093  1.2753
   99TMC2    O1 1550   2.341   3.764   1.786 -0.3878 -0.2056  0.0335
   99TMC2    O2 1551   2.928   3.808   1.686 -0.4228  0.5321  0.8172
   99TMC2    O5 1552   2.832   3.680   1.840  0.7261 -0.2172 -0.5716
   99TMC2    H5 1553   2.749   3.632   1.861  0.0554  1.1879 -0.0374
  100MPD2     C 1554   2.673   3.696   0.995 -0.3939  0.3994  0.7497
  100MPD2    C1 1555   2.588   3.626   1.077 -0.1992 -0.3234 -0.0371
  100MPD2    C2 1556   2.519   3.515   1.036 -0.4140 -0.1553 -0.5260
  100MPD2    C3 1557   2.537   3.470   0.902 -0.0025  0.1254 -0.6214
  100MPD2    C4 1558   2.615   3.545   0.816  0.0214  0.3739  0.1022
  100MPD2    C5 1559   2.681   3.654   0.866  0.0644 -0.5526  0.0915
  100MPD2     H 1560   2.456   3.467   1.109  1.1987  1.6702  2.0470
  100MPD2    H1 1561   2.635   3.513   0.715  2.9825  0.9205  0.4886
  100MPD2    H2 1562   2.732   3.778   1.034  1.1735 -0.7074  0.7098
  100MPD2    H3 1563   2.747   3.695   0.791 -0.4871 -2.1873 -1.2913
  100MPD2     N 1564   2.480   3.346   0.864  1.0591 -0.1414 -0.9538
  100MPD2    H5 1565   2.433   3.296   0.939 -2.3848  1.1707 -2.2442
  100MPD2    N1 1566   2.575   3.660   1.213 -0.2856 -0.5183 -0.3763
  100MPD2    H7 1567   2.509   3.606   1.268 -0.7725  1.6373  1.1336
  101TMC2    C1 1568   3.518   4.095  12.708  0.2649 -0.2167  0.3565
  101TMC2    C2 1569   3.494   4.225  12.687  0.1741 -0.6080  0.2299
  101TMC2    C3 1570   3.584   4.294  12.614 -0.2855 -0.4061 -0.6370
  101TMC2    C4 1571   3.622   4.022  12.658 -0.1995 -0.1294 -0.0328
  101TMC2    C5 1572   3.714   4.089  12.579 -1.2318 -0.1336 -0.2159
  101TMC2    C6 1573   3.688   4.226  12.548 -0.7307  1.0464 -0.6278
  101TMC2     C 1574   3.430   4.045  12.818  0.5919 -0.0235 -0.4056
  101TMC2     O 1575   3.382   4.128  12.893 -0.7342  0.1472  0.2381
  101TMC2     H 1576   3.414   4.286  12.727 -0.6694 -1.1746 -0.5928
  101TMC2    H1 1577   3.648   3.918  12.678  2.2968  0.7148  1.2011
  101TMC2    H2 1578   3.753   4.300  12.503  1.1479 -0.2933 -0.0913
  101TMC2    C7 1579   3.819   4.017  12.514 -0.6503 -0.5626 -0.6085
  101TMC2    C8 1580   3.551   4.429  12.568 -0.7237 -0.0538  0.5068
  101TMC2    O1 1581   3.865   3.913  12.557 -0.1877  0.0415  0.5617
  101TMC2    O2 1582   3.497   4.515  12.638  0.3439 -0.0207  0.3546
  101TMC2    O5 1583   3.528   4.413  12.437 -0.1059  0.1039  0.4737
  101TMC2    H5 1584   3.563   4.328  12.401  2.7618  1.3162  0.4267
  102MPD2     C 1585   3.324   3.712  12.896 -0.5004 -0.2520  0.2644
  102MPD2    C1 1586   3.316   3.849  12.889 -0.7656 -0.0018 -0.3354
  102MPD2    C2 1587   3.222   3.915  12.967  0.7459 -0.1426 -0.1172
  102MPD2    C3 1588   3.129   3.837  13.040  0.4970  0.8599  0.3737
  102MPD2    C4 1589   3.139   3.696  13.048  0.4064 -0.1377 -0.3855
  102MPD2    C5 1590   3.242   3.634  12.976  0.3597  0.0531  0.2306
  102MPD2     H 1591   3.200   4.021  12.972  2.1409  0.0188  2.5941
  102MPD2    H1 1592   3.055   3.643  13.091 -0.0427  0.9824  0.1189
  102MPD2    H2 1593   3.391   3.651  12.836  0.5731  0.8084  0.3843
  102MPD2    H3 1594   3.242   3.526  12.964  0.4140 -0.3079  3.6284
  102MPD2     N 1595   3.016   3.900  13.098  0.1670  0.0468 -0.4037
  102MPD2    H5 1596   3.011   4.000  13.079  1.5610 -0.2742 -2.5066
  102MPD2    N1 1597   3.412   3.912  12.812  1.0168 -0.1626 -0.1268
  102MPD2    H7 1598   3.467   3.857  12.746 -0.5310 -0.3220 -1.2838
  103TMC2    C1 1599   1.514   4.640  12.904  0.0205  0.1296 -0.1677
  103TMC2    C2 1600   1.605   4.721  12.856  0.3357 -0.5775  0.4158
  103TMC2    C3 1601   1.645   0.094  12.935  0.6397  0.1616 -0.3885
  103TMC2    C4 1602   1.454   4.653  13.029  0.5493  0.9223  0.0342
  103TMC2    C5 1603   1.499   0.022  13.098  0.2574 -0.4624 -0.1255
  103TMC2    C6 1604   1.591   0.114  13.056  0.6357  0.7021 -0.8501
  103TMC2     C 1605   1.443   4.566  12.803  0.5441 -0.4012 -0.3771
  103TMC2     O 1606   1.499   4.555  12.697 -0.2182 -0.0017  0.4395
  103TMC2     H 1607   1.649   4.723  12.757  0.3835 -2.0991  0.4128
  103TMC2    H1 1608   1.382   4.582  13.071  1.0452 -0.2261 -1.0564
  103TMC2    H2 1609   1.634   0.181  13.129 -1.2606  2.1789 -1.1027
  103TMC2    C7 1610   1.443   0.036  13.230 -0.3440  0.2394 -0.2930
  103TMC2    C8 1611   1.732   0.199  12.870  0.0524  0.3017  0.4531
  103TMC2    O1 1612   1.380   4.676  13.277  0.3591 -0.7940  0.4185
  103TMC2    O2 1613   1.783   0.183  12.761  0.0517  0.1088 -0.5319
  103TMC2    O5 1614   1.687   0.319  12.904  0.3867  0.2657  0.2026
  103TMC2    H5 1615   1.626   0.312  12.980 -0.2412  0.8429 -0.2513
  104MPD2     C 1616   1.144   4.358  12.854 -0.2335 -0.1535 -0.0512
  104MPD2    C1 1617   1.246   4.415  12.780 -0.2101 -0.3052  0.8295
  104MPD2    C2 1618   1.251   4.396  12.645  0.1074  0.2481 -0.3687
  104MPD2    C3 1619   1.155   4.315  12.582  0.5443  0.1613  0.8317
  104MPD2    C4 1620   1.053   4.249  12.663 -0.2397 -0.6592  0.3024
  104MPD2    C5 1621   1.051   4.280  12.794  0.3614 -0.1125  0.0096
  104MPD2     H 1622   1.331   4.442  12.588 -1.1491  1.5246 -1.0917
  104MPD2    H1 1623   0.977   4.183  12.620 -1.7605  1.7404 -0.6701
  104MPD2    H2 1624   1.138   4.381  12.960  2.4168 -0.7650  0.2532
  104MPD2    H3 1625   0.966   4.245  12.852  0.3967  1.3828  0.9801
  104MPD2     N 1626   1.176   4.291  12.447  0.1469  0.6118  0.3829
  104MPD2    H5 1627   1.262   4.329  12.409  0.3192  0.7442  0.8973
  104MPD2    N1 1628   1.330   4.506  12.851 -0.2590  0.5998 -0.3082
  104MPD2    H7 1629   1.295   4.537  12.941  0.5175 -1.8336  0.8486
  105TMC2    C1 1630   2.082   3.177   0.058  0.3436 -0.0581  0.8490
  105TMC2    C2 1631   1.977   3.126   0.130  0.0102  0.0341 -0.0658
  105TMC2    C3 1632   1.935   3.201   0.237 -0.1863 -0.6067 -0.5759
  105TMC2    C4 1633   2.147   3.285   0.104 -0.4588 -0.2553 -1.0066
  105TMC2    C5 1634   2.083   3.367   0.194  0.3175  1.1095  0.2024
  105TMC2    C6 1635   1.981   3.324   0.271  0.8701  0.3412 -0.5624
  105TMC2     C 1636   2.139   3.100  17.680 -0.3534 -0.1013  0.9146
  105TMC2     O 1637   2.094   2.987  17.669 -0.7424 -0.2120 -0.3154
  105TMC2     H 1638   1.932   3.031   0.102  0.1351  0.3963 -1.4714
  105TMC2    H1 1639   2.239   3.330   0.067  0.4988 -1.2738  0.1728
  105TMC2    H2 1640   1.963   3.366   0.369  0.3760  0.9451 -0.9078
  105TMC2    C7 1641   2.162   3.469   0.247 -0.0070 -0.3271 -0.3164
  105TMC2    C8 1642   1.815   3.176   0.302 -0.2420  0.3125  0.3204
  105TMC2    O1 1643   2.281   3.455   0.254  0.8260  0.3268 -0.0053
  105TMC2    O2 1644   1.749   3.266   0.355 -0.0887  0.4483 -0.0349
  105TMC2    O5 1645   1.806   3.046   0.337  0.3120  0.3367 -0.5322
  105TMC2    H5 1646   1.889   2.996   0.324 -1.6212 -2.9332 -0.4800
  106MPD2     C 1647   2.331   3.081  17.214  0.4786 -0.2348  0.0340
  106MPD2    C1 1648   2.363   3.203  17.265 -0.4102 -0.4374  0.0179
  106MPD2    C2 1649   2.333   3.231  17.392  0.5734  0.4406  0.8602
  106MPD2    C3 1650   2.272   3.138  17.475 -0.3258 -0.4870  0.4195
  106MPD2    C4 1651   2.241   3.017  17.417 -0.3145 -0.5319  0.7970
  106MPD2    C5 1652   2.278   2.983  17.288  0.3380 -0.5175  0.5071
  106MPD2     H 1653   2.356   3.330  17.429  1.1330  0.9591 -0.9255
  106MPD2    H1 1654   2.174   2.949  17.468 -1.4393 -0.0321 -0.0107
  106MPD2    H2 1655   2.354   3.050  17.112  1.6974  0.7383  0.0170
  106MPD2    H3 1656   2.254   2.886  17.247  2.0355 -0.5592 -0.3791
  106MPD2     N 1657   2.214   3.181  17.597 -0.1212  0.2477 -0.5124
  106MPD2    H5 1658   2.238   3.276  17.626  1.2010 -0.8609  2.0476
  106MPD2    N1 1659   2.409   3.314  17.189  0.3395 -0.6565 -0.0282
  106MPD2    H7 1660   2.421   3.405  17.232 -4.3325  1.3848 -3.0615
  107TMC2    C1 1661   2.771   4.348  11.688  0.4355 -0.2609  0.8669
  107TMC2    C2 1662   2.852   4.453  11.648 -0.0647  0.1603  0.6694
  107TMC2    C3 1663   2.939   4.427  11.552 -0.1047 -0.7427 -0.0948
  107TMC2    C4 1664   2.756   4.234  11.622 -0.1170 -0.2193 -0.6607
  107TMC2    C5 1665   2.828   4.223  11.504 -0.2471  0.2220 -0.7370
  107TMC2    C6 1666   2.932   4.314  11.477 -0.0928  0.2304 -0.2052
  107TMC2     C 1667   2.664   4.384  11.782 -0.5802 -0.1727  0.1540
  107TMC2     O 1668   2.617   4.498  11.775  0.1623  0.6630 -0.2385
  107TMC2     H 1669   2.853   4.542  11.711 -0.9394 -0.1634  1.1338
  107TMC2    H1 1670   2.668   4.172  11.640 -1.7233  1.7250 -1.8115
  107TMC2    H2 1671   3.007   4.295  11.401  0.0465  0.0255 -0.0166
  107TMC2    C7 1672   2.805   4.099  11.428 -0.2895 -0.3593  0.5371
  107TMC2    C8 1673   3.048   4.521  11.545  0.1587 -0.0052  0.6901
  107TMC2    O1 1674   2.714   4.029  11.466 -0.0628 -0.7129  0.2904
  107TMC2    O2 1675   3.091   4.580  11.644 -0.3785 -0.7704  0.1056
  107TMC2    O5 1676   3.120   4.500  11.434  0.2137 -0.5446  0.2618
  107TMC2    H5 1677   3.083   4.465  11.350  1.1203 -0.2526 -0.2542
  108MPD2     C 1678   2.434   4.378  11.973  0.3675  0.9492 -0.2795
  108MPD2    C1 1679   2.529   4.279  11.968 -0.7293 -0.2117 -0.8236
  108MPD2    C2 1680   2.515   4.169  12.048  0.0811  0.7683  0.1319
  108MPD2    C3 1681   2.407   4.157  12.134 -0.2217 -0.5240  0.1976
  108MPD2    C4 1682   2.310   4.256  12.133 -0.0533  0.5275  0.6066
  108MPD2    C5 1683   2.326   4.366  12.057 -1.2446  0.2205  0.2327
  108MPD2     H 1684   2.583   4.085  12.039  0.3720  1.1173 -0.9015
  108MPD2    H1 1685   2.224   4.250  12.200  1.0631  2.8739  2.2669
  108MPD2    H2 1686   2.432   4.468  11.913  0.2780  0.8926 -0.3611
  108MPD2    H3 1687   2.243   4.434  12.052 -2.4257 -1.2751 -0.5498
  108MPD2     N 1688   2.408   4.046  12.232 -0.5809 -0.3975  0.9781
  108MPD2    H5 1689   2.329   4.046  12.295 -1.0948 -2.0729  0.3281
  108MPD2    N1 1690   2.640   4.287  11.877  0.6759  0.0371  0.0372
  108MPD2    H7 1691   2.707   4.211  11.879 -1.0528 -1.4651  0.1895
  109TMC2    C1 1692   2.800   1.575   1.025  0.3885  0.1297  0.0469
  109TMC2    C2 1693   2.841   1.703   0.988  0.7517 -0.3432 -0.1255
  109TMC2    C3 1694   2.956   1.706   0.909  0.0518 -0.3775 -0.5537
  109TMC2    C4 1695   2.868   1.460   1.006 -0.6551 -0.1566  0.2562
  109TMC2    C5 1696   2.984   1.473   0.941 -1.1176 -0.5080  0.8231
  109TMC2    C6 1697   3.030   1.595   0.880 -0.7591 -0.0315  0.8928
  109TMC2     C 1698   2.666   1.569   1.073  0.2534  0.2962  0.1153
  109TMC2     O 1699   2.613   1.667   1.123 -0.5944 -0.5485 -0.8315
  109TMC2     H 1700   2.776   1.787   1.011  2.1829  0.6432  0.3028
  109TMC2    H1 1701   2.842   1.365   1.051  0.6523 -0.6316  0.0240
  109TMC2    H2 1702   3.124   1.596   0.826 -1.1786 -3.2695  0.1101
  109TMC2    C7 1703   3.052   1.357   0.892 -0.6496 -0.0343  0.6118
  109TMC2    C8 1704   2.973   1.839   0.843 -0.3742  0.5320  0.0022
  109TMC2    O1 1705   3.126   1.369   0.795 -0.4564  0.2792  0.6236
  109TMC2    O2 1706   2.908   1.941   0.865 -0.4341 -0.5448 -0.0825
  109TMC2    O5 1707   3.011   1.816   0.717 -0.2317  0.6714 -0.8893
  109TMC2    H5 1708   3.011   1.718   0.705  1.7506  0.5716 -0.0633
  110MPD2     C 1709   2.215   1.315   1.119  0.6646 -0.2785 -0.1447
  110MPD2    C1 1710   2.306   1.239   1.049  0.0745 -0.3079  0.2343
  110MPD2    C2 1711   2.430   1.284   1.018 -0.8201  0.7524 -0.6148
  110MPD2    C3 1712   2.475   1.412   1.057  0.5918 -0.6062  0.4114
  110MPD2    C4 1713   2.379   1.483   1.137  0.4697  0.3164 -0.5548
  110MPD2    C5 1714   2.248   1.444   1.159  0.1284 -0.0489  0.4421
  110MPD2     H 1715   2.495   1.245   0.940 -2.3793  3.3391 -3.2237
  110MPD2    H1 1716   2.413   1.577   1.180 -2.0368 -0.1043  2.3517
  110MPD2    H2 1717   2.115   1.276   1.134  0.1764  1.1384  0.2791
  110MPD2    H3 1718   2.185   1.511   1.216 -0.3312  0.2098 -0.3857
  110MPD2     N 1719   2.609   1.454   1.032  0.7802  0.6694  0.2406
  110MPD2    H5 1720   2.661   1.387   0.977  0.9470 -0.7210  2.0677
  110MPD2    N1 1721   2.247   1.123   0.991 -0.1018 -0.0425  0.2458
  110MPD2    H7 1722   2.150   1.102   1.013 -0.6241  1.5427 -0.5943
  111TMC2    C1 1723   3.318   0.700  12.057 -0.5093  0.0450 -0.0672
  111TMC2    C2 1724   3.256   0.654  12.174 -0.1849 -0.1844  0.0886
  111TMC2    C3 1725   3.331   0.574  12.257  0.9834  0.0793 -0.0665
  111TMC2    C4 1726   3.437   0.643  12.017 -0.2007  0.1626  0.3949
  111TMC2    C5 1727   3.503   0.560  12.099  0.2369 -0.2459 -0.2340
  111TMC2    C6 1728   3.447   0.512  12.211  0.0708  0.3398  0.2465
  111TMC2     C 1729   3.241   0.791  11.970  0.2619  0.5075 -0.9428
  111TMC2     O 1730   3.303   0.831  11.873  0.2118  0.8014  0.0148
  111TMC2     H 1731   3.159   0.683  12.211 -0.4764 -1.7236  0.5188
  111TMC2    H1 1732   3.475   0.673  11.920 -1.5352  0.4574 -0.0347
  111TMC2    H2 1733   3.499   0.451  12.284 -0.6312 -0.3661  0.1546
  111TMC2    C7 1734   3.631   0.499  12.056  0.3123  0.1649  0.1715
  111TMC2    C8 1735   3.248   0.507  12.349  0.3973 -0.5238 -0.1438
  111TMC2    O1 1736   3.674   0.403  12.125 -0.2438  0.2104 -0.1674
  111TMC2    O2 1737   3.146   0.560  12.388  0.1841  0.4835  0.3171
  111TMC2    O5 1738   3.248   0.383  12.301  0.2242  0.3733  1.1022
  111TMC2    H5 1739   3.336   0.343  12.282 -1.3941 -2.7939  0.4415
  112MPD2     C 1740   2.866   1.133  11.897  0.4893 -0.1368 -0.7000
  112MPD2    C1 1741   2.952   1.075  11.804 -0.0643 -0.0879  0.1911
  112MPD2    C2 1742   3.037   0.969  11.840  0.3538 -0.3317 -0.0708
  112MPD2    C3 1743   3.036   0.923  11.969 -0.2924  0.4832 -0.4511
  112MPD2    C4 1744   2.943   0.976  12.058  0.3649  0.7363  0.6294
  112MPD2    C5 1745   2.870   1.085  12.023 -0.0964  0.4866  0.4989
  112MPD2     H 1746   3.106   0.918  11.774  2.0634  2.5413 -0.4972
  112MPD2    H1 1747   2.946   0.937  12.159  0.2619 -1.9735 -0.3990
  112MPD2    H2 1748   2.807   1.224  11.892 -0.0432 -0.4245  0.1554
  112MPD2    H3 1749   2.826   1.152  12.097  2.2201  3.8396 -1.1555
  112MPD2     N 1750   3.124   0.824  12.026  0.2664 -0.5207  0.5028
  112MPD2    H5 1751   3.092   0.805  12.120 -1.1923 -1.6226 -0.2135
  112MPD2    N1 1752   2.955   1.123  11.675  0.7191 -0.0079 -0.1186
  112MPD2    H7 1753   3.018   1.070  11.615 -0.0080 -1.2784  0.2469
  113TMC2    C1 1754   1.452   3.436   0.558 -0.7917  0.4679  0.4173
  113TMC2    C2 1755   1.427   3.528   0.456  0.2261 -0.0281 -0.8023
  113TMC2    C3 1756   1.376   3.476   0.340 -0.4163 -0.5774  1.0589
  113TMC2    C4 1757   1.407   3.303   0.546  0.2866 -0.0116  0.8782
  113TMC2    C5 1758   1.359   3.261   0.421  0.3103 -0.7900  1.3285
  113TMC2    C6 1759   1.337   3.347   0.321 -0.0568  0.3847 -0.1558
  113TMC2     C 1760   1.510   3.489   0.680  0.8375 -0.3370 -0.1572
  113TMC2     O 1761   1.467   3.595   0.719 -0.5608  0.4263 -0.0258
  113TMC2     H 1762   1.470   3.627   0.465 -2.3668  0.7874  2.5631
  113TMC2    H1 1763   1.431   3.228   0.621  3.0698  0.1983  0.2084
  113TMC2    H2 1764   1.303   3.313   0.224 -0.4112 -1.8846  0.7729
  113TMC2    C7 1765   1.306   3.124   0.412 -0.4580  0.1496  0.1470
  113TMC2    C8 1766   1.374   3.567   0.223 -0.4743 -0.0628  0.9789
  113TMC2    O1 1767   1.288   3.079   0.306 -0.1906  0.3409  0.2151
  113TMC2    O2 1768   1.349   3.688   0.239  0.9255 -0.1938 -0.4181
  113TMC2    O5 1769   1.432   3.520   0.109 -0.2887  0.3507 -0.2271
  113TMC2    H5 1770   1.445   3.423   0.117  4.2374  1.0187  0.5353
  114MPD2     C 1771   1.866   3.418   1.042 -0.4679 -0.5398  0.0635
  114MPD2    C1 1772   1.779   3.523   1.035  0.0636  0.7619  0.1648
  114MPD2    C2 1773   1.680   3.518   0.935 -0.6657 -0.6936 -0.2590
  114MPD2    C3 1774   1.667   3.412   0.854  0.5098  0.5292 -0.4559
  114MPD2    C4 1775   1.745   3.310   0.870 -0.0801 -0.4661  0.6207
  114MPD2    C5 1776   1.844   3.311   0.962 -0.2814  0.5465 -0.3192
  114MPD2     H 1777   1.627   3.609   0.910 -0.6422 -1.1121 -1.8265
  114MPD2    H1 1778   1.738   3.220   0.810  0.0304 -0.2251  0.2481
  114MPD2    H2 1779   1.951   3.403   1.108  0.2188  3.7541  0.1353
  114MPD2    H3 1780   1.908   3.224   0.959  0.7126  1.2815 -0.3443
  114MPD2     N 1781   1.590   3.398   0.738  0.2459  0.1214 -0.8058
  114MPD2    H5 1782   1.602   3.311   0.687 -0.7562 -0.6346  0.2403
  114MPD2    N1 1783   1.797   3.641   1.111  0.7094  0.0369  0.5222
  114MPD2    H7 1784   1.725   3.710   1.095 -2.1910 -3.1796 -0.3936
  115TMC2    C1 1785   1.909   0.818  17.657 -0.2567  0.2434  0.6614
  115TMC2    C2 1786   2.030   0.805  17.724  0.3802  0.2759  0.7386
  115TMC2    C3 1787   2.103   0.921   0.017  0.5631 -0.9466  0.2014
  115TMC2    C4 1788   1.865   0.933  17.607 -0.6092 -0.1405 -0.6673
  115TMC2    C5 1789   1.951   1.040  17.629 -0.2374  0.3773  0.3560
  115TMC2    C6 1790   2.067   1.044  17.704 -0.5300 -0.0367 -0.3781
  115TMC2     C 1791   1.854   0.691  17.620 -0.1439  0.0607 -0.2615
  115TMC2     O 1792   1.922   0.593  17.640 -0.3507  0.1695  0.0102
  115TMC2     H 1793   2.063   0.710   0.029  3.4101  0.9719 -0.1192
  115TMC2    H1 1794   1.780   0.931  17.539  0.9747 -0.2844 -2.6597
  115TMC2    H2 1795   2.135   1.128  17.697 -0.6687 -0.1237 -2.7858
  115TMC2    C7 1796   1.904   1.152  17.539 -0.0155  0.1012  0.4620
  115TMC2    C8 1797   2.215   0.910   0.100  0.7447  0.1264  0.2633
  115TMC2    O1 1798   1.787   1.160  17.506 -0.0638  0.1438 -0.0634
  115TMC2    O2 1799   2.264   1.005   0.153  0.5323  0.1470  0.1231
  115TMC2    O5 1800   2.290   0.806   0.056  0.1912  0.2258  0.3398
  115TMC2    H5 1801   2.261   0.759  17.711 -1.4477 -1.6064  1.9945
  116MPD2     C 1802   1.443   0.432  17.462  0.3563  0.2579 -0.0152
  116MPD2    C1 1803   1.574   0.387  17.476  0.1569 -0.5432 -0.3823
  116MPD2    C2 1804   1.667   0.473  17.534  0.0645  0.0298 -0.4275
  116MPD2    C3 1805   1.630   0.601  17.551 -0.0747  1.1745  0.4511
  116MPD2    C4 1806   1.506   0.641  17.528  0.5124 -0.2345  0.0356
  116MPD2    C5 1807   1.407   0.557  17.486 -0.4798 -0.6675 -0.2123
  116MPD2     H 1808   1.770   0.442  17.547 -0.0437 -1.3649 -2.8694
  116MPD2    H1 1809   1.478   0.745  17.546  0.1789 -0.3145 -0.0282
  116MPD2    H2 1810   1.367   0.360  17.431 -0.8449  0.4635  2.4555
  116MPD2    H3 1811   1.307   0.594  17.471  0.4567  1.9541  0.0732
  116MPD2     N 1812   1.721   0.703  17.589 -0.1494  0.2137  0.1037
  116MPD2    H5 1813   1.688   0.799  17.592  0.6487  0.5063 -0.4612
  116MPD2    N1 1814   1.605   0.258  17.429  0.6238 -0.1411  0.9058
  116MPD2    H7 1815   1.528   0.206  17.388  1.5547  0.6501 -1.8451
  117TMC2    C1 1816   0.717   2.259  13.540 -0.5667 -0.1786  0.4825
  117TMC2    C2 1817   0.783   2.199  13.432  0.5285  0.1355 -0.1103
  117TMC2    C3 1818   0.913   2.244  13.404  0.0264  0.2119  0.3329
  117TMC2    C4 1819   0.775   2.369  13.600 -0.3721  0.3402 -0.4482
  117TMC2    C5 1820   0.900   2.413  13.563  0.0548 -0.4019  0.0567
  117TMC2    C6 1821   0.965   2.357  13.455  0.4954  0.1110 -0.0706
  117TMC2     C 1822   0.578   2.231  13.564 -0.7129 -0.7766 -0.0770
  117TMC2     O 1823   0.547   2.118  13.523  0.2211  0.3532 -0.1108
  117TMC2     H 1824   0.742   2.122  13.368 -1.7193 -0.1447  1.6604
  117TMC2    H1 1825   0.733   2.403  13.694 -0.6326 -0.2912 -0.3398
  117TMC2    H2 1826   1.062   2.393  13.422  0.4871 -1.2154 -1.5233
  117TMC2    C7 1827   0.952   2.535  13.630  0.8821 -0.0046 -0.2240
  117TMC2    C8 1828   0.984   2.191  13.289  1.3221 -1.3706  0.7309
  117TMC2    O1 1829   1.060   2.583  13.590 -0.0135 -0.3897 -0.6011
  117TMC2    O2 1830   1.054   2.257  13.212 -0.5177  0.1028 -0.4479
  117TMC2    O5 1831   1.030   2.068  13.331  0.1679  0.1367  0.0983
  117TMC2    H5 1832   0.989   2.027  13.410 -2.1368  1.2888 -0.5072
  118MPD2     C 1833   0.828   2.670  13.944  0.0190 -0.3488  0.5849
  118MPD2    C1 1834   0.893   2.681  13.828 -0.2871  0.1218  0.2420
  118MPD2    C2 1835   0.958   2.799  13.789  0.2675 -0.3774  0.0243
  118MPD2    C3 1836   0.958   2.900  13.890 -0.4338  0.0837  0.1337
  118MPD2    C4 1837   0.885   2.890  14.009  0.2666  0.5887 -0.4758
  118MPD2    C5 1838   0.828   2.771  14.034  0.1981  0.0617  0.2332
  118MPD2     H 1839   1.009   2.808  13.694  1.2078  0.2006  0.5875
  118MPD2    H1 1840   0.883   2.968  14.084 -2.5340 -0.2670  0.3491
  118MPD2    H2 1841   0.775   2.581  13.978  0.3369 -0.5701  0.5012
  118MPD2    H3 1842   0.776   2.759  14.128 -0.2606 -0.1959 -0.0526
  118MPD2     N 1843   1.017   3.027  13.870  0.2179 -0.0496  0.2925
  118MPD2    H5 1844   1.004   3.095  13.944 -1.3288 -1.1270  1.0161
  118MPD2    N1 1845   0.884   2.567  13.748 -0.1021 -0.5843  0.5447
  118MPD2    H7 1846   0.809   2.508  13.782  0.5088 -1.3612  0.5454
  119TMC2    C1 1847   4.148   4.285  13.698 -0.8176  0.2093 -0.1468
  119TMC2    C2 1848   4.201   4.392  13.634  0.0795 -0.4563 -0.5251
  119TMC2    C3 1849   4.203   4.391  13.501  0.6028  0.0563  0.2831
  119TMC2    C4 1850   4.109   4.171  13.634 -0.4452  0.4134 -0.2413
  119TMC2    C5 1851   4.129   4.165  13.498  0.4160  0.4608 -0.6963
  119TMC2    C6 1852   4.161   4.283  13.425 -0.9409  0.2105  0.6465
  119TMC2     C 1853   4.094   4.298  13.824  0.0820  0.2723  0.1044
  119TMC2     O 1854   3.996   4.233  13.844 -0.8400  0.5499  0.4052
  119TMC2     H 1855   4.221   4.487  13.683  1.4445 -1.0829  0.1190
  119TMC2    H1 1856   4.074   4.087  13.691 -0.2545  0.6731  0.2584
  119TMC2    H2 1857   4.186   4.273  13.320 -0.0511  0.6666  0.8142
  119TMC2    C7 1858   4.066   4.056  13.412  0.4470 -0.0764  0.3201
  119TMC2    C8 1859   4.279   4.488  13.426  0.0684  0.3744 -0.0384
  119TMC2    O1 1860   4.082   4.073  13.289  0.1665  0.7449  0.3688
  119TMC2    O2 1861   4.258   4.513  13.307 -0.4447 -0.5212  0.3966
  119TMC2    O5 1862   4.397   4.510  13.487 -0.1372  0.2342  0.0103
  119TMC2    H5 1863   4.410   4.438  13.553 -3.1015 -0.4940 -0.1970
  120MPD2     C 1864   4.020   4.463  14.301 -0.3023 -1.2317  0.0756
  120MPD2    C1 1865   3.928   4.429  14.204 -0.1486 -0.4341 -0.0074
  120MPD2    C2 1866   3.964   4.419  14.068  0.0656 -0.4143 -0.4641
  120MPD2    C3 1867   4.100   4.432  14.034  0.0415  0.0685 -0.5224
  120MPD2    C4 1868   4.188   4.476  14.130  0.7281 -0.6703 -0.5391
  120MPD2    C5 1869   4.147   4.490  14.264 -0.0387  0.2906  0.2020
  120MPD2     H 1870   3.886   4.382  14.003  0.5861 -2.3065 -0.0068
  120MPD2    H1 1871   4.292   4.493  14.105  1.0379 -0.4493  0.9122
  120MPD2    H2 1872   3.995   4.462  14.407  0.9206 -0.0868  0.3699
  120MPD2    H3 1873   4.209   4.512  14.350  0.8520  1.6119 -0.7735
  120MPD2     N 1874   4.148   4.401  13.902  0.2380  0.0678 -0.3243
  120MPD2    H5 1875   4.240   4.432  13.871 -0.6701  0.9022 -2.1278
  120MPD2    N1 1876   3.798   4.407  14.255 -0.4581 -0.2312 -0.0229
  120MPD2    H7 1877   3.795   4.376  14.352  1.8825  2.6882  0.9657
  121TMC2    C1 1878   0.737   0.818  14.303  0.1086  0.6541 -0.4591
  121TMC2    C2 1879   0.672   0.865  14.420  0.0959  0.2210 -0.2289
  121TMC2    C3 1880   0.554   0.807  14.445  0.1822 -0.6274 -0.1073
  121TMC2    C4 1881   0.689   0.711  14.234 -0.6433  0.1914 -0.2507
  121TMC2    C5 1882   0.564   0.661  14.265 -0.0103  0.8075  0.2441
  121TMC2    C6 1883   0.495   0.707  14.371  0.2289  0.3820 -0.4714
  121TMC2     C 1884   0.849   0.887  14.255  0.2436 -0.0875 -0.2264
  121TMC2     O 1885   0.916   0.940  14.339  0.2403 -0.0286 -0.5204
  121TMC2     H 1886   0.702   0.955  14.472  2.4073 -1.0474  0.6383
  121TMC2    H1 1887   0.736   0.678  14.142 -0.6871  0.4213 -0.3573
  121TMC2    H2 1888   0.399   0.666  14.398  0.8815 -0.6313  0.3222
  121TMC2    C7 1889   0.494   0.583  14.169  0.0637 -0.3200  0.5392
  121TMC2    C8 1890   0.476   0.869  14.548  0.1281  0.3562 -0.0080
  121TMC2    O1 1891   0.562   0.538  14.077  0.5969 -0.5663 -0.0541
  121TMC2    O2 1892   0.536   0.915  14.642 -0.0692 -0.3408 -0.0330
  121TMC2    O5 1893   0.381   0.932  14.486  0.3690  0.0507  0.1435
  121TMC2    H5 1894   0.347   0.896  14.402 -1.1830  1.9744 -0.0551
  122MPD2     C 1895   1.064   1.016  14.105  0.5581 -0.5228 -0.2245
  122MPD2    C1 1896   0.950   0.965  14.048  0.0154 -0.0767 -0.6022
  122MPD2    C2 1897   0.928   0.986  13.911  0.4088 -0.0566  0.2759
  122MPD2    C3 1898   1.016   1.066  13.836  0.0946  1.6013  0.3425
  122MPD2    C4 1899   1.125   1.125  13.903 -0.2387 -0.1392 -0.1893
  122MPD2    C5 1900   1.149   1.091  14.028 -0.4390  0.7549  0.7772
  122MPD2     H 1901   0.847   0.937  13.858  0.3549 -0.2458  0.5336
  122MPD2    H1 1902   1.207   1.172  13.851  0.6417 -1.3406  0.1126
  122MPD2    H2 1903   1.097   1.005  14.207 -0.4884  2.4228  0.4380
  122MPD2    H3 1904   1.241   1.123  14.076 -0.4396  0.1169  1.1983
  122MPD2     N 1905   0.989   1.116  13.701  0.1382  0.2576 -0.0736
  122MPD2    H5 1906   1.056   1.182  13.663 -0.2470 -0.0529 -1.3098
  122MPD2    N1 1907   0.849   0.896  14.119  0.7661 -0.1838 -0.3698
  122MPD2    H7 1908   0.767   0.863  14.069 -0.3924 -1.2744  2.2147
  123TMC2    C1 1909   3.566   0.248  10.696  0.2626 -0.8366  0.8198
  123TMC2    C2 1910   3.670   0.338  10.699  0.1046 -0.1050  0.0566
  123TMC2    C3 1911   3.769   0.317  10.610 -0.0750  0.0059 -0.4246
  123TMC2    C4 1912   3.580   0.129  10.625 -0.0764 -0.3164  0.5901
  123TMC2    C5 1913   3.692   0.106  10.558  0.4006 -0.0908 -0.0327
  123TMC2    C6 1914   3.787   0.204  10.539 -0.3989 -0.5129  0.3486
  123TMC2     C 1915   3.449   0.269  10.776  0.1509 -0.4491 -0.1212
  123TMC2     O 1916   3.446   0.341  10.879 -0.1729  0.3132  0.5347
  123TMC2     H 1917   3.674   0.434  10.749 -0.2100 -0.6196  1.0634
  123TMC2    H1 1918   3.523   0.044  10.660  1.7410 -0.8773  2.1635
  123TMC2    H2 1919   3.877   0.203  10.479 -0.4391  0.2602  0.2696
  123TMC2    C7 1920   3.672   0.015  10.447 -0.1121 -0.1763  0.3684
  123TMC2    C8 1921   3.854   0.428  10.579 -0.1496  0.7706 -0.3098
  123TMC2    O1 1922   3.599   4.656  10.473 -0.1934  0.0042  0.0265
  123TMC2    O2 1923   3.964   0.420  10.524 -0.7083 -0.1295  0.5725
  123TMC2    O5 1924   3.779   0.544  10.570  0.5124 -0.0514 -0.0204
  123TMC2    H5 1925   3.682   0.535  10.584  0.4630 -0.4574 -0.6168
  124MPD2     C 1926   2.942   0.196  10.826 -0.0015  0.6518 -0.4401
  124MPD2    C1 1927   2.991   0.131  10.711 -0.3652  0.2953  0.8204
  124MPD2    C2 1928   3.122   0.138  10.683 -0.3061 -0.0293  0.2980
  124MPD2    C3 1929   3.204   0.206  10.768  0.2077 -0.4340 -0.1972
  124MPD2    C4 1930   3.165   0.265  10.884 -0.4831 -0.0542  0.0256
  124MPD2    C5 1931   3.032   0.260  10.909 -0.3256  0.0603  0.1130
  124MPD2     H 1932   3.153   0.100  10.587 -0.4117 -1.8784  0.9918
  124MPD2    H1 1933   3.232   0.319  10.950  0.7888 -2.2231  0.5469
  124MPD2    H2 1934   2.837   0.208  10.850  0.1381  0.4983  0.2716
  124MPD2    H3 1935   2.990   0.307  10.997 -0.4048  1.3821 -0.6385
  124MPD2     N 1936   3.339   0.213  10.717 -0.1204  0.1650 -0.1005
  124MPD2    H5 1937   3.358   0.171  10.626 -1.2502  0.3219 -0.4079
  124MPD2    N1 1938   2.901   0.045  10.632  0.3123 -0.4044 -0.4359
  124MPD2    H7 1939   2.829   4.722  10.674 -0.4290  0.5250 -0.4356
  125TMC2    C1 1940   3.852   1.857   9.482 -0.4756  0.2694  0.2790
  125TMC2    C2 1941   3.842   1.738   9.417  0.4139 -0.0905 -0.2557
  125TMC2    C3 1942   3.954   1.712   9.340 -0.4109  0.4313  0.4635
  125TMC2    C4 1943   3.958   1.950   9.469  0.8140  0.0618  0.4467
  125TMC2    C5 1944   4.065   1.915   9.389  0.5199 -0.2203  0.8822
  125TMC2    C6 1945   4.057   1.801   9.317  0.2180  0.7389  0.3468
  125TMC2     C 1946   3.764   1.881   9.592 -0.4054  0.8555  0.3768
  125TMC2     O 1947   3.658   1.819   9.588  0.7935  0.3231  0.3807
  125TMC2     H 1948   3.755   1.674   9.429  1.8048 -1.8086  0.6234
  125TMC2    H1 1949   3.958   2.047   9.518 -0.7039  0.4252 -0.2719
  125TMC2    H2 1950   4.138   1.760   9.257 -0.4172  2.2603 -1.5528
  125TMC2    C7 1951   4.155   2.023   9.347  0.6888 -0.1154 -0.0348
  125TMC2    C8 1952   3.969   1.577   9.278  0.6884 -0.2624  0.5883
  125TMC2    O1 1953   4.101   2.132   9.336 -0.2106 -0.5916 -0.3170
  125TMC2    O2 1954   4.056   1.554   9.195 -0.0056  0.2245 -0.8111
  125TMC2    O5 1955   3.899   1.483   9.344  0.1882  0.1878 -0.0349
  125TMC2    H5 1956   3.844   1.514   9.420  2.4770 -0.1325  1.7614
  126MPD1     C 1957   3.704   1.960  10.088 -0.7054  0.1926  0.2340
  126MPD1    C1 1958   3.837   1.998  10.060  0.1617  0.5269  0.3748
  126MPD1    C2 1959   3.877   1.978   9.930  1.0902  0.0872 -0.1544
  126MPD1    C3 1960   3.790   1.940   9.826  0.0957 -0.6311  0.8701
  126MPD1    C4 1961   3.658   1.918   9.851  0.3820  0.8299 -0.9955
  126MPD1    C5 1962   3.620   1.925   9.984  0.1461 -0.7637 -0.7239
  126MPD1     H 1963   3.979   2.008   9.908  0.6725  1.9715  0.4416
  126MPD1    H1 1964   3.582   1.901   9.775 -0.9139  0.3724  0.3964
  126MPD1    H2 1965   3.648   1.954  10.181  0.1711  0.4546  0.7883
  126MPD1    H3 1966   3.519   1.907  10.019  1.2589 -0.9528  2.3526
  126MPD1     N 1967   3.833   1.943   9.691  0.1765 -0.2387 -0.0776
  126MPD1    H5 1968   3.927   1.967   9.663  0.3220  0.2483  0.8394
  126MPD1    N1 1969   3.920   2.019  10.172 -0.5673  0.5679  0.3031
  126MPD1    H6 1970   3.869   2.054  10.254  1.3883 -0.4014  1.9196
  126MPD1    H7 1971   3.996   2.085  10.154  1.2318 -1.7525 -0.5656
  127TMC2    C1 1972   0.656   0.336   9.850 -0.4754  0.0648 -0.2424
  127TMC2    C2 1973   0.691   0.217   9.796 -0.5494 -0.0162  0.0655
  127TMC2    C3 1974   0.615   0.107   9.834 -0.3555  0.1701 -0.1133
  127TMC2    C4 1975   0.549   0.351   9.935 -0.1934  0.0265 -0.5827
  127TMC2    C5 1976   0.468   0.245   9.963 -0.4032 -0.1534 -0.2338
  127TMC2    C6 1977   0.501   0.121   9.919 -0.2705  0.5684  0.0483
  127TMC2     C 1978   0.741   0.454   9.803 -0.0135  0.6817  0.2575
  127TMC2     O 1979   0.755   0.546   9.885 -0.1045 -0.0720  0.3248
  127TMC2     H 1980   0.793   0.212   9.758 -0.4699  0.7925  0.1728
  127TMC2    H1 1981   0.522   0.449   9.973  2.4397 -0.0719  1.5119
  127TMC2    H2 1982   0.452   0.034   9.963  0.9160  0.7069  1.6419
  127TMC2    C7 1983   0.330   0.273   9.995 -0.4876 -0.2496  0.2918
  127TMC2    C8 1984   0.635   4.717   9.774 -0.1244  0.2229  0.5898
  127TMC2    O1 1985   0.305   0.388  10.038  0.8195 -0.2732 -0.5687
  127TMC2    O2 1986   0.594   4.612   9.825  0.2272 -0.0691 -0.5010
  127TMC2    O5 1987   0.697   4.728   9.651 -0.1958 -0.1075 -0.0879
  127TMC2    H5 1988   0.702   0.085   9.615  0.9412 -0.3103 -0.4327
  128MPD2     C 1989   0.812   0.487   9.431  0.0674 -0.1616 -0.5789
  128MPD2    C1 1990   0.814   0.530   9.567 -0.4084  0.5681  0.3961
  128MPD2    C2 1991   0.856   0.656   9.592  0.0779  0.0091 -0.1223
  128MPD2    C3 1992   0.903   0.741   9.494  0.3266 -0.3610 -0.3540
  128MPD2    C4 1993   0.898   0.699   9.355 -0.8437 -0.3884 -0.0066
  128MPD2    C5 1994   0.850   0.574   9.332  0.0988  0.2943  0.7320
  128MPD2     H 1995   0.870   0.680   9.697  0.2427  0.9915 -0.3705
  128MPD2    H1 1996   0.927   0.772   9.280  2.1847 -0.5611  0.9861
  128MPD2    H2 1997   0.766   0.394   9.403  0.3900 -0.3045 -0.6341
  128MPD2    H3 1998   0.833   0.548   9.228 -0.1579  2.9607  0.1126
  128MPD2     N 1999   0.960   0.861   9.536 -0.3181  0.2947 -0.1580
  128MPD2    H5 2000   0.970   0.876   9.636  1.3707 -0.8986 -0.1648
  128MPD2    N1 2001   0.769   0.437   9.667  0.2174 -0.5424 -0.4071
  128MPD2    H7 2002   0.738   0.350   9.626 -1.0824  0.7510 -2.1904
  129TMC2    C1 2003   3.501   1.209   1.581 -0.7970 -0.2055  0.3797
  129TMC2    C2 2004   3.594   1.241   1.482  0.0807 -0.4081 -0.7134
  129TMC2    C3 2005   3.683   1.141   1.454 -1.1538 -0.1164 -0.1711
  129TMC2    C4 2006   3.486   1.082   1.627  0.3791  0.9546  0.5355
  129TMC2    C5 2007   3.566   0.988   1.578 -0.1455  0.1093  0.0145
  129TMC2    C6 2008   3.673   1.017   1.499  0.1141 -0.4293  0.4889
  129TMC2     C 2009   3.397   1.298   1.617 -0.2108  0.4492  0.6339
  129TMC2     O 2010   3.296   1.246   1.653 -0.0850  0.3996 -0.0838
  129TMC2     H 2011   3.594   1.329   1.419  0.8772 -2.1802 -3.1914
  129TMC2    H1 2012   3.406   1.056   1.695 -0.4785  0.1310 -0.7797
  129TMC2    H2 2013   3.728   0.939   1.446 -0.9123 -0.4461 -0.5251
  129TMC2    C7 2014   3.558   0.851   1.625 -0.3752  0.2185  0.1557
  129TMC2    C8 2015   3.747   1.155   1.329  0.9222  0.1852  0.0883
  129TMC2    O1 2016   3.453   0.797   1.633  0.3189 -0.6659  0.2105
  129TMC2    O2 2017   3.731   1.086   1.231  0.1890 -0.4882 -0.3737
  129TMC2    O5 2018   3.847   1.236   1.355 -0.1199  0.2112 -0.0121
  129TMC2    H5 2019   3.856   1.261   1.449  2.2848 -1.7423  0.2686
  130MPD2     C 2020   3.223   1.539   1.667 -0.1566  0.2746  0.0713
  130MPD2    C1 2021   3.346   1.542   1.599 -0.1304 -0.4785  0.3032
  130MPD2    C2 2022   3.398   1.661   1.567 -0.1547 -0.3489  0.0381
  130MPD2    C3 2023   3.334   1.778   1.587 -0.6113  0.1031 -0.3076
  130MPD2    C4 2024   3.216   1.773   1.648  0.4090 -0.0155  0.3044
  130MPD2    C5 2025   3.160   1.655   1.686 -0.6059 -0.2396 -0.1554
  130MPD2     H 2026   3.497   1.669   1.523  1.2647 -1.9500  2.9280
  130MPD2    H1 2027   3.154   1.858   1.673  1.6677  1.0077 -0.0599
  130MPD2    H2 2028   3.180   1.446   1.700 -1.7806  1.1953  0.5378
  130MPD2    H3 2029   3.064   1.660   1.737 -0.2851  0.7319  0.3321
  130MPD2     N 2030   3.398   1.889   1.536 -0.1689  0.3798  0.2755
  130MPD2    H5 2031   3.484   1.881   1.482 -1.2442  2.0667 -1.7054
  130MPD2    N1 2032   3.431   1.426   1.586 -0.7508  0.4987  0.6526
  130MPD2    H7 2033   3.528   1.450   1.573 -0.9598  1.6373  1.1631
  131TMC2    C1 2034   3.219   0.139   9.749 -0.5949 -0.6193 -0.4587
  131TMC2    C2 2035   3.153   0.241   9.693  0.3655 -0.1836 -0.4241
  131TMC2    C3 2036   3.227   0.355   9.676  0.7251  0.2134  1.2300
  131TMC2    C4 2037   3.350   0.147   9.799 -0.1559 -0.5493 -1.2420
  131TMC2    C5 2038   3.415   0.264   9.780  0.6945 -0.1391 -0.1676
  131TMC2    C6 2039   3.363   0.367   9.708  0.1239  0.1184  0.6354
  131TMC2     C 2040   3.150   0.026   9.808 -0.5487 -0.0378  0.4316
  131TMC2     O 2041   3.191   4.730   9.919  0.0173 -0.2300  0.7265
  131TMC2     H 2042   3.048   0.231   9.669 -0.4130  0.3774  2.7789
  131TMC2    H1 2043   3.411   0.075   9.853  1.0315  1.3046 -0.0831
  131TMC2    H2 2044   3.405   0.465   9.694  0.2633  0.1686  1.4204
  131TMC2    C7 2045   3.488   0.309   9.897  0.5452  0.2883 -0.7858
  131TMC2    C8 2046   3.187   0.467   9.594 -0.0730 -0.5890  0.2571
  131TMC2    O1 2047   3.441   0.260   9.997  0.6342 -0.0363  0.4709
  131TMC2    O2 2048   3.079   0.516   9.614 -0.0325 -0.6571 -0.3650
  131TMC2    O5 2049   3.210   0.405   9.471  0.1796  0.3282 -0.2340
  131TMC2    H5 2050   3.292   0.352   9.458 -0.4661 -0.1515 -2.3547
  132MPD2     C 2051   2.852   4.562   9.695  0.3571  0.5980  0.0230
  132MPD2    C1 2052   2.937   4.622   9.785  0.6829 -0.0784  0.5127
  132MPD2    C2 2053   2.939   4.579   9.918  0.2618 -0.2289 -0.0955
  132MPD2    C3 2054   2.851   4.490   9.965 -0.5582 -0.1426 -0.0612
  132MPD2    C4 2055   2.764   4.440   9.873  0.2432  0.0512 -0.6093
  132MPD2    C5 2056   2.781   4.460   9.736  0.0080  0.8501 -0.0155
  132MPD2     H 2057   3.004   4.628   9.989  1.0005  1.5104 -1.9853
  132MPD2    H1 2058   2.699   4.355   9.890 -1.5618  1.2430 -1.5451
  132MPD2    H2 2059   2.843   4.604   9.595 -0.6081  1.9569  0.6861
  132MPD2    H3 2060   2.718   4.409   9.664 -1.0561  1.8329  0.2097
  132MPD2     N 2061   2.846   4.479  10.107  1.0653 -0.9041 -0.7347
  132MPD2    H5 2062   2.917   4.525  10.163  0.3774 -0.2755 -0.3677
  132MPD2    N1 2063   3.034   4.723   9.739 -0.3425 -0.3629  0.0264
  132MPD2    H7 2064   3.017   0.030   9.648 -1.4772 -0.8240  0.0406
  133TMC2    C1 2065   2.961   1.378   9.614 -0.4853 -0.3002 -0.2425
  133TMC2    C2 2066   3.095   1.386   9.598  0.1234  0.4763 -0.1061
  133TMC2    C3 2067   3.157   1.497   9.646  1.1836  0.3247 -0.2026
  133TMC2    C4 2068   2.884   1.488   9.658 -0.8677 -0.0522 -0.0940
  133TMC2    C5 2069   2.962   1.596   9.700 -0.3542 -0.3961 -0.4028
  133TMC2    C6 2070   3.093   1.603   9.703  0.3127  0.5789 -0.4304
  133TMC2     C 2071   2.891   1.267   9.554 -0.4290 -0.2056 -0.7984
  133TMC2     O 2072   2.955   1.165   9.533  0.0356  0.4306 -0.5995
  133TMC2     H 2073   3.148   1.304   9.551  0.3081  0.6054 -0.1244
  133TMC2    H1 2074   2.780   1.470   9.684 -0.9651  0.8299  0.1035
  133TMC2    H2 2075   3.144   1.698   9.713  1.5275  0.1596 -2.6494
  133TMC2    C7 2076   2.893   1.710   9.751  0.3709 -0.0352 -0.4687
  133TMC2    C8 2077   3.297   1.505   9.608 -0.0638  0.0484  0.0177
  133TMC2    O1 2078   2.953   1.789   9.828 -0.2657 -0.0269  0.6914
  133TMC2    O2 2079   3.339   1.427   9.525  0.3261  0.3140  0.2268
  133TMC2    O5 2080   3.366   1.554   9.708  0.3763  0.9953  0.1402
  133TMC2    H5 2081   3.306   1.601   9.770 -1.3227 -2.7584  1.2921
  134MPD2     C 2082   2.588   1.273   9.348 -0.5466  0.2044  0.5331
  134MPD2    C1 2083   2.678   1.218   9.438  0.1269  0.0423  0.6069
  134MPD2    C2 2084   2.674   1.086   9.470  0.2568 -0.1209 -0.1929
  134MPD2    C3 2085   2.581   1.004   9.405  0.0035 -0.6215  0.2517
  134MPD2    C4 2086   2.500   1.068   9.310 -0.4401  0.0821 -0.4946
  134MPD2    C5 2087   2.501   1.200   9.279 -0.1987 -0.3004  0.3433
  134MPD2     H 2088   2.730   1.052   9.556  0.9387  0.3092 -0.4711
  134MPD2    H1 2089   2.421   1.017   9.256  0.6660  0.6062 -2.6341
  134MPD2    H2 2090   2.586   1.379   9.326  2.6257  0.0941 -0.3198
  134MPD2    H3 2091   2.428   1.240   9.209 -0.8007  1.0653  1.7678
  134MPD2     N 2092   2.549   0.873   9.446  0.2093 -0.1965  0.4969
  134MPD2    H5 2093   2.471   0.833   9.395  0.0042  2.0305 -0.9400
  134MPD2    N1 2094   2.766   1.302   9.506 -0.3689 -0.2184  0.2458
  134MPD2    H7 2095   2.752   1.402   9.492  0.2202  0.1176  2.0737
  135TMC2    C1 2096   4.462   2.389   9.632  0.0193  0.2452 -1.3146
  135TMC2    C2 2097   4.331   2.369   9.653 -0.5894 -0.0109  0.4235
  135TMC2    C3 2098   4.288   2.238   9.654  0.2090 -0.0889 -0.2777
  135TMC2    C4 2099   4.557   2.289   9.616 -0.1577  0.2594 -0.7336
  135TMC2    C5 2100   4.510   2.162   9.611 -0.4698  0.0302 -0.0225
  135TMC2    C6 2101   4.378   2.132   9.632 -0.3944 -0.1164  0.2406
  135TMC2     C 2102   4.505   2.528   9.614  0.5293  0.2809  0.0478
  135TMC2     O 2103   4.428   2.619   9.645  0.0731  0.5234  0.0828
  135TMC2     H 2104   4.268   2.452   9.684 -1.0279 -0.1053 -0.2133
  135TMC2    H1 2105   4.665   2.301   9.619 -0.0829  0.0176 -2.4060
  135TMC2    H2 2106   4.345   2.028   9.637  0.5495 -0.3212  2.0972
  135TMC2    C7 2107   4.614   2.057   9.580  0.2337 -0.8316 -0.0173
  135TMC2    C8 2108   4.151   2.198   9.676 -0.2216  0.2748 -0.2416
  135TMC2    O1 2109   4.727   2.098   9.557 -0.3028 -0.3777 -0.6011
  135TMC2    O2 2110   4.115   2.083   9.709  0.2917  0.2105 -0.2263
  135TMC2    O5 2111   4.075   2.285   9.615 -0.2458 -0.6287  0.5885
  135TMC2    H5 2112   4.124   2.354   9.565 -2.3267 -1.3277 -2.4485
  136MPD2     C 2113   4.644   2.783   9.539 -0.1089  0.5405 -0.5948
  136MPD2    C1 2114   4.677   2.654   9.496  0.0902 -0.0472 -0.7737
  136MPD2    C2 2115   0.045   2.628   9.407 -0.6876  1.0913  0.0827
  136MPD2    C3 2116   0.120   2.737   9.359 -0.2056  0.5461 -1.0118
  136MPD2    C4 2117   0.092   2.863   9.410  0.0211 -0.1658 -0.4779
  136MPD2    C5 2118   4.717   2.887   9.496  0.3166  0.3054  0.1757
  136MPD2     H 2119   0.067   2.527   9.376  1.3995  1.9163 -1.0885
  136MPD2    H1 2120   0.142   2.950   9.369 -0.8634  1.3041  1.5480
  136MPD2    H2 2121   4.559   2.797   9.605 -1.0864  0.9856 -1.9325
  136MPD2    H3 2122   4.684   2.988   9.518 -1.2482  0.0076 -0.8174
  136MPD2     N 2123   0.209   2.725   9.251 -0.0514  0.1189 -0.0255
  136MPD2    H5 2124   0.250   2.808   9.209  1.2635  0.0924  1.1843
  136MPD2    N1 2125   4.618   2.538   9.545 -0.0126  0.1700  0.2982
  136MPD2    H7 2126   4.656   2.450   9.511  2.2332  2.1736 -2.4275
  137TMC2    C1 2127   4.466   1.287   9.209 -0.7561  0.0618  0.5238
  137TMC2    C2 2128   4.492   1.335   9.083 -0.5530 -0.6720 -0.4637
  137TMC2    C3 2129   4.453   1.465   9.059  0.0941 -0.1731 -0.6692
  137TMC2    C4 2130   4.399   1.358   9.305 -0.0346 -0.2865  0.1846
  137TMC2    C5 2131   4.357   1.488   9.273  0.6945 -0.3398 -0.2181
  137TMC2    C6 2132   4.377   1.538   9.150 -0.0224 -0.1734  0.0767
  137TMC2     C 2133   4.519   1.151   9.237  1.4297  0.3365 -0.2972
  137TMC2     O 2134   4.477   1.096   9.340  0.5487 -0.0414  0.1739
  137TMC2     H 2135   4.553   1.295   9.003  1.2586  2.2033 -0.5293
  137TMC2    H1 2136   4.375   1.309   9.399  1.0747  0.3927  0.8248
  137TMC2    H2 2137   4.344   1.639   9.129  1.9983  0.6575  0.7774
  137TMC2    C7 2138   4.308   1.575   9.379  0.1485 -0.2667 -0.9946
  137TMC2    C8 2139   4.474   1.499   8.921  0.2292  0.0258  0.2515
  137TMC2    O1 2140   4.332   1.695   9.372  0.2694 -0.2647  0.3971
  137TMC2    O2 2141   4.463   1.418   8.831  0.3825  0.6676  0.2083
  137TMC2    O5 2142   4.479   1.630   8.916  0.1658 -0.4703  0.4299
  137TMC2    H5 2143   4.495   1.675   9.002  1.4319 -0.9051  0.4268
  138MPD2     C 2144   0.107   1.024   9.122 -0.1508 -0.4662  0.0354
  138MPD2    C1 2145   4.727   1.031   9.200 -0.3124 -0.1893  0.2236
  138MPD2    C2 2146   4.723   0.944   9.307 -0.0484 -0.3948  0.3858
  138MPD2    C3 2147   0.097   0.863   9.341  0.6283 -0.3778  0.1136
  138MPD2    C4 2148   0.202   0.852   9.245 -0.5527 -0.2081 -0.0257
  138MPD2    C5 2149   0.210   0.936   9.140 -0.1509 -0.9093  0.3739
  138MPD2     H 2150   4.643   0.953   9.379 -0.2734 -4.2298  0.6176
  138MPD2    H1 2151   0.290   0.791   9.262  0.6174  1.5623  0.2490
  138MPD2    H2 2152   0.101   1.091   9.037  2.7831 -0.0395  0.1602
  138MPD2    H3 2153   0.303   0.938   9.085 -0.4535 -1.1084 -0.1424
  138MPD2     N 2154   0.097   0.799   9.469  0.7144  0.3841 -0.2294
  138MPD2    H5 2155   0.022   0.832   9.529 -0.4124  1.1967 -2.0464
  138MPD2    N1 2156   4.629   1.129   9.168 -0.3415  0.7708 -0.2000
  138MPD2    H7 2157   4.661   1.194   9.097  2.0599 -1.0299 -0.7721
  139TMC2    C1 2158   0.840   3.429  13.574 -0.1288 -0.3203  0.3700
  139TMC2    C2 2159   0.944   3.522  13.540 -0.1370 -1.4394  0.6303
  139TMC2    C3 2160   0.933   3.654  13.560  0.5886  0.2875  0.0611
  139TMC2    C4 2161   0.722   3.475  13.639 -0.6551 -0.2214 -0.5592
  139TMC2    C5 2162   0.726   3.608  13.662 -0.6245 -0.0398 -0.9476
  139TMC2    C6 2163   0.825   3.695  13.632  0.6656 -0.7913  0.5929
  139TMC2     C 2164   0.865   3.283  13.543 -0.1277 -0.8546  0.4938
  139TMC2     O 2165   0.954   3.261  13.463  0.1737 -0.7476 -0.1680
  139TMC2     H 2166   1.031   3.501  13.478  0.0101  1.4662 -0.1571
  139TMC2    H1 2167   0.633   3.416  13.661  0.2015 -1.4571 -0.3895
  139TMC2    H2 2168   0.791   3.798  13.627  1.1108 -0.7788 -1.7937
  139TMC2    C7 2169   0.599   3.662  13.704  0.4363  0.3751  0.6938
  139TMC2    C8 2170   1.000   3.737  13.470  0.5808 -0.5793  0.6356
  139TMC2    O1 2171   0.504   3.663  13.632 -0.1087 -0.0810  0.4029
  139TMC2    O2 2172   1.056   3.697  13.369 -0.2899 -0.4553  0.0393
  139TMC2    O5 2173   1.013   3.865  13.511  0.0942  0.5383  0.3541
  139TMC2    H5 2174   0.970   3.886  13.597 -2.1382 -1.5577 -0.2619
  140MPD2     C 2175   0.654   2.994  13.631  0.4766 -0.0143 -0.1214
  140MPD2    C1 2176   0.756   3.058  13.567  0.1007  0.8082 -0.8382
  140MPD2    C2 2177   0.829   2.991  13.472  0.4302  0.5932 -0.3743
  140MPD2    C3 2178   0.797   2.860  13.444  0.1169 -0.0520 -0.1928
  140MPD2    C4 2179   0.703   2.790  13.514  0.2099  0.3385  0.1467
  140MPD2    C5 2180   0.622   2.860  13.603  0.1647  0.4765 -0.6741
  140MPD2     H 2181   0.913   3.040  13.423  0.3390  0.1748 -0.9477
  140MPD2    H1 2182   0.675   2.688  13.490  0.3106  0.2796  0.2758
  140MPD2    H2 2183   0.595   3.041  13.709  0.9781  1.7724 -0.8172
  140MPD2    H3 2184   0.534   2.815  13.646  1.9504 -0.9425  1.4595
  140MPD2     N 2185   0.885   2.792  13.356  0.0924 -0.1910  0.4960
  140MPD2    H5 2186   0.964   2.845  13.320 -0.6434 -0.1428 -1.0727
  140MPD2    N1 2187   0.770   3.197  13.592  0.3529  0.4270 -0.0976
  140MPD2    H7 2188   0.698   3.227  13.657  0.8845 -1.2532  1.2783
  141TMC2    C1 2189   0.871   0.661  14.597  0.2681  0.4134 -0.2039
  141TMC2    C2 2190   0.782   0.684  14.699  0.4685  0.7848  0.3131
  141TMC2    C3 2191   0.827   0.783  14.790  0.3180 -0.1231 -0.3578
  141TMC2    C4 2192   0.976   0.739  14.567 -0.8225  0.2618 -0.1296
  141TMC2    C5 2193   0.991   0.844  14.651 -0.4676  0.3614 -0.8113
  141TMC2    C6 2194   0.927   0.869  14.767  0.2906  0.3234 -0.0458
  141TMC2     C 2195   0.875   0.542  14.521  0.3944 -0.6059  0.2024
  141TMC2     O 2196   0.969   0.522  14.438  0.8078  0.2954  0.0018
  141TMC2     H 2197   0.709   0.609  14.727  1.0246 -0.2631 -0.9953
  141TMC2    H1 2198   1.038   0.734  14.478 -1.8278 -2.3803 -0.6699
  141TMC2    H2 2199   0.946   0.962  14.820  2.1738  0.5557 -1.1403
  141TMC2    C7 2200   1.079   0.944  14.615  0.5682 -0.0953  0.3275
  141TMC2    C8 2201   0.747   0.815  14.902  0.7004  0.5158 -0.1761
  141TMC2    O1 2202   1.032   1.058  14.624 -0.4374 -0.3200  0.6402
  141TMC2    O2 2203   0.633   0.768  14.914 -0.0324  1.1641  0.2260
  141TMC2    O5 2204   0.840   0.841  14.995 -0.2458  0.3248 -0.0888
  141TMC2    H5 2205   0.932   0.837  14.962 -0.1645  0.2999  0.1434
  142TMC2    C1 2206   3.113   4.263   9.959 -0.4406 -0.1405 -0.6547
  142TMC2    C2 2207   3.103   4.274   9.828  0.0940  0.3719 -0.8965
  142TMC2    C3 2208   3.183   4.363   9.772  0.3681 -0.1671  0.4648
  142TMC2    C4 2209   3.207   4.321  10.037 -0.7263 -0.0963 -0.1523
  142TMC2    C5 2210   3.288   4.411   9.973 -0.0774  0.6368 -0.0516
  142TMC2    C6 2211   3.275   4.438   9.842 -0.0411 -0.2872  0.1702
  142TMC2     C 2212   3.028   4.168  10.029  0.7003 -0.2417  0.1641
  142TMC2     O 2213   2.954   4.088   9.974  0.2391 -0.1870  0.3585
  142TMC2     H 2214   3.034   4.214   9.771  0.3492 -0.1986 -0.6077
  142TMC2    H1 2215   3.223   4.307  10.144  1.2753 -2.1940 -0.7198
  142TMC2    H2 2216   3.337   4.510   9.791 -1.7086  1.5828  0.7748
  142TMC2    C7 2217   3.380   4.491  10.046 -0.1832  0.2439 -0.1913
  142TMC2    C8 2218   3.170   4.395   9.629  0.0352 -0.2716 -0.2942
  142TMC2    O1 2219   3.347   4.504  10.162 -0.1370 -0.1091  0.4011
  142TMC2    O2 2220   3.078   4.343   9.565 -0.0265  0.4829 -0.2107
  142TMC2    O5 2221   3.294   4.385   9.582 -0.1638 -0.5303 -0.4565
  142TMC2    H5 2222   3.361   4.380   9.654 -1.7498 -0.9326  0.9865
  143MPD2     C 2223   2.794   3.995  10.459  0.5966 -0.0591 -0.6158
  143MPD2    C1 2224   2.798   3.946  10.335  0.2598 -0.1872  0.1025
  143MPD2    C2 2225   2.877   4.005  10.232 -0.3524 -0.2402 -0.5806
  143MPD2    C3 2226   2.946   4.118  10.264 -0.0035  0.0710 -0.4720
  143MPD2    C4 2227   2.944   4.167  10.393  0.6833  0.3299 -0.4592
  143MPD2    C5 2228   2.861   4.112  10.487 -0.7711  0.1888  0.3374
  143MPD2     H 2229   2.859   3.969  10.131  0.3434  0.5254 -0.9784
  143MPD2    H1 2230   3.010   4.247  10.422 -0.9669  2.5454 -2.8411
  143MPD2    H2 2231   2.727   3.949  10.531  3.1306 -1.6213  0.7477
  143MPD2    H3 2232   2.853   4.153  10.588  1.1835  0.4123  0.3943
  143MPD2     N 2233   3.019   4.195  10.169  0.0073 -0.4718 -0.4732
  143MPD2    H5 2234   3.053   4.282  10.208  1.9968 -0.3464 -2.4405
  143MPD2    N1 2235   2.721   3.828  10.307 -0.1149  0.4052  0.6754
  143MPD2    H7 2236   2.668   3.779  10.379 -0.0963  1.6496  1.5451
  144TMC2    C1 2237   1.834   2.344   0.589 -0.0280 -0.3756  0.4383
  144TMC2    C2 2238   1.938   2.293   0.515  0.0961 -0.5212  0.5071
  144TMC2    C3 2239   2.059   2.267   0.566 -0.2566  0.7264 -0.1253
  144TMC2    C4 2240   1.855   2.358   0.721  0.4179  0.4465  0.2113
  144TMC2    C5 2241   1.985   2.345   0.767 -0.1792 -0.1379 -0.8507
  144TMC2    C6 2242   2.091   2.302   0.693  0.1616 -0.3523 -0.7893
  144TMC2     C 2243   1.703   2.318   0.536  0.2553  0.1396 -0.1896
  144TMC2     O 2244   1.685   2.223   0.463 -0.2207 -0.0666  0.3180
  144TMC2     H 2245   1.911   2.267   0.413 -0.5146  1.5808  0.1378
  144TMC2    H1 2246   1.780   2.389   0.792  1.3075 -0.5285  1.5815
  144TMC2    H2 2247   2.191   2.289   0.734  0.5949  2.0668 -1.0795
  144TMC2    C7 2248   2.024   2.398   0.895  0.5392 -0.3547  0.3677
  144TMC2    C8 2249   2.134   2.153   0.511 -0.2323 -0.5410 -0.0776
  144TMC2    O1 2250   2.129   2.364   0.942  0.8451 -0.2945  0.3400
  144TMC2    O2 2251   2.171   2.057   0.581 -0.0240 -0.2234 -0.2749
  144TMC2    O5 2252   2.157   2.183   0.386  0.1579 -0.2097  0.3188
  144TMC2    H5 2253   2.130   2.273   0.359  1.2130  0.0704  0.2250
  145MPD2     C 2254   1.222   2.338   0.611  0.1595  0.6197  0.4835
  145MPD2    C1 2255   1.286   2.274   0.514  0.0201  0.5109 -0.4525
  145MPD2    C2 2256   1.421   2.283   0.515 -0.3177 -0.0068 -0.5252
  145MPD2    C3 2257   1.481   2.365   0.615  0.0074  0.1738 -0.2568
  145MPD2    C4 2258   1.409   2.437   0.698  0.0256  0.2510 -0.5499
  145MPD2    C5 2259   1.276   2.419   0.701  0.1930  0.4445  0.5513
  145MPD2     H 2260   1.475   2.218   0.448  0.1157 -1.4033  1.1692
  145MPD2    H1 2261   1.457   2.507   0.765 -1.8911  0.1405  0.9438
  145MPD2    H2 2262   1.115   2.325   0.622  0.4025 -1.0531  0.8329
  145MPD2    H3 2263   1.225   2.476   0.778  0.2509  1.3496 -0.0843
  145MPD2     N 2264   1.614   2.389   0.611 -0.5751  0.7717  0.2658
  145MPD2    H5 2265   1.653   2.457   0.675  1.5588  1.7743 -2.0895
  145MPD2    N1 2266   1.216   2.203   0.411  0.0586 -0.0055  0.0777
  145MPD2    H7 2267   1.271   2.155   0.341 -0.3721 -0.0738 -0.2189
  146TMC2    C1 2268   3.149   1.259  12.255  0.3011 -0.2410  0.6238
  146TMC2    C2 2269   3.115   1.320  12.135 -0.3326  0.1382 -0.1473
  146TMC2    C3 2270   3.184   1.282  12.019  0.6912  0.1389  0.2813
  146TMC2    C4 2271   3.252   1.166  12.265 -0.4148 -0.2605  0.4132
  146TMC2    C5 2272   3.313   1.134  12.149  0.0819 -0.0826  0.2618
  146TMC2    C6 2273   3.277   1.179  12.027  0.4200  0.0640  0.4008
  146TMC2     C 2274   3.055   1.279  12.359 -0.1681 -0.2349  0.2250
  146TMC2     O 2275   2.977   1.376  12.354  0.1617 -0.2391 -0.8074
  146TMC2     H 2276   3.018   1.368  12.123 -0.8403 -0.8487  0.0467
  146TMC2    H1 2277   3.289   1.137  12.363  1.8581 -1.4711 -0.7945
  146TMC2    H2 2278   3.323   1.133  11.941  0.1953  0.5832  0.0071
  146TMC2    C7 2279   3.438   1.057  12.150 -0.2338 -0.2802  0.0087
  146TMC2    C8 2280   3.125   1.329  11.901 -0.6370  0.3501  0.5620
  146TMC2    O1 2281   3.510   1.044  12.050  0.4498  0.0142  0.2453
  146TMC2    O2 2282   3.039   1.415  11.908  0.3294  0.5961 -0.4831
  146TMC2    O5 2283   3.225   1.330  11.809 -0.0670 -0.8615 -0.6421
  146TMC2    H5 2284   3.291   1.266  11.843  1.2360  1.4935  1.2848
  147MPD2     C 2285   3.795   0.745  12.346 -0.0916 -0.3586 -0.2258
  147MPD2    C1 2286   3.685   0.732  12.433 -0.6807  0.0393  0.0117
  147MPD2    C2 2287   3.574   0.819  12.406 -0.3776 -0.2189 -0.7262
  147MPD2    C3 2288   3.579   0.908  12.295  0.3862  1.1914  1.3835
  147MPD2    C4 2289   3.696   0.923  12.225  0.6378  0.5039 -0.7627
  147MPD2    C5 2290   3.803   0.840  12.245  0.6026  0.0273 -0.6764
  147MPD2     H 2291   3.481   0.806  12.460 -0.6594 -1.0665 -1.4011
  147MPD2    H1 2292   3.697   0.995  12.143 -1.9807 -0.0977 -1.3162
  147MPD2    H2 2293   3.876   0.674  12.354  0.5711  0.5701  1.2696
  147MPD2    H3 2294   3.885   0.845  12.174 -0.3244 -0.8549 -1.8137
  147MPD2     N 2295   3.458   0.982  12.263 -0.6538 -0.2494 -0.4046
  147MPD2    H5 2296   3.379   0.984  12.326 -0.3795  0.0308 -0.0718
  147MPD2    N1 2297   3.684   0.640  12.536 -0.2674  0.0254  0.9655
  147MPD2    H7 2298   3.769   0.590  12.560 -1.2083 -2.7565 -1.4878
  148TMC2    C1 2299   2.773   0.737  10.725  0.0512  0.2116 -0.5816
  148TMC2    C2 2300   2.898   0.799  10.740 -0.4433 -0.4338 -0.0054
  148TMC2    C3 2301   2.995   0.737  10.810  0.2118  0.3298  0.6540
  148TMC2    C4 2302   2.733   0.642  10.813  0.1489 -0.9182 -0.2383
  148TMC2    C5 2303   2.829   0.605  10.902 -0.3696 -0.6371  0.5739
  148TMC2    C6 2304   2.962   0.640  10.900 -0.4936 -0.2613  1.0045
  148TMC2     C 2305   2.687   0.780  10.615  0.1727  0.6826 -0.5868
  148TMC2     O 2306   2.703   0.892  10.576 -0.6091 -0.4022 -0.6172
  148TMC2     H 2307   2.937   0.876  10.674  0.6901 -0.5969  0.4691
  148TMC2    H1 2308   2.630   0.609  10.821  0.8461 -2.7033  1.3042
  148TMC2    H2 2309   3.037   0.602  10.968 -0.7343 -2.8540 -0.1830
  148TMC2    C7 2310   2.779   0.504  10.994 -0.4969 -0.4943  0.4267
  148TMC2    C8 2311   3.089   0.831  10.868  0.0030 -0.4068 -0.3636
  148TMC2    O1 2312   2.683   0.444  10.952 -0.0366  0.1027  0.4282
  148TMC2    O2 2313   3.050   0.934  10.917  0.5296 -0.2382 -0.1631
  148TMC2    O5 2314   3.204   0.760  10.895  0.0321 -0.2974  0.5601
  148TMC2    H5 2315   3.208   0.676  10.845  0.3964 -0.6040  1.0987
  149MPD2     C 2316   2.467   0.808  10.420  0.0925 -0.6347  1.2801
  149MPD2    C1 2317   2.501   0.689  10.479 -0.5872  0.2022  0.5658
  149MPD2    C2 2318   2.441   0.569  10.454 -0.0114 -0.7397 -0.1923
  149MPD2    C3 2319   2.347   0.562  10.351  0.0374  0.2068  0.1586
  149MPD2    C4 2320   2.308   0.678  10.296  0.1940 -0.4297 -0.3207
  149MPD2    C5 2321   2.359   0.801  10.331  0.3648 -0.2031  0.5298
  149MPD2     H 2322   2.470   0.477  10.504 -0.4899 -0.5140  0.5076
  149MPD2    H1 2323   2.229   0.681  10.221  0.3019  0.1919 -0.4139
  149MPD2    H2 2324   2.494   0.905  10.459 -0.7907  0.6048 -1.2449
  149MPD2    H3 2325   2.330   0.895  10.285 -1.1878 -0.7082  0.4810
  149MPD2     N 2326   2.277   0.446  10.313  0.2424  0.6203  0.0377
  149MPD2    H5 2327   2.238   0.433  10.220  0.9980  0.2574 -0.2239
  149MPD2    N1 2328   2.599   0.683  10.575 -0.3549 -0.2119  0.1708
  149MPD2    H7 2329   2.607   0.594  10.623  0.6739 -0.3053 -0.1847
  150TMC2    C1 2330   4.537   3.179  12.100 -0.6297  0.0982  0.0956
  150TMC2    C2 2331   4.474   3.245  12.000  0.0410 -0.0756  0.3445
  150TMC2    C3 2332   4.485   3.383  12.001  0.0831  0.6413 -0.2715
  150TMC2    C4 2333   4.620   3.244  12.187 -0.2903 -0.4576 -0.3406
  150TMC2    C5 2334   4.632   3.379  12.175  0.6306 -0.6231 -0.0623
  150TMC2    C6 2335   4.572   3.453  12.079 -0.2095  0.1991 -0.0037
  150TMC2     C 2336   4.518   3.041  12.119 -0.6473 -0.2851  0.5375
  150TMC2     O 2337   4.598   2.983  12.183 -0.0571 -0.2421  0.1562
  150TMC2     H 2338   4.426   3.196  11.917  1.4194  0.3241 -0.6975
  150TMC2    H1 2339   4.654   3.192  12.276 -0.4921 -0.1916 -0.1068
  150TMC2    H2 2340   4.558   3.559  12.096 -0.3970 -0.0980  1.7060
  150TMC2    C7 2341   4.697   3.452  12.282 -0.4346 -0.2990  0.1465
  150TMC2    C8 2342   4.412   3.455  11.903 -0.3236 -0.1842  0.7304
  150TMC2    O1 2343   4.678   3.574  12.282 -0.0495  0.6431  0.4140
  150TMC2    O2 2344   4.451   3.562  11.853  0.4780  0.1553  0.2978
  150TMC2    O5 2345   4.295   3.387  11.879 -0.1592 -0.1109  0.3644
  150TMC2    H5 2346   4.276   3.297  11.914  0.1234 -1.1166 -2.1120
  151MPD2     C 2347   4.285   2.590  12.030  0.2210  0.0158 -0.8792
  151MPD2    C1 2348   4.230   2.689  11.952  0.1658  0.0529 -0.0418
  151MPD2    C2 2349   4.269   2.819  11.964 -0.5849 -0.1865 -0.3325
  151MPD2    C3 2350   4.373   2.847  12.051 -0.1257 -0.5412 -0.4562
  151MPD2    C4 2351   4.435   2.747  12.120 -0.0176 -0.5688 -0.1900
  151MPD2    C5 2352   4.393   2.616  12.108  0.0950 -0.5469  0.4220
  151MPD2     H 2353   4.217   2.895  11.906 -0.8619  0.3287  0.6018
  151MPD2    H1 2354   4.524   2.761  12.181 -1.0399 -0.9334  1.3740
  151MPD2    H2 2355   4.256   2.487  12.013 -0.6490 -0.1368  1.6913
  151MPD2    H3 2356   4.461   2.541  12.147 -1.0747 -0.2867  2.9567
  151MPD2     N 2357   4.416   2.985  12.051  0.6107 -0.0482  0.2704
  151MPD2    H5 2358   4.358   3.037  11.986 -0.1363 -1.1435  0.0717
  151MPD2    N1 2359   4.111   2.641  11.875 -0.4637 -0.0130  0.4598
  151MPD2    H7 2360   4.082   2.544  11.882 -1.6001  0.3152  0.2410
  152TMC2    C1 2361   0.064   3.458  12.833  0.0680 -0.1814  0.3255
  152TMC2    C2 2362   0.139   3.344  12.858 -0.0697  0.7045  0.8118
  152TMC2    C3 2363   0.268   3.370  12.900 -0.1952 -1.5332 -0.5099
  152TMC2    C4 2364   0.117   3.584  12.851  0.1055  0.1609 -0.2692
  152TMC2    C5 2365   0.241   3.602  12.888  0.3703  0.5325 -0.6695
  152TMC2    C6 2366   0.320   3.492  12.906  0.0511  0.0745  0.3744
  152TMC2     C 2367   4.675   3.451  12.754 -0.3874 -0.1623  0.3924
  152TMC2     O 2368   4.613   3.553  12.722 -0.0246  0.2911  0.2668
  152TMC2     H 2369   0.103   3.243  12.847 -1.1382  1.1465  0.2388
  152TMC2    H1 2370   0.058   3.672  12.831  1.7797  1.1508 -0.8283
  152TMC2    H2 2371   0.422   3.491  12.942 -0.1152  1.9984  0.8568
  152TMC2    C7 2372   0.262   3.712  12.978  0.3944 -0.2323 -0.5257
  152TMC2    C8 2373   0.351   3.256  12.949  0.9996  0.1679  0.6119
  152TMC2    O1 2374   0.169   3.785  13.019  0.3866 -0.0458 -0.1104
  152TMC2    O2 2375   0.472   3.260  12.952  0.6451  0.2361 -0.0030
  152TMC2    O5 2376   0.278   3.153  13.001  0.0332  0.3104  0.6989
  152TMC2    H5 2377   0.187   3.182  13.022  0.7899  3.2711 -0.0663
  153MPD2     C 2378   4.558   3.145  12.595 -0.0177  0.0726  0.3380
  153MPD2    C1 2379   4.556   3.276  12.618  0.0167  0.5438 -0.1537
  153MPD2    C2 2380   4.470   3.358  12.555 -0.1952 -0.6872  0.9622
  153MPD2    C3 2381   4.388   3.303  12.458  0.0354 -0.1296  0.5457
  153MPD2    C4 2382   4.385   3.169  12.429  0.0205 -0.2191  0.6718
  153MPD2    C5 2383   4.472   3.090  12.504  0.3620  0.4435 -0.3472
  153MPD2     H 2384   4.456   3.461  12.586  0.0889 -0.1424 -0.7155
  153MPD2    H1 2385   4.355   3.119  12.337  2.1054 -1.7098  0.7938
  153MPD2    H2 2386   4.626   3.074  12.641  0.4310 -0.1675 -0.6887
  153MPD2    H3 2387   4.486   2.990  12.465 -0.4822  0.6843 -1.2615
  153MPD2     N 2388   4.305   3.392  12.385 -0.1794 -0.2604  0.3164
  153MPD2    H5 2389   4.319   3.491  12.401 -0.4377 -0.1697 -0.0063
  153MPD2    N1 2390   4.655   3.322  12.708  0.3055 -0.5289  0.0029
  153MPD2    H7 2391   4.721   3.250  12.737 -0.6804 -1.2717  0.4056
  154TMC2    C1 2392   1.945   3.764   0.817 -0.1596 -0.6683  0.3045
  154TMC2    C2 2393   2.036   3.807   0.902 -0.2905 -0.3734  0.0242
  154TMC2    C3 2394   2.157   3.742   0.906 -0.2888 -0.4233  0.0142
  154TMC2    C4 2395   1.967   3.660   0.728 -0.1755 -0.4205 -0.1285
  154TMC2    C5 2396   2.086   3.598   0.741 -0.1610  1.0347  0.0818
  154TMC2    C6 2397   2.186   3.638   0.829  0.7464 -0.0304 -0.6618
  154TMC2     C 2398   1.832   3.856   0.785 -0.5636  0.0488  0.6620
  154TMC2     O 2399   1.787   3.920   0.880 -0.4189 -0.4529  0.0602
  154TMC2     H 2400   2.017   3.891   0.968 -0.5254 -0.0272 -0.4863
  154TMC2    H1 2401   1.887   3.594   0.696  0.3657 -0.2418 -1.8249
  154TMC2    H2 2402   2.281   3.585   0.829  1.3951  1.1118  0.8381
  154TMC2    C7 2403   2.082   3.453   0.717 -0.0854  0.1701  0.4668
  154TMC2    C8 2404   2.271   3.793   0.985  0.3073 -0.0252  0.6162
  154TMC2    O1 2405   1.998   3.416   0.633 -0.5279  0.7271  0.2714
  154TMC2    O2 2406   2.256   3.868   1.082  0.5276  0.2409 -0.0186
  154TMC2    O5 2407   2.371   3.821   0.890  0.5167 -0.2245 -0.2774
  154TMC2    H5 2408   2.445   3.874   0.925  0.4757  0.6418 -1.4838
  155MPD2     C 2409   1.643   3.870   0.474  0.2113 -0.3777  0.3506
  155MPD2    C1 2410   1.667   3.897   0.605  0.0562  0.2248  0.4276
  155MPD2    C2 2411   1.590   3.986   0.677 -1.1753  0.0296 -1.0895
  155MPD2    C3 2412   1.495   4.058   0.611  0.1578 -0.0335 -0.8064
  155MPD2    C4 2413   1.455   4.021   0.482 -0.0005 -0.0766  0.1823
  155MPD2    C5 2414   1.525   3.919   0.419  0.4569  0.9872 -0.3950
  155MPD2     H 2415   1.605   4.004   0.783 -0.4359  2.0851 -1.5532
  155MPD2    H1 2416   1.372   4.072   0.435 -0.6100 -1.0806  0.1673
  155MPD2    H2 2417   1.712   3.815   0.410 -2.4205 -1.1420 -1.8445
  155MPD2    H3 2418   1.503   3.887   0.318  1.3258 -2.3333  0.4597
  155MPD2     N 2419   1.429   4.167   0.681 -0.3960 -0.0159 -0.5751
  155MPD2    H5 2420   1.452   4.186   0.778 -2.4789  2.8015 -0.6525
  155MPD2    N1 2421   1.782   3.836   0.655 -0.0670  0.0909 -0.2124
  155MPD2    H7 2422   1.828   3.767   0.597 -2.6366 -0.0305 -2.1182
  156TMC2    C1 2423   0.822   1.390  11.601  0.0076 -0.6602 -0.1261
  156TMC2    C2 2424   0.943   1.354  11.551 -0.0836 -0.0237  0.0915
  156TMC2    C3 2425   0.961   1.368  11.415  0.1857  0.0765 -0.3544
  156TMC2    C4 2426   0.725   1.445  11.519 -0.5611 -0.4484  0.0407
  156TMC2    C5 2427   0.744   1.450  11.383 -0.3326 -0.4945 -0.5642
  156TMC2    C6 2428   0.868   1.411  11.329  0.0757  0.1819  0.1917
  156TMC2     C 2429   0.781   1.345  11.732  0.7748 -0.6541  0.5498
  156TMC2     O 2430   0.665   1.367  11.755 -0.5787 -0.9759  0.2035
  156TMC2     H 2431   1.022   1.306  11.607  0.1113  0.5431  0.2965
  156TMC2    H1 2432   0.626   1.460  11.561 -0.7856 -0.0796 -0.6342
  156TMC2    H2 2433   0.888   1.417  11.222 -1.7272 -1.1096 -0.2272
  156TMC2    C7 2434   0.646   1.539  11.322 -0.0154 -0.2539 -0.4660
  156TMC2    C8 2435   1.093   1.317  11.376  0.2301 -0.2664  0.0639
  156TMC2    O1 2436   0.558   1.587  11.396  0.6227  0.6698 -0.9456
  156TMC2    O2 2437   1.200   1.347  11.426 -0.0718  0.8880 -0.1365
  156TMC2    O5 2438   1.076   1.278  11.251  0.3238 -0.6555  0.8025
  156TMC2    H5 2439   0.986   1.263  11.214  0.2104  0.1653  0.7511
  157MPD2     C 2440   0.968   1.207  12.022  0.4496  1.3680  0.6054
  157MPD2    C1 2441   0.873   1.276  11.953 -0.3624 -0.9953 -0.0668
  157MPD2    C2 2442   0.775   1.336  12.023 -0.4616 -0.2865 -0.3268
  157MPD2    C3 2443   0.747   1.317  12.157 -0.2678 -0.3644  0.0625
  157MPD2    C4 2444   0.840   1.242  12.222  0.6934  0.1462  0.1429
  157MPD2    C5 2445   0.956   1.190  12.159  0.3477  0.2209 -0.1287
  157MPD2     H 2446   0.714   1.412  11.976 -0.8207 -0.7014 -0.5422
  157MPD2    H1 2447   0.832   1.223  12.328 -0.7392  0.3631  0.0685
  157MPD2    H2 2448   1.049   1.173  11.958 -0.5490  0.5618 -0.2377
  157MPD2    H3 2449   1.031   1.142  12.220  0.0968 -2.0949 -1.6521
  157MPD2     N 2450   0.630   1.379  12.209 -0.1945 -0.3786  0.6135
  157MPD2    H5 2451   0.582   1.425  12.131 -0.5430 -1.5131  0.1577
  157MPD2    N1 2452   0.888   1.301  11.814  0.2143  0.2285 -0.0698
  157MPD2    H7 2453   0.976   1.270  11.774 -0.1414  0.2808 -0.9042
  158TMC2    C1 2454   0.208   4.654  13.183  0.2192  0.1473  0.6442
  158TMC2    C2 2455   0.249   4.663  13.050 -0.5411 -0.0251  0.0743
  158TMC2    C3 2456   0.148   4.657  12.958 -0.6068  0.1303  0.5618
  158TMC2    C4 2457   0.075   4.640  13.220  0.3869  0.2892  0.5467
  158TMC2    C5 2458   4.715   4.635  13.124  0.3976  0.0699 -0.1350
  158TMC2    C6 2459   0.015   4.649  12.993  0.4920  0.4714  0.0262
  158TMC2     C 2460   0.318   4.637  13.276  0.0514  0.1242  0.2669
  158TMC2     O 2461   0.430   4.588  13.247  0.7333  0.2537 -0.4482
  158TMC2     H 2462   0.353   4.671  13.020 -0.0721 -2.3583  1.0691
  158TMC2    H1 2463   0.041   4.636  13.323  2.0310  0.6949  1.1185
  158TMC2    H2 2464   4.682   4.627  12.911  0.0999 -0.5625  0.6222
  158TMC2    C7 2465   4.606   4.536  13.141  0.9504 -0.0032 -0.0745
  158TMC2    C8 2466   0.175   4.669  12.819 -0.2025 -0.3344 -0.3262
  158TMC2    O1 2467   4.513   4.539  13.059  0.1537  0.2281 -0.2622
  158TMC2    O2 2468   0.297   4.660  12.790 -0.3162 -0.9352  0.3311
  158TMC2    O5 2469   0.081   0.007  12.754  0.0855 -0.1771  0.0466
  158TMC2    H5 2470   0.002   0.021  12.810  1.4663  1.1518  1.6666
  159MPD2     C 2471   0.514   4.644  13.751 -0.0318 -0.1254 -0.1088
  159MPD2    C1 2472   0.390   4.706  13.755 -0.4477 -0.0436 -1.0150
  159MPD2    C2 2473   0.321   4.722  13.633  0.3890  0.6512 -0.1760
  159MPD2    C3 2474   0.363   4.661  13.517  0.3060  0.6846  0.0525
  159MPD2    C4 2475   0.481   4.591  13.524 -0.3438  0.4153  0.5552
  159MPD2    C5 2476   0.557   4.578  13.638  0.4697 -0.8306  0.4554
  159MPD2     H 2477   0.220   0.026  13.632  0.4720  0.8693 -0.2636
  159MPD2    H1 2478   0.520   4.531  13.442  0.6939  4.2418 -1.7856
  159MPD2    H2 2479   0.574   4.637  13.841 -0.8042 -3.4129  0.1325
  159MPD2    H3 2480   0.645   4.514  13.627  0.7056 -0.5865  0.9059
  159MPD2     N 2481   0.282   4.675  13.402 -0.6453  0.1066 -0.3381
  159MPD2    H5 2482   0.200   4.734  13.411  1.1153  2.2100  1.9321
  159MPD2    N1 2483   0.328   4.730  13.875 -0.3304 -0.5796  1.0842
  159MPD2    H7 2484   0.377   4.707  13.961 -0.5200  0.3693  1.4532
  160TMC2    C1 2485   0.760   3.366   1.357 -0.2017  0.2704 -0.8844
  160TMC2    C2 2486   0.827   3.320   1.470 -0.4657 -0.4437 -0.2666
  160TMC2    C3 2487   0.912   3.214   1.449  0.3930 -0.5227  0.3064
  160TMC2    C4 2488   0.794   3.322   1.229 -0.0405 -0.5161  0.1588
  160TMC2    C5 2489   0.888   3.222   1.222  0.1941  0.3358  0.5838
  160TMC2    C6 2490   0.957   3.171   1.331 -0.5197 -0.3333 -0.3086
  160TMC2     C 2491   0.695   3.497   1.369 -0.4308 -0.1036 -0.1189
  160TMC2     O 2492   0.732   3.556   1.466 -0.5499  0.0510  0.1883
  160TMC2     H 2493   0.798   3.346   1.572 -0.8053  1.8916 -0.9655
  160TMC2    H1 2494   0.759   3.382   1.146  3.2951  1.3114  0.0978
  160TMC2    H2 2495   1.038   3.098   1.325 -1.2584 -0.9760 -2.6917
  160TMC2    C7 2496   0.949   3.179   1.092 -0.0944  0.3825 -0.3430
  160TMC2    C8 2497   0.985   3.170   1.571 -0.0715 -0.6832 -0.1479
  160TMC2    O1 2498   1.003   3.069   1.080  0.2302 -0.4113  0.3928
  160TMC2    O2 2499   0.970   3.235   1.675  0.7395  0.1745 -0.2686
  160TMC2    O5 2500   0.993   3.033   1.562 -0.4244  0.5520  0.3106
  160TMC2    H5 2501   0.980   2.995   1.473  1.0063 -1.5660  1.0005
  161MPD2     C 2502   0.572   3.750   1.297  0.3791 -0.0773  0.2154
  161MPD2    C1 2503   0.529   3.629   1.244 -0.1589 -0.3962  0.2045
  161MPD2    C2 2504   0.423   3.634   1.162 -0.7333  0.6456 -0.4229
  161MPD2    C3 2505   0.363   3.752   1.121  0.1368 -0.2719 -0.3910
  161MPD2    C4 2506   0.423   3.870   1.164  0.3036 -0.8773  0.1682
  161MPD2    C5 2507   0.527   3.867   1.248  0.2242 -0.0046  0.1413
  161MPD2     H 2508   0.392   3.539   1.120 -0.3836  0.5958 -0.5725
  161MPD2    H1 2509   0.378   3.965   1.138  0.0320 -0.9944  0.2084
  161MPD2    H2 2510   0.654   3.765   1.367 -0.6801 -0.6121  1.5568
  161MPD2    H3 2511   0.567   3.962   1.281  0.7315 -0.7019  1.5417
  161MPD2     N 2512   0.251   3.763   1.038  0.5592  0.3114 -0.3817
  161MPD2    H5 2513   0.222   3.859   1.021  0.3371  0.5072  1.1364
  161MPD2    N1 2514   0.593   3.508   1.279 -0.1318  0.2423  0.2405
  161MPD2    H7 2515   0.555   3.427   1.231  0.5307  0.3214 -0.4233
  162TMC2    C1 2516   2.445   0.051   0.982  0.8126 -0.3430  0.2876
  162TMC2    C2 2517   2.311   0.072   0.963  0.3835 -0.0437 -0.9639
  162TMC2    C3 2518   2.257   0.169   1.040  0.0573  0.2492  0.9307
  162TMC2    C4 2519   2.521   0.132   1.054  0.0725 -0.0737  0.2707
  162TMC2    C5 2520   2.460   0.233   1.119 -0.0477  0.2674 -0.0123
  162TMC2    C6 2521   2.327   0.259   1.115 -0.0737  1.1325 -0.7964
  162TMC2     C 2522   2.507   4.675   0.909  0.7568 -0.5390  0.7121
  162TMC2     O 2523   2.448   4.627   0.816  0.3143  0.1495 -0.0128
  162TMC2     H 2524   2.246   0.012   0.900  0.5838 -0.0693 -1.1447
  162TMC2    H1 2525   2.628   0.137   1.040  0.0982 -2.8004 -0.4626
  162TMC2    H2 2526   2.283   0.339   1.173  2.2686  1.6598  0.2353
  162TMC2    C7 2527   2.540   0.348   1.155  0.1385  0.0137 -0.5717
  162TMC2    C8 2528   2.119   0.189   1.036 -0.1862 -0.0774 -0.4618
  162TMC2    O1 2529   2.486   0.458   1.166  0.1058  0.0145 -0.3548
  162TMC2    O2 2530   2.055   0.186   0.932  0.0431 -0.9031  0.2201
  162TMC2    O5 2531   2.075   0.244   1.153 -0.6904  0.0426  0.4056
  162TMC2    H5 2532   2.146   0.241   1.221 -0.7539 -0.5185  0.4474
  163MPD2     C 2533   2.886   4.355   0.811 -0.3176  0.6125 -0.3535
  163MPD2    C1 2534   2.797   4.410   0.725  0.1043  0.1129 -0.4572
  163MPD2    C2 2535   2.705   4.496   0.779 -0.4385  0.3054  0.5195
  163MPD2    C3 2536   2.715   4.541   0.911 -0.3465 -0.3500 -0.2526
  163MPD2    C4 2537   2.816   4.497   0.993  0.6541  0.2853  0.1388
  163MPD2    C5 2538   2.899   4.400   0.938 -0.1804  0.9728  0.1636
  163MPD2     H 2539   2.627   4.532   0.713  0.8409  2.0297 -0.0306
  163MPD2    H1 2540   2.824   4.534   1.094  1.1644 -2.2512  1.0317
  163MPD2    H2 2541   2.953   4.281   0.769  2.5350  2.8403  0.3231
  163MPD2    H3 2542   2.979   4.375   1.006  0.4480 -0.8937 -1.2440
  163MPD2     N 2543   2.627   4.642   0.957  0.0784 -0.0963  0.0021
  163MPD2    H5 2544   2.663   4.670   1.047 -1.3018  1.3847  0.1033
  163MPD2    N1 2545   2.816   4.373   0.590  0.4300 -0.2718 -0.2038
  163MPD2    H7 2546   2.894   4.313   0.563  2.9714  1.1912  3.8092
  164TMC2    C1 2547   3.322   0.052  11.128 -0.0162 -0.1199  0.0515
  164TMC2    C2 2548   3.456   0.023  11.154  0.0848  0.5456  0.1772
  164TMC2    C3 2549   3.515   0.110  11.235 -0.2731  1.2707 -0.1148
  164TMC2    C4 2550   3.251   0.157  11.174 -0.1213 -0.1702  0.1873
  164TMC2    C5 2551   3.321   0.239  11.255  0.4237 -0.1494 -0.5173
  164TMC2    C6 2552   3.445   0.212  11.292  0.2398  0.3457 -0.3509
  164TMC2     C 2553   3.245   4.693  11.043  0.0276 -0.5838 -0.5331
  164TMC2     O 2554   3.125   4.689  11.063  0.2510  0.7242 -0.0158
  164TMC2     H 2555   3.515   4.671  11.124  0.0883  1.2357 -1.7430
  164TMC2    H1 2556   3.146   0.174  11.155 -0.9470 -1.9897  3.2148
  164TMC2    H2 2557   3.492   0.283  11.359  1.5744  0.2007 -1.1473
  164TMC2    C7 2558   3.261   0.369  11.289  0.0964  0.5126  0.4256
  164TMC2    C8 2559   3.649   0.076  11.270 -0.0822  0.3542  0.2456
  164TMC2    O1 2560   3.213   0.430  11.197 -0.1275 -0.0784 -0.2439
  164TMC2    O2 2561   3.692   4.701  11.294 -0.0912 -0.1624  0.3961
  164TMC2    O5 2562   3.725   0.162  11.203  0.0233  0.1505 -0.1726
  164TMC2    H5 2563   3.680   0.248  11.188  1.1633  1.2852  3.0089
  165TMC2    C1 2564   4.619   2.540   1.133  0.2104  0.7541 -0.1289
  165TMC2    C2 2565   4.610   2.408   1.110 -0.1973 -0.1308  0.2495
  165TMC2    C3 2566   4.723   2.330   1.105  0.0820 -0.4158 -0.5303
  165TMC2    C4 2567   0.007   2.601   1.166 -0.2241  0.0701 -0.1932
  165TMC2    C5 2568   0.119   2.520   1.157  0.3856 -0.6532  0.0325
  165TMC2    C6 2569   0.113   2.391   1.111  0.7684  0.9761 -0.3857
  165TMC2     C 2570   4.518   2.629   1.088  0.6036  0.1341  0.2897
  165TMC2     O 2571   4.534   2.750   1.097 -0.3166  0.3712  0.0811
  165TMC2     H 2572   4.518   2.352   1.098 -1.0560  1.6351 -1.3739
  165TMC2    H1 2573   0.013   2.704   1.200 -1.9449 -0.6250  2.2540
  165TMC2    H2 2574   0.201   2.335   1.083  0.3352 -0.6152  1.3989
  165TMC2    C7 2575   0.257   2.562   1.178 -0.2490 -0.0774  0.7947
  165TMC2    C8 2576   4.713   2.204   1.033  0.1418  0.1987  0.4303
  165TMC2    O1 2577   0.348   2.493   1.149  0.3385 -0.1287 -0.2583
  165TMC2    O2 2578   0.063   2.194   0.943  0.1427 -0.5631 -0.2647
  165TMC2    O5 2579   4.702   2.117   1.140  0.1101  0.2296 -0.0525
  165TMC2    H5 2580   4.644   2.156   1.208 -1.3672 -0.4448 -0.9292
  166MPD2     C 2581   4.096   2.757   0.821 -0.2128  0.1243  0.3704
  166MPD2    C1 2582   4.153   2.820   0.934 -0.4875  0.6374  0.0107
  166MPD2    C2 2583   4.255   2.761   1.002 -0.3719  1.1278 -0.3132
  166MPD2    C3 2584   4.305   2.639   0.957 -0.4480  0.3467  0.0256
  166MPD2    C4 2585   4.231   2.566   0.870  0.3425 -0.2563 -0.4380
  166MPD2    C5 2586   4.144   2.633   0.791  0.4740 -0.0284  0.3036
  166MPD2     H 2587   4.297   2.805   1.092 -2.2531 -2.4644  2.2937
  166MPD2    H1 2588   4.250   2.465   0.836 -1.1411 -0.6508 -0.0777
  166MPD2    H2 2589   4.006   2.786   0.768 -0.0010  0.8485  0.4055
  166MPD2    H3 2590   4.098   2.574   0.713  0.0485  0.2775  0.3209
  166MPD2     N 2591   4.427   2.573   1.004 -0.4036 -0.1884 -0.5053
  166MPD2    H5 2592   4.447   2.479   0.971 -0.9379 -0.5200  0.1320
  166MPD2    N1 2593   4.096   2.941   0.979  1.0595 -0.1449 -0.3733
  166MPD2    H7 2594   4.002   2.955   0.946  0.4253 -0.8797  1.1362
  167TMC2    C1 2595   2.812   4.563  12.965 -0.1555  0.2350  0.0074
  167TMC2    C2 2596   2.712   4.543  13.053  0.1316 -0.3245  0.2161
  167TMC2    C3 2597   2.678   4.414  13.066  0.0255 -0.7722 -0.0573
  167TMC2    C4 2598   2.875   4.462  12.898  0.7532 -0.4052 -0.5143
  167TMC2    C5 2599   2.848   4.333  12.933 -0.0498  0.5392 -0.1262
  167TMC2    C6 2600   2.746   4.303  13.015  0.3708  1.3237  0.1895
  167TMC2     C 2601   2.853   4.698  12.946  0.2027  0.1713 -0.3165
  167TMC2     O 2602   2.847   0.036  13.043 -0.4531 -0.1576  0.2575
  167TMC2     H 2603   2.649   4.624  13.089  1.5537  0.7897  0.1625
  167TMC2    H1 2604   2.970   4.489  12.854  0.0594  0.9415 -1.2058
  167TMC2    H2 2605   2.722   4.204  13.054  1.4100  0.3968 -1.5055
  167TMC2    C7 2606   2.898   4.220  12.862  1.0966  0.7252 -1.1828
  167TMC2    C8 2607   2.604   4.392  13.192 -0.1380  0.5238  0.1518
  167TMC2    O1 2608   2.857   4.108  12.894 -0.2033  0.3788 -0.1961
  167TMC2    O2 2609   2.560   4.281  13.223 -0.1592 -0.6947 -0.1363
  167TMC2    O5 2610   2.644   4.483  13.287 -0.2140 -0.2482 -0.0563
  167TMC2    H5 2611   2.688   4.562  13.250 -0.8730  0.1860  0.1017
  168MPD2     C 2612   2.985   0.200  12.819  0.5723  0.0241 -0.7927
  168MPD2    C1 2613   2.928   0.093  12.749 -0.1704  0.1429 -0.6547
  168MPD2    C2 2614   2.928   0.091  12.611 -0.0488  0.8276  0.3161
  168MPD2    C3 2615   2.985   0.193  12.542 -0.6859 -0.0691  0.2481
  168MPD2    C4 2616   3.044   0.301  12.606 -0.2257  0.6871 -0.5074
  168MPD2    C5 2617   3.043   0.303  12.747  0.4716 -0.3840  0.3231
  168MPD2     H 2618   2.881   0.008  12.559  0.6763 -0.1414  1.2228
  168MPD2    H1 2619   3.098   0.382  12.558 -1.7197  1.7703 -0.3503
  168MPD2    H2 2620   2.984   0.203  12.927 -2.7130 -0.2770 -0.8081
  168MPD2    H3 2621   3.087   0.380  12.808  1.8134 -0.5404 -0.4569
  168MPD2     N 2622   2.987   0.204  12.403 -0.3375 -0.0166  0.5533
  168MPD2    H5 2623   3.031   0.287  12.365 -0.8448  1.0119  2.2280
  168MPD2    N1 2624   2.885   4.710  12.815 -0.4479 -0.1545 -0.3959
  168MPD2    H7 2625   2.864   4.629  12.757  0.8509 -0.0372 -1.0298
  169MPD1     C 2626   0.011   0.535   9.290  0.5302  0.6656 -0.0799
  169MPD1    C1 2627   4.666   0.455   9.372 -1.1568  0.9120  0.2471
  169MPD1    C2 2628   4.718   0.343   9.420 -0.9551  0.8662 -0.1496
  169MPD1    C3 2629   0.108   0.298   9.375 -0.7127 -0.1523  0.7249
  169MPD1    C4 2630   0.189   0.374   9.297  0.2086 -0.8264 -0.1911
  169MPD1    C5 2631   0.143   0.498   9.255  0.6275 -0.2568  0.4035
  169MPD1     H 2632   4.668   0.274   9.487 -0.5735 -0.2953 -1.0650
  169MPD1    H1 2633   0.292   0.356   9.266  0.4738 -1.1673  0.9063
  169MPD1    H2 2634   4.707   0.621   9.236  0.9399 -0.2306 -1.8066
  169MPD1    H3 2635   0.210   0.563   9.201  1.3280 -0.6336  0.8241
  169MPD1     N 2636   0.157   0.172   9.427  0.2060 -1.0451 -0.0164
  169MPD1    H5 2637   0.096   0.125   9.492 -0.0611 -2.0628 -0.9942
  169MPD1    N1 2638   4.536   0.484   9.404  0.9831  0.2430 -0.3682
  169MPD1    H6 2639   4.511   0.582   9.407 -1.1603 -0.3153 -0.0632
  169MPD1    H7 2640   4.523   0.455   9.501 -1.2946 -0.6925 -0.9294
  170MPD1     C 2641   4.313   1.382  13.187 -0.0560  0.0804 -0.2445
  170MPD1    C1 2642   4.377   1.453  13.293  0.3538  0.1757 -0.4082
  170MPD1    C2 2643   4.322   1.573  13.330  0.1422  0.4571 -0.1420
  170MPD1    C3 2644   4.203   1.616  13.264  0.1187  0.6771 -0.0571
  170MPD1    C4 2645   4.139   1.538  13.165 -0.0709  0.0541  0.2563
  170MPD1    C5 2646   4.195   1.425  13.120 -0.9734  0.0371  0.2839
  170MPD1     H 2647   4.374   1.637  13.402 -1.6362  0.2551  1.3262
  170MPD1    H1 2648   4.041   1.559  13.124  0.8110 -0.6342 -2.1856
  170MPD1    H2 2649   4.358   1.288  13.160  1.4979  0.5465  0.7555
  170MPD1    H3 2650   4.142   1.362  13.049 -0.1327 -1.4254  0.9533
  170MPD1     N 2651   4.139   1.730  13.317 -1.2158 -0.4830  0.7635
  170MPD1    H5 2652   4.182   1.760  13.403 -0.3548  2.3075 -0.6255
  170MPD1    N1 2653   4.513   1.428  13.324 -0.6977 -0.0562  0.0980
  170MPD1    H6 2654   4.534   1.328  13.332 -1.0167 -0.3850 -3.2023
  170MPD1    H7 2655   4.543   1.484  13.403 -0.6848 -0.6578  0.5250
  171MPD1     C 2656   1.734   3.010  15.669 -0.4583  0.6395  0.0257
  171MPD1    C1 2657   1.736   2.877  15.689  0.2722 -0.0493 -0.1099
  171MPD1    C2 2658   1.853   2.801  15.686  0.1799  0.1588  0.3876
  171MPD1    C3 2659   1.977   2.865  15.684 -0.5298  0.1397 -1.0520
  171MPD1    C4 2660   1.975   3.004  15.688 -0.4357  0.1253 -0.4854
  171MPD1    C5 2661   1.860   3.072  15.665 -0.4875  0.3482 -0.0456
  171MPD1     H 2662   1.843   2.693  15.682  1.3491  0.1097 -1.0826
  171MPD1    H1 2663   2.066   3.060  15.668  0.9150 -1.2994  1.6693
  171MPD1    H2 2664   1.638   3.059  15.668  0.5026  2.4846 -0.7867
  171MPD1    H3 2665   1.874   3.178  15.648  0.0241  0.8077  3.2232
  171MPD1     N 2666   2.105   2.806  15.685  1.0495 -1.0284 -0.7287
  171MPD1    H5 2667   2.187   2.865  15.681  0.3263 -0.0938 -1.7397
  171MPD1    N1 2668   1.608   2.825  15.692  0.2075 -0.4588  0.3519
  171MPD1    H6 2669   1.597   2.735  15.737 -1.0754 -1.2265 -1.5451
  171MPD1    H7 2670   1.538   2.896  15.714  1.6227  1.1557 -0.2733
  172MPD1     C 2671   1.671   1.721  17.105  0.3284  0.4024 -0.3741
  172MPD1    C1 2672   1.773   1.817  17.127  0.0823  0.0651 -0.0309
  172MPD1    C2 2673   1.768   1.901  17.242 -0.2978  0.2741 -0.3165
  172MPD1    C3 2674   1.675   1.876  17.344  0.2142  0.2289 -0.5049
  172MPD1    C4 2675   1.588   1.770  17.326  0.2412 -0.3492 -0.7282
  172MPD1    C5 2676   1.578   1.698  17.209 -0.5248 -0.6928 -0.2866
  172MPD1     H 2677   1.831   1.988  17.257 -0.4819 -0.1052  2.6968
  172MPD1    H1 2678   1.512   1.734  17.395  0.6437  0.6708  0.2582
  172MPD1    H2 2679   1.662   1.659  17.016 -0.0613 -1.3051  0.8610
  172MPD1    H3 2680   1.497   1.628  17.194  0.1822 -1.4899 -0.3752
  172MPD1     N 2681   1.686   1.942  17.469 -0.5011  0.2269  0.2193
  172MPD1    H5 2682   1.636   1.901  17.546 -0.7500 -1.9791 -1.1210
  172MPD1    N1 2683   1.838   1.870  17.011  0.2819  0.0347  0.1727
  172MPD1    H6 2684   1.870   1.791  16.955  0.0951  0.1983 -0.1626
  172MPD1    H7 2685   1.919   1.929  17.027  0.0226  0.9206 -1.8882
  173MPD1     C 2686   3.720   2.745  13.669 -0.0694 -0.7017 -0.2203
  173MPD1    C1 2687   3.731   2.786  13.799 -0.6927 -0.7029  0.1700
  173MPD1    C2 2688   3.684   2.697  13.893  0.0940  0.1945  0.1384
  173MPD1    C3 2689   3.620   2.580  13.862  0.5902 -0.5521 -0.7109
  173MPD1    C4 2690   3.603   2.548  13.728 -0.2626 -0.2223  0.2013
  173MPD1    C5 2691   3.661   2.631  13.635 -0.4558 -0.2527  0.2026
  173MPD1     H 2692   3.690   2.722  13.998 -2.0888  2.0942 -0.1930
  173MPD1    H1 2693   3.548   2.464  13.686  1.0923 -1.2351  0.4666
  173MPD1    H2 2694   3.768   2.799  13.590  0.1093 -1.6665 -0.7734
  173MPD1    H3 2695   3.657   2.596  13.533 -0.5849  1.5399 -0.3957
  173MPD1     N 2696   3.562   2.507  13.967 -0.2190  0.0470  0.8063
  173MPD1    H5 2697   3.574   2.539  14.063 -3.0379  1.9732  0.5198
  173MPD1    N1 2698   3.799   2.905  13.837 -0.2020  0.0193  0.0024
  173MPD1    H6 2699   3.790   2.975  13.763  1.4345 -1.7213 -1.8632
  173MPD1    H7 2700   3.777   2.949  13.926 -2.3722 -0.2185 -0.4213
  174MPD1     C 2701   4.103   2.153  14.475  0.0430  0.2862 -0.5574
  174MPD1    C1 2702   3.990   2.114  14.551 -0.0885 -0.5140  0.3963
  174MPD1    C2 2703   3.868   2.110  14.483  0.1806  0.0091 -0.3054
  174MPD1    C3 2704   3.852   2.150  14.355  0.3673 -0.3954 -0.5565
  174MPD1    C4 2705   3.968   2.174  14.280  1.3001 -0.5224 -0.2118
  174MPD1    C5 2706   4.091   2.175  14.340  0.7485 -0.5242  0.0893
  174MPD1     H 2707   3.775   2.086  14.534 -0.6553 -0.5671 -2.1174
  174MPD1    H1 2708   3.967   2.209  14.177  0.5892 -2.8267 -0.9753
  174MPD1    H2 2709   4.205   2.157  14.512 -0.0658 -1.1033 -0.1053
  174MPD1    H3 2710   4.181   2.205  14.287  0.3836 -0.6470 -0.6035
  174MPD1     N 2711   3.725   2.171  14.294  0.5294 -0.2438  0.2750
  174MPD1    H5 2712   3.739   2.197  14.197 -0.6048  1.5283  0.5882
  174MPD1    N1 2713   4.010   2.069  14.685 -0.0637 -0.3214 -0.0525
  174MPD1    H6 2714   4.095   2.104  14.729  0.1165 -2.3303  1.1609
  174MPD1    H7 2715   3.933   2.076  14.751  0.8878  3.4837  0.6369
  175MPD1     C 2716   0.741   3.255  15.105 -0.0835  1.1176  0.4058
  175MPD1    C1 2717   0.830   3.144  15.113  0.7052  0.2126  0.4504
  175MPD1    C2 2718   0.886   3.112  15.235  0.4431 -0.5096  0.0337
  175MPD1    C3 2719   0.850   3.181  15.353  0.0529 -0.6622 -0.4568
  175MPD1    C4 2720   0.760   3.280  15.342  0.5646  0.4277 -0.3486
  175MPD1    C5 2721   0.712   3.318  15.219  0.5491 -0.2424 -0.7273
  175MPD1     H 2722   0.956   3.030  15.240  1.2269  0.3184  2.3317
  175MPD1    H1 2723   0.727   3.334  15.430 -0.3828 -1.7397  0.6243
  175MPD1    H2 2724   0.692   3.283  15.012  0.2841 -0.1804 -0.1680
  175MPD1    H3 2725   0.647   3.404  15.207  0.4841 -0.0709  0.8241
  175MPD1     N 2726   0.900   3.154  15.481  1.2847  0.1531  0.1227
  175MPD1    H5 2727   0.863   3.201  15.563  0.1499 -1.2936  0.4594
  175MPD1    N1 2728   0.853   3.061  15.002 -0.0284  0.4016  0.0148
  175MPD1    H6 2729   0.823   3.108  14.917 -1.7495 -0.3993  0.1785
  175MPD1    H7 2730   0.954   3.054  14.992 -0.0934  1.7015 -1.5102
  176MPD1     C 2731   2.575   4.351   0.070 -0.3760  0.3157  0.3039
  176MPD1    C1 2732   2.527   4.448   0.152 -0.1035 -0.4006  0.1663
  176MPD1    C2 2733   2.566   4.583   0.137 -0.2495  0.2997  0.0139
  176MPD1    C3 2734   2.636   4.618   0.019  0.4943 -0.1635  0.2615
  176MPD1    C4 2735   2.664   4.521  17.660  0.3289  1.0602  0.2271
  176MPD1    C5 2736   2.626   4.392  17.681 -0.1125 -0.5731 -0.3009
  176MPD1     H 2737   2.554   4.657   0.214  3.1939 -1.9139  2.6634
  176MPD1    H1 2738   2.725   4.541  17.573  1.5301  0.1027  0.8399
  176MPD1    H2 2739   2.548   4.247   0.086  1.3721 -0.1186  0.3291
  176MPD1    H3 2740   2.654   4.316  17.609  0.2512  0.8471 -1.6565
  176MPD1     N 2741   2.672   0.021   0.008  0.1761 -0.5748 -0.1198
  176MPD1    H5 2742   2.629   0.087   0.072  2.4299 -0.1585  0.9734
  176MPD1    N1 2743   2.440   4.420   0.257  0.1711  0.3302 -0.7862
  176MPD1    H6 2744   2.435   4.489   0.332 -0.0388 -1.4265  0.8033
  176MPD1    H7 2745   2.470   4.333   0.299 -1.2177 -0.1216 -0.7059
  177MPD1     C 2746   1.680   1.259  10.091 -0.0885 -0.2431  0.3586
  177MPD1    C1 2747   1.609   1.364  10.046 -0.3800  0.1939  0.7346
  177MPD1    C2 2748   1.503   1.340   9.971 -0.0086  0.2949 -0.0375
  177MPD1    C3 2749   1.474   1.214   9.923  0.1404  0.0768  0.3186
  177MPD1    C4 2750   1.550   1.101   9.967 -0.0371 -0.0275 -0.5224
  177MPD1    C5 2751   1.659   1.129  10.047  0.2475  0.5448  0.2887
  177MPD1     H 2752   1.434   1.418   9.943  0.4795  1.4477  2.0079
  177MPD1    H1 2753   1.529   1.003   9.926 -1.8536  0.4781 -0.8061
  177MPD1    H2 2754   1.756   1.273  10.167 -2.3229  1.2516  2.3417
  177MPD1    H3 2755   1.733   1.059  10.084  1.6820  1.4102 -0.9762
  177MPD1     N 2756   1.379   1.213   9.821  0.2657 -0.5506  0.3762
  177MPD1    H5 2757   1.329   1.300   9.806  1.7813  0.6897  2.5283
  177MPD1    N1 2758   1.635   1.493  10.104  0.0315 -0.4348 -0.1645
  177MPD1    H6 2759   1.612   1.570  10.042  1.2782  1.3430  1.5643
  177MPD1    H7 2760   1.733   1.495  10.129  0.7043 -0.1699 -2.8699
  178MPD1     C 2761   3.515   1.712   0.239  0.4047  0.6999 -0.6385
  178MPD1    C1 2762   3.629   1.655   0.283  0.0089  0.4510 -0.7233
  178MPD1    C2 2763   3.702   1.571   0.202  0.0371 -0.7970 -1.0800
  178MPD1    C3 2764   3.659   1.548   0.073 -0.8449 -0.2670  0.8211
  178MPD1    C4 2765   3.549   1.612   0.023  0.0306  0.4593  0.8955
  178MPD1    C5 2766   3.485   1.697   0.106  0.6584  0.6564  0.8531
  178MPD1     H 2767   3.795   1.540   0.246 -0.6196 -0.9261  0.2016
  178MPD1    H1 2768   3.523   1.602  17.653  0.3015 -0.2449  0.8979
  178MPD1    H2 2769   3.465   1.791   0.294 -0.7976 -0.7507  0.3444
  178MPD1    H3 2770   3.408   1.761   0.067  0.7941  1.1859  1.4582
  178MPD1     N 2771   3.718   1.458  17.726 -0.0889 -0.7850  0.0166
  178MPD1    H5 2772   3.675   1.445  17.635  1.3877  1.8846 -1.0669
  178MPD1    N1 2773   3.685   1.708   0.402  0.6600 -0.0991  0.0483
  178MPD1    H6 2774   3.612   1.737   0.466  0.2170  0.8237 -0.8747
  178MPD1    H7 2775   3.753   1.647   0.447  0.5959 -2.0144 -2.4423
  179MPD1     C 2776   3.185   0.254  16.031 -0.0504  0.6194 -0.3399
  179MPD1    C1 2777   3.068   0.198  16.003 -0.3114  0.2875  1.0903
  179MPD1    C2 2778   3.040   0.068  16.044 -0.7067  0.2821  0.9045
  179MPD1    C3 2779   3.140   4.723  16.105 -0.2502  0.5354 -0.1892
  179MPD1    C4 2780   3.264   0.051  16.129 -0.4043  0.2408  0.3221
  179MPD1    C5 2781   3.283   0.180  16.098 -0.3156  0.4682  0.0423
  179MPD1     H 2782   2.939   0.029  16.035 -0.8797  1.2535 -1.3917
  179MPD1    H1 2783   3.352   4.729  16.157  0.0112  1.0182  0.5938
  179MPD1    H2 2784   3.220   0.355  16.013  3.1154 -0.2081  1.1125
  179MPD1    H3 2785   3.381   0.225  16.112  0.8188 -2.1267  0.3421
  179MPD1     N 2786   3.120   4.592  16.156 -0.0583 -0.3305 -1.0756
  179MPD1    H5 2787   3.202   4.539  16.185  1.6269  2.5995 -0.4560
  179MPD1    N1 2788   2.962   0.273  15.947  0.6768  0.1898  0.1819
  179MPD1    H6 2789   2.985   0.354  15.889 -0.0934  0.1952 -0.1259
  179MPD1    H7 2790   2.882   0.218  15.916  1.3683 -0.8813  0.2886
  180MPD1     C 2791   4.125   0.442  15.050 -0.3976  0.0827  0.0811
  180MPD1    C1 2792   4.005   0.374  15.055  0.5176  0.0359 -0.4720
  180MPD1    C2 2793   3.922   0.378  14.938  0.7488  0.0638  0.1213
  180MPD1    C3 2794   3.956   0.458  14.826  1.2527 -0.3446  0.4080
  180MPD1    C4 2795   4.075   0.527  14.831  0.3684  0.1273 -0.3501
  180MPD1    C5 2796   4.158   0.508  14.939  0.0278 -0.0201  0.1354
  180MPD1     H 2797   3.829   0.323  14.927  0.0801  0.7219  2.5453
  180MPD1    H1 2798   4.103   0.596  14.753 -1.1842  2.1176  0.8673
  180MPD1    H2 2799   4.185   0.453  15.139  1.4551 -0.0734 -1.1687
  180MPD1    H3 2800   4.253   0.561  14.935 -0.3545  0.6584  0.0723
  180MPD1     N 2801   3.871   0.462  14.713 -0.1323  1.2854  0.0493
  180MPD1    H5 2802   3.782   0.415  14.728  1.1340 -1.2527 -0.4106
  180MPD1    N1 2803   3.978   0.282  15.160 -0.8518 -0.7273 -0.0749
  180MPD1    H6 2804   3.994   0.324  15.252 -2.0318 -1.5218  0.5002
  180MPD1    H7 2805   3.885   0.242  15.165 -1.2088 -0.1870 -2.4178
  181MPD1     C 2806   0.573   2.319  10.683 -0.3847 -0.2900 -0.3928
  181MPD1    C1 2807   0.683   2.272  10.615  0.0630 -0.2011 -0.1471
  181MPD1    C2 2808   0.719   2.340  10.497  0.3638  0.3873 -0.0491
  181MPD1    C3 2809   0.634   2.427  10.433 -0.5015  0.0093  0.5656
  181MPD1    C4 2810   0.528   2.475  10.508 -0.2378 -0.5348  0.2265
  181MPD1    C5 2811   0.498   2.417  10.627  0.0403 -0.5918 -0.0332
  181MPD1     H 2812   0.816   2.316  10.455  0.5010 -0.4464  0.7351
  181MPD1    H1 2813   0.459   2.542  10.458 -0.6905 -1.0151  0.2145
  181MPD1    H2 2814   0.546   2.275  10.778 -1.7643  1.4674  0.0134
  181MPD1    H3 2815   0.400   2.439  10.667 -0.3631 -0.6003 -1.0168
  181MPD1     N 2816   0.661   2.493  10.307  0.5246  0.1076 -0.3200
  181MPD1    H5 2817   0.600   2.571  10.287 -0.0354 -0.6583 -1.6902
  181MPD1    N1 2818   0.775   2.183  10.678 -0.6215  0.0699  0.3683
  181MPD1    H6 2819   0.816   2.124  10.606  0.8994 -0.0545  1.3320
  181MPD1    H7 2820   0.731   2.122  10.747 -1.6560 -0.8659 -1.1339
  182MPD1     C 2821   0.973   2.510   1.636  0.3480  0.1108  0.2695
  182MPD1    C1 2822   0.995   2.399   1.569  0.0943 -0.4944 -0.4276
  182MPD1    C2 2823   0.884   2.339   1.511  0.0727 -0.5404  0.3799
  182MPD1    C3 2824   0.755   2.400   1.517  1.1504 -0.6974 -0.2632
  182MPD1    C4 2825   0.745   2.520   1.581  1.2336  0.0986  0.1876
  182MPD1    C5 2826   0.859   2.582   1.634  0.1815 -0.5930  0.1452
  182MPD1     H 2827   0.901   2.246   1.458  1.4065 -0.3034  0.4096
  182MPD1    H1 2828   0.650   2.569   1.595  0.9892  0.2506 -1.9789
  182MPD1    H2 2829   1.056   2.556   1.689 -0.2474  1.1397  0.3018
  182MPD1    H3 2830   0.844   2.678   1.682 -1.0068 -0.5406 -0.3183
  182MPD1     N 2831   0.638   2.341   1.461 -0.4779 -0.6182 -0.3372
  182MPD1    H5 2832   0.546   2.383   1.470  0.5241  0.9712  2.5590
  182MPD1    N1 2833   1.115   2.333   1.586  0.0610 -0.3167  0.6897
  182MPD1    H6 2834   1.129   2.262   1.516 -0.4815  1.0538 -0.8050
  182MPD1    H7 2835   1.192   2.400   1.589 -1.2626  1.2500 -0.0619
  183MPD1     C 2836   1.089   3.588  10.468 -0.1074 -0.2436  0.0754
  183MPD1    C1 2837   1.227   3.595  10.442 -0.3819 -0.9723 -0.3042
  183MPD1    C2 2838   1.273   3.507  10.347 -0.6637 -0.3509  0.2929
  183MPD1    C3 2839   1.194   3.442  10.257  0.3441 -0.0975  0.4556
  183MPD1    C4 2840   1.056   3.447  10.279 -0.3785  0.5837  0.2492
  183MPD1    C5 2841   1.011   3.517  10.388  0.3913 -0.6942  0.3957
  183MPD1     H 2842   1.379   3.498  10.326 -1.2881 -6.1766 -0.3075
  183MPD1    H1 2843   0.986   3.383  10.227 -0.7551 -1.0859  2.7964
  183MPD1    H2 2844   1.046   3.650  10.546  2.6295  1.7355 -0.0003
  183MPD1    H3 2845   0.907   3.518  10.419  0.9688  2.6774  2.2113
  183MPD1     N 2846   1.247   3.358  10.151 -0.1306 -0.5133  0.0542
  183MPD1    H5 2847   1.342   3.324  10.158  0.4777  0.7795 -1.7788
  183MPD1    N1 2848   1.317   3.664  10.528  0.4401  0.2384 -0.5676
  183MPD1    H6 2849   1.392   3.705  10.474  0.1583 -0.5882 -1.5802
  183MPD1    H7 2850   1.267   3.732  10.585 -0.0300  0.4452 -1.2182
  184MPD1     C 2851   0.398   0.755  10.325 -0.4415  0.3841 -0.0497
  184MPD1    C1 2852   0.400   0.650  10.230 -0.3443  0.0030  0.5096
  184MPD1    C2 2853   0.435   0.693  10.105 -0.4664  0.3690  0.0142
  184MPD1    C3 2854   0.496   0.820  10.079  0.1917 -0.3275  0.3629
  184MPD1    C4 2855   0.507   0.909  10.179 -0.0709 -0.4385  0.2663
  184MPD1    C5 2856   0.442   0.887  10.298  0.2933 -0.5549  0.2678
  184MPD1     H 2857   0.409   0.629  10.022 -4.8392  1.1627  0.7459
  184MPD1    H1 2858   0.557   1.000  10.146 -1.2513 -0.1113 -0.5879
  184MPD1    H2 2859   0.379   0.729  10.428 -0.8273 -0.4896 -0.3390
  184MPD1    H3 2860   0.427   0.964  10.372  0.1715  0.0753 -0.4189
  184MPD1     N 2861   0.529   0.860   9.951  0.0917  0.0552 -0.0821
  184MPD1    H5 2862   0.560   0.956   9.950 -1.9835  0.7489  2.1099
  184MPD1    N1 2863   0.385   0.517  10.266  0.0278 -0.3755 -0.1553
  184MPD1    H6 2864   0.363   0.457  10.186  0.9597 -3.8815  2.2449
  184MPD1    H7 2865   0.315   0.504  10.339 -0.1355 -2.2146 -0.6460
  185MPD1     C 2866   0.603   0.567   9.004 -0.8524 -0.0156  0.3920
  185MPD1    C1 2867   0.623   0.702   8.991  0.4743  0.1535  0.8817
  185MPD1    C2 2868   0.589   0.767   9.104  0.0293  0.1920  0.1493
  185MPD1    C3 2869   0.550   0.710   9.225  0.0130  0.2135 -0.0601
  185MPD1    C4 2870   0.516   0.578   9.229 -1.0449 -0.0109 -0.1368
  185MPD1    C5 2871   0.552   0.504   9.111 -0.3749  0.4778  0.7724
  185MPD1     H 2872   0.618   0.871   9.101 -0.2742  0.2169 -2.1398
  185MPD1    H1 2873   0.484   0.537   9.324 -0.7332  3.8315  1.6325
  185MPD1    H2 2874   0.617   0.505   8.917 -0.4230 -0.7759  0.9967
  185MPD1    H3 2875   0.528   0.398   9.114 -0.6310  0.5061 -0.1525
  185MPD1     N 2876   0.536   0.780   9.342 -0.0049 -0.3570 -0.1149
  185MPD1    H5 2877   0.531   0.726   9.429  0.1983  0.5114  0.4339
  185MPD1    N1 2878   0.697   0.763   8.878 -0.3130  0.4685 -0.3658
  185MPD1    H6 2879   0.684   0.863   8.867  1.1697  0.7894  0.9243
  185MPD1    H7 2880   0.683   0.709   8.792 -0.4892 -0.7302  0.4140
  186MPD1     C 2881   4.018   4.094  15.767 -0.1695  0.5886  0.3355
  186MPD1    C1 2882   3.966   4.037  15.880  0.0298  0.4984  0.5335
  186MPD1    C2 2883   3.943   4.116  15.989 -0.1867 -0.2638  0.7840
  186MPD1    C3 2884   3.945   4.255  15.984  0.1659 -0.5208 -0.4028
  186MPD1    C4 2885   3.995   4.312  15.870 -0.0199  0.7400  1.0141
  186MPD1    C5 2886   4.034   4.228  15.764  0.1956  0.0710  0.2080
  186MPD1     H 2887   3.902   4.069  16.078 -0.8510  0.8199  1.0484
  186MPD1    H1 2888   4.006   4.419  15.860  2.5515  0.2331 -1.5200
  186MPD1    H2 2889   4.034   4.032  15.679  0.6839 -0.2776  1.0974
  186MPD1    H3 2890   4.068   4.271  15.671 -0.5703  1.0999  0.3970
  186MPD1     N 2891   3.926   4.350  16.085  0.3030 -0.6870 -0.1902
  186MPD1    H5 2892   3.947   4.446  16.061 -1.3439 -0.3715 -0.3361
  186MPD1    N1 2893   3.972   3.901  15.886  0.6602 -0.0492 -0.4785
  186MPD1    H6 2894   3.915   3.864  15.961  0.6538 -0.7861 -0.8507
  186MPD1    H7 2895   3.944   3.855  15.800 -0.0012  0.1440 -0.3663
  187MPD1     C 2896   3.580   1.150   0.368 -0.5136 -0.1153  0.1390
  187MPD1    C1 2897   3.546   1.048   0.287  0.2623 -0.4900  0.4240
  187MPD1    C2 2898   3.458   1.069   0.185 -0.4725 -0.1604 -0.1778
  187MPD1    C3 2899   3.406   1.190   0.161  0.0567 -0.5393  0.1197
  187MPD1    C4 2900   3.460   1.297   0.229 -0.6666 -0.1323  0.6133
  187MPD1    C5 2901   3.543   1.280   0.333 -0.5727  0.5091  0.6044
  187MPD1     H 2902   3.445   0.988   0.115 -1.3058  0.3785 -0.6449
  187MPD1    H1 2903   3.437   1.401   0.205 -2.7810 -0.0445  3.0186
  187MPD1    H2 2904   3.648   1.140   0.452  0.9106  0.0842 -0.9763
  187MPD1    H3 2905   3.586   1.368   0.381 -2.8708  1.6296  0.6684
  187MPD1     N 2906   3.327   1.216   0.042 -0.0049  0.6493  0.2522
  187MPD1    H5 2907   3.297   1.312   0.028  1.4082  1.5410  3.5332
  187MPD1    N1 2908   3.565   0.916   0.340  0.4812  0.0341 -0.0828
  187MPD1    H6 2909   3.654   0.896   0.386 -0.8093 -3.8536  0.7708
  187MPD1    H7 2910   3.560   0.846   0.266  1.7007 -1.7536  1.5357
  188MPD1     C 2911   2.727   2.164  10.340 -0.1290  0.2294  0.6784
  188MPD1    C1 2912   2.840   2.119  10.410 -0.0529  0.1074 -0.1986
  188MPD1    C2 2913   2.892   1.998  10.372  0.0509 -0.2657 -0.0599
  188MPD1    C3 2914   2.845   1.929  10.259 -0.0248 -0.1868  0.3144
  188MPD1    C4 2915   2.741   1.979  10.195  0.1060  0.4026  0.1560
  188MPD1    C5 2916   2.674   2.092  10.231 -0.7435  0.0267  0.1686
  188MPD1     H 2917   2.975   1.966  10.434  0.5925 -1.2913 -1.3117
  188MPD1    H1 2918   2.699   1.916  10.117  1.9778 -0.3386 -0.2606
  188MPD1    H2 2919   2.667   2.246  10.376 -2.0160 -1.4664  1.4279
  188MPD1    H3 2920   2.582   2.109  10.176  0.8594  0.1905 -2.4729
  188MPD1     N 2921   2.896   1.811  10.216 -0.2886 -0.0920  0.3712
  188MPD1    H5 2922   2.865   1.789  10.121 -1.5553  0.3079  0.6898
  188MPD1    N1 2923   2.876   2.174  10.538  0.2881 -0.0460  0.1087
  188MPD1    H6 2924   2.858   2.273  10.553 -2.6905 -0.3422 -1.5585
  188MPD1    H7 2925   2.970   2.145  10.563  0.3099 -1.3476 -1.5022
  189MPD1     C 2926   0.443   2.515   0.446 -0.2537  0.9593  0.3592
  189MPD1    C1 2927   0.328   2.438   0.457  0.3446  0.4942 -0.9338
  189MPD1    C2 2928   0.217   2.478   0.404 -0.0623 -0.4963  0.1318
  189MPD1    C3 2929   0.202   2.606   0.351 -0.0561  0.1133 -0.2001
  189MPD1    C4 2930   0.313   2.690   0.349  0.3250 -0.2397 -0.0205
  189MPD1    C5 2931   0.434   2.642   0.400  1.3384 -0.7750  0.7931
  189MPD1     H 2932   0.136   2.406   0.415 -0.5438 -0.0297 -0.3509
  189MPD1    H1 2933   0.317   2.785   0.296 -2.3720  0.2908  0.7057
  189MPD1    H2 2934   0.539   2.473   0.476 -0.0995  0.0824 -1.3350
  189MPD1    H3 2935   0.529   2.692   0.384 -0.1935  2.1974  0.8836
  189MPD1     N 2936   0.080   2.654   0.296  0.0280  0.4676 -0.5906
  189MPD1    H5 2937   0.004   2.588   0.284 -0.5740  0.8717  1.0629
  189MPD1    N1 2938   0.348   2.300   0.491 -0.4791  0.1844 -0.1709
  189MPD1    H6 2939   0.414   2.309   0.567 -1.0926  0.5254  0.3250
  189MPD1    H7 2940   0.261   2.253   0.516 -0.1421  1.0465  2.5849
  190MPD1     C 2941   3.621   0.139  16.240  0.8664  0.1701  0.6378
  190MPD1    C1 2942   3.594   0.266  16.288  0.5606 -0.3224  0.0376
  190MPD1    C2 2943   3.622   0.372  16.203  0.2097  0.1061  0.4168
  190MPD1    C3 2944   3.666   0.358  16.071 -0.1748  0.2604  0.0694
  190MPD1    C4 2945   3.677   0.227  16.028 -0.4694 -0.1833  0.2082
  190MPD1    C5 2946   3.658   0.120  16.111  0.0311  0.1600 -0.1598
  190MPD1     H 2947   3.614   0.472  16.243 -0.1495  0.3362 -0.2198
  190MPD1    H1 2948   3.696   0.198  15.925 -0.5665  0.4643  0.0108
  190MPD1    H2 2949   3.626   0.059  16.313  0.1265 -1.0310 -0.6077
  190MPD1    H3 2950   3.663   0.018  16.075  0.4605  0.0944  0.0797
  190MPD1     N 2951   3.686   0.474  15.991  0.0048  0.5028  0.4477
  190MPD1    H5 2952   3.681   0.564  16.036 -0.2772  0.9791 -0.5279
  190MPD1    N1 2953   3.573   0.299  16.422 -0.4065  0.2003  0.2458
  190MPD1    H6 2954   3.525   0.387  16.439 -2.6427 -1.1676  1.0074
  190MPD1    H7 2955   3.531   0.222  16.474 -2.4664  0.9806 -0.2406
  191MPD1     C 2956   2.164   3.409  13.062 -0.9240  0.0236 -0.1071
  191MPD1    C1 2957   2.113   3.380  12.933  0.4101 -0.1043 -1.0751
  191MPD1    C2 2958   2.208   3.386  12.835  0.2147 -0.2624  0.1621
  191MPD1    C3 2959   2.347   3.383  12.846  0.7414 -0.3773  0.1371
  191MPD1    C4 2960   2.387   3.393  12.978 -0.2576 -0.2522  0.8956
  191MPD1    C5 2961   2.296   3.410  13.083 -0.5174 -0.7960  0.9850
  191MPD1     H 2962   2.187   3.384  12.729 -0.1007  1.4181  0.1828
  191MPD1    H1 2963   2.493   3.401  13.002  0.4113  0.0455 -2.1587
  191MPD1    H2 2964   2.101   3.428  13.149 -2.4230  1.1745 -1.4572
  191MPD1    H3 2965   2.336   3.430  13.182 -1.4634 -1.4320  1.5007
  191MPD1     N 2966   2.433   3.386  12.732  0.8751  0.7562 -0.4500
  191MPD1    H5 2967   2.393   3.368  12.640  1.4924 -1.4686 -0.2796
  191MPD1    N1 2968   1.973   3.376  12.909  0.5808 -0.8754 -0.0899
  191MPD1    H6 2969   1.912   3.373  12.990 -0.1662  0.6779 -0.5939
  191MPD1    H7 2970   1.936   3.313  12.838  1.9886 -1.3308 -0.4241
  192MPD1     C 2971   2.468   3.840  11.868 -0.2213  0.3293  0.2886
  192MPD1    C1 2972   2.373   3.749  11.913  0.5428  0.0905 -0.1250
  192MPD1    C2 2973   2.412   3.665  12.014  0.2018 -0.4019  0.2517
  192MPD1    C3 2974   2.550   3.656  12.054  0.2428  0.4286 -0.9968
  192MPD1    C4 2975   2.638   3.737  11.996  0.7580 -0.4200  0.0301
  192MPD1    C5 2976   2.600   3.830  11.905 -1.1758  0.5668  0.3309
  192MPD1     H 2977   2.340   3.603  12.066 -1.3073 -0.9665 -2.5049
  192MPD1    H1 2978   2.742   3.727  12.024  0.8054 -0.8379 -0.2983
  192MPD1    H2 2979   2.441   3.921  11.800 -0.2933 -1.6421 -2.0302
  192MPD1    H3 2980   2.673   3.901  11.868 -1.1722  0.2514 -0.2586
  192MPD1     N 2981   2.591   3.574  12.164  0.1310  0.2535  0.5276
  192MPD1    H5 2982   2.689   3.588  12.184 -0.4563  2.1073  2.0504
  192MPD1    N1 2983   2.234   3.762  11.881  0.4862 -0.0710 -0.0558
  192MPD1    H6 2984   2.166   3.699  11.924  1.4346 -1.2843 -0.3392
  192MPD1    H7 2985   2.207   3.779  11.784 -0.4543 -1.6024 -0.0699
  193MPD1     C 2986   1.885   2.683  16.453 -0.0346  0.4350  0.2309
  193MPD1    C1 2987   2.012   2.655  16.407  0.1963 -0.0531 -0.2323
  193MPD1    C2 2988   2.100   2.758  16.384 -0.7354  0.5158 -0.8478
  193MPD1    C3 2989   2.060   2.891  16.405  0.4610 -0.2972 -0.1123
  193MPD1    C4 2990   1.933   2.912  16.457 -0.5265  0.3268  0.3792
  193MPD1    C5 2991   1.850   2.807  16.488 -0.1851 -0.0957  0.7273
  193MPD1     H 2992   2.201   2.727  16.361 -0.9920  0.0120 -1.2954
  193MPD1    H1 2993   1.894   3.010  16.479 -0.3634  0.0664  1.8536
  193MPD1    H2 2994   1.813   2.602  16.459 -0.7217  1.0593  0.3159
  193MPD1    H3 2995   1.745   2.821  16.510 -0.0696 -0.5029  1.5135
  193MPD1     N 2996   2.147   3.002  16.396 -0.0380 -0.1642  0.3220
  193MPD1    H5 2997   2.118   3.088  16.442  1.8651  0.6233  0.0179
  193MPD1    N1 2998   2.050   2.519  16.401  0.4007 -0.0817 -0.3958
  193MPD1    H6 2999   2.103   2.489  16.320 -2.0678 -1.5551 -1.4622
  193MPD1    H7 3000   1.966   2.467  16.426 -0.6123  0.4703 -2.5683
  194MPD1     C 3001   0.510   0.064  15.758 -0.7318 -0.4164  0.1967
  194MPD1    C1 3002   0.496   0.169  15.846 -0.4795 -0.2456 -0.0734
  194MPD1    C2 3003   0.537   0.147  15.974 -0.1922  0.6543  0.3700
  194MPD1    C3 3004   0.593   0.029  16.024  0.5375  0.2573 -0.2740
  194MPD1    C4 3005   0.628   4.669  15.923  0.8084 -0.6376 -0.4797
  194MPD1    C5 3006   0.586   4.692  15.791 -0.4648 -0.0820  0.5440
  194MPD1     H 3007   0.519   0.235  16.036 -0.5990 -0.4827  1.8595
  194MPD1    H1 3008   0.678   4.578  15.956 -0.7989 -1.0817  0.7475
  194MPD1    H2 3009   0.470   0.069  15.658 -0.2687 -2.6651 -0.0969
  194MPD1    H3 3010   0.598   4.609  15.722 -0.9024 -0.7802  1.3024
  194MPD1     N 3011   0.625   4.728  16.159  0.7182 -0.0083 -0.1809
  194MPD1    H5 3012   0.660   4.633  16.165  2.1496  0.6338  1.5909
  194MPD1    N1 3013   0.419   0.282  15.811  0.4913 -0.6466 -0.1944
  194MPD1    H6 3014   0.419   0.303  15.712 -0.7312  2.5716  0.4653
  194MPD1    H7 3015   0.441   0.367  15.864 -0.6109  0.5164 -1.5988
  195MPD1     C 3016   3.456   1.745   0.715 -0.4042  0.5887 -0.0656
  195MPD1    C1 3017   3.376   1.766   0.607  0.0752 -0.0928  1.2196
  195MPD1    C2 3018   3.332   1.651   0.546  0.0535 -0.0591  0.4654
  195MPD1    C3 3019   3.342   1.522   0.600  0.7037 -0.4677  0.4043
  195MPD1    C4 3020   3.386   1.513   0.726 -0.3375 -0.4104 -0.0287
  195MPD1    C5 3021   3.454   1.620   0.778  0.2654  0.6967  0.6734
  195MPD1     H 3022   3.281   1.669   0.452  1.0797 -1.5565 -0.3837
  195MPD1    H1 3023   3.383   1.421   0.783 -2.1183  0.2491  0.9503
  195MPD1    H2 3024   3.513   1.823   0.763 -2.4747  0.9079  1.8864
  195MPD1    H3 3025   3.502   1.616   0.875  1.4886  0.7508  0.0632
  195MPD1     N 3026   3.274   1.410   0.540  0.0749 -0.3347  0.4047
  195MPD1    H5 3027   3.281   1.325   0.595 -2.5200  1.3980  3.3874
  195MPD1    N1 3028   3.383   1.893   0.534  0.7631  0.0449  0.1703
  195MPD1    H6 3029   3.300   1.895   0.475  2.3919 -1.3431 -2.1472
  195MPD1    H7 3030   3.375   1.969   0.601  1.0431 -0.4342  0.7539
  196MPD1     C 3031   1.367   0.860   0.060  0.4469 -0.1456  0.0442
  196MPD1    C1 3032   1.476   0.947   0.063 -0.2163 -0.4386  0.7034
  196MPD1    C2 3033   1.517   0.993   0.190 -0.3374  0.1642  0.9611
  196MPD1    C3 3034   1.456   0.966   0.313  0.1146 -0.6029  0.2798
  196MPD1    C4 3035   1.342   0.883   0.299 -0.3929 -0.2276  0.2310
  196MPD1    C5 3036   1.305   0.832   0.177 -0.8013  0.8027 -0.9791
  196MPD1     H 3037   1.603   1.059   0.199  0.0889 -0.4753  1.6175
  196MPD1    H1 3038   1.278   0.855   0.382 -0.9234 -0.1405 -0.1455
  196MPD1    H2 3039   1.323   0.827  17.703 -0.3091  0.1569  0.3026
  196MPD1    H3 3040   1.212   0.779   0.163  0.2348 -0.9094 -1.3066
  196MPD1     N 3041   1.486   1.017   0.437  0.5931  0.1670  0.4466
  196MPD1    H5 3042   1.427   0.992   0.516 -0.0563 -0.0314 -0.0997
  196MPD1    N1 3043   1.553   0.960  17.685 -0.4375  0.3289  0.7333
  196MPD1    H6 3044   1.582   1.058  17.687 -1.1898  0.5785 -0.1871
  196MPD1    H7 3045   1.499   0.938  17.602  1.0176  0.8820 -0.3730
  197MPD1     C 3046   0.994   2.402  17.142 -0.4109  0.5811 -1.4155
  197MPD1    C1 3047   1.106   2.382  17.210 -0.6741  0.1045 -0.3076
  197MPD1    C2 3048   1.222   2.452  17.175  0.3387 -0.4719  0.8535
  197MPD1    C3 3049   1.203   2.538  17.067  1.2026 -0.2451  0.0975
  197MPD1    C4 3050   1.096   2.536  16.983 -0.9229 -0.3067  0.2001
  197MPD1    C5 3051   0.987   2.477  17.030 -0.6175  0.5133  0.3107
  197MPD1     H 3052   1.318   2.436  17.223  0.3921 -1.5063  0.4173
  197MPD1    H1 3053   1.092   2.596  16.893  2.6574 -1.3254 -0.6411
  197MPD1    H2 3054   0.911   2.336  17.164  0.2922  0.3347  0.4820
  197MPD1    H3 3055   0.897   2.482  16.970  0.2558  0.5582 -0.9859
  197MPD1     N 3056   1.301   2.631  17.024 -0.6095  1.0613 -0.9392
  197MPD1    H5 3057   1.286   2.692  16.943 -2.4592 -0.9681 -2.1213
  197MPD1    N1 3058   1.114   2.305  17.328  0.3335 -0.0265  0.1825
  197MPD1    H6 3059   1.029   2.249  17.327 -0.1884  0.7612 -0.0501
  197MPD1    H7 3060   1.201   2.253  17.329  1.0229  1.1291  1.1293
  198MPD1     C 3061   3.138   1.366  14.896 -0.0001  0.0162  0.1286
  198MPD1    C1 3062   3.158   1.343  15.032  0.0389 -0.7887  0.1181
  198MPD1    C2 3063   3.238   1.432  15.107  0.2369 -0.2465 -0.0993
  198MPD1    C3 3064   3.295   1.547  15.051 -0.5400  0.3934  0.1702
  198MPD1    C4 3065   3.263   1.576  14.917 -0.4965 -0.6457  0.2653
  198MPD1    C5 3066   3.190   1.486  14.839 -0.5944 -0.0022  0.2308
  198MPD1     H 3067   3.249   1.410  15.212  0.8971 -2.3263 -0.5991
  198MPD1    H1 3068   3.302   1.661  14.861  1.8569  0.0945  3.0097
  198MPD1    H2 3069   3.071   1.301  14.842 -1.0544  0.7233  0.5819
  198MPD1    H3 3070   3.166   1.505  14.735 -1.3582  0.8452  0.5687
  198MPD1     N 3071   3.387   1.615  15.125 -0.0930  0.0578 -0.2005
  198MPD1    H5 3072   3.395   1.587  15.222 -0.5279 -0.9666 -0.4587
  198MPD1    N1 3073   3.076   1.252  15.103 -0.1396  0.4906 -0.0775
  198MPD1    H6 3074   3.119   1.212  15.186 -0.5269  2.0144  0.8377
  198MPD1    H7 3075   3.038   1.169  15.057 -0.7602 -0.1146  1.5059
  199MPD1     C 3076   0.141   3.761  10.858  0.3032  0.0606  0.1484
  199MPD1    C1 3077   0.078   3.673  10.779 -0.6879 -0.4595  0.2835
  199MPD1    C2 3078   0.129   3.649  10.649  0.3758 -0.4925  0.9472
  199MPD1    C3 3079   0.232   3.722  10.594 -0.3437  0.2658 -0.0759
  199MPD1    C4 3080   0.290   3.815  10.671 -0.2778 -0.4846  0.1671
  199MPD1    C5 3081   0.248   3.826  10.804  0.0413  0.3243  0.4702
  199MPD1     H 3082   0.072   3.580  10.588 -0.5612 -0.4484  1.7799
  199MPD1    H1 3083   0.376   3.876  10.647 -0.8315  0.9108  1.7387
  199MPD1    H2 3084   0.128   3.768  10.966 -0.3538 -0.6697  0.1187
  199MPD1    H3 3085   0.293   3.900  10.869  1.1945  0.8137 -0.8912
  199MPD1     N 3086   0.289   3.708  10.470  0.3697  0.6011  0.5623
  199MPD1    H5 3087   0.353   3.782  10.442 -1.8191  1.3625 -2.3237
  199MPD1    N1 3088   4.682   3.642  10.815 -0.1557  0.0457 -0.2221
  199MPD1    H6 3089   4.678   3.639  10.917  0.5519 -0.2699 -0.1996
  199MPD1    H7 3090   4.651   3.553  10.777 -2.4230  1.4530 -1.6631
  200MPD1     C 3091   4.000   3.120  15.534 -0.1303 -0.1032  0.0142
  200MPD1    C1 3092   3.888   3.180  15.492  0.0566  0.3145  0.2765
  200MPD1    C2 3093   3.856   3.167  15.361 -0.3473  0.1089  0.3886
  200MPD1    C3 3094   3.933   3.094  15.275  0.6680  0.1690 -0.5705
  200MPD1    C4 3095   4.041   3.032  15.323  0.1199 -0.1487 -0.1625
  200MPD1    C5 3096   4.079   3.046  15.451  0.1560 -0.5401 -0.1040
  200MPD1     H 3097   3.769   3.219  15.323  1.1242  1.8085 -0.6458
  200MPD1    H1 3098   4.106   2.975  15.258  2.0738  1.6139  0.2380
  200MPD1    H2 3099   4.034   3.137  15.635  0.3049 -1.1434  0.0437
  200MPD1    H3 3100   4.175   3.001  15.474 -0.0944 -0.9160  0.2247
  200MPD1     N 3101   3.892   3.083  15.136 -0.3067  0.5058 -0.0689
  200MPD1    H5 3102   3.815   3.143  15.108 -0.5484 -0.6238 -1.7838
  200MPD1    N1 3103   3.818   3.254  15.587 -0.2390  0.9962 -0.1244
  200MPD1    H6 3104   3.717   3.239  15.581 -0.1949  0.2277  1.0376
  200MPD1    H7 3105   3.857   3.219  15.675  0.6214 -2.2064 -1.7595
  201MPD1     C 3106   1.549   2.203  13.322  0.0719 -0.3281 -0.3527
  201MPD1    C1 3107   1.484   2.091  13.269 -0.4139 -0.0979  0.5034
  201MPD1    C2 3108   1.567   1.985  13.225  0.0998  0.0315 -0.4362
  201MPD1    C3 3109   1.703   2.002  13.217 -0.2919  0.3414 -0.1567
  201MPD1    C4 3110   1.760   2.117  13.264 -0.1240  0.0826 -0.3184
  201MPD1    C5 3111   1.686   2.215  13.323 -0.2965  0.1680 -0.1028
  201MPD1     H 3112   1.518   1.896  13.187  2.7486 -0.4682 -2.7120
  201MPD1    H1 3113   1.867   2.132  13.265 -0.0827 -0.0736 -1.8102
  201MPD1    H2 3114   1.489   2.278  13.371  1.1283 -1.8884  3.2854
  201MPD1    H3 3115   1.737   2.298  13.370 -1.3697  0.9335 -0.2916
  201MPD1     N 3116   1.785   1.904  13.151  0.0389 -0.0433  0.9655
  201MPD1    H5 3117   1.736   1.815  13.138 -1.0268  1.1104 -3.1702
  201MPD1    N1 3118   1.350   2.061  13.285 -0.6174  0.0074 -0.1995
  201MPD1    H6 3119   1.286   2.140  13.291 -1.1427 -0.5372  1.5714
  201MPD1    H7 3120   1.318   2.003  13.208 -1.0955 -1.4357  1.0965
  202MPD1     C 3121   1.419   1.888   9.411  0.8601 -0.4780  0.1200
  202MPD1    C1 3122   1.397   2.015   9.457 -0.3127 -0.1698  1.0637
  202MPD1    C2 3123   1.496   2.055   9.549  0.5608 -0.2546 -0.2385
  202MPD1    C3 3124   1.632   2.003   9.555 -0.0893 -0.0104 -0.9087
  202MPD1    C4 3125   1.653   1.901   9.466 -0.1770  0.5394 -0.3375
  202MPD1    C5 3126   1.551   1.846   9.404 -0.1123 -0.2301  0.2716
  202MPD1     H 3127   1.476   2.140   9.613 -0.4068 -1.3417  0.9036
  202MPD1    H1 3128   1.755   1.868   9.450 -0.2816 -0.4637  1.0797
  202MPD1    H2 3129   1.345   1.825   9.363  1.1886 -2.1232  1.7567
  202MPD1    H3 3130   1.569   1.751   9.355 -0.1351  0.3481 -0.8632
  202MPD1     N 3131   1.736   2.054   9.636 -0.0744  0.0298  0.8710
  202MPD1    H5 3132   1.819   1.996   9.646 -0.8721 -1.0251  1.2707
  202MPD1    N1 3133   1.261   2.057   9.478  0.2458  0.4178 -0.0743
  202MPD1    H6 3134   1.214   2.039   9.389  0.9304  0.4873 -0.4445
  202MPD1    H7 3135   1.258   2.156   9.503  1.9356  0.0216  1.6537
  203MPD1     C 3136   0.189   2.305  12.654  0.0490 -0.1014  0.5615
  203MPD1    C1 3137   0.280   2.313  12.553  0.3974  0.0555 -0.0038
  203MPD1    C2 3138   0.337   2.194  12.510 -0.6438 -0.2236 -0.4728
  203MPD1    C3 3139   0.304   2.072  12.573  0.7863 -0.0950  0.0583
  203MPD1    C4 3140   0.210   2.068  12.673  0.3062 -0.5130 -0.2430
  203MPD1    C5 3141   0.144   2.182  12.706  0.4065  0.3170 -0.6228
  203MPD1     H 3142   0.427   2.189  12.450 -0.1112  0.2354  0.2923
  203MPD1    H1 3143   0.185   1.975  12.722  1.4504 -1.0667 -0.7036
  203MPD1    H2 3144   0.155   2.402  12.688  0.5164 -0.1449  1.1411
  203MPD1    H3 3145   0.057   2.181  12.772  2.5503 -0.0536  2.1822
  203MPD1     N 3146   0.385   1.963  12.539  0.2758  0.5555  0.0648
  203MPD1    H5 3147   0.454   1.988  12.469  0.0490 -2.1919 -1.1490
  203MPD1    N1 3148   0.335   2.436  12.522  0.3372 -0.1919  1.0490
  203MPD1    H6 3149   0.273   2.515  12.538  1.0667  0.8296 -1.1293
  203MPD1    H7 3150   0.406   2.459  12.591  0.8510  0.8869  0.1786
  204MPD1     C 3151   0.719   3.743  17.573  0.0581  0.1894  0.6832
  204MPD1    C1 3152   0.811   3.714  17.473  0.0071  0.4734 -1.1428
  204MPD1    C2 3153   0.850   3.583  17.451  0.1754  0.0591  0.0019
  204MPD1    C3 3154   0.803   3.488  17.547  0.5676 -0.1955 -0.0063
  204MPD1    C4 3155   0.712   3.523  17.649  0.1650  0.7366 -0.4052
  204MPD1    C5 3156   0.671   3.654  17.658 -0.4186 -0.5787 -0.0956
  204MPD1     H 3157   0.922   3.555  17.374 -0.7173 -0.5203 -0.6231
  204MPD1    H1 3158   0.666   3.454  17.719 -1.2595  1.6693 -0.4279
  204MPD1    H2 3159   0.696   3.848  17.586  1.3079  0.3020  1.9195
  204MPD1    H3 3160   0.601   3.693  17.731 -0.0117  0.5695 -0.3126
  204MPD1     N 3161   0.840   3.353  17.515  0.0072  0.3398 -0.1722
  204MPD1    H5 3162   0.906   3.336  17.440 -0.3676  0.0433 -0.4350
  204MPD1    N1 3163   0.850   3.820  17.384  0.1512 -0.3025  0.2122
  204MPD1    H6 3164   0.860   3.909  17.432  1.2779  0.1660 -0.8852
  204MPD1    H7 3165   0.939   3.791  17.343  0.2530  0.2602  0.0339
  205MPD1     C 3166   4.397   2.782  16.794 -0.4642  0.0135  0.1698
  205MPD1    C1 3167   4.448   2.661  16.751  0.3768 -0.0549 -0.1951
  205MPD1    C2 3168   4.514   2.586  16.845 -0.3871  0.4193 -0.0189
  205MPD1    C3 3169   4.537   2.631  16.975 -0.1206  0.6823 -0.3894
  205MPD1    C4 3170   4.494   2.759  17.008 -0.0512  0.4956  0.3179
  205MPD1    C5 3171   4.427   2.830  16.920  0.3435  0.1543  0.6067
  205MPD1     H 3172   4.533   2.482  16.822  0.2393  0.6047 -0.3379
  205MPD1    H1 3173   4.522   2.806  17.102 -1.4894 -0.1371  1.0537
  205MPD1    H2 3174   4.352   2.851  16.723  0.0039 -0.7625 -0.8703
  205MPD1    H3 3175   4.395   2.928  16.951  1.9695  1.4747 -1.8603
  205MPD1     N 3176   4.586   2.561  17.083 -0.4464 -0.1751 -0.6548
  205MPD1    H5 3177   4.583   2.602  17.176 -1.2949  0.7657 -1.0999
  205MPD1    N1 3178   4.416   2.606  16.625 -0.1570  0.6301  0.3835
  205MPD1    H6 3179   4.395   2.681  16.559  0.1461  1.4450  1.2051
  205MPD1    H7 3180   4.492   2.547  16.591 -1.9286 -1.1595 -0.4266
  206MPD1     C 3181   1.437   0.822  15.706 -0.3507 -0.6722  0.1177
  206MPD1    C1 3182   1.437   0.696  15.755 -0.2849 -0.1514  0.6160
  206MPD1    C2 3183   1.312   0.641  15.798  0.1788 -0.1936  0.1790
  206MPD1    C3 3184   1.194   0.719  15.816 -0.2974  0.1038  0.2083
  206MPD1    C4 3185   1.205   0.847  15.763 -0.1029  0.2100  0.1373
  206MPD1    C5 3186   1.323   0.896  15.715 -0.3537 -0.0394  0.1525
  206MPD1     H 3187   1.317   0.536  15.826 -0.3439 -0.0092  0.9402
  206MPD1    H1 3188   1.119   0.913  15.758 -0.3041 -0.2344 -2.3351
  206MPD1    H2 3189   1.523   0.874  15.665  0.3400 -0.4025  1.9089
  206MPD1    H3 3190   1.313   0.990  15.661  2.4900  0.3521  0.2920
  206MPD1     N 3191   1.068   0.666  15.858 -0.2865  0.3714 -0.3656
  206MPD1    H5 3192   0.987   0.725  15.840 -0.4965 -0.5281 -2.4356
  206MPD1    N1 3193   1.551   0.610  15.737 -0.3982 -0.1027 -0.5318
  206MPD1    H6 3194   1.552   0.547  15.816 -1.7878 -1.1028 -1.3024
  206MPD1    H7 3195   1.638   0.663  15.744 -1.5301  1.7871 -0.7516
  207MPD1     C 3196   1.929   3.425   9.761  0.0579 -0.3329  0.5539
  207MPD1    C1 3197   2.037   3.484   9.701 -0.6055 -0.1152 -0.1661
  207MPD1    C2 3198   2.148   3.515   9.779  0.1953  0.7829  0.0914
  207MPD1    C3 3199   2.154   3.461   9.905  0.3358 -0.5979 -0.2816
  207MPD1    C4 3200   2.053   3.388   9.956  0.0248 -0.7956  0.2757
  207MPD1    C5 3201   1.943   3.367   9.885  0.5444 -0.5507  0.2288
  207MPD1     H 3202   2.221   3.581   9.734 -0.2806  1.2250 -0.0406
  207MPD1    H1 3203   2.063   3.353  10.058 -1.8765  0.9545  1.0614
  207MPD1    H2 3204   1.836   3.411   9.707  0.5481 -2.4709  0.2439
  207MPD1    H3 3205   1.856   3.314   9.923  0.7287  0.2025  1.7357
  207MPD1     N 3206   2.264   3.471   9.994 -0.3190 -0.1445 -0.1051
  207MPD1    H5 3207   2.250   3.418  10.079  2.7317  0.9163  1.0474
  207MPD1    N1 3208   2.023   3.538   9.573 -0.7227 -0.0440  0.2979
  207MPD1    H6 3209   1.948   3.496   9.519  1.1054 -0.3551 -2.0087
  207MPD1    H7 3210   2.110   3.528   9.522 -0.9370 -2.2428  0.3626
  208MPD1     C 3211   1.327   1.589   0.118 -0.9395  0.1123 -0.3247
  208MPD1    C1 3212   1.229   1.541   0.027  0.5453 -0.5804 -0.3533
  208MPD1    C2 3213   1.095   1.561   0.052  0.2196  0.2115 -0.2059
  208MPD1    C3 3214   1.059   1.628   0.165  0.3939  0.0765  0.5216
  208MPD1    C4 3215   1.153   1.657   0.263  0.1825 -0.4141 -0.2157
  208MPD1    C5 3216   1.284   1.656   0.232  0.1381  0.0020  0.0665
  208MPD1     H 3217   1.022   1.523  17.716 -0.8750 -1.2370  1.6810
  208MPD1    H1 3218   1.144   1.712   0.355 -2.7960 -0.6180 -0.3852
  208MPD1    H2 3219   1.435   1.580   0.114 -1.0581 -1.7240  0.5777
  208MPD1    H3 3220   1.343   1.691   0.315  0.3896  0.1187 -0.1601
  208MPD1     N 3221   0.923   1.663   0.187  0.0715  0.0649  0.5695
  208MPD1    H5 3222   0.852   1.628   0.124  1.0770 -0.7216 -0.1322
  208MPD1    N1 3223   1.270   1.464  17.651 -0.1429 -0.2181  0.4667
  208MPD1    H6 3224   1.194   1.444  17.585 -0.2469  0.7443  0.2954
  208MPD1    H7 3225   1.352   1.492  17.598 -0.1158 -0.7588  0.2120
  209MPD1     C 3226   2.722   2.362  11.227 -0.5855  0.1280 -0.3840
  209MPD1    C1 3227   2.722   2.413  11.100  0.1874 -0.0177  0.0685
  209MPD1    C2 3228   2.699   2.548  11.087  0.2584 -0.3195  0.3744
  209MPD1    C3 3229   2.694   2.636  11.195 -0.4453 -0.0523 -0.5140
  209MPD1    C4 3230   2.695   2.578  11.321  0.6769  0.3428 -0.7792
  209MPD1    C5 3231   2.712   2.443  11.332 -0.1164  0.1097 -0.3433
  209MPD1     H 3232   2.668   2.591  10.993  1.4192  0.2261  0.2474
  209MPD1    H1 3233   2.681   2.628  11.416 -0.9260  0.0808 -0.8926
  209MPD1    H2 3234   2.710   2.257  11.254 -0.7954  0.4774  0.8753
  209MPD1    H3 3235   2.692   2.398  11.428 -1.8220 -3.0022 -2.1689
  209MPD1     N 3236   2.692   2.775  11.177 -0.9198 -0.0052 -0.5952
  209MPD1    H5 3237   2.678   2.801  11.080  0.5874 -0.5671 -0.9574
  209MPD1    N1 3238   2.711   2.327  10.985 -0.4721 -0.3336  0.0103
  209MPD1    H6 3239   2.768   2.243  10.991  1.4104  0.8920 -0.7425
  209MPD1    H7 3240   2.732   2.359  10.891  0.6036  2.7274  1.2605
  210MPD1     C 3241   2.871   3.659  11.711 -0.3040  0.9016  0.5193
  210MPD1    C1 3242   2.929   3.664  11.589  0.4204 -0.0905  0.1477
  210MPD1    C2 3243   2.895   3.569  11.495  0.8472 -0.0783 -0.1296
  210MPD1    C3 3244   2.803   3.471  11.525 -0.1390 -0.0564  0.6271
  210MPD1    C4 3245   2.740   3.481  11.644  0.4846 -0.2571  0.7204
  210MPD1    C5 3246   2.782   3.566  11.739  0.1742 -0.3261 -0.0060
  210MPD1     H 3247   2.942   3.570  11.398 -1.2515 -0.0714 -1.1332
  210MPD1    H1 3248   2.659   3.411  11.659 -0.4433  1.0710  1.9203
  210MPD1    H2 3249   2.890   3.743  11.778  0.7471 -0.4894  1.9699
  210MPD1    H3 3250   2.722   3.569  11.829  0.5730  0.6945  0.2188
  210MPD1     N 3251   2.772   3.361  11.440  0.5798  0.3533  0.2526
  210MPD1    H5 3252   2.707   3.293  11.478 -2.4511  2.2452 -1.5524
  210MPD1    N1 3253   2.990   3.784  11.544  0.1322 -0.3600  0.0208
  210MPD1    H6 3254   3.068   3.767  11.481  1.3340  0.5365  1.2783
  210MPD1    H7 3255   3.004   3.844  11.625 -1.8377  0.3671 -0.1795
  211MPD1     C 3256   0.455   1.609  16.827  1.3059 -0.2087  1.3314
  211MPD1    C1 3257   0.565   1.678  16.787 -0.2607  0.1932  0.3316
  211MPD1    C2 3258   0.550   1.780  16.696  0.4676 -0.7428 -0.1551
  211MPD1    C3 3259   0.430   1.828  16.665  0.3155  0.4434 -0.0527
  211MPD1    C4 3260   0.312   1.764  16.718  0.0386 -0.3842  0.2152
  211MPD1    C5 3261   0.331   1.652  16.792 -0.3316 -0.4985 -0.3805
  211MPD1     H 3262   0.638   1.819  16.647 -0.3571 -0.5102 -1.4330
  211MPD1    H1 3263   0.210   1.796  16.698 -0.3880 -0.2480  2.5910
  211MPD1    H2 3264   0.462   1.518  16.886  1.1792  0.3459  2.2016
  211MPD1    H3 3265   0.246   1.594  16.825  0.4682  0.3008  3.0886
  211MPD1     N 3266   0.423   1.933  16.569  0.2363 -0.0690  0.1495
  211MPD1    H5 3267   0.508   1.968  16.527 -1.1329  2.7168 -0.3127
  211MPD1    N1 3268   0.699   1.649  16.828  0.6589  0.2693  0.6090
  211MPD1    H6 3269   0.764   1.727  16.822 -2.5135  2.7109 -1.5229
  211MPD1    H7 3270   0.703   1.598  16.916  0.4640  0.5439  0.7769
  212MPD1     C 3271   0.112   0.637  16.563 -0.1056 -0.3531  0.9314
  212MPD1    C1 3272   4.710   0.627  16.564  0.8128  0.5279 -0.2841
  212MPD1    C2 3273   4.645   0.535  16.646 -0.2285 -0.6178 -0.3555
  212MPD1    C3 3274   4.722   0.468  16.745 -0.2731  0.7526 -0.7162
  212MPD1    C4 3275   0.126   0.487  16.749 -0.3295  0.4660  0.1852
  212MPD1    C5 3276   0.184   0.561  16.654 -0.9152 -0.3079 -0.3943
  212MPD1     H 3277   4.537   0.527  16.642 -0.1506 -1.2691 -1.0409
  212MPD1    H1 3278   0.192   0.432  16.816  2.0023  2.0694 -0.7927
  212MPD1    H2 3279   0.166   0.696  16.490 -1.1692 -1.6400 -0.8851
  212MPD1    H3 3280   0.292   0.573  16.650 -0.9926 -0.4962 -2.8084
  212MPD1     N 3281   4.674   0.374  16.829 -0.2898 -0.1979  0.2319
  212MPD1    H5 3282   0.006   0.326  16.889 -0.9918 -0.8664  0.4628
  212MPD1    N1 3283   4.644   0.667  16.443  0.3267 -0.2770  0.1311
  212MPD1    H6 3284   4.544   0.678  16.454  0.6470  0.3862  2.5742
  212MPD1    H7 3285   4.691   0.753  16.415 -0.4406  0.4650  1.1003
  213MPD1     C 3286   2.386   1.220  15.647 -0.1480 -0.3532 -0.6434
  213MPD1    C1 3287   2.345   1.099  15.580  0.1045  0.0251  0.0244
  213MPD1    C2 3288   2.394   1.096  15.447 -0.1575 -0.0027  0.4263
  213MPD1    C3 3289   2.469   1.190  15.389  0.0039  0.4813 -0.3884
  213MPD1    C4 3290   2.513   1.301  15.463 -0.4650 -0.1339 -0.0374
  213MPD1    C5 3291   2.475   1.307  15.595  0.5039  0.0157  0.6903
  213MPD1     H 3292   2.361   1.014  15.384 -0.1276 -0.0887  0.5230
  213MPD1    H1 3293   2.557   1.386  15.413  1.3256 -0.5686  0.8062
  213MPD1    H2 3294   2.384   1.233  15.754  1.6282  0.0605 -0.6604
  213MPD1    H3 3295   2.507   1.382  15.666  2.0119  0.3596 -0.3563
  213MPD1     N 3296   2.513   1.159  15.253  0.3701 -0.0964 -0.0567
  213MPD1    H5 3297   2.469   1.080  15.207  1.7277 -1.6975  1.3857
  213MPD1    N1 3298   2.315   0.989  15.660  0.2980  0.8134  0.1447
  213MPD1    H6 3299   2.249   1.011  15.733  1.0037 -0.1886  1.0884
  213MPD1    H7 3300   2.271   0.909  15.614 -1.0407  1.5278  0.1995
  214MPD1     C 3301   2.391   0.548  14.494  0.3922 -0.3513  0.1283
  214MPD1    C1 3302   2.389   0.537  14.636  1.0170 -0.4801  0.0978
  214MPD1    C2 3303   2.442   0.644  14.715  0.0480  0.0168 -0.3738
  214MPD1    C3 3304   2.497   0.755  14.649 -0.3055 -0.6299 -0.1299
  214MPD1    C4 3305   2.488   0.762  14.507 -0.3551  0.0773 -1.2172
  214MPD1    C5 3306   2.434   0.659  14.433 -0.2709  0.0667  0.7464
  214MPD1     H 3307   2.435   0.633  14.823 -0.4184 -0.3893 -0.4439
  214MPD1    H1 3308   2.517   0.845  14.443  1.4485  0.6301  0.3485
  214MPD1    H2 3309   2.356   0.461  14.440 -0.6116 -0.4227  0.8925
  214MPD1    H3 3310   2.423   0.655  14.325 -2.3961  0.5602  0.9328
  214MPD1     N 3311   2.555   0.861  14.720 -0.5582  1.2630 -0.4233
  214MPD1    H5 3312   2.587   0.936  14.660 -0.8910  0.3561 -1.7451
  214MPD1    N1 3313   2.351   0.415  14.702  0.6611 -0.3722  0.4227
  214MPD1    H6 3314   2.323   0.436  14.797 -1.5485 -3.1524  0.3803
  214MPD1    H7 3315   2.282   0.365  14.645  0.3195  0.1984  0.3376
  215MPD1     C 3316   2.242   2.470  10.912 -0.4151  0.3005 -0.3914
  215MPD1    C1 3317   2.342   2.433  11.001 -0.1822 -0.0537  0.0187
  215MPD1    C2 3318   2.351   2.491  11.130 -0.0681  0.2585 -0.4456
  215MPD1    C3 3319   2.269   2.603  11.166  0.2237  0.1153 -0.6636
  215MPD1    C4 3320   2.167   2.633  11.080 -0.1491 -0.4734 -0.6066
  215MPD1    C5 3321   2.152   2.570  10.954 -0.0199 -0.6039  0.0078
  215MPD1     H 3322   2.424   2.440  11.191 -1.9748  1.1767  2.6071
  215MPD1    H1 3323   2.091   2.702  11.116 -1.9186 -1.9199 -1.5532
  215MPD1    H2 3324   2.228   2.424  10.815 -0.6510 -1.6980  0.5936
  215MPD1    H3 3325   2.057   2.583  10.902 -0.1493  1.0705  0.6315
  215MPD1     N 3326   2.294   2.667  11.287  0.3918  0.5824  0.5464
  215MPD1    H5 3327   2.378   2.649  11.341  1.0476  0.5620 -0.4701
  215MPD1    N1 3328   2.418   2.321  10.968  0.1813 -0.1056  0.1244
  215MPD1    H6 3329   2.425   2.307  10.868 -1.3878 -0.5855  0.0817
  215MPD1    H7 3330   2.515   2.330  10.999  0.5584  2.1214 -1.7581
  216MPD1     C 3331   0.145   0.124  16.583 -0.2837 -0.5043  0.1187
  216MPD1    C1 3332   0.067   0.009  16.568 -0.5021 -0.5255  0.2170
  216MPD1    C2 3333   0.103   4.636  16.653  0.6044  0.0577  0.3740
  216MPD1    C3 3334   0.219   4.634  16.722 -0.3293 -0.4199 -0.3062
  216MPD1    C4 3335   0.301   0.008  16.723 -0.7070  0.3007  0.0665
  216MPD1    C5 3336   0.262   0.125  16.660  0.4054 -0.1418  0.4389
  216MPD1     H 3337   0.049   4.546  16.627  0.6934 -0.4801  2.0585
  216MPD1    H1 3338   0.396   0.016  16.776  0.0720 -0.4656 -1.2088
  216MPD1    H2 3339   0.119   0.216  16.534 -2.5372 -0.8510  0.6903
  216MPD1    H3 3340   0.321   0.214  16.674 -1.1343  1.0839 -0.9438
  216MPD1     N 3341   0.264   4.515  16.782  0.5355  0.6663  0.1761
  216MPD1    H5 3342   0.205   4.432  16.782  1.6699 -0.1611 -0.6350
  216MPD1    N1 3343   4.679   0.013  16.508  0.4539  0.2029 -0.6419
  216MPD1    H6 3344   4.657   4.658  16.464  1.2941 -0.9966  1.3962
  216MPD1    H7 3345   4.664   0.076  16.429 -0.7538  0.3029 -0.3316
  217MPD1     C 3346   0.864   3.244   9.059  0.5656 -0.2192  0.1825
  217MPD1    C1 3347   0.845   3.185   8.936 -0.3232 -0.1474 -0.4696
  217MPD1    C2 3348   0.778   3.066   8.931  0.1108 -0.0654 -0.0792
  217MPD1    C3 3349   0.715   3.009   9.042 -0.3363  0.3881  0.4536
  217MPD1    C4 3350   0.732   3.066   9.166  0.1890  0.4363  0.6747
  217MPD1    C5 3351   0.813   3.181   9.171  0.7910  0.3543 -0.3309
  217MPD1     H 3352   0.777   3.015   8.835  0.8693  1.3992 -0.8865
  217MPD1    H1 3353   0.683   3.023   9.253  0.7168 -0.5717  0.4792
  217MPD1    H2 3354   0.924   3.333   9.079  0.2987 -0.2262  0.9966
  217MPD1    H3 3355   0.839   3.226   9.265  0.5883  2.1737 -1.1555
  217MPD1     N 3356   0.630   2.890   9.044  0.1478 -0.1011  0.1260
  217MPD1    H5 3357   0.595   2.861   9.135 -0.3787  0.1988  0.0170
  217MPD1    N1 3358   0.923   3.222   8.830 -0.2301 -0.0566  0.0068
  217MPD1    H6 3359   0.961   3.316   8.829  1.2199 -0.6444  0.4526
  217MPD1    H7 3360   0.876   3.214   8.740 -1.1180  0.0042  0.4614
  218MPD1     C 3361   2.089   1.190  12.511  0.1777 -0.1355 -0.4001
  218MPD1    C1 3362   2.220   1.231  12.522 -0.1948 -0.0402  0.1935
  218MPD1    C2 3363   2.242   1.360  12.565  0.1818  0.3879 -0.1393
  218MPD1    C3 3364   2.145   1.457  12.580  0.5450  0.4378  0.1119
  218MPD1    C4 3365   2.012   1.413  12.553 -0.6630  0.5146  0.0201
  218MPD1    C5 3366   1.986   1.283  12.521  0.4252 -0.4591 -0.0327
  218MPD1     H 3367   2.340   1.383  12.607 -0.5264 -0.0464  1.7270
  218MPD1    H1 3368   1.928   1.482  12.554 -1.9071 -0.9796 -1.0243
  218MPD1    H2 3369   2.072   1.083  12.499  0.6253 -0.1990 -0.4719
  218MPD1    H3 3370   1.890   1.243  12.493  1.4665 -3.3714  0.5161
  218MPD1     N 3371   2.191   1.581  12.635  0.0661  0.1789 -0.0789
  218MPD1    H5 3372   2.288   1.582  12.666 -0.2897 -3.3923  1.0768
  218MPD1    N1 3373   2.319   1.140  12.546 -0.2604  0.0798  0.6004
  218MPD1    H6 3374   2.404   1.189  12.520  0.5080 -1.1606  0.7986
  218MPD1    H7 3375   2.318   1.061  12.483  0.2102 -0.2676  1.0242
  219MPD1     C 3376   1.765   2.427  13.053  0.5953  0.2529  0.4582
  219MPD1    C1 3377   1.903   2.439  13.071 -0.3764 -0.4740 -0.4925
  219MPD1    C2 3378   1.981   2.342  13.013  0.2738  0.0069  0.3701
  219MPD1    C3 3379   1.927   2.229  12.951 -0.4644  0.5328 -0.2867
  219MPD1    C4 3380   1.785   2.223  12.942  0.0951  0.0647 -1.0442
  219MPD1    C5 3381   1.704   2.323  12.996  0.5889 -0.0160  0.3896
  219MPD1     H 3382   2.088   2.361  13.015  0.1416  0.6852  0.8134
  219MPD1    H1 3383   1.731   2.144  12.891 -0.4585  0.2976 -0.8182
  219MPD1    H2 3384   1.706   2.514  13.079  3.0420  2.0035  0.1648
  219MPD1    H3 3385   1.596   2.314  12.997  0.6279 -0.5426 -0.1070
  219MPD1     N 3386   1.996   2.128  12.878  0.0765 -0.1089  0.1627
  219MPD1    H5 3387   1.938   2.074  12.814  0.5995 -1.6293  0.9643
  219MPD1    N1 3388   1.962   2.551  13.129  0.1586  0.2395 -0.0322
  219MPD1    H6 3389   2.051   2.538  13.175  0.2054  1.1713  0.1493
  219MPD1    H7 3390   1.893   2.597  13.189 -0.1857 -0.8338  0.4005
  220MPD1     C 3391   2.275   3.922  10.070 -0.2610  0.7501 -0.3716
  220MPD1    C1 3392   2.370   3.908  10.159 -0.0775  0.4030 -0.7651
  220MPD1    C2 3393   2.351   3.831  10.271 -0.1356  0.6673 -0.3419
  220MPD1    C3 3394   2.245   3.741  10.278 -0.0525  0.1365  0.6373
  220MPD1    C4 3395   2.147   3.751  10.185 -0.6377  0.4166  0.4572
  220MPD1    C5 3396   2.163   3.844  10.079 -0.1920 -0.2454 -0.3526
  220MPD1     H 3397   2.421   3.841  10.354  1.8602 -3.0805 -1.5746
  220MPD1    H1 3398   2.044   3.717  10.190 -0.5775 -0.1430 -1.8193
  220MPD1    H2 3399   2.268   4.001   9.996  2.3806  1.8779  0.5724
  220MPD1    H3 3400   2.083   3.864  10.008 -0.9120  3.4273  1.4610
  220MPD1     N 3401   2.231   3.652  10.388  0.0465 -0.3586 -0.3839
  220MPD1    H5 3402   2.303   3.662  10.460 -0.0569  1.5337 -0.5446
  220MPD1    N1 3403   2.484   3.994  10.159  0.4691 -0.1109  0.4324
  220MPD1    H6 3404   2.512   4.027  10.067 -1.1384 -1.4491 -0.5419
  220MPD1    H7 3405   2.567   3.959  10.207  1.2580  0.9550 -0.1718
  221MPD1     C 3406   1.094   0.517  17.259  0.0841  0.1845  0.6023
  221MPD1    C1 3407   0.956   0.521  17.286  0.0860  0.2986 -0.0782
  221MPD1    C2 3408   0.882   0.622  17.231  0.0213  1.0224 -0.0007
  221MPD1    C3 3409   0.941   0.714  17.135  0.3083 -0.7536  0.9861
  221MPD1    C4 3410   1.076   0.708  17.118  0.1347 -0.2330  0.2616
  221MPD1    C5 3411   1.157   0.608  17.176  0.3381  0.3623  0.6566
  221MPD1     H 3412   0.781   0.616  17.268 -0.5138 -0.8097 -1.7620
  221MPD1    H1 3413   1.128   0.777  17.051  0.3725 -0.4507  0.2209
  221MPD1    H2 3414   1.160   0.455  17.319  2.5480  0.7576 -1.4971
  221MPD1    H3 3415   1.264   0.611  17.159  0.1934 -0.3200 -0.3436
  221MPD1     N 3416   0.863   0.814  17.067  0.4337  0.2208  0.5849
  221MPD1    H5 3417   0.911   0.870  16.998  0.1470  1.3699  1.3163
  221MPD1    N1 3418   0.907   0.446  17.392 -0.1545  0.4331 -0.0096
  221MPD1    H6 3419   0.808   0.422  17.391  0.1145 -0.8006  3.7444
  221MPD1    H7 3420   0.964   0.371  17.430 -1.8281 -1.6072 -1.4636
  222MPD1     C 3421   3.653   0.230   1.379 -0.5851  0.0036 -0.4806
  222MPD1    C1 3422   3.611   0.339   1.311  0.5462 -1.4357  0.0766
  222MPD1    C2 3423   3.685   0.452   1.327 -0.0706 -0.4835  0.1060
  222MPD1    C3 3424   3.801   0.463   1.405 -0.9024  0.5746 -0.0989
  222MPD1    C4 3425   3.845   0.350   1.467 -0.1048 -0.5092  1.0715
  222MPD1    C5 3426   3.762   0.240   1.460  0.2532  0.3381 -0.6412
  222MPD1     H 3427   3.657   0.538   1.268  0.5723  0.8018  1.6531
  222MPD1    H1 3428   3.928   0.353   1.536 -0.1645  1.6055  1.0548
  222MPD1    H2 3429   3.612   0.130   1.379 -0.9545  0.1556 -0.8949
  222MPD1    H3 3430   3.780   0.150   1.518 -1.0926  2.0887  2.4592
  222MPD1     N 3431   3.873   0.582   1.420  0.0155 -0.4133  0.3066
  222MPD1    H5 3432   3.965   0.576   1.461  0.5839 -1.6447 -1.1611
  222MPD1    N1 3433   3.492   0.335   1.235 -0.0816  0.3892  0.6582
  222MPD1    H6 3434   3.441   0.248   1.221 -1.7495  1.5879 -0.5179
  222MPD1    H7 3435   3.502   0.381   1.145  1.1880 -0.6793  0.2420
  223MPD1     C 3436   4.438   0.835   2.045  0.0917  0.6067 -0.1584
  223MPD1    C1 3437   4.339   0.741   2.030 -0.0506 -1.0823 -0.2321
  223MPD1    C2 3438   4.261   0.751   1.917  1.0715  0.1487 -0.0191
  223MPD1    C3 3439   4.276   0.851   1.824 -0.6156  0.2638 -0.0154
  223MPD1    C4 3440   4.371   0.954   1.849 -0.2709  0.8181 -0.2530
  223MPD1    C5 3441   4.448   0.946   1.967  0.3923  0.0847 -0.5728
  223MPD1     H 3442   4.174   0.687   1.901 -1.5812  3.6086  0.5532
  223MPD1    H1 3443   4.386   1.036   1.780  0.1352  1.3908  0.5290
  223MPD1    H2 3444   4.512   0.826   2.124 -0.4963 -0.3900  0.2766
  223MPD1    H3 3445   4.524   1.016   1.999 -0.8505  0.1101  2.3589
  223MPD1     N 3446   4.196   0.838   1.706 -0.0678 -0.3114 -0.2998
  223MPD1    H5 3447   4.123   0.767   1.703 -0.1520 -0.1572 -1.8592
  223MPD1    N1 3448   4.325   0.640   2.125  0.1278 -0.1047  0.6478
  223MPD1    H6 3449   4.365   0.670   2.214 -0.2705 -0.3442  0.9049
  223MPD1    H7 3450   4.227   0.632   2.148  0.4295  1.4070  2.3582
  224MPD1     C 3451   2.024   2.588   9.501  0.2546 -0.6115 -0.2645
  224MPD1    C1 3452   2.014   2.465   9.452  0.6971 -0.8868  0.9085
  224MPD1    C2 3453   1.892   2.424   9.397  0.0386  0.1348 -1.1707
  224MPD1    C3 3454   1.786   2.507   9.405 -0.0088  0.0260 -0.7911
  224MPD1    C4 3455   1.799   2.629   9.463  0.6391 -0.0269  0.7092
  224MPD1    C5 3456   1.917   2.667   9.521  1.1141 -0.6003  0.4338
  224MPD1     H 3457   1.884   2.324   9.354 -0.4434 -0.9616  1.4485
  224MPD1    H1 3458   1.714   2.696   9.465 -0.0283 -0.8483 -0.2089
  224MPD1    H2 3459   2.116   2.626   9.545 -1.1400  0.2158  1.9323
  224MPD1    H3 3460   1.940   2.767   9.557  0.7479 -0.5219  0.4588
  224MPD1     N 3461   1.655   2.462   9.369  0.5041 -0.0375 -0.3545
  224MPD1    H5 3462   1.584   2.535   9.365 -0.5355 -0.8947  2.4312
  224MPD1    N1 3463   2.123   2.383   9.429  0.2336 -0.4936 -0.3813
  224MPD1    H6 3464   2.109   2.282   9.440 -2.0154 -0.0521  0.8045
  224MPD1    H7 3465   2.208   2.403   9.481  0.9524 -2.2647 -0.8544
  225MPD1     C 3466   2.416   3.014  12.650  0.7450 -0.4898  0.2271
  225MPD1    C1 3467   2.380   2.931  12.539 -0.3088  0.0467 -0.3783
  225MPD1    C2 3468   2.249   2.914  12.505 -0.4067  0.2152  0.7184
  225MPD1    C3 3469   2.146   2.960  12.586  0.1412 -0.6470 -0.4363
  225MPD1    C4 3470   2.175   3.029  12.706 -0.4628 -0.0882  1.1165
  225MPD1    C5 3471   2.308   3.059  12.732 -0.2219  0.3203  0.4107
  225MPD1     H 3472   2.229   2.866  12.409 -1.8214  2.8854 -0.3230
  225MPD1    H1 3473   2.099   3.073  12.770 -1.6556  0.2803 -0.5485
  225MPD1    H2 3474   2.516   3.041  12.681  0.0168  0.5019  1.7687
  225MPD1    H3 3475   2.342   3.109  12.823  0.2756  1.5491 -0.4516
  225MPD1     N 3476   2.013   2.935  12.558 -0.2027 -0.0013 -0.1578
  225MPD1    H5 3477   1.954   2.957  12.638  0.5116  1.6544 -0.0998
  225MPD1    N1 3478   2.488   2.908  12.449 -0.5485 -0.6477 -0.2222
  225MPD1    H6 3479   2.576   2.887  12.496 -0.5034 -0.6505 -0.3082
  225MPD1    H7 3480   2.468   2.818  12.407 -3.1815 -0.0247 -0.3000
  226MPD1     C 3481   1.206   2.063   8.622 -0.6149  0.2144 -0.1351
  226MPD1    C1 3482   1.183   2.185   8.565  0.3457 -0.1603  0.7160
  226MPD1    C2 3483   1.105   2.278   8.644  1.0934 -0.5038  0.4343
  226MPD1    C3 3484   1.060   2.247   8.772  0.0408 -0.4631 -0.3207
  226MPD1    C4 3485   1.089   2.128   8.823 -0.6290  0.7875 -0.2890
  226MPD1    C5 3486   1.163   2.038   8.750  0.5345 -0.5422 -0.5452
  226MPD1     H 3487   1.091   2.379   8.607 -3.3802 -0.6309  1.7704
  226MPD1    H1 3488   1.061   2.099   8.924 -2.5913 -0.0172 -1.0600
  226MPD1    H2 3489   1.257   1.988   8.563 -2.1233 -0.8291 -0.1370
  226MPD1    H3 3490   1.177   1.935   8.782 -2.8430 -0.4896  1.0841
  226MPD1     N 3491   0.977   2.342   8.831 -0.5651 -0.0530 -0.9211
  226MPD1    H5 3492   0.948   2.420   8.772 -2.5378 -0.0272  0.0675
  226MPD1    N1 3493   1.236   2.217   8.438 -0.3068  0.2464  0.3520
  226MPD1    H6 3494   1.291   2.141   8.399 -0.1267  1.0041 -0.8508
  226MPD1    H7 3495   1.285   2.305   8.450  2.0993 -1.3142  1.8903
  227MPD1     C 3496   0.230   2.330   9.499 -0.0616  0.4700  0.4946
  227MPD1    C1 3497   0.270   2.246   9.393  1.3409  0.4973 -0.1421
  227MPD1    C2 3498   0.390   2.283   9.321  0.0508  0.0568  0.6145
  227MPD1    C3 3499   0.459   2.399   9.353 -0.2163  0.3759  0.5368
  227MPD1    C4 3500   0.410   2.480   9.449 -0.4430  0.4054  0.6027
  227MPD1    C5 3501   0.293   2.450   9.516  0.1771  0.5585  0.4386
  227MPD1     H 3502   0.422   2.216   9.242 -2.5927 -0.5644  0.0692
  227MPD1    H1 3503   0.461   2.570   9.484  0.0249  0.1300  0.6265
  227MPD1    H2 3504   0.139   2.313   9.556 -0.3221 -0.0747 -0.0891
  227MPD1    H3 3505   0.263   2.523   9.591  3.7600 -0.6321  3.0541
  227MPD1     N 3506   0.581   2.424   9.284 -0.2417 -0.2819  0.3597
  227MPD1    H5 3507   0.609   2.352   9.217 -0.5284  1.3398 -1.5006
  227MPD1    N1 3508   0.208   2.121   9.368  0.0867  0.4207 -0.0997
  227MPD1    H6 3509   0.207   2.104   9.268 -0.3676 -1.4232  0.2113
  227MPD1    H7 3510   0.113   2.128   9.403 -0.6912 -0.3399 -2.0768
  228MPD1     C 3511   4.307   0.020  12.721  0.2493 -0.1326  0.4118
  228MPD1    C1 3512   4.305   0.142  12.661 -0.1766 -0.5194 -0.1406
  228MPD1    C2 3513   4.186   0.209  12.645  0.1862 -0.2412  0.4078
  228MPD1    C3 3514   4.063   0.147  12.676 -0.4568 -0.3962 -0.1909
  228MPD1    C4 3515   4.075   0.023  12.738  0.0190  0.2674 -0.5753
  228MPD1    C5 3516   4.197   4.698  12.765  0.2458 -0.3579 -0.5891
  228MPD1     H 3517   4.191   0.303  12.590 -1.4351 -0.7140 -0.5434
  228MPD1    H1 3518   3.991   4.695  12.766  0.4783  0.5116  1.3385
  228MPD1    H2 3519   4.396   4.694  12.735  1.5099  2.2220  2.4922
  228MPD1    H3 3520   4.194   4.601  12.811 -3.0839  0.1678  0.2516
  228MPD1     N 3521   3.948   0.226  12.672  0.0597 -0.5795 -0.6689
  228MPD1    H5 3522   3.967   0.323  12.648  0.5258 -0.8312 -1.3181
  228MPD1    N1 3523   4.427   0.197  12.629 -0.1860  0.0520  0.3144
  228MPD1    H6 3524   4.405   0.281  12.576  3.3195  0.0644 -1.1124
  228MPD1    H7 3525   4.481   0.146  12.559 -1.5430  0.9106 -1.3778
  229MPD1     C 3526   3.081   4.022  14.752 -0.3762 -0.4759 -0.2712
  229MPD1    C1 3527   3.176   4.100  14.797  0.1167  0.3151  0.1886
  229MPD1    C2 3528   3.236   4.067  14.918 -0.6012  1.1349 -0.0304
  229MPD1    C3 3529   3.206   3.952  14.984 -0.8668 -0.1110 -0.3507
  229MPD1    C4 3530   3.111   3.872  14.927  0.1395 -0.0276 -0.1555
  229MPD1    C5 3531   3.055   3.905  14.807  0.1513 -0.5822 -0.4113
  229MPD1     H 3532   3.320   4.130  14.945  0.9981 -0.2074 -1.8324
  229MPD1    H1 3533   3.082   3.774  14.965  1.0635 -0.2752 -0.0674
  229MPD1    H2 3534   3.031   4.047  14.659 -2.2349 -0.1840  0.7940
  229MPD1    H3 3535   2.976   3.841  14.769 -1.7562  2.3653 -1.4036
  229MPD1     N 3536   3.267   3.898  15.103 -0.1003 -0.0407  0.6733
  229MPD1    H5 3537   3.230   3.812  15.143  1.3076 -0.1743  1.7002
  229MPD1    N1 3538   3.197   4.228  14.744  0.6310  0.2041  0.3976
  229MPD1    H6 3539   3.291   4.266  14.756  0.5068 -0.1591  2.4924
  229MPD1    H7 3540   3.172   4.236  14.646 -0.5889  0.1254  0.6976
  230MPD1     C 3541   3.445   4.199  16.023  0.6301 -0.5164 -0.3266
  230MPD1    C1 3542   3.350   4.228  15.916 -0.6917 -0.1658 -0.5284
  230MPD1    C2 3543   3.368   4.169  15.793  0.4664  0.8016  0.0743
  230MPD1    C3 3544   3.488   4.089  15.777  0.1837 -0.1333 -0.1969
  230MPD1    C4 3545   3.581   4.068  15.875 -0.6098  0.8280 -0.3757
  230MPD1    C5 3546   3.551   4.117  16.002 -0.1771 -0.5621 -0.6819
  230MPD1     H 3547   3.286   4.188  15.724  0.7474  0.0589 -0.4628
  230MPD1    H1 3548   3.668   4.005  15.862 -0.2695  1.5036 -1.3840
  230MPD1    H2 3549   3.442   4.253  16.117  0.7077 -0.1687 -0.5248
  230MPD1    H3 3550   3.623   4.114  16.082 -0.8655 -2.1136 -0.1207
  230MPD1     N 3551   3.497   4.027  15.651 -0.1035 -0.2024  0.4620
  230MPD1    H5 3552   3.416   4.051  15.596  0.6788  0.6868 -0.2790
  230MPD1    N1 3553   3.239   4.307  15.947 -0.1103 -0.5901 -0.1001
  230MPD1    H6 3554   3.191   4.335  15.862  1.5301  0.5509 -0.6492
  230MPD1    H7 3555   3.273   4.389  15.997 -0.4557  0.2440 -1.2409
  231MPD1     C 3556   2.197   1.303  15.182  0.0706  0.4435  0.2059
  231MPD1    C1 3557   2.178   1.249  15.055 -0.7537 -0.5176  0.2229
  231MPD1    C2 3558   2.247   1.309  14.953  0.1547  0.0100  0.6397
  231MPD1    C3 3559   2.328   1.421  14.967  0.1567 -0.6613 -0.0679
  231MPD1    C4 3560   2.345   1.466  15.095  0.4000 -0.1200  0.0525
  231MPD1    C5 3561   2.278   1.410  15.201  0.8414 -0.0151 -0.3036
  231MPD1     H 3562   2.243   1.266  14.853  4.1408  2.1389 -0.4037
  231MPD1    H1 3563   2.401   1.552  15.132  0.7846 -1.0332  1.5897
  231MPD1    H2 3564   2.157   1.265  15.275 -0.3408  1.6620  0.5317
  231MPD1    H3 3565   2.280   1.459  15.297  0.4117 -0.0053 -0.2984
  231MPD1     N 3566   2.397   1.474  14.852  0.2428 -0.9268  0.1986
  231MPD1    H5 3567   2.363   1.435  14.764  0.7209 -3.3964  1.1182
  231MPD1    N1 3568   2.114   1.122  15.041 -0.4763 -0.0854 -0.3442
  231MPD1    H6 3569   2.065   1.111  14.953  1.4281 -0.5924 -1.3374
  231MPD1    H7 3570   2.043   1.109  15.113  1.7711  0.0157  1.8699
  232MPD1     C 3571   4.149   3.887   0.228 -0.0455  0.0352 -0.2662
  232MPD1    C1 3572   4.035   3.923   0.157 -0.3523 -0.3284  0.2932
  232MPD1    C2 3573   3.980   3.831   0.066  0.3110 -0.1906 -0.3956
  232MPD1    C3 3574   4.007   3.700   0.082  0.5636  0.0234 -0.3946
  232MPD1    C4 3575   4.118   3.659   0.161  0.2227  0.0852 -0.0897
  232MPD1    C5 3576   4.196   3.754   0.228 -0.0488  0.3713  0.2082
  232MPD1     H 3577   3.895   3.863   0.007  0.4814  0.6732 -0.1722
  232MPD1    H1 3578   4.139   3.555   0.185 -1.7180 -0.4571 -0.7565
  232MPD1    H2 3579   4.204   3.960   0.286  1.6852 -1.1589 -0.3919
  232MPD1    H3 3580   4.281   3.726   0.289 -1.4975 -1.5583  1.3555
  232MPD1     N 3581   3.905   3.614   0.027 -0.0990 -0.2432  0.6048
  232MPD1    H5 3582   3.815   3.652  17.734 -0.3873 -0.1920  1.5662
  232MPD1    N1 3583   3.991   4.059   0.160 -0.2100  0.0542 -0.1449
  232MPD1    H6 3584   3.903   4.074   0.112 -0.4076 -2.0604 -0.4207
  232MPD1    H7 3585   4.009   4.114   0.244 -0.7152  1.2487 -0.8047
  233MPD1     C 3586   3.725   2.346   1.937  0.5279 -0.2139 -0.9605
  233MPD1    C1 3587   3.712   2.211   1.906  0.7511 -0.0292  0.0952
  233MPD1    C2 3588   3.800   2.163   1.807  0.1922  0.8473  0.9115
  233MPD1    C3 3589   3.887   2.251   1.737  0.0413 -0.6603 -0.0152
  233MPD1    C4 3590   3.879   2.386   1.767 -0.1004  0.5780 -0.3266
  233MPD1    C5 3591   3.795   2.439   1.863  0.4367  0.0761 -0.4142
  233MPD1     H 3592   3.800   2.057   1.785  0.1740  1.0599 -0.0897
  233MPD1    H1 3593   3.938   2.461   1.716 -0.3859  0.8205 -0.3018
  233MPD1    H2 3594   3.691   2.387   2.031 -0.1121  0.4690 -1.4773
  233MPD1    H3 3595   3.793   2.545   1.884 -1.0015  0.0568 -0.4899
  233MPD1     N 3596   3.970   2.224   1.632  0.1745 -0.3286  0.3444
  233MPD1    H5 3597   4.006   2.304   1.580  0.0914 -0.8272 -0.4892
  233MPD1    N1 3598   3.638   2.124   1.989 -0.4933 -0.1642 -0.0791
  233MPD1    H6 3599   3.607   2.032   1.961  0.2364 -0.0032 -1.3786
  233MPD1    H7 3600   3.559   2.178   2.025  0.5781 -0.7519  3.2277
  234MPD1     C 3601   0.145   1.071   8.677 -1.2158 -0.3759 -0.0191
  234MPD1    C1 3602   0.134   1.209   8.656  0.2464  0.1328  0.4944
  234MPD1    C2 3603   0.223   1.290   8.726 -0.4577  0.9731  0.0782
  234MPD1    C3 3604   0.329   1.240   8.798 -0.2410 -0.1226  0.2466
  234MPD1    C4 3605   0.341   1.108   8.812 -0.0507  0.7632 -0.7605
  234MPD1    C5 3606   0.250   1.022   8.755 -0.1223 -0.7438  0.4252
  234MPD1     H 3607   0.215   1.394   8.698 -1.1981  1.4727  2.1161
  234MPD1    H1 3608   0.411   1.059   8.878 -0.3289  1.7975  0.3079
  234MPD1    H2 3609   0.076   0.997   8.638 -1.5653  0.1892 -0.4679
  234MPD1    H3 3610   0.258   0.915   8.776  0.0139 -0.8773 -0.3146
  234MPD1     N 3611   0.417   1.338   8.850 -0.4395  0.2481 -0.3009
  234MPD1    H5 3612   0.402   1.435   8.822  0.9996  1.2321  2.2608
  234MPD1    N1 3613   0.032   1.257   8.584 -0.2138 -0.0666 -0.3013
  234MPD1    H6 3614   0.018   1.201   8.500  0.9856 -0.3719 -0.2888
  234MPD1    H7 3615   0.049   1.353   8.556  0.1183 -0.1774 -0.4739
  235MPD1     C 3616   2.453   3.931  10.826  0.3715 -0.0149 -0.5058
  235MPD1    C1 3617   2.378   3.966  10.716  0.0963  0.1341 -0.2398
  235MPD1    C2 3618   2.432   4.070  10.649  0.2823  0.7060  0.3930
  235MPD1    C3 3619   2.538   4.149  10.701  0.0469 -0.2336  0.5343
  235MPD1    C4 3620   2.616   4.111  10.810 -0.2403  0.0790 -0.1472
  235MPD1    C5 3621   2.554   4.013  10.885 -0.9106 -0.6514 -0.0356
  235MPD1     H 3622   2.389   4.103  10.555  0.0979 -0.7640 -0.0415
  235MPD1    H1 3623   2.705   4.158  10.851  1.6681 -1.9689 -1.8957
  235MPD1    H2 3624   2.447   3.838  10.881  0.8973  1.3889  1.8993
  235MPD1    H3 3625   2.602   3.977  10.976  0.7409 -0.6929 -0.9255
  235MPD1     N 3626   2.573   4.263  10.629  0.3911 -0.2420  0.0567
  235MPD1    H5 3627   2.511   4.278  10.549  0.2898 -2.7782 -0.3174
  235MPD1    N1 3628   2.298   3.876  10.653  0.9697 -0.2713 -0.7546
  235MPD1    H6 3629   2.231   3.929  10.598  0.7027  0.0096 -0.1625
  235MPD1    H7 3630   2.248   3.818  10.721  3.0512 -0.7191  0.3986
  236MPD1     C 3631   1.840   0.369   9.663 -0.2932 -0.5667 -0.7817
  236MPD1    C1 3632   1.773   0.308   9.764  0.1156 -0.1708  0.6196
  236MPD1    C2 3633   1.837   0.245   9.859  0.7316 -0.6402  0.0485
  236MPD1    C3 3634   1.975   0.252   9.868  0.2371  0.7154  0.4446
  236MPD1    C4 3635   2.050   0.327   9.781 -0.1354  0.0836 -0.4283
  236MPD1    C5 3636   1.980   0.373   9.674 -0.3592  0.7060  0.5800
  236MPD1     H 3637   1.779   0.190   9.932  1.5037 -2.8078 -0.9551
  236MPD1    H1 3638   2.156   0.347   9.792 -0.3969  2.5832 -2.2534
  236MPD1    H2 3639   1.790   0.418   9.580  0.6132 -0.0744 -1.0476
  236MPD1    H3 3640   2.031   0.432   9.599  0.7924 -2.2219 -0.9723
  236MPD1     N 3641   2.055   0.189   9.974 -0.4150 -0.0996 -0.2224
  236MPD1    H5 3642   2.153   0.215   9.977 -0.4497  0.0240 -0.1027
  236MPD1    N1 3643   1.633   0.306   9.760 -0.8080 -0.2420  0.1009
  236MPD1    H6 3644   1.592   0.391   9.721 -0.0004  0.7566  1.4377
  236MPD1    H7 3645   1.599   0.287   9.853 -0.9321  1.8051  0.4844
  237MPD1     C 3646   2.749   3.119  15.135 -0.5550  0.7397  0.5977
  237MPD1    C1 3647   2.656   3.220  15.143 -0.0015  0.3487  0.3176
  237MPD1    C2 3648   2.526   3.179  15.162 -0.2861 -0.2915 -1.0718
  237MPD1    C3 3649   2.484   3.046  15.157 -0.5598 -0.7107  0.6184
  237MPD1    C4 3650   2.579   2.957  15.135  0.0909 -0.1307 -0.1867
  237MPD1    C5 3651   2.710   2.992  15.129  0.5881 -0.7240 -0.5472
  237MPD1     H 3652   2.452   3.256  15.183  0.1885  0.6627 -2.8916
  237MPD1    H1 3653   2.562   2.850  15.139 -0.2814 -0.0475  0.6661
  237MPD1    H2 3654   2.852   3.144  15.115 -0.3465 -1.2890 -0.8431
  237MPD1    H3 3655   2.785   2.915  15.137  1.7367  0.4666  0.1604
  237MPD1     N 3656   2.355   3.012  15.203 -0.1223  0.0471 -0.1257
  237MPD1    H5 3657   2.306   3.081  15.257 -1.6738 -0.4509 -0.8990
  237MPD1    N1 3658   2.693   3.351  15.167 -0.1057  0.0466  0.0588
  237MPD1    H6 3659   2.775   3.364  15.108 -1.5534  2.0714 -1.5079
  237MPD1    H7 3660   2.622   3.420  15.146  0.0130  0.0491 -0.3267
  238MPD1     C 3661   4.260   1.228  15.357  0.1037  0.3737 -0.1615
  238MPD1    C1 3662   4.175   1.135  15.413  0.6649  0.8617 -0.4074
  238MPD1    C2 3663   4.062   1.109  15.341 -0.8989  0.2003 -0.4972
  238MPD1    C3 3664   4.035   1.167  15.219 -0.6600 -0.6233 -0.3929
  238MPD1    C4 3665   4.127   1.246  15.157  0.2509 -0.7986  0.7307
  238MPD1    C5 3666   4.241   1.275  15.230  0.1343 -0.2232  0.2181
  238MPD1     H 3667   3.988   1.048  15.392 -0.4030  0.3395  0.3870
  238MPD1    H1 3668   4.111   1.277  15.054  0.3674  1.8531  1.5084
  238MPD1    H2 3669   4.343   1.272  15.413  0.4443 -1.3404  0.6802
  238MPD1    H3 3670   4.320   1.334  15.187 -1.8898  2.5082  0.2138
  238MPD1     N 3671   3.920   1.139  15.137 -0.5799 -0.0128 -0.0303
  238MPD1    H5 3672   3.916   1.185  15.047 -2.0711  0.1206  0.1006
  238MPD1    N1 3673   4.189   1.102  15.550 -0.5277  0.0407 -0.0681
  238MPD1    H6 3674   4.165   1.004  15.556  1.3997 -0.5085 -1.3988
  238MPD1    H7 3675   4.288   1.095  15.574 -0.3613  0.7349 -0.5545
  239MPD1     C 3676   4.154   2.312  15.044 -0.2050 -0.5396 -1.2039
  239MPD1    C1 3677   4.251   2.368  14.962 -0.7127  0.1683 -0.1699
  239MPD1    C2 3678   4.208   2.403  14.838  0.9427  0.0355  0.2921
  239MPD1    C3 3679   4.073   2.386  14.798  0.7427 -0.7467  0.1110
  239MPD1    C4 3680   3.982   2.329  14.888  0.1427 -0.0916 -0.1564
  239MPD1    C5 3681   4.027   2.294  15.008 -0.1410  0.3511  0.0250
  239MPD1     H 3682   4.271   2.452  14.765 -0.1424  1.5849  0.4062
  239MPD1    H1 3683   3.878   2.318  14.859 -0.1372  1.4455  0.2507
  239MPD1    H2 3684   4.171   2.293  15.149  0.0822 -3.0748 -1.7212
  239MPD1    H3 3685   3.954   2.256  15.079  1.0061 -0.9048  0.5474
  239MPD1     N 3686   4.027   2.425  14.671 -0.7703  0.4259  0.0526
  239MPD1    H5 3687   3.927   2.415  14.660 -0.7687  1.7650 -1.2039
  239MPD1    N1 3688   4.390   2.379  14.994  0.1504 -0.2395 -0.1870
  239MPD1    H6 3689   4.433   2.461  14.952  1.8100 -0.7023  0.6158
  239MPD1    H7 3690   4.420   2.382  15.091  0.5227  0.4396 -0.3253
  240MPD1     C 3691   3.943   1.599  13.965  0.5189 -0.5065  0.1519
  240MPD1    C1 3692   3.815   1.630  13.976  0.5249  1.0396  0.1076
  240MPD1    C2 3693   3.747   1.623  14.099  0.6056  1.4413 -0.0707
  240MPD1    C3 3694   3.812   1.588  14.217 -0.4337  0.7095  0.5586
  240MPD1    C4 3695   3.944   1.552  14.201  0.0344 -0.0098 -0.0616
  240MPD1    C5 3696   4.008   1.553  14.078 -0.3751 -0.4103 -0.1658
  240MPD1     H 3697   3.641   1.645  14.110  0.3463  0.7254 -1.0955
  240MPD1    H1 3698   4.005   1.530  14.288 -0.4922 -0.9247  0.0749
  240MPD1    H2 3699   3.997   1.606  13.871 -0.8572  1.9148 -0.4557
  240MPD1    H3 3700   4.116   1.546  14.088 -0.3812 -1.4206 -0.7654
  240MPD1     N 3701   3.742   1.595  14.334  1.0107  0.7713 -0.7691
  240MPD1    H5 3702   3.650   1.639  14.328  0.4771 -0.3272 -0.5743
  240MPD1    N1 3703   3.749   1.676  13.858 -0.5648  0.2556  0.5270
  240MPD1    H6 3704   3.649   1.660  13.854 -0.5729  0.6955 -0.9629
  240MPD1    H7 3705   3.799   1.649  13.774 -1.6947  0.8030 -0.3168
  241MPD1     C 3706   3.940   1.594  15.298  0.7466  0.1871  0.5052
  241MPD1    C1 3707   3.865   1.479  15.284 -0.4958  1.3667  0.2919
  241MPD1    C2 3708   3.801   1.458  15.163  0.3942  0.4195 -0.2334
  241MPD1    C3 3709   3.802   1.553  15.061  0.0047  0.2251 -0.3548
  241MPD1    C4 3710   3.884   1.667  15.077 -0.3013 -0.5382 -0.5058
  241MPD1    C5 3711   3.954   1.685  15.196 -0.5923  1.0898  0.1056
  241MPD1     H 3712   3.739   1.369  15.157  1.8628 -0.6546  0.4293
  241MPD1    H1 3713   3.898   1.747  15.006  0.8822 -0.5413 -0.2870
  241MPD1    H2 3714   3.973   1.615  15.399  1.1209  0.7714  0.2614
  241MPD1    H3 3715   4.020   1.771  15.200  1.1415 -0.1090 -2.5799
  241MPD1     N 3716   3.737   1.543  14.935  0.3841 -0.4032  0.0435
  241MPD1    H5 3717   3.749   1.621  14.870 -1.1361 -0.9484 -0.8799
  241MPD1    N1 3718   3.840   1.390  15.389 -0.1757  0.0009  0.3535
  241MPD1    H6 3719   3.913   1.403  15.460  0.5476  0.3703 -0.4508
  241MPD1    H7 3720   3.831   1.294  15.358  0.6485 -0.7664  2.4429
  242MPD1     C 3721   2.845   0.723  15.691  0.2866 -0.6113  0.3662
  242MPD1    C1 3722   2.726   0.651  15.679 -0.1801  0.2901  0.2781
  242MPD1    C2 3723   2.713   0.540  15.595 -0.2992 -0.2534  1.0580
  242MPD1    C3 3724   2.821   0.519  15.504  0.7602 -0.5755  0.3805
  242MPD1    C4 3725   2.937   0.595  15.514 -0.4713 -0.8173 -0.2838
  242MPD1    C5 3726   2.953   0.692  15.611  0.5685 -0.3599 -0.1662
  242MPD1     H 3727   2.627   0.474  15.590  0.7491 -1.3153 -3.1224
  242MPD1    H1 3728   3.022   0.580  15.450  0.1582  1.7275 -0.0584
  242MPD1    H2 3729   2.853   0.811  15.754  1.9505 -0.5789  0.1165
  242MPD1    H3 3730   3.039   0.756  15.622 -1.2656  2.1278 -0.4035
  242MPD1     N 3731   2.824   0.419  15.405 -0.3849  0.0443  0.9729
  242MPD1    H5 3732   2.914   0.399  15.364 -1.3514 -1.9207 -0.2142
  242MPD1    N1 3733   2.623   0.684  15.769 -0.6525 -0.3019  0.6579
  242MPD1    H6 3734   2.531   0.667  15.730  0.1686  0.5582 -1.6772
  242MPD1    H7 3735   2.630   0.779  15.806 -0.6572  0.0632 -0.2786
  243MPD1     C 3736   0.572   4.540  17.303  0.0668 -0.2362  0.3128
  243MPD1    C1 3737   0.635   4.432  17.243  0.0231  0.1727  0.3881
  243MPD1    C2 3738   0.587   4.304  17.276  0.3288  0.1206 -0.2331
  243MPD1    C3 3739   0.484   4.284  17.370  1.0098  0.0044  0.1012
  243MPD1    C4 3740   0.423   4.394  17.426 -0.0837 -0.1917 -0.6312
  243MPD1    C5 3741   0.465   4.520  17.380  0.0612 -0.5870  0.2638
  243MPD1     H 3742   0.641   4.217  17.239  1.5387  0.4171  0.8617
  243MPD1    H1 3743   0.340   4.382  17.495 -0.2977  0.0985 -0.8393
  243MPD1    H2 3744   0.592   4.644  17.282  1.5877 -0.6798 -0.5070
  243MPD1    H3 3745   0.423   4.612  17.418  1.6974  0.3810 -0.2939
  243MPD1     N 3746   0.447   4.152  17.394  0.5616 -0.1885  1.0928
  243MPD1    H5 3747   0.501   4.081  17.346  0.4724  1.9613 -2.1700
  243MPD1    N1 3748   0.745   4.451  17.161 -0.1440 -1.3429 -0.3772
  243MPD1    H6 3749   0.768   4.376  17.096  0.3553  1.7248 -3.7641
  243MPD1    H7 3750   0.763   4.545  17.125  0.1314 -0.5949  1.7317
  244MPD1     C 3751   0.180   3.241   0.206  0.0436 -0.1250 -0.1180
  244MPD1    C1 3752   0.186   3.219   0.069 -0.2532 -0.1374  0.2098
  244MPD1    C2 3753   0.205   3.332  17.724 -0.0560  1.1164  0.8581
  244MPD1    C3 3754   0.216   3.463   0.037  0.0596  0.3084 -0.1697
  244MPD1    C4 3755   0.207   3.478   0.177 -0.3034 -0.3259  0.0600
  244MPD1    C5 3756   0.196   3.367   0.257  0.3809 -0.2573  0.1071
  244MPD1     H 3757   0.215   3.315  17.617 -1.6217 -1.3027  1.1001
  244MPD1    H1 3758   0.221   3.575   0.224 -1.5289  0.0484 -0.3379
  244MPD1    H2 3759   0.165   3.164   0.281  0.6530 -0.2334 -0.1083
  244MPD1    H3 3760   0.190   3.384   0.364  0.3200 -1.4975  0.3098
  244MPD1     N 3761   0.250   3.569  17.680  0.3194  0.3961  0.2708
  244MPD1    H5 3762   0.258   3.536  17.584  0.2564  0.7402  0.1502
  244MPD1    N1 3763   0.207   3.092   0.020 -0.1747 -0.4642 -0.0440
  244MPD1    H6 3764   0.158   3.022   0.075 -2.9146  0.4232 -1.4061
  244MPD1    H7 3765   0.202   3.073  17.656 -2.9036  0.7125 -0.1176
  245MPD1     C 3766   1.355   3.737  13.448 -0.8666 -0.0347  0.0930
  245MPD1    C1 3767   1.428   3.805  13.352 -0.2939 -0.5872 -0.0082
  245MPD1    C2 3768   1.524   3.898  13.396  0.3413 -0.2036  0.2533
  245MPD1    C3 3769   1.560   3.904  13.529  0.9931 -0.1195  0.0767
  245MPD1    C4 3770   1.490   3.833  13.618  0.7121  0.3039  0.2714
  245MPD1    C5 3771   1.385   3.755  13.581  0.0214  0.0184 -0.1477
  245MPD1     H 3772   1.575   3.962  13.325  0.2332  0.3622  0.6814
  245MPD1    H1 3773   1.510   3.842  13.724 -0.5551 -1.3164  0.6455
  245MPD1    H2 3774   1.281   3.660  13.431 -0.4045 -0.3894 -0.3055
  245MPD1    H3 3775   1.327   3.705  13.658  0.4971  0.3642  0.4324
  245MPD1     N 3776   1.637   4.021  13.563 -0.4131 -0.6739 -0.2265
  245MPD1    H5 3777   1.669   4.085  13.491  1.4486 -1.9610 -0.5543
  245MPD1    N1 3778   1.424   3.768  13.221  0.1277 -0.6609 -0.4148
  245MPD1    H6 3779   1.462   3.840  13.160  0.1865  0.7283  1.2489
  245MPD1    H7 3780   1.330   3.745  13.189  0.7758 -3.2758 -0.4356
  246MPD1     C 3781   2.460   1.992   9.791 -0.0298  0.1116 -0.3661
  246MPD1    C1 3782   2.431   1.875   9.717 -0.1119 -0.0354 -0.0854
  246MPD1    C2 3783   2.540   1.793   9.682 -0.1207  0.2367  0.1485
  246MPD1    C3 3784   2.670   1.813   9.734 -0.1326 -0.7456 -0.5031
  246MPD1    C4 3785   2.694   1.926   9.809 -0.8272  0.1991  0.7521
  246MPD1    C5 3786   2.592   2.008   9.831 -0.0098 -0.0220 -0.0386
  246MPD1     H 3787   2.525   1.711   9.613  2.6157 -0.4445  0.3750
  246MPD1    H1 3788   2.789   1.952   9.855 -0.5980 -2.4680  1.8145
  246MPD1    H2 3789   2.388   2.070   9.811 -0.5710  0.2479 -2.8688
  246MPD1    H3 3790   2.606   2.096   9.892 -1.4731 -1.0667  1.7963
  246MPD1     N 3791   2.763   1.713   9.703  0.2335 -0.2089  0.3567
  246MPD1    H5 3792   2.733   1.645   9.634 -2.4186 -0.2855  1.5689
  246MPD1    N1 3793   2.306   1.842   9.664 -0.1679  0.1699  0.3594
  246MPD1    H6 3794   2.292   1.742   9.653  0.7769  0.0095  0.5940
  246MPD1    H7 3795   2.232   1.878   9.723 -0.3697 -0.4486  0.4816
  247MPD1     C 3796   1.489   3.477  16.831 -0.1879  0.3431  0.8759
  247MPD1    C1 3797   1.521   3.594  16.758  0.4352  0.4847  0.5072
  247MPD1    C2 3798   1.453   3.603  16.637 -0.2830 -0.8025  0.5944
  247MPD1    C3 3799   1.366   3.505  16.585  0.4660 -0.5038 -0.1376
  247MPD1    C4 3800   1.340   3.394  16.662  0.6593 -0.0705 -0.4514
  247MPD1    C5 3801   1.400   3.384  16.784 -0.4494  0.6068  0.1030
  247MPD1     H 3802   1.477   3.684  16.569 -2.5341  1.0350  2.0055
  247MPD1    H1 3803   1.281   3.314  16.619 -0.7193  1.0588 -0.6656
  247MPD1    H2 3804   1.529   3.465  16.931 -1.2020 -2.2318  0.9722
  247MPD1    H3 3805   1.380   3.298  16.846 -1.1368 -0.6633 -1.8841
  247MPD1     N 3806   1.300   3.505  16.454  0.1541  0.2717  0.0165
  247MPD1    H5 3807   1.246   3.425  16.422  1.3741  0.0153 -1.3710
  247MPD1    N1 3808   1.586   3.708  16.813  0.1308 -0.3264  0.5284
  247MPD1    H6 3809   1.645   3.688  16.893  1.3304 -0.0518 -0.2859
  247MPD1    H7 3810   1.646   3.746  16.740 -0.9218 -0.9244 -0.6451
  248MPD1     C 3811   2.137   2.962   0.852 -0.0200 -0.0947 -0.2801
  248MPD1    C1 3812   2.171   3.036   0.958  0.3191  0.5159 -0.0060
  248MPD1    C2 3813   2.180   3.173   0.935  0.3082  0.0136  0.7299
  248MPD1    C3 3814   2.131   3.238   0.824 -0.9056 -0.3090  0.3918
  248MPD1    C4 3815   2.090   3.155   0.727  0.6223 -0.0907 -0.0196
  248MPD1    C5 3816   2.089   3.019   0.739  0.5506 -0.3654 -0.0792
  248MPD1     H 3817   2.217   3.236   1.015 -1.1568  0.5630  0.9708
  248MPD1    H1 3818   2.050   3.194   0.634  0.2265 -2.6157 -0.8950
  248MPD1    H2 3819   2.133   2.856   0.872  1.0082 -0.1980 -0.6306
  248MPD1    H3 3820   2.065   2.959   0.652  0.0669 -1.8265  1.0635
  248MPD1     N 3821   2.151   3.383   0.811  0.7183  0.2191 -0.0257
  248MPD1    H5 3822   2.178   3.429   0.897 -1.5834  0.7742  0.4089
  248MPD1    N1 3823   2.227   2.981   1.072  0.0619 -0.4867  0.6077
  248MPD1    H6 3824   2.193   2.891   1.106 -0.2499 -1.0182 -1.0768
  248MPD1    H7 3825   2.213   3.047   1.148 -1.2939  0.0875 -0.1330
  249MPD1     C 3826   1.992   2.626  10.436  0.6132 -0.1440 -0.2024
  249MPD1    C1 3827   2.034   2.698  10.336  0.4788  0.6139  0.4976
  249MPD1    C2 3828   2.171   2.735  10.346  0.0368  0.1262  0.7881
  249MPD1    C3 3829   2.251   2.724  10.455 -0.0813  0.2002  0.6970
  249MPD1    C4 3830   2.188   2.668  10.564 -0.7281  0.0979 -0.6136
  249MPD1    C5 3831   2.061   2.623  10.553 -0.5488  0.3329  0.2131
  249MPD1     H 3832   2.209   2.773  10.252 -1.2111 -1.9051 -0.5571
  249MPD1    H1 3833   2.228   2.656  10.664  0.6173 -0.1551 -1.1809
  249MPD1    H2 3834   1.890   2.588  10.436  0.2370  0.8588  0.1558
  249MPD1    H3 3835   2.020   2.576  10.641 -1.0330  1.1633  0.4232
  249MPD1     N 3836   2.385   2.767  10.454  0.1798  0.5083 -0.5554
  249MPD1    H5 3837   2.421   2.811  10.370  0.2246  1.0996 -0.2307
  249MPD1    N1 3838   1.967   2.685  10.216 -0.0726  0.3675 -0.3144
  249MPD1    H6 3839   1.865   2.675  10.220 -0.0886 -0.5599 -2.8623
  249MPD1    H7 3840   1.987   2.763  10.154 -2.7843  0.7325 -0.7308
  250MPD2     C 3841   0.590   2.335  13.204  0.1601  0.1321  0.7299
  250MPD2    C1 3842   0.468   2.392  13.239  0.0202  0.0012 -0.4574
  250MPD2    C2 3843   0.349   2.311  13.246  0.0354  0.5796  0.0993
  250MPD2    C3 3844   0.366   2.172  13.226  0.2431 -0.2416  0.3802
  250MPD2    C4 3845   0.487   2.122  13.183  0.4927  0.2410 -0.2720
  250MPD2    C5 3846   0.599   2.202  13.173 -0.5110 -0.4177 -0.1966
  250MPD2     H 3847   0.253   2.355  13.272  0.4481 -1.2608  4.7301
  250MPD2    H1 3848   0.495   2.015  13.169 -0.1236  0.2556 -0.7436
  250MPD2    H2 3849   0.683   2.390  13.206  0.7469 -0.8543  0.3861
  250MPD2    H3 3850   0.693   2.159  13.140 -1.2572 -1.6102 -0.7877
  250MPD2     N 3851   0.261   2.074  13.236 -0.4356 -0.1458  0.3853
  250MPD2    H5 3852   0.279   1.978  13.208  2.4359  0.0580  1.4519
  250MPD2    N1 3853   0.464   2.524  13.265  0.1582 -0.2667  0.7168
  250MPD2    H7 3854   0.552   2.574  13.251  0.6985 -1.6416 -0.7357
  251TMC3    C1 3855   0.389   2.750  13.266  0.0729  0.8375 -0.5273
  251TMC3    C2 3856   0.291   2.838  13.306 -0.6090 -0.4692 -0.0294
  251TMC3    C3 3857   0.324   2.970  13.289 -0.7153  0.1177  0.2881
  251TMC3    C4 3858   0.510   2.793  13.218  0.0340  0.0017  0.0013
  251TMC3    C5 3859   0.538   2.926  13.206  0.0504  0.2642  0.6439
  251TMC3    C6 3860   0.440   3.019  13.237  0.0393  0.5009 -0.2686
  251TMC3     C 3861   0.356   2.609  13.269 -0.4289  0.3541  0.5959
  251TMC3     O 3862   0.238   2.581  13.251 -0.0853  0.3003 -0.2022
  251TMC3     H 3863   0.196   2.804  13.345  0.5711 -0.7994  2.6005
  251TMC3    H1 3864   0.596   2.728  13.210  0.1481 -0.2285  3.0946
  251TMC3    H2 3865   0.452   3.122  13.207  0.1349 -0.3537 -3.1847
  251TMC3    C7 3866   0.661   2.961  13.132 -0.6846 -0.2794 -0.3107
  251TMC3    C8 3867   0.249   3.065  13.364  0.6873  0.4520 -0.7333
  251TMC3    O1 3868   0.721   2.863  13.083 -0.4079  0.1410  0.0175
  251TMC3    O2 3869   0.130   3.047  13.359  0.7842  0.5479 -0.0452
  252TMC3    C1 3870   0.268   4.703   9.444 -0.0689  0.1243  0.1878
  252TMC3    C2 3871   0.323   4.607   9.364 -0.3963 -0.4837  0.0618
  252TMC3    C3 3872   0.373   4.492   9.418 -0.3016 -0.5399 -0.2159
  252TMC3    C4 3873   0.256   4.690   9.589 -1.2440  0.1260  0.1080
  252TMC3    C5 3874   0.302   4.567   9.637  0.4685  0.6783 -0.6140
  252TMC3    C6 3875   0.356   4.470   9.551  0.0009 -0.5880  0.4743
  252TMC3     C 3876   0.266   0.103   9.386  0.0450 -0.0033 -1.1273
  252TMC3     O 3877   0.346   0.135   9.302 -0.3452 -0.0154 -0.0608
  252TMC3     H 3878   0.347   4.626   9.260 -2.3512 -1.9303 -0.6517
  252TMC3    H1 3879   0.234   0.037   9.657  0.0287 -0.1121  0.8048
  252TMC3    H2 3880   0.391   4.374   9.587 -1.6730 -1.3739 -0.0182
  252TMC3    C7 3881   0.291   4.557   9.782 -0.0086  0.1681 -0.1574
  252TMC3    C8 3882   0.493   4.442   9.352 -0.2652 -0.1473  0.0987
  252TMC3    O1 3883   0.284   4.663   9.842 -0.0950  0.2135  0.6123
  252TMC3    O2 3884   0.512   4.465   9.231 -0.2864 -0.1459  0.7286
  253MPD2     C 3885   1.500   2.713  14.847  0.3229  0.0764  0.1888
  253MPD2    C1 3886   1.478   2.592  14.902  1.0022  0.2664 -0.1312
  253MPD2    C2 3887   1.461   2.589  15.043  0.2782  0.8160 -0.2645
  253MPD2    C3 3888   1.474   2.709  15.121 -0.0241 -0.0917 -0.1756
  253MPD2    C4 3889   1.508   2.827  15.058 -0.0604  0.8416  0.1644
  253MPD2    C5 3890   1.527   2.828  14.925 -0.9296  0.3460 -0.1199
  253MPD2     H 3891   1.425   2.497  15.088  0.4962  1.4463  1.2004
  253MPD2    H1 3892   1.535   2.916  15.114 -0.3844  0.1741  1.3668
  253MPD2    H2 3893   1.494   2.728  14.740 -2.7505  1.3947  0.5623
  253MPD2    H3 3894   1.550   2.924  14.881  1.3483 -0.1581 -0.0478
  253MPD2     N 3895   1.476   2.705  15.259  0.1987 -0.1369 -0.0464
  253MPD2    H5 3896   1.494   2.789  15.314 -2.5245  1.3613 -1.4412
  253MPD2    N1 3897   1.454   2.478  14.827 -0.3459  0.7462 -0.3723
  253MPD2    H7 3898   1.413   2.395  14.869  0.4203  0.6780  0.2329
  254TMC3    C1 3899   1.466   2.586  15.468 -0.8299  0.9174 -0.5973
  254TMC3    C2 3900   1.341   2.630  15.500  0.2437  0.5409 -0.2726
  254TMC3    C3 3901   1.281   2.566  15.605 -0.3295  0.4903  0.4955
  254TMC3    C4 3902   1.526   2.478  15.533 -0.1152 -0.1753  0.1996
  254TMC3    C5 3903   1.459   2.411  15.634 -0.0231 -0.1318 -0.5622
  254TMC3    C6 3904   1.332   2.454  15.667 -0.1038  0.7593 -0.9408
  254TMC3     C 3905   1.508   2.595  15.326  0.7352  0.2816 -0.2533
  254TMC3     O 3906   1.548   2.483  15.287  0.5212  0.0577 -0.2647
  254TMC3     H 3907   1.304   2.719  15.451  0.6205  0.4043 -0.8060
  254TMC3    H1 3908   1.623   2.442  15.499  0.1225  1.6401 -1.0411
  254TMC3    H2 3909   1.274   2.418  15.751  2.7080  1.3107  1.2335
  254TMC3    C7 3910   1.535   2.325  15.731  0.3471 -0.5422 -0.6851
  254TMC3    C8 3911   1.190   2.640  15.694 -0.2562  0.6575  0.2581
  254TMC3    O1 3912   1.474   2.266  15.821 -0.1873 -0.4018 -0.1191
  254TMC3    O2 3913   1.227   2.634  15.812 -0.1666 -0.2915  0.6487
  255MPD2     C 3914   4.332   0.590   9.924  0.5775 -0.3687 -0.6056
  255MPD2    C1 3915   4.438   0.651   9.854 -0.1743  0.4049  0.5118
  255MPD2    C2 3916   4.546   0.577   9.819 -0.9799 -0.0553 -0.0711
  255MPD2    C3 3917   4.556   0.444   9.858 -0.3836 -0.1134 -0.6757
  255MPD2    C4 3918   4.454   0.390   9.942  0.3801  0.6647 -0.0902
  255MPD2    C5 3919   4.351   0.471   9.979 -0.5434  0.4703  0.2878
  255MPD2     H 3920   4.620   0.619   9.751  1.2337  2.0237  3.6736
  255MPD2    H1 3921   4.457   0.288   9.979  0.6285  0.6137 -0.2526
  255MPD2    H2 3922   4.246   0.650   9.952  1.6910  0.1007  1.8103
  255MPD2    H3 3923   4.280   0.433  10.051  1.2354 -5.0757 -0.9460
  255MPD2     N 3924   4.656   0.351   9.826 -1.0646  0.5293 -0.3165
  255MPD2    H5 3925   4.623   0.257   9.845 -0.2472  0.0117 -1.4961
  255MPD2    N1 3926   4.433   0.789   9.824  0.9791  1.0994  0.2935
  255MPD2    H7 3927   4.363   0.848   9.868  0.6792  0.0943  1.1722
  256TMC3    C1 3928   4.484   1.004   9.742  0.2621 -0.4958  0.3006
  256TMC3    C2 3929   4.535   1.088   9.653  0.2671 -1.0064  0.3965
  256TMC3    C3 3930   4.496   1.223   9.661  0.0863 -0.0331 -0.2932
  256TMC3    C4 3931   4.405   1.053   9.846  0.0347  0.4484  0.1209
  256TMC3    C5 3932   4.361   1.185   9.847  0.7971  0.5106 -0.5297
  256TMC3    C6 3933   4.402   1.272   9.751  0.5192 -0.0601 -0.2039
  256TMC3     C 3934   4.518   0.861   9.744  0.4687  0.5636 -0.6096
  256TMC3     O 3935   4.602   0.834   9.657  0.0713 -0.1103 -0.7110
  256TMC3     H 3936   4.607   1.051   9.580  2.1390  0.3892  1.5532
  256TMC3    H1 3937   4.377   0.992   9.931 -2.0545 -0.7688 -1.4486
  256TMC3    H2 3938   4.363   1.373   9.749  3.5436  1.1697  3.3154
  256TMC3    C7 3939   4.279   1.225   9.963 -0.5415 -0.4052  0.0606
  256TMC3    C8 3940   4.592   1.321   9.600 -0.2271  0.2887  0.3292
  256TMC3    O1 3941   4.225   1.140  10.034 -0.3501 -0.0039 -0.1386
  256TMC3    O2 3942   4.696   1.279   9.552  0.2001 -0.0688  0.2150
  257MPD2     C 3943   3.346   2.508  13.382  0.2007 -0.4661  0.0607
  257MPD2    C1 3944   3.435   2.501  13.276 -0.3839  0.1292  0.1364
  257MPD2    C2 3945   3.527   2.395  13.285  0.6386  0.0866 -0.3680
  257MPD2    C3 3946   3.535   2.307  13.392 -0.2954  0.5653  0.6221
  257MPD2    C4 3947   3.436   2.314  13.480  0.0017 -0.2813  0.0815
  257MPD2    C5 3948   3.341   2.414  13.479  0.1012 -0.5057 -0.1090
  257MPD2     H 3949   3.607   2.395  13.211 -0.8332 -1.0007 -1.9781
  257MPD2    H1 3950   3.435   2.238  13.557 -0.2042  1.3772  1.7065
  257MPD2    H2 3951   3.276   2.587  13.405  2.5026  1.0054  2.0233
  257MPD2    H3 3952   3.267   2.421  13.558  0.4504  1.3937  0.0507
  257MPD2     N 3953   3.639   2.216  13.415  0.6967  0.2379 -0.4725
  257MPD2    H5 3954   3.624   2.161  13.500 -1.9569  1.5354 -0.1070
  257MPD2    N1 3955   3.438   2.607  13.177  0.0332 -1.0017 -0.3786
  257MPD2    H7 3956   3.363   2.675  13.185  1.3414  0.1726  1.7783
  258TMC3    C1 3957   3.833   2.080  13.375 -0.0015 -0.2121 -0.0353
  258TMC3    C2 3958   3.899   1.995  13.293  0.2986  0.2559  0.1319
  258TMC3    C3 3959   3.980   1.897  13.346  0.3753  0.1691 -0.1691
  258TMC3    C4 3960   3.831   2.059  13.510  0.4126  0.6334 -0.1398
  258TMC3    C5 3961   3.906   1.956  13.558 -0.3782 -0.0187 -0.5506
  258TMC3    C6 3962   3.972   1.871  13.482  0.0597 -0.4219  0.0703
  258TMC3     C 3963   3.738   2.178  13.319  0.4755  0.0216 -0.2743
  258TMC3     O 3964   3.723   2.187  13.198  0.2669  0.5128 -0.0918
  258TMC3     H 3965   3.895   2.013  13.186 -0.5550  0.4618  0.1992
  258TMC3    H1 3966   3.805   2.144  13.571 -1.0499  0.8103 -1.0060
  258TMC3    H2 3967   4.016   1.780  13.523  0.6768  0.1733  0.7203
  258TMC3    C7 3968   3.938   1.959  13.696  0.9843  0.3192  0.0730
  258TMC3    C8 3969   4.039   1.800  13.254 -0.4925 -0.1376  0.3412
  258TMC3    O1 3970   3.872   2.030  13.770  0.7152 -0.0744 -0.0416
  258TMC3    O2 3971   4.002   1.797  13.138  0.1250 -0.8706  0.1655
  259MPD2     C 3972   2.500   4.074   0.425 -0.3879  0.4800  0.5468
  259MPD2    C1 3973   2.621   4.008   0.454  0.3452 -0.0990  0.1581
  259MPD2    C2 3974   2.679   3.933   0.358 -0.2332  0.1331  0.1027
  259MPD2    C3 3975   2.633   3.938   0.226  0.0499  0.2176 -0.1186
  259MPD2    C4 3976   2.512   3.998   0.200  0.0943  0.5844  0.0140
  259MPD2    C5 3977   2.441   4.060   0.305 -0.1462  0.4675 -0.1640
  259MPD2     H 3978   2.779   3.893   0.375 -0.5418  0.0777  1.8076
  259MPD2    H1 3979   2.455   3.986   0.109  1.8118 -1.3126 -0.8115
  259MPD2    H2 3980   2.447   4.127   0.503 -2.7488 -1.6086  0.3678
  259MPD2    H3 3981   2.340   4.097   0.291 -1.2506 -2.4201  0.2894
  259MPD2     N 3982   2.707   3.874   0.122 -0.5142  0.3015  0.6143
  259MPD2    H5 3983   2.782   3.815   0.158 -2.8666 -1.2468  2.9292
  259MPD2    N1 3984   2.662   4.013   0.588 -0.1275  0.0120  0.4575
  259MPD2    H7 3985   2.603   4.068   0.649 -2.0025 -0.9702 -0.4785
  260TMC3    C1 3986   2.771   3.775  17.649 -0.4023  0.7399  0.2354
  260TMC3    C2 3987   2.798   3.799  17.518  0.0980 -0.7585 -0.1373
  260TMC3    C3 3988   2.848   3.698  17.439  0.6575 -0.7491 -0.1956
  260TMC3    C4 3989   2.797   3.665  17.715  0.6496 -0.5036  0.0797
  260TMC3    C5 3990   2.847   3.561  17.632 -0.3900 -0.4143 -0.3203
  260TMC3    C6 3991   2.862   3.576  17.498 -0.0110  0.3442  0.2627
  260TMC3     C 3992   2.686   3.873  17.719 -0.0395 -0.7395 -0.4375
  260TMC3     O 3993   2.601   3.937  17.658  0.0157 -1.6054  0.3463
  260TMC3     H 3994   2.776   3.897  17.477  0.7410 -0.5653 -0.0288
  260TMC3    H1 3995   2.772   3.650   0.084  2.7127 -0.4267  0.5831
  260TMC3    H2 3996   2.900   3.499  17.433 -0.8584  0.2877 -0.1563
  260TMC3    C7 3997   2.890   3.433  17.677  0.0211  0.4809 -0.5682
  260TMC3    C8 3998   2.952   3.756  17.355 -0.3304 -0.2801  0.0598
  260TMC3    O1 3999   2.886   3.338  17.598 -0.3866 -0.5396  0.0387
  260TMC3    O2 4000   2.951   3.873  17.323 -0.7774 -0.1514 -0.2920
  261MPD2     C 4001   4.231   2.048  13.144  0.2713 -0.1553 -0.0371
  261MPD2    C1 4002   4.301   1.937  13.094 -0.1132 -0.4506  0.0688
  261MPD2    C2 4003   4.264   1.884  12.966 -0.2120  0.2924  0.2004
  261MPD2    C3 4004   4.176   1.950  12.882  0.8426  0.2465 -0.1019
  261MPD2    C4 4005   4.116   2.064  12.934 -0.1438 -0.5210 -0.8638
  261MPD2    C5 4006   4.141   2.108  13.060 -0.1442 -0.4607  0.1515
  261MPD2     H 4007   4.309   1.792  12.932 -1.5544 -0.3927  0.2782
  261MPD2    H1 4008   4.048   2.130  12.880 -0.0614  1.3684  1.3104
  261MPD2    H2 4009   4.235   2.095  13.242  0.0267 -0.4923  0.1355
  261MPD2    H3 4010   4.085   2.193  13.096 -0.2649 -0.8523  0.9002
  261MPD2     N 4011   4.151   1.900  12.748 -0.0161  0.2681 -0.0908
  261MPD2    H5 4012   4.204   1.817  12.724 -0.7369  0.1279 -1.2157
  261MPD2    N1 4013   4.410   1.879  13.161  0.2229 -0.1084 -0.0150
  261MPD2    H7 4014   4.462   1.811  13.106  0.9178  0.8072 -0.5018
  262TMC3    C1 4015   4.075   1.895  12.521  0.3029  0.0961  0.0821
  262TMC3    C2 4016   3.973   1.923  12.437 -1.0085 -0.1924 -0.2794
  262TMC3    C3 4017   3.988   1.879  12.311  0.2844  0.0895 -0.1507
  262TMC3    C4 4018   4.176   1.818  12.490  0.3520  0.0591  0.2887
  262TMC3    C5 4019   4.185   1.780  12.365  0.4707 -0.4311 -0.1654
  262TMC3    C6 4020   4.090   1.797  12.272  0.4681  0.2200 -0.3728
  262TMC3     C 4021   4.070   1.962  12.652  0.2039  0.2914 -0.2664
  262TMC3     O 4022   3.997   2.062  12.672  0.4221  0.3505 -0.1268
  262TMC3     H 4023   3.889   1.984  12.471 -0.3146 -0.4792  1.8836
  262TMC3    H1 4024   4.252   1.799  12.566  1.5535  2.1209 -0.3912
  262TMC3    H2 4025   4.091   1.770  12.167  1.0992  0.1065 -0.3354
  262TMC3    C7 4026   4.320   1.723  12.324 -0.3370 -0.3305  0.1823
  262TMC3    C8 4027   3.914   1.938  12.210  0.3792  0.3702  0.4140
  262TMC3    O1 4028   4.395   1.694  12.411  0.6566 -0.0073  0.6111
  262TMC3    O2 4029   3.978   1.979  12.112  0.1569 -0.9847 -0.3519
  263MPD2     C 4030   0.261   2.192  11.536 -0.4472  0.5927 -0.4307
  263MPD2    C1 4031   0.332   2.145  11.423 -0.2789  0.2543 -0.4473
  263MPD2    C2 4032   0.322   2.229  11.312  0.0089  0.5065  0.5281
  263MPD2    C3 4033   0.237   2.337  11.309 -0.2909  0.2509  0.3142
  263MPD2    C4 4034   0.162   2.375  11.422 -0.1758 -0.1214 -0.1343
  263MPD2    C5 4035   0.163   2.289  11.531 -0.4235 -0.8735 -0.2121
  263MPD2     H 4036   0.384   2.217  11.225  0.7507  1.0177  0.9888
  263MPD2    H1 4037   0.095   2.460  11.424 -0.7347 -0.5489 -0.6774
  263MPD2    H2 4038   0.270   2.137  11.630 -3.4218  2.8511  1.1866
  263MPD2    H3 4039   0.101   2.310  11.618  1.0300 -1.7006  1.0143
  263MPD2     N 4040   0.243   2.414  11.190  0.4610  0.4236  0.5107
  263MPD2    H5 4041   0.310   2.387  11.119 -0.6691 -0.4755 -0.2256
  263MPD2    N1 4042   0.431   2.049  11.440 -0.0800 -0.0564  0.6965
  263MPD2    H7 4043   0.448   2.012  11.533  0.3667 -0.9622  0.2578
  264TMC3    C1 4044   0.185   2.573  11.029 -0.6479  0.1679 -0.2373
  264TMC3    C2 4045   0.090   2.649  10.969  0.3549  0.2284 -0.9210
  264TMC3    C3 4046   0.127   2.709  10.849  0.9218  0.5694 -0.3317
  264TMC3    C4 4047   0.316   2.579  10.987  0.0365 -0.4557 -0.0283
  264TMC3    C5 4048   0.343   2.635  10.868 -0.2350 -0.0422 -0.6348
  264TMC3    C6 4049   0.249   2.688  10.786  0.1521  0.0875 -0.3481
  264TMC3     C 4050   0.154   2.508  11.157  0.3646  0.0797  0.0941
  264TMC3     O 4051   0.047   2.536  11.208 -0.0170 -0.0345 -0.4769
  264TMC3     H 4052   4.721   2.645  11.003  0.6706  0.1747  0.0408
  264TMC3    H1 4053   0.395   2.545  11.054  0.6383  1.1902  0.0885
  264TMC3    H2 4054   0.274   2.729  10.689  1.7709 -2.9050 -1.1875
  264TMC3    C7 4055   0.465   2.705  10.856 -0.6175 -0.0332  0.2993
  264TMC3    C8 4056   0.116   2.853  10.852 -0.5495 -0.4388 -0.6861
  264TMC3    O1 4057   0.495   2.745  10.743 -0.4672  0.3741 -0.2235
  264TMC3    O2 4058   0.178   2.920  10.770 -0.1454 -0.0650  0.0652
  265MPD2     C 4059   2.527   2.109  15.441 -0.7893 -0.2546 -0.0622
  265MPD2    C1 4060   2.579   2.231  15.421 -0.8123  0.1555  0.5126
  265MPD2    C2 4061   2.676   2.258  15.329  0.2512  0.4007 -0.2780
  265MPD2    C3 4062   2.734   2.142  15.272 -0.2104 -0.2469  0.1306
  265MPD2    C4 4063   2.688   2.019  15.297  0.3590  0.6069 -0.0200
  265MPD2    C5 4064   2.589   2.000  15.388 -0.4871  0.5620 -0.0617
  265MPD2     H 4065   2.708   2.358  15.304  1.2796 -0.4889 -2.4589
  265MPD2    H1 4066   2.733   1.931  15.253 -0.1004 -0.8469  2.4113
  265MPD2    H2 4067   2.448   2.080  15.510 -0.1544  1.7035  1.4835
  265MPD2    H3 4068   2.550   1.903  15.420  1.3119  0.0562  0.5852
  265MPD2     N 4069   2.824   2.144  15.164  0.1808  0.7556 -0.2014
  265MPD2    H5 4070   2.833   2.055  15.118 -0.0852  2.1797 -2.9960
  265MPD2    N1 4071   2.536   2.335  15.501  0.1282 -0.4253  0.0626
  265MPD2    H7 4072   2.579   2.422  15.473 -0.5388  0.6243  2.2786
  266TMC3    C1 4073   2.412   2.464  15.647 -0.0333 -0.4118  0.2314
  266TMC3    C2 4074   2.524   2.535  15.678 -0.0775  0.0947  0.6011
  266TMC3    C3 4075   2.499   2.663  15.735  0.3570  0.9859  0.9213
  266TMC3    C4 4076   2.288   2.519  15.655 -0.0396 -0.2047 -0.7028
  266TMC3    C5 4077   2.266   2.643  15.701  0.0061 -0.3523 -0.2093
  266TMC3    C6 4078   2.372   2.717  15.750 -0.0633 -0.6522 -0.4788
  266TMC3     C 4079   2.430   2.329  15.586 -0.1715 -0.2219 -0.1276
  266TMC3     O 4080   2.346   2.246  15.613 -0.0479  0.0656  0.2501
  266TMC3     H 4081   2.625   2.498  15.665  0.5014  1.6443  0.7147
  266TMC3    H1 4082   2.210   2.449  15.628 -0.4724 -0.0051  0.0361
  266TMC3    H2 4083   2.346   2.808  15.804 -1.1713 -1.3830  0.2182
  266TMC3    C7 4084   2.125   2.677  15.704  0.5842  0.5269 -0.0776
  266TMC3    C8 4085   2.618   2.742  15.775 -0.1755 -0.6446  0.2068
  266TMC3    O1 4086   2.052   2.580  15.707  0.6574  0.2273 -0.5432
  266TMC3    O2 4087   2.714   2.669  15.788  0.0379 -0.1707 -0.9831
  267MPD2     C 4088   1.069   3.876  17.121  0.0740 -0.3925 -0.4092
  267MPD2    C1 4089   1.050   4.006  17.106 -0.1139 -0.3961  0.2770
  267MPD2    C2 4090   0.935   4.045  17.050 -0.0822 -0.9186  0.2934
  267MPD2    C3 4091   0.831   3.958  17.014 -0.6697 -0.4660  0.3511
  267MPD2    C4 4092   0.856   3.821  17.033  0.2538  1.0746 -0.0204
  267MPD2    C5 4093   0.974   3.783  17.090 -0.3596 -0.4926  0.5561
  267MPD2     H 4094   0.911   4.151  17.047  0.1408 -0.8188  2.2477
  267MPD2    H1 4095   0.776   3.752  17.012 -0.6015  2.2830 -0.7537
  267MPD2    H2 4096   1.157   3.831  17.167 -0.7391 -0.2011  1.3171
  267MPD2    H3 4097   0.990   3.678  17.110 -3.1132 -0.6445  1.9381
  267MPD2     N 4098   0.701   3.997  16.963 -0.1186  0.0036 -0.3950
  267MPD2    H5 4099   0.629   3.926  16.965 -1.2931  1.2284  0.3747
  267MPD2    N1 4100   1.147   4.099  17.167 -0.2141 -0.0998  0.9219
  267MPD2    H7 4101   1.233   4.061  17.205  0.1182  1.7901  2.0306
  268TMC3    C1 4102   1.236   4.300  17.266 -0.0476 -0.1559  0.2239
  268TMC3    C2 4103   1.220   4.431  17.243 -1.1720  0.1417 -0.5923
  268TMC3    C3 4104   1.213   4.517  17.349 -0.4928  0.2839 -0.2109
  268TMC3    C4 4105   1.242   4.252  17.395 -0.7362  0.0779  0.1886
  268TMC3    C5 4106   1.227   4.337  17.498  0.0193  0.3775 -0.0475
  268TMC3    C6 4107   1.207   4.471  17.481  0.2424  0.3468 -0.3462
  268TMC3     C 4108   1.136   4.235  17.176  0.0366  0.4682 -0.2532
  268TMC3     O 4109   1.080   4.311  17.099  0.5752  0.0510  0.1100
  268TMC3     H 4110   1.236   4.471  17.144  2.4310 -1.0612 -0.5193
  268TMC3    H1 4111   1.244   4.145  17.409  2.4294  0.0434 -0.5378
  268TMC3    H2 4112   1.205   4.542  17.563 -3.8293 -0.7250  0.4936
  268TMC3    C7 4113   1.181   4.277  17.619 -0.5469  0.0155  0.3556
  268TMC3    C8 4114   1.124   4.631  17.322  0.6185 -0.1833 -0.3426
  268TMC3    O1 4115   1.228   4.174  17.659  0.3774  0.0780  0.0266
  268TMC3    O2 4116   1.107   4.713  17.409 -0.2302  0.2529 -0.3192
  269MPD2     C 4117   0.431   3.104  14.977 -0.2983  0.3641  0.2462
  269MPD2    C1 4118   0.421   3.121  15.119 -0.0869 -0.2678 -0.1447
  269MPD2    C2 4119   0.387   3.244  15.171  0.0558 -0.2248 -0.4591
  269MPD2    C3 4120   0.363   3.355  15.092 -0.5364  0.1496  0.4307
  269MPD2    C4 4121   0.385   3.336  14.956 -0.0185 -0.1541  0.6120
  269MPD2    C5 4122   0.410   3.212  14.903  0.3955  0.1008 -0.0363
  269MPD2     H 4123   0.380   3.261  15.278  1.6460 -1.0517 -0.2331
  269MPD2    H1 4124   0.385   3.426  14.894 -0.6053  0.8790  2.1077
  269MPD2    H2 4125   0.466   3.016  14.924 -1.0684  0.4472 -0.3936
  269MPD2    H3 4126   0.430   3.211  14.797 -1.1399  0.9251 -0.3509
  269MPD2     N 4127   0.342   3.486  15.145  0.0817 -0.6735 -0.2551
  269MPD2    H5 4128   0.374   3.492  15.241 -0.8592 -0.9884  0.0767
  269MPD2    N1 4129   0.439   3.011  15.205  0.2326  0.2880  0.2647
  269MPD2    H7 4130   0.505   2.936  15.184 -2.2716 -1.8398 -0.0944
  270TMC3    C1 4131   0.392   2.847  15.372 -0.3881  0.5196  0.3333
  270TMC3    C2 4132   0.282   2.769  15.383  0.1375 -0.4426 -0.7570
  270TMC3    C3 4133   0.291   2.630  15.374  0.6986  0.1057  0.1918
  270TMC3    C4 4134   0.518   2.798  15.354  0.0640 -0.1110  0.2556
  270TMC3    C5 4135   0.526   2.665  15.350 -0.3650  0.5647  0.3071
  270TMC3    C6 4136   0.423   2.581  15.371 -0.1136 -0.3909 -0.5294
  270TMC3     C 4137   0.361   2.985  15.320 -0.9644  0.6953 -0.3313
  270TMC3     O 4138   0.259   3.034  15.371 -0.3107  0.0095  0.4982
  270TMC3     H 4139   0.186   2.820  15.378  0.8482  1.1589  1.8758
  270TMC3    H1 4140   0.602   2.865  15.347 -0.5858  0.7760  0.9630
  270TMC3    H2 4141   0.454   2.478  15.377 -3.1269 -1.2699 -0.1850
  270TMC3    C7 4142   0.656   2.609  15.373 -0.3317  0.4290  0.0252
  270TMC3    C8 4143   0.190   2.562  15.288 -0.1196  0.6667 -0.4505
  270TMC3    O1 4144   0.656   2.508  15.444  0.0996  0.2289  0.1129
  270TMC3    O2 4145   0.069   2.599  15.288 -0.5053 -0.1639  0.2191
  271MPD2     C 4146   4.442   2.271  13.520 -0.4629 -0.4969 -0.8705
  271MPD2    C1 4147   4.455   2.320  13.648  0.3169  0.1575  0.1030
  271MPD2    C2 4148   4.415   2.445  13.680 -0.2256  0.1530  0.9096
  271MPD2    C3 4149   4.349   2.529  13.590 -0.0944 -0.1312 -0.2645
  271MPD2    C4 4150   4.327   2.479  13.464  0.1261  0.2831  0.2406
  271MPD2    C5 4151   4.376   2.352  13.424  0.1156  1.0851 -0.2955
  271MPD2     H 4152   4.444   2.479  13.779  1.0831  1.0252  0.2374
  271MPD2    H1 4153   4.273   2.535  13.389 -0.7788 -1.3090 -0.3052
  271MPD2    H2 4154   4.459   2.171  13.483  0.0134 -0.5206 -0.5851
  271MPD2    H3 4155   4.361   2.325  13.320 -0.0798 -0.0779  0.0302
  271MPD2     N 4156   4.292   2.656  13.614  0.1604 -0.5401  0.2887
  271MPD2    H5 4157   4.237   2.696  13.539  1.1695 -2.4995 -1.5106
  271MPD2    N1 4158   4.497   2.242  13.748  0.1369  0.1638  0.0131
  271MPD2    H7 4159   4.496   2.283  13.841 -0.5361  2.3665 -0.9594
  272TMC3    C1 4160   4.613   2.073  13.856 -0.6340  0.5024 -0.3467
  272TMC3    C2 4161   0.013   2.043  13.841  0.1576  0.6770  0.1506
  272TMC3    C3 4162   0.083   2.026  13.957 -0.4166 -0.2749  0.3139
  272TMC3    C4 4163   4.553   2.091  13.972 -0.4032  0.0769  0.3925
  272TMC3    C5 4164   4.625   2.072  14.084  0.2942 -0.1111 -0.6462
  272TMC3    C6 4165   0.019   2.028  14.081 -0.0271  0.3486  0.0457
  272TMC3     C 4166   4.545   2.116  13.732  1.2025  0.0930 -0.0547
  272TMC3     O 4167   4.558   2.040  13.637  0.3306 -0.4463  0.1959
  272TMC3     H 4168   0.055   2.041  13.741 -0.5732 -1.2432 -0.1199
  272TMC3    H1 4169   4.455   2.136  13.978 -0.1176  0.6195  1.0235
  272TMC3    H2 4170   0.080   2.028  14.171 -2.0826  0.2832  1.4419
  272TMC3    C7 4171   4.561   2.091  14.207  0.0314 -0.5625 -0.0067
  272TMC3    C8 4172   0.210   1.949  13.942  0.1727  0.0398  0.2081
  272TMC3    O1 4173   4.441   2.063  14.214  0.2949  0.2625 -0.4025
  272TMC3    O2 4174   0.239   1.893  13.836  0.1225  0.3040  0.8371
  273MPD2     C 4175   0.591   1.108  11.463 -0.0232  0.0863  0.6331
  273MPD2    C1 4176   0.706   1.066  11.401 -0.3269 -0.5411 -0.0061
  273MPD2    C2 4177   0.721   1.092  11.267 -1.0300 -0.5562  0.6059
  273MPD2    C3 4178   0.629   1.174  11.207  0.8922 -0.0704  1.1070
  273MPD2    C4 4179   0.515   1.213  11.269 -0.2623 -1.0527  1.1641
  273MPD2    C5 4180   0.496   1.173  11.396 -0.6140 -0.0453  0.1515
  273MPD2     H 4181   0.799   1.039  11.213  0.2715 -1.2490  3.1573
  273MPD2    H1 4182   0.436   1.269  11.219  1.3606  1.1462  1.0589
  273MPD2    H2 4183   0.577   1.100  11.570 -0.4592 -1.0152  0.4895
  273MPD2    H3 4184   0.408   1.207  11.448  0.0014  1.8722 -0.0461
  273MPD2     N 4185   0.649   1.218  11.072  0.6581  0.0316  0.2593
  273MPD2    H5 4186   0.577   1.266  11.018  1.8275 -1.3175 -2.4920
  273MPD2    N1 4187   0.803   1.007  11.490  0.5921 -0.2342 -0.7089
  273MPD2    H7 4188   0.779   1.006  11.588  1.7871  0.5215 -0.4061
  274TMC3    C1 4189   0.776   1.256  10.875 -0.0565  0.3983 -0.6627
  274TMC3    C2 4190   0.656   1.241  10.806  0.2277  0.2271  0.0860
  274TMC3    C3 4191   0.646   1.290  10.678  0.2139 -0.4305 -0.0599
  274TMC3    C4 4192   0.864   1.346  10.830  0.0691  0.6158 -0.2664
  274TMC3    C5 4193   0.840   1.412  10.711  0.4622 -0.5010  0.4637
  274TMC3    C6 4194   0.739   1.375  10.629  0.4059 -0.2391 -0.8394
  274TMC3     C 4195   0.776   1.224  11.016 -0.1866 -0.0266 -0.4516
  274TMC3     O 4196   0.882   1.231  11.079  0.6260  0.1609  0.0142
  274TMC3     H 4197   0.573   1.183  10.845 -2.4739  1.9255 -3.1200
  274TMC3    H1 4198   0.962   1.352  10.877  0.8999 -0.4136 -1.8759
  274TMC3    H2 4199   0.712   1.423  10.536  3.6358  0.8575 -1.2070
  274TMC3    C7 4200   0.907   1.536  10.687  0.0085 -0.3498  0.6706
  274TMC3    C8 4201   0.511   1.322  10.633 -0.6744  0.0240  0.1477
  274TMC3    O1 4202   0.870   1.595  10.584  0.0007  0.4188 -0.3150
  274TMC3    O2 4203   0.484   1.433  10.602 -0.4031 -0.3853 -0.2327
  275MPD2     C 4204   0.575   3.356  14.628 -0.9316  0.2070  0.0848
  275MPD2    C1 4205   0.613   3.243  14.557 -0.5325  0.6792 -0.5501
  275MPD2    C2 4206   0.522   3.182  14.471  0.3488  0.0060  0.4251
  275MPD2    C3 4207   0.393   3.237  14.460  0.8732 -0.3144 -0.0853
  275MPD2    C4 4208   0.358   3.354  14.527 -0.2567  0.2077  0.3733
  275MPD2    C5 4209   0.453   3.410  14.609 -0.3496 -0.1354 -0.3894
  275MPD2     H 4210   0.563   3.095  14.420 -1.7428  0.1956 -1.5546
  275MPD2    H1 4211   0.254   3.383  14.530 -0.1373  0.5854  0.9359
  275MPD2    H2 4212   0.631   3.415  14.698  0.3674 -1.5566  0.5250
  275MPD2    H3 4213   0.423   3.498  14.666 -0.9991 -1.0563  0.6777
  275MPD2     N 4214   0.289   3.178  14.376 -0.5834 -0.1865 -0.0929
  275MPD2    H5 4215   0.203   3.230  14.366 -0.3859  1.0382  4.7093
  275MPD2    N1 4216   0.752   3.201  14.558  0.2219 -0.4802  0.7388
  275MPD2    H7 4217   0.776   3.138  14.482 -1.5634  0.3982 -0.5714
  276TMC3    C1 4218   0.983   3.213  14.606  0.2825  0.5081  0.0311
  276TMC3    C2 4219   1.012   3.154  14.484 -0.5192  0.1035  0.8320
  276TMC3    C3 4220   1.132   3.189  14.423  0.0415  0.3637  0.2758
  276TMC3    C4 4221   1.079   3.276  14.680  0.2525  0.8400  0.0546
  276TMC3    C5 4222   1.201   3.299  14.623 -0.4217 -0.3746 -0.0053
  276TMC3    C6 4223   1.225   3.264  14.491  0.3119 -1.0824 -0.3102
  276TMC3     C 4224   0.847   3.237  14.648 -0.0695  0.1052  0.2499
  276TMC3     O 4225   0.831   3.302  14.751 -0.0303  0.0236 -0.5580
  276TMC3     H 4226   0.943   3.105  14.416 -1.9084  0.9916  1.6052
  276TMC3    H1 4227   1.057   3.316  14.778  0.2940  1.2622 -0.1071
  276TMC3    H2 4228   1.319   3.277  14.437 -0.2596  1.3709 -0.7067
  276TMC3    C7 4229   1.293   3.374  14.698 -0.0827  0.1589 -0.0766
  276TMC3    C8 4230   1.185   3.108  14.313  0.1560  0.6051 -0.4930
  276TMC3    O1 4231   1.273   3.395  14.818  0.2978  0.3814  0.0077
  276TMC3    O2 4232   1.269   3.151  14.233 -0.3580 -0.4110 -0.0211
  277MPD2     C 4233   3.185   2.605  12.885 -0.2264  0.5293  0.6216
  277MPD2    C1 4234   3.106   2.654  12.994  0.0929  0.3182  0.3108
  277MPD2    C2 4235   3.087   2.570  13.098  0.1687  0.9729  0.4582
  277MPD2    C3 4236   3.128   2.438  13.094 -0.3564 -0.0378  0.5882
  277MPD2    C4 4237   3.190   2.388  12.983  0.0394  0.0175 -0.5376
  277MPD2    C5 4238   3.234   2.472  12.885 -0.3351 -1.0586 -0.0812
  277MPD2     H 4239   3.044   2.586  13.197 -0.3779  1.0371  0.2070
  277MPD2    H1 4240   3.217   2.284  12.971  0.8905 -0.0760  2.2387
  277MPD2    H2 4241   3.199   2.664  12.795 -0.3539 -0.1390  0.1613
  277MPD2    H3 4242   3.294   2.431  12.805 -1.5522 -1.2581 -0.8867
  277MPD2     N 4243   3.106   2.358  13.207  0.2064 -0.4313 -0.2445
  277MPD2    H5 4244   3.042   2.398  13.275 -0.0189  1.0976 -1.3721
  277MPD2    N1 4245   3.059   2.789  12.987  0.6373 -0.2175 -0.1921
  277MPD2    H7 4246   3.091   2.840  12.905  0.0541 -0.1773 -0.3992
  278TMC3    C1 4247   3.079   2.160  13.324 -0.7422  0.1881 -0.2245
  278TMC3    C2 4248   3.071   2.027  13.304 -0.1200 -0.5016 -0.2687
  278TMC3    C3 4249   2.970   1.957  13.373  0.3370 -1.1275  0.8397
  278TMC3    C4 4250   2.998   2.224  13.415 -0.4193 -0.6064  0.3106
  278TMC3    C5 4251   2.891   2.159  13.475  0.6272 -0.6850  0.1736
  278TMC3    C6 4252   2.874   2.026  13.442  0.3492 -0.4672 -0.7640
  278TMC3     C 4253   3.155   2.227  13.224 -0.3331 -0.6217  0.3272
  278TMC3     O 4254   3.234   2.156  13.159 -0.4944 -0.3210  0.2997
  278TMC3     H 4255   3.148   1.973  13.250  0.4563 -1.0757  1.1319
  278TMC3    H1 4256   3.018   2.324  13.454 -3.1566  0.6296 -1.4716
  278TMC3    H2 4257   2.788   1.969  13.478  1.7018 -0.5602  2.3443
  278TMC3    C7 4258   2.803   2.230  13.561  0.6138 -0.4021  0.3730
  278TMC3    C8 4259   2.933   1.834  13.306 -0.2399  0.5523 -0.6278
  278TMC3    O1 4260   2.835   2.339  13.604 -0.1249  0.0753  0.3681
  278TMC3    O2 4261   3.025   1.779  13.251  0.2311  0.1382  0.4716
  279MPD2     C 4262   2.045   1.694   0.049  0.2573  0.3189  0.2339
  279MPD2    C1 4263   2.013   1.829   0.059 -0.1193 -0.2733  0.4414
  279MPD2    C2 4264   2.054   1.912  17.687  0.0957  0.1999 -0.1055
  279MPD2    C3 4265   2.119   1.869  17.577 -0.2979  0.3241 -0.2974
  279MPD2    C4 4266   2.146   1.726  17.574 -0.7287 -0.2763 -0.1117
  279MPD2    C5 4267   2.112   1.644  17.676  0.2200 -0.0171  0.1818
  279MPD2     H 4268   2.042   2.019  17.700  0.7235 -0.0718  2.6693
  279MPD2    H1 4269   2.203   1.690  17.488  2.0541 -2.5954  2.7153
  279MPD2    H2 4270   2.019   1.624   0.128 -0.3174 -1.2837 -1.3611
  279MPD2    H3 4271   2.145   1.541  17.664  2.8305  0.5201  2.8305
  279MPD2     N 4272   2.176   1.951  17.478  0.5502 -0.2236  0.1646
  279MPD2    H5 4273   2.201   1.894  17.398 -0.9804 -0.7514  0.0537
  279MPD2    N1 4274   1.935   1.870   0.169 -0.7648  0.2569 -0.2588
  279MPD2    H7 4275   1.930   1.807   0.248  0.6203  0.5624  0.0633
  280TMC3    C1 4276   1.830   2.081   0.092  0.1879  0.0157  0.2443
  280TMC3    C2 4277   1.778   2.019  17.717  0.3543  0.5468 -0.4425
  280TMC3    C3 4278   1.722   2.106  17.621 -0.1502 -0.2418 -0.0557
  280TMC3    C4 4279   1.805   2.214   0.116 -0.1651  0.5853  0.2000
  280TMC3    C5 4280   1.735   2.290   0.028  0.2700 -0.3925  0.0031
  280TMC3    C6 4281   1.719   2.236  17.638  0.0692 -0.3626  0.2153
  280TMC3     C 4282   1.898   2.004   0.196  0.1883  0.4196  0.7062
  280TMC3     O 4283   1.862   2.048   0.303 -0.1562  0.1100 -0.8230
  280TMC3     H 4284   1.779   1.912  17.701  0.2060  0.4147  0.4015
  280TMC3    H1 4285   1.842   2.259   0.208 -2.3061  0.2068  1.2453
  280TMC3    H2 4286   1.688   2.298  17.554 -0.3748 -0.9067 -0.0174
  280TMC3    C7 4287   1.725   2.434   0.043  0.1375 -0.1080  0.1518
  280TMC3    C8 4288   1.739   2.066  17.487 -0.4249  0.5886 -0.3759
  280TMC3    O1 4289   1.791   2.483   0.135  0.5070 -0.8454 -0.4459
  280TMC3    O2 4290   1.789   2.143  17.409  0.3018 -0.6013 -0.1899
  281TMC3    C1 4291   0.935   2.654  13.164  0.3614 -0.0392 -0.6473
  281TMC3    C2 4292   1.014   2.756  13.123 -0.5619 -0.2638  0.2029
  281TMC3    C3 4293   1.046   2.764  12.985  0.0489  0.0762 -0.1988
  281TMC3    C4 4294   0.907   2.551  13.082  0.3153 -0.3067  0.0370
  281TMC3    C5 4295   0.951   2.558  12.952  0.0623  0.1038 -0.3877
  281TMC3    C6 4296   1.018   2.664  12.901 -0.8676 -0.7120  0.1805
  281TMC3     C 4297   0.861   2.664  13.290 -0.0960  0.2024 -0.0868
  281TMC3     O 4298   0.761   2.592  13.298 -0.0445  0.3944  0.4512
  281TMC3     H 4299   1.055   2.827  13.194 -1.7658  0.5691  0.0775
  281TMC3    H1 4300   0.820   2.490  13.103 -1.1042  1.4724 -0.6765
  281TMC3    H2 4301   1.062   2.660  12.802 -0.6140 -3.1015  0.3737
  281TMC3    C7 4302   0.948   2.444  12.859  0.6800 -0.3295  0.4039
  281TMC3    C8 4303   1.156   2.852  12.952 -0.0209  0.1012 -0.2274
  281TMC3    O1 4304   0.999   2.467  12.753  0.2334  0.6580 -0.1710
  281TMC3    O2 4305   1.238   2.804  12.876  0.1829  0.0739  0.1938
  282MPD2     C 4306   2.656   4.393  15.183 -0.6133 -0.8257  0.5372
  282MPD2    C1 4307   2.521   4.414  15.206 -0.1395  0.2881 -0.6354
  282MPD2    C2 4308   2.429   4.386  15.104 -0.5442  0.3366  0.1163
  282MPD2    C3 4309   2.471   4.350  14.980 -0.6465 -0.3591 -0.5675
  282MPD2    C4 4310   2.604   4.338  14.962  0.9625  0.0923 -0.2822
  282MPD2    C5 4311   2.701   4.359  15.059 -0.5174 -0.4774 -0.5245
  282MPD2     H 4312   2.322   4.392  15.122 -0.4387  0.2865  0.7488
  282MPD2    H1 4313   2.637   4.315  14.862  0.6438 -1.3807 -0.0458
  282MPD2    H2 4314   2.724   4.400  15.267  1.4567 -0.5651 -1.1529
  282MPD2    H3 4315   2.808   4.344  15.045  0.1890  2.8156  1.3307
  282MPD2     N 4316   2.376   4.338  14.877  0.1756 -0.0616  0.2237
  282MPD2    H5 4317   2.282   4.368  14.904  1.0242  3.5210 -0.7320
  282MPD2    N1 4318   2.483   4.434  15.341  0.6542  0.4298 -0.0081
  282MPD2    H7 4319   2.557   4.445  15.409  0.5752  2.3634 -0.2318
  283TMC3    C1 4320   2.340   4.435  15.540 -0.4320 -0.6027  0.3442
  283TMC3    C2 4321   2.336   4.561  15.589 -0.3023 -0.0310 -0.8315
  283TMC3    C3 4322   2.294   4.566  15.723  0.4946  0.1903 -0.2785
  283TMC3    C4 4323   2.277   4.330  15.598 -0.4285  0.4717 -0.4473
  283TMC3    C5 4324   2.230   4.339  15.723 -0.4105  0.6547 -0.3452
  283TMC3    C6 4325   2.244   4.453  15.794 -0.3754  0.1235 -0.4927
  283TMC3     C 4326   2.356   4.421  15.393  0.0620  0.6571  0.0593
  283TMC3     O 4327   2.253   4.423  15.327 -0.2260  0.2598 -0.0218
  283TMC3     H 4328   2.371   4.640  15.524 -0.8660  0.9850  0.1177
  283TMC3    H1 4329   2.285   4.233  15.550  0.3253  0.4268 -0.2354
  283TMC3    H2 4330   2.211   4.459  15.897  0.9786  0.5218 -0.0806
  283TMC3    C7 4331   2.140   4.235  15.769  1.1607 -0.2343  0.0998
  283TMC3    C8 4332   2.264   4.689  15.788  0.5704 -0.1398 -0.7837
  283TMC3    O1 4333   2.127   4.221  15.891  0.0734  0.2330  0.0867
  283TMC3    O2 4334   2.198   4.692  15.892  0.0823  0.3366 -0.1629
  284MPD2     C 4335   0.674   3.477  12.264  0.4624  0.3227 -0.4001
  284MPD2    C1 4336   0.780   3.519  12.193 -0.3737 -0.1911  0.4067
  284MPD2    C2 4337   0.903   3.446  12.194  0.2463  0.2070  0.0515
  284MPD2    C3 4338   0.910   3.334  12.271  0.2391  0.1814  0.4732
  284MPD2    C4 4339   0.799   3.294  12.337  0.2102 -0.5212  0.3897
  284MPD2    C5 4340   0.681   3.359  12.336 -0.2147  0.3021  0.1100
  284MPD2     H 4341   0.981   3.472  12.124  0.3755 -4.1090 -1.4264
  284MPD2    H1 4342   0.810   3.198  12.386  0.4591 -0.4734  0.4265
  284MPD2    H2 4343   0.575   3.523  12.261  0.2502 -0.2942 -2.8862
  284MPD2    H3 4344   0.595   3.329  12.394 -0.4173  3.0418  1.1820
  284MPD2     N 4345   1.019   3.248  12.275 -0.2761 -0.4901 -0.1470
  284MPD2    H5 4346   1.009   3.150  12.301 -0.4018 -0.9283 -1.8136
  284MPD2    N1 4347   0.766   3.631  12.104 -0.1487  0.3010  0.1880
  284MPD2    H7 4348   0.834   3.635  12.028 -0.5291 -2.0431 -0.2633
  285TMC3    C1 4349   0.635   3.779  11.963  0.0233  0.4834  0.8702
  285TMC3    C2 4350   0.704   3.719  11.860 -0.2041 -0.6215 -0.3258
  285TMC3    C3 4351   0.747   3.808  11.762  0.0631 -0.4884  0.3515
  285TMC3    C4 4352   0.598   3.914  11.951 -0.2013  0.3091 -0.2289
  285TMC3    C5 4353   0.643   3.991  11.849 -0.0985  0.1682  0.3001
  285TMC3    C6 4354   0.727   3.941  11.755 -0.6224  0.0701 -0.2559
  285TMC3     C 4355   0.652   3.715  12.096 -0.4468 -0.1466 -0.0506
  285TMC3     O 4356   0.565   3.742  12.182  0.1325  0.8280 -0.0565
  285TMC3     H 4357   0.735   3.615  11.870  1.6130 -0.1723 -1.2400
  285TMC3    H1 4358   0.545   3.974  12.024 -0.3368 -0.6075  0.4172
  285TMC3    H2 4359   0.749   4.002  11.668  1.9853 -0.4981  0.0204
  285TMC3    C7 4360   0.590   4.126  11.823 -0.2265 -0.2455 -0.0080
  285TMC3    C8 4361   0.796   3.734  11.646 -0.5014  0.1719 -0.5813
  285TMC3    O1 4362   0.659   4.194  11.751 -0.4784 -0.3377 -0.6082
  285TMC3    O2 4363   0.780   3.612  11.641  0.0178 -0.3263  0.2869
  286MPD2     C 4364   1.464   2.482   1.571  0.1727 -0.5902  0.3757
  286MPD2    C1 4365   1.410   2.453   1.449  0.7051  0.0520 -0.3055
  286MPD2    C2 4366   1.435   2.329   1.391  0.2286  0.2444 -0.2794
  286MPD2    C3 4367   1.500   2.228   1.462 -0.1508 -0.8236  0.7248
  286MPD2    C4 4368   1.552   2.258   1.582 -0.0429 -0.2844  0.1405
  286MPD2    C5 4369   1.537   2.382   1.636  0.1650  0.3279 -0.1718
  286MPD2     H 4370   1.414   2.308   1.287  1.1065 -3.1260  0.2525
  286MPD2    H1 4371   1.597   2.186   1.649 -1.5861 -1.6440 -0.2754
  286MPD2    H2 4372   1.450   2.573   1.627  0.5343 -0.7606  0.7466
  286MPD2    H3 4373   1.584   2.403   1.731 -0.2263 -0.5050  0.2098
  286MPD2     N 4374   1.532   2.104   1.404 -0.2163  0.7049  0.6152
  286MPD2    H5 4375   1.595   2.043   1.455 -0.1642  1.4560  1.4611
  286MPD2    N1 4376   1.331   2.541   1.369 -0.1762 -0.1226  0.3464
  286MPD2    H7 4377   1.298   2.515   1.277  0.5691 -0.5338  0.1998
  287TMC3    C1 4378   1.544   1.936   1.240  0.1461  0.6203  0.3901
  287TMC3    C2 4379   1.495   1.872   1.120 -0.2335  0.1898 -0.0080
  287TMC3    C3 4380   1.569   1.774   1.062 -0.2958 -0.6948  0.1295
  287TMC3    C4 4381   1.660   1.906   1.296 -0.2734  0.0181  0.6158
  287TMC3    C5 4382   1.720   1.791   1.250  0.2855 -0.3549 -0.1269
  287TMC3    C6 4383   1.679   1.725   1.134 -0.4032 -0.5421 -0.4041
  287TMC3     C 4384   1.478   2.056   1.281  0.2561  0.6025 -0.2288
  287TMC3     O 4385   1.382   2.102   1.213 -0.2170 -0.0172 -0.4386
  287TMC3     H 4386   1.403   1.900   1.069  0.4203 -1.0401 -1.8589
  287TMC3    H1 4387   1.697   1.958   1.384  0.4102 -0.3127  0.5242
  287TMC3    H2 4388   1.730   1.634   1.105 -0.5243 -0.3965 -1.0756
  287TMC3    C7 4389   1.831   1.738   1.325  0.1249  0.1643  0.1863
  287TMC3    C8 4390   1.542   1.733   0.924  0.3027  0.3094  0.4017
  287TMC3    O1 4391   1.916   1.677   1.261 -0.6386  1.0838 -0.2017
  287TMC3    O2 4392   1.427   1.762   0.890  0.5910  0.5998 -0.1797
  288TMC3    C1 4393   3.499   2.196  14.239  0.5491  0.2656 -0.0995
  288TMC3    C2 4394   3.374   2.210  14.289  0.1650  0.0017 -0.3379
  288TMC3    C3 4395   3.290   2.301  14.229  0.1970 -0.0240 -0.5647
  288TMC3    C4 4396   3.544   2.260  14.130  0.0191 -0.3589  0.7092
  288TMC3    C5 4397   3.458   2.341  14.075 -0.1792 -0.2006 -0.2770
  288TMC3    C6 4398   3.333   2.380  14.129  0.0844 -0.4914 -0.1304
  288TMC3     C 4399   3.599   2.147  14.338 -0.5071  0.2479 -0.2933
  288TMC3     O 4400   3.561   2.096  14.441 -0.0871 -0.0861  0.0814
  288TMC3     H 4401   3.322   2.143  14.356 -0.9681  1.9901  0.7767
  288TMC3    H1 4402   3.631   2.240  14.068 -1.1749 -0.5013 -0.9270
  288TMC3    H2 4403   3.269   2.455  14.085  2.0745  1.0664 -0.3377
  288TMC3    C7 4404   3.502   2.389  13.948 -0.1375  0.2538 -0.8745
  288TMC3    C8 4405   3.151   2.341  14.274  0.3908  0.1016 -0.3672
  288TMC3    O1 4406   3.477   2.316  13.850  0.2901 -0.0115  0.2066
  288TMC3    O2 4407   3.114   2.457  14.258 -0.0103 -0.2090 -0.0911
  289MPD2     C 4408   3.154   1.092  14.641 -0.4950 -0.0859 -0.5296
  289MPD2    C1 4409   3.188   1.204  14.563 -0.2315  0.0984 -0.2781
  289MPD2    C2 4410   3.104   1.239  14.451 -0.2304 -0.2410 -0.1594
  289MPD2    C3 4411   3.006   1.144  14.419 -0.6617 -0.2171  0.0431
  289MPD2    C4 4412   2.975   1.038  14.498  0.3462  0.0234  0.3261
  289MPD2    C5 4413   3.050   1.008  14.605 -0.2870 -1.2485  0.3715
  289MPD2     H 4414   3.130   1.323  14.387 -0.2104  1.7695  2.4951
  289MPD2    H1 4415   2.890   0.976  14.475  0.3446  0.5842 -1.1444
  289MPD2    H2 4416   3.209   1.056  14.727 -2.7700 -0.2792  0.8546
  289MPD2    H3 4417   3.021   0.921  14.662 -1.4422  0.5148  2.5166
  289MPD2     N 4418   2.919   1.158  14.303 -0.0923  0.8443  0.7343
  289MPD2    H5 4419   2.847   1.089  14.282  2.8063 -2.1444  0.6655
  289MPD2    N1 4420   3.303   1.276  14.598 -0.0751  0.6150 -0.0608
  289MPD2    H7 4421   3.364   1.237  14.670 -1.5032 -2.5051 -0.5279
  290TMC3    C1 4422   2.862   1.235  14.088  0.3613 -0.2908 -0.7186
  290TMC3    C2 4423   2.842   1.352  14.020  0.1140 -0.4233  0.1122
  290TMC3    C3 4424   2.786   1.338  13.899  0.2757  0.4888  0.2925
  290TMC3    C4 4425   2.836   1.109  14.033 -0.2958  0.4192  0.4650
  290TMC3    C5 4426   2.772   1.094  13.916  0.0944 -0.4549  0.2286
  290TMC3    C6 4427   2.746   1.213  13.846 -0.4096 -0.6307  0.3506
  290TMC3     C 4428   2.940   1.256  14.209 -0.6748  0.0299 -0.6004
  290TMC3     O 4429   3.016   1.354  14.193 -0.0100  0.2541  0.0722
  290TMC3     H 4430   2.877   1.449  14.055  2.2830 -0.5244 -1.7564
  290TMC3    H1 4431   2.871   1.019  14.081 -1.1472  0.2839  0.8328
  290TMC3    H2 4432   2.704   1.211  13.746 -0.6613  1.1724  0.4249
  290TMC3    C7 4433   2.734   0.969  13.858 -0.7431  0.2407  0.1795
  290TMC3    C8 4434   2.842   1.420  13.796  0.4208  0.0071 -0.2998
  290TMC3    O1 4435   2.687   0.986  13.747 -0.3169  0.0147 -0.6604
  290TMC3    O2 4436   2.858   1.372  13.688  0.3833 -0.8016  0.3963
  291MPD2     C 4437   2.984   0.546   0.517  0.0245 -0.4280  0.2480
  291MPD2    C1 4438   2.876   0.629   0.541 -0.1339  0.7866 -0.6020
  291MPD2    C2 4439   2.899   0.761   0.578  0.1258  0.1892  0.3266
  291MPD2    C3 4440   3.024   0.815   0.581 -0.4202  0.1100  0.1910
  291MPD2    C4 4441   3.128   0.733   0.541  0.1093  0.6212 -0.0502
  291MPD2    C5 4442   3.108   0.599   0.520  0.9864 -0.3312 -0.3316
  291MPD2     H 4443   2.819   0.831   0.599  0.1156 -0.4974  2.5129
  291MPD2    H1 4444   3.231   0.765   0.531  0.1322  0.6033  0.1216
  291MPD2    H2 4445   2.981   0.439   0.501  1.5285 -0.7868  2.3913
  291MPD2    H3 4446   3.194   0.536   0.502 -0.5728 -2.0897 -1.5983
  291MPD2     N 4447   3.054   0.950   0.600 -0.7682  0.2150  0.8825
  291MPD2    H5 4448   3.136   0.970   0.545 -1.9028 -0.6813 -1.1219
  291MPD2    N1 4449   2.744   0.586   0.528 -0.2123 -0.0031  0.3066
  291MPD2    H7 4450   2.661   0.642   0.543  0.8138  0.8992  2.5719
  292TMC3    C1 4451   2.562   0.454   0.453  0.1065 -0.3873  0.7429
  292TMC3    C2 4452   2.481   0.566   0.422 -0.4612  0.5296 -0.5205
  292TMC3    C3 4453   2.367   0.542   0.353 -0.4070  0.6392  0.4016
  292TMC3    C4 4454   2.522   0.325   0.408  0.5771  0.3329  0.1918
  292TMC3    C5 4455   2.409   0.316   0.335 -0.4673 -0.1741 -0.7660
  292TMC3    C6 4456   2.333   0.421   0.298 -0.4667  0.2221  0.6158
  292TMC3     C 4457   2.705   0.461   0.478 -0.2998 -0.4246  0.0942
  292TMC3     O 4458   2.767   0.357   0.467 -0.1996 -0.0059  0.0149
  292TMC3     H 4459   2.517   0.666   0.444 -0.2947  0.4544 -0.4465
  292TMC3    H1 4460   2.567   0.231   0.437  0.6065  0.5895  0.9615
  292TMC3    H2 4461   2.246   0.401   0.237 -1.4257 -1.8967  2.6718
  292TMC3    C7 4462   2.353   0.180   0.313 -0.4172 -0.1393  0.1121
  292TMC3    C8 4463   2.268   0.649   0.363  0.4862  0.2065  0.2999
  292TMC3    O1 4464   2.436   0.093   0.305 -0.1069  0.1465  0.1018
  292TMC3    O2 4465   2.313   0.759   0.392 -0.4548  0.1863  0.1554
  293MPD2     C 4466   3.703   2.372  12.511 -0.0129  0.1100  0.4089
  293MPD2    C1 4467   3.647   2.483  12.568  0.4009 -0.0969  0.3505
  293MPD2    C2 4468   3.701   2.532  12.682  0.2416  0.5411 -0.5486
  293MPD2    C3 4469   3.801   2.462  12.746  0.8239 -0.0288 -0.5365
  293MPD2    C4 4470   3.859   2.350  12.684 -0.5344 -0.2067 -0.2021
  293MPD2    C5 4471   3.813   2.310  12.567 -0.1136  0.1454 -0.5679
  293MPD2     H 4472   3.654   2.619  12.726 -1.2214 -0.4513 -0.1663
  293MPD2    H1 4473   3.952   2.303  12.714 -1.2120 -1.5365 -0.1613
  293MPD2    H2 4474   3.662   2.339  12.417 -0.4082 -1.5751  1.1765
  293MPD2    H3 4475   3.859   2.220  12.527 -0.4929 -0.5450  0.5448
  293MPD2     N 4476   3.849   2.507  12.871 -0.5486 -0.1543 -0.2312
  293MPD2    H5 4477   3.790   2.566  12.928 -0.8446 -0.8711  0.2034
  293MPD2    N1 4478   3.530   2.533  12.504  0.6458  0.1807  0.5811
  293MPD2    H7 4479   3.505   2.486  12.418  1.3955 -1.3297  1.1755
  294TMC3    C1 4480   3.319   2.643  12.502  1.1547  0.2096 -0.1537
  294TMC3    C2 4481   3.254   2.523  12.509 -0.0826 -0.1099  0.0167
  294TMC3    C3 4482   3.118   2.531  12.529  0.9185  0.3823  0.2440
  294TMC3    C4 4483   3.260   2.767  12.492 -0.3364 -0.0214  0.4688
  294TMC3    C5 4484   3.128   2.763  12.501 -0.4955 -0.0602  0.3376
  294TMC3    C6 4485   3.054   2.652  12.532  0.4187 -0.6093  0.3844
  294TMC3     C 4486   3.462   2.640  12.543 -1.0274 -0.1094 -0.4706
  294TMC3     O 4487   3.500   2.740  12.604 -0.0207 -0.5354 -0.4179
  294TMC3     H 4488   3.315   2.437  12.537 -0.0149 -0.3078 -0.7374
  294TMC3    H1 4489   3.307   2.864  12.476 -1.1839  0.4294  0.7095
  294TMC3    H2 4490   2.946   2.657  12.540  0.4533 -0.6019  0.8842
  294TMC3    C7 4491   3.050   2.851  12.419  0.5651  0.4894 -0.0533
  294TMC3    C8 4492   3.054   2.409  12.549 -0.0009 -0.1038  0.1648
  294TMC3    O1 4493   2.933   2.868  12.448  0.9093  0.2969  0.4692
  294TMC3    O2 4494   2.969   2.398  12.639 -0.3468  0.1781  0.1545
  295MPD2     C 4495   4.156   2.226   1.023 -0.4310 -0.0103 -0.0134
  295MPD2    C1 4496   4.082   2.112   1.029 -0.4849  0.3454 -0.2562
  295MPD2    C2 4497   3.963   2.121   1.095 -0.3781  0.0284  0.3098
  295MPD2    C3 4498   3.921   2.239   1.153  0.5973 -0.8701  0.2100
  295MPD2    C4 4499   4.005   2.352   1.149  0.1008 -0.1605 -0.1957
  295MPD2    C5 4500   4.122   2.341   1.086 -0.2245  0.5517 -0.3017
  295MPD2     H 4501   3.892   2.039   1.092 -1.5575  0.9061  3.1839
  295MPD2    H1 4502   3.978   2.442   1.201 -0.8186 -1.4943  1.6191
  295MPD2    H2 4503   4.254   2.232   0.976 -1.1720  0.5022 -1.4675
  295MPD2    H3 4504   4.187   2.428   1.086  1.1837 -0.5083  1.8317
  295MPD2     N 4505   3.809   2.248   1.240 -0.3316  0.3272 -0.5923
  295MPD2    H5 4506   3.780   2.342   1.263 -1.9194  0.1985 -2.0234
  295MPD2    N1 4507   4.126   1.992   0.971  0.0893  0.1039  0.1488
  295MPD2    H7 4508   4.066   1.911   0.986 -3.2645  2.2419 -1.5949
  296TMC3    C1 4509   3.612   2.184   1.361  0.0098 -0.6391 -0.4127
  296TMC3    C2 4510   3.646   2.281   1.451 -0.0261  0.1798  0.4879
  296TMC3    C3 4511   3.570   2.302   1.565  0.1562  0.2216  1.1703
  296TMC3    C4 4512   3.515   2.098   1.395  0.0868  0.0885  0.0407
  296TMC3    C5 4513   3.443   2.117   1.513 -0.4624  0.1066 -0.3729
  296TMC3    C6 4514   3.468   2.222   1.599  0.7342  0.2081  0.1995
  296TMC3     C 4515   3.717   2.150   1.264  0.0221  0.5983  0.6160
  296TMC3     O 4516   3.721   2.026   1.257  0.0082  0.5702  0.0968
  296TMC3     H 4517   3.748   2.317   1.450  0.0354 -0.0687 -1.4845
  296TMC3    H1 4518   3.481   2.022   1.326 -0.5656  1.0257 -0.6705
  296TMC3    H2 4519   3.408   2.256   1.684 -1.2753 -1.0851 -0.7108
  296TMC3    C7 4520   3.344   2.017   1.545 -0.6461  0.0712 -0.1384
  296TMC3    C8 4521   3.567   2.426   1.634  0.1771 -0.2142 -0.2761
  296TMC3    O1 4522   3.253   2.059   1.618  0.0501 -0.3960 -0.0736
  296TMC3    O2 4523   3.503   2.439   1.732 -0.8766 -0.5268  0.1407
  297MPD2     C 4524   1.442   2.789  16.105  0.0938  0.5613  0.1731
  297MPD2    C1 4525   1.455   2.892  16.009 -0.3243  0.7954  0.2775
  297MPD2    C2 4526   1.581   2.945  15.986 -0.3843  0.2603  0.4465
  297MPD2    C3 4527   1.695   2.897  16.045 -0.3337 -0.2637  0.4134
  297MPD2    C4 4528   1.682   2.785  16.131 -0.2089 -0.3235 -0.0242
  297MPD2    C5 4529   1.556   2.733  16.159 -0.2391  1.0194  0.1077
  297MPD2     H 4530   1.589   3.026  15.915  0.1471 -0.4269 -0.2797
  297MPD2    H1 4531   1.765   2.745  16.189  0.2750  1.1169  0.2739
  297MPD2    H2 4532   1.349   2.737  16.123 -0.5062  1.5030 -0.2229
  297MPD2    H3 4533   1.545   2.658  16.236 -1.5597  0.0934 -0.9804
  297MPD2     N 4534   1.810   2.975  16.041 -0.7390  0.0102 -0.7159
  297MPD2    H5 4535   1.802   3.072  16.012  2.1460 -0.4114 -2.9062
  297MPD2    N1 4536   1.342   2.940  15.949 -0.3108  0.4281 -0.0699
  297MPD2    H7 4537   1.252   2.907  15.981  0.2078 -1.2523 -0.3320
  298TMC3    C1 4538   1.196   3.054  15.814  0.5979 -0.2173  0.1347
  298TMC3    C2 4539   1.170   3.070  15.685 -0.0161  1.3756 -0.5773
  298TMC3    C3 4540   1.038   3.075  15.651  0.3024  0.0657  0.1660
  298TMC3    C4 4541   1.102   3.050  15.913  0.0556  0.2836 -0.0534
  298TMC3    C5 4542   0.975   3.070  15.878 -0.4742 -0.0490 -0.2609
  298TMC3    C6 4543   0.938   3.073  15.748 -0.6483 -0.8596  0.3053
  298TMC3     C 4544   1.330   3.014  15.834 -0.5515  0.2107  0.8277
  298TMC3     O 4545   1.419   3.036  15.752 -0.0214 -0.0611  0.8338
  298TMC3     H 4546   1.246   3.064  15.608  0.6238 -0.1651  0.1782
  298TMC3    H1 4547   1.125   3.032  16.017  0.8201  1.9225  0.0509
  298TMC3    H2 4548   0.835   3.094  15.723 -0.6612 -1.0232  0.2212
  298TMC3    C7 4549   0.881   3.116  15.978  0.7321  0.0876  0.2176
  298TMC3    C8 4550   1.006   3.075  15.508 -0.1800 -0.2696  0.6202
  298TMC3    O1 4551   0.926   3.175  16.077  0.4979  0.2419  0.1851
  298TMC3    O2 4552   1.077   3.006  15.442 -0.1113  0.3181 -0.4793
  299MPD2     C 4553   2.044   3.877  10.866  0.0368 -0.0961 -0.4308
  299MPD2    C1 4554   2.011   3.754  10.905 -0.0318  0.0315 -0.2628
  299MPD2    C2 4555   1.939   3.663  10.829 -0.2984 -0.2166  0.2065
  299MPD2    C3 4556   1.901   3.706  10.700 -0.0877 -0.0528  0.6832
  299MPD2    C4 4557   1.944   3.829  10.652 -0.1752  0.2966  0.4828
  299MPD2    C5 4558   2.015   3.913  10.737  0.1585  0.2541  0.0151
  299MPD2     H 4559   1.929   3.557  10.850  0.7690  0.1628  2.5765
  299MPD2    H1 4560   1.906   3.863  10.557  0.7585  0.9186  0.3323
  299MPD2    H2 4561   2.087   3.959  10.922  0.9342  0.3056 -1.7046
  299MPD2    H3 4562   2.041   4.015  10.712 -1.4769  0.2804 -1.5758
  299MPD2     N 4563   1.823   3.639  10.610 -0.5252 -0.1950  0.5666
  299MPD2    H5 4564   1.811   3.684  10.520 -0.3976 -1.6425 -0.1613
  299MPD2    N1 4565   2.055   3.727  11.034  0.0414 -0.4483  0.5210
  299MPD2    H7 4566   2.102   3.801  11.085 -2.7012  0.1969  2.0976
  300TMC3    C1 4567   1.711   3.452  10.509 -0.3843  0.3370 -0.1701
  300TMC3    C2 4568   1.771   3.494  10.389  0.1771 -0.3491  0.0213
  300TMC3    C3 4569   1.748   3.422  10.278 -0.1987 -0.0687  0.6529
  300TMC3    C4 4570   1.619   3.350  10.515 -0.3866  0.0528 -0.3381
  300TMC3    C5 4571   1.598   3.280  10.398 -0.4655  0.5767  0.6239
  300TMC3    C6 4572   1.666   3.313  10.281 -0.1727  0.8926 -0.2103
  300TMC3     C 4573   1.753   3.517  10.634  0.8195  0.2219  0.4835
  300TMC3     O 4574   1.744   3.451  10.735  0.7842 -0.1508  0.0487
  300TMC3     H 4575   1.840   3.577  10.390 -0.3985  0.0969  2.1288
  300TMC3    H1 4576   1.572   3.337  10.611  0.6186 -2.9174 -0.2511
  300TMC3    H2 4577   1.645   3.258  10.190  1.1149 -1.0199  0.6340
  300TMC3    C7 4578   1.475   3.204  10.388 -0.4771  0.1881  1.4564
  300TMC3    C8 4579   1.770   3.496  10.154  0.0329 -0.8968 -1.0163
  300TMC3    O1 4580   1.451   3.183  10.270  0.2639  0.2161 -0.1597
  300TMC3    O2 4581   1.812   3.606  10.175 -0.6197  0.1514 -0.0230
  301MPD2     C 4582   4.458   4.389   1.183 -0.0938 -0.1342 -0.2198
  301MPD2    C1 4583   4.364   4.305   1.121 -0.0662  0.4930 -0.6911
  301MPD2    C2 4584   4.407   4.193   1.063  0.4755 -0.3563 -0.1539
  301MPD2    C3 4585   4.538   4.157   1.058 -0.1248 -0.0156  0.2501
  301MPD2    C4 4586   4.630   4.240   1.122  0.6701 -0.8071  0.0726
  301MPD2    C5 4587   4.586   4.355   1.179  0.2286 -0.5527 -0.0612
  301MPD2     H 4588   4.335   4.125   1.019 -3.0921  1.3802  2.9905
  301MPD2    H1 4589   4.733   4.206   1.114  0.1777 -1.9703 -1.4851
  301MPD2    H2 4590   4.443   4.480   1.240  0.6441 -0.5444  0.6212
  301MPD2    H3 4591   4.655   4.419   1.233  0.5657 -0.8371 -0.1563
  301MPD2     N 4592   4.592   4.051   0.987  0.1198 -0.2729 -0.0965
  301MPD2    H5 4593   4.693   4.048   0.991  0.1498  0.4454 -0.4125
  301MPD2    N1 4594   4.223   4.319   1.121  0.6797 -0.4090 -0.0332
  301MPD2    H7 4595   4.176   4.243   1.073 -0.9755  1.3578 -1.2176
  302TMC3    C1 4596   4.596   3.829   0.905 -0.1736 -0.4346  0.1762
  302TMC3    C2 4597   4.719   3.807   0.961  0.7202  0.1387 -0.5641
  302TMC3    C3 4598   0.061   3.701   0.912 -0.1754  0.1976 -0.2533
  302TMC3    C4 4599   4.548   3.752   0.797  0.5256 -0.3286  0.1066
  302TMC3    C5 4600   4.629   3.644   0.757  0.5293 -0.6596  0.5230
  302TMC3    C6 4601   0.015   3.620   0.813 -0.0319 -0.1769  1.0197
  302TMC3     C 4602   4.522   3.956   0.920 -0.9488 -0.3004 -0.4878
  302TMC3     O 4603   4.405   3.940   0.896  0.4559  0.1498 -0.1369
  302TMC3     H 4604   0.028   3.859   1.045  0.9714 -0.9060 -0.0393
  302TMC3    H1 4605   4.469   3.800   0.740  0.7926 -1.6734 -1.3804
  302TMC3    H2 4606   0.072   3.536   0.777  0.6239  0.3004  0.9387
  302TMC3    C7 4607   4.559   3.537   0.685  0.0693 -0.3328 -0.4542
  302TMC3    C8 4608   0.183   3.662   0.970 -0.5656 -0.7634 -0.0942
  302TMC3    O1 4609   4.630   3.445   0.644 -0.1481 -0.2670 -0.2772
  302TMC3    O2 4610   0.219   3.545   0.947 -0.4001 -0.1690 -0.0639
  303MPD2     C 4611   4.495   3.008  10.780 -0.0213 -0.3722  0.1237
  303MPD2    C1 4612   4.365   2.989  10.747  0.2252  0.2142 -0.0558
  303MPD2    C2 4613   4.334   2.973  10.612 -0.1396 -0.4597  0.7754
  303MPD2    C3 4614   4.427   2.991  10.515  0.2049  0.7459 -0.6228
  303MPD2    C4 4615   4.555   3.014  10.552 -0.2780  0.0871  0.1258
  303MPD2    C5 4616   4.588   3.012  10.683 -0.2744 -0.1154  0.2421
  303MPD2     H 4617   4.235   2.938  10.585  0.2223 -0.6851 -0.2848
  303MPD2    H1 4618   4.635   3.021  10.478  0.3965  0.4113  0.8823
  303MPD2    H2 4619   4.530   3.003  10.883 -1.4609 -0.4539  0.6017
  303MPD2    H3 4620   4.695   3.022  10.699 -0.3538  2.3928 -0.8119
  303MPD2     N 4621   4.402   2.980  10.374 -0.1576 -0.8396 -0.3910
  303MPD2    H5 4622   4.485   2.975  10.316  1.5428  0.8150  1.9291
  303MPD2    N1 4623   4.258   2.981  10.842 -0.2495  0.1574 -0.0559
  303MPD2    H7 4624   4.163   2.958  10.813  0.5522 -1.4242 -1.4401
  304TMC3    C1 4625   4.146   2.989  11.043  0.5348 -0.7569  0.4989
  304TMC3    C2 4626   4.047   3.066  10.994  0.1816  0.1302  0.0597
  304TMC3    C3 4627   3.916   3.038  11.038 -1.0911 -0.3484  0.3262
  304TMC3    C4 4628   4.127   2.895  11.142 -0.2743 -0.1670  0.0944
  304TMC3    C5 4629   3.994   2.860  11.170 -0.8758 -0.1859  0.6137
  304TMC3    C6 4630   3.895   2.943  11.130  0.1564  0.2438 -0.6346
  304TMC3     C 4631   4.274   2.985  10.976  0.5591  0.8256 -0.5335
  304TMC3     O 4632   4.374   2.978  11.045 -0.2276  0.0456  0.3967
  304TMC3     H 4633   4.061   3.132  10.908 -0.5034  0.8046  0.4726
  304TMC3    H1 4634   4.204   2.844  11.199 -1.2425  0.4804  1.9692
  304TMC3    H2 4635   3.800   2.942  11.183  0.6642 -1.6080  0.2394
  304TMC3    C7 4636   3.975   2.718  11.169 -0.2683 -0.5725  0.4822
  304TMC3    C8 4637   3.812   3.033  10.938  0.1804  0.1218  0.2204
  304TMC3    O1 4638   4.054   2.642  11.223 -0.0756 -0.4487  0.1196
  304TMC3    O2 4639   3.747   2.932  10.943 -0.4067 -0.1160  0.1246
  305MPD2     C 4640   2.412   4.416  13.741 -0.2374  0.1516 -0.3077
  305MPD2    C1 4641   2.484   4.308  13.789  0.7297 -0.6639 -0.2421
  305MPD2    C2 4642   2.519   4.201  13.707  0.2476  0.3855  0.7599
  305MPD2    C3 4643   2.487   4.215  13.568  0.2431 -0.6337 -0.4958
  305MPD2    C4 4644   2.416   4.328  13.523  0.4978  0.2397 -0.2381
  305MPD2    C5 4645   2.381   4.427  13.609  0.5009 -0.4118 -0.6183
  305MPD2     H 4646   2.597   4.134  13.741 -1.8772 -3.0681 -1.1507
  305MPD2    H1 4647   2.413   4.343  13.416 -0.2279 -3.1112 -0.6863
  305MPD2    H2 4648   2.373   4.492  13.808 -1.8162 -0.1902 -0.8437
  305MPD2    H3 4649   2.326   4.515  13.580 -1.2240 -1.6244 -1.0280
  305MPD2     N 4650   2.532   4.124  13.470  0.7421 -0.7997  0.4504
  305MPD2    H5 4651   2.518   4.148  13.372 -0.1506 -0.8792  0.5543
  305MPD2    N1 4652   2.515   4.319  13.934 -0.0451  0.3219 -0.2754
  305MPD2    H7 4653   2.493   4.406  13.982  1.4502  0.1925  0.6342
  306TMC3    C1 4654   2.581   4.260  14.155  0.4657  0.3778 -0.2988
  306TMC3    C2 4655   2.630   4.162  14.238 -0.3844  0.0516 -0.3254
  306TMC3    C3 4656   2.673   4.191  14.367  0.0461  0.3293 -0.6629
  306TMC3    C4 4657   2.572   4.387  14.202 -0.2073 -0.3158  1.0399
  306TMC3    C5 4658   2.607   4.410  14.339 -0.2005  0.0705  0.1920
  306TMC3    C6 4659   2.667   4.313  14.418 -0.3477  0.2466  0.3893
  306TMC3     C 4660   2.559   4.223  14.015 -0.2512  0.2455  0.2230
  306TMC3     O 4661   2.553   4.104  13.983  0.4375  0.0968 -0.1718
  306TMC3     H 4662   2.657   4.067  14.194 -0.0420  0.4803 -1.0280
  306TMC3    H1 4663   2.528   4.469  14.147 -1.8799 -1.7408  0.2563
  306TMC3    H2 4664   2.689   4.333  14.522 -3.5540  0.4998  1.0121
  306TMC3    C7 4665   2.540   4.518  14.404  0.4679  0.1299  0.5409
  306TMC3    C8 4666   2.758   4.097  14.431  0.3441 -0.1258  0.5832
  306TMC3    O1 4667   2.446   4.567  14.339  0.1257 -0.1018  0.4085
  306TMC3    O2 4668   2.857   4.135  14.492 -0.0639 -0.5860 -0.0782
  307MPD2     C 4669   1.055   3.182   0.057  0.4188  0.0794  0.3848
  307MPD2    C1 4670   1.013   3.284   0.140  0.1443 -0.5845  0.1189
  307MPD2    C2 4671   0.941   3.244   0.253  0.3447  0.0297 -0.3586
  307MPD2    C3 4672   0.898   3.113   0.281 -0.1769  0.5618  0.5502
  307MPD2    C4 4673   0.919   3.018   0.187  0.3963  0.3112  0.2584
  307MPD2    C5 4674   0.990   3.060   0.072 -1.0414 -0.9863  0.0995
  307MPD2     H 4675   0.912   3.322   0.322 -2.1245 -0.8702 -0.3818
  307MPD2    H1 4676   0.895   2.913   0.196 -1.7070  0.8194  0.6754
  307MPD2    H2 4677   1.122   3.199  17.709  1.8206 -1.5679  1.1602
  307MPD2    H3 4678   1.019   2.982   0.003 -0.8753 -0.3471 -0.5555
  307MPD2     N 4679   0.819   3.095   0.398 -0.0694  0.2936 -0.5488
  307MPD2    H5 4680   0.816   3.178   0.455 -1.2856 -1.1332  1.4752
  307MPD2    N1 4681   1.045   3.422   0.128  0.2404  0.3170 -1.2539
  307MPD2    H7 4682   1.011   3.484   0.201  0.7327 -2.2298  1.1241
  308TMC3    C1 4683   0.690   2.874   0.784  0.3949  0.1632  0.7363
  308TMC3    C2 4684   0.643   2.989   0.841  0.3737 -0.8567 -0.1439
  308TMC3    C3 4685   0.646   3.097   0.758 -0.2355 -0.2618  0.2986
  308TMC3    C4 4686   0.735   2.864   0.649  0.0464  0.0546  0.4520
  308TMC3    C5 4687   0.739   2.986   0.579  0.2101 -0.0249 -0.0259
  308TMC3    C6 4688   0.708   3.102   0.640 -0.3795  0.0595  0.3006
  308TMC3     C 4689   0.623   2.756   0.834 -0.3976  0.1755  0.3195
  308TMC3     O 4690   0.691   2.657   0.822 -0.0265 -0.5236  0.5706
  308TMC3     H 4691   0.586   2.991   0.933  0.6115  1.6815 -0.0659
  308TMC3    H1 4692   0.754   2.770   0.599  0.2878 -0.4200  1.4284
  308TMC3    H2 4693   0.696   3.194   0.583 -0.5129  1.0379  1.8816
  308TMC3    C7 4694   0.764   2.978   0.438  0.6193  0.4891  0.2889
  308TMC3    C8 4695   0.616   3.223   0.830 -0.0410  0.2515  0.6280
  308TMC3    O1 4696   0.772   2.863   0.398  0.1459  0.6233 -0.2200
  308TMC3    O2 4697   0.639   3.220   0.949  0.2123  0.1739  0.1218
  309MPD2     C 4698   4.683   3.186  17.338  0.2740  0.1260  0.1265
  309MPD2    C1 4699   4.576   3.179  17.248 -0.7285  0.1742 -0.3818
  309MPD2    C2 4700   4.447   3.188  17.302 -0.4436 -0.0086  0.1618
  309MPD2    C3 4701   4.428   3.199  17.439 -0.1156 -0.0997 -0.1017
  309MPD2    C4 4702   4.531   3.202  17.530 -0.8984  0.6979 -0.0618
  309MPD2    C5 4703   4.654   3.202  17.471  0.3752  0.6172 -0.0468
  309MPD2     H 4704   4.359   3.180  17.240  0.5197 -0.0794 -1.1941
  309MPD2    H1 4705   4.523   3.217  17.638  1.2798  1.8028 -0.0699
  309MPD2    H2 4706   0.053   3.165  17.314 -0.3247 -0.5397 -1.8920
  309MPD2    H3 4707   0.007   3.200  17.535 -0.1417 -3.3525  0.5184
  309MPD2     N 4708   4.294   3.194  17.487 -0.3872 -0.2974 -1.0597
  309MPD2    H5 4709   4.288   3.164  17.583 -0.6313  0.5722 -0.8064
  309MPD2    N1 4710   4.598   3.152  17.112 -0.2811 -0.2465  0.3011
  309MPD2    H7 4711   4.525   3.184  17.050  1.6105  1.1297 -1.2395
  310TMC3    C1 4712   4.705   3.069  16.913 -0.2582 -0.7519 -0.1398
  310TMC3    C2 4713   4.626   3.148  16.828  0.0793 -0.5048  0.0557
  310TMC3    C3 4714   4.646   3.138  16.690 -0.0771  0.5009  0.1714
  310TMC3    C4 4715   0.068   2.994  16.865  0.6375  0.5774  0.1902
  310TMC3    C5 4716   0.096   2.993  16.736  1.2171  0.7848  0.0835
  310TMC3    C6 4717   0.011   3.056  16.644  0.4308 -0.0654 -0.5841
  310TMC3     C 4718   4.718   3.118  17.052  0.4833 -0.1026 -0.2425
  310TMC3     O 4719   0.098   3.126  17.101 -0.2131 -0.2620 -0.3270
  310TMC3     H 4720   4.557   3.218  16.873 -1.0786 -2.2332  0.9523
  310TMC3    H1 4721   0.134   2.942  16.933  0.5640  1.7702  1.1595
  310TMC3    H2 4722   0.026   3.037  16.539 -0.2731 -0.2749 -0.6485
  310TMC3    C7 4723   0.185   2.890  16.681  0.2238 -0.5169  1.0511
  310TMC3    C8 4724   4.538   3.160  16.595 -0.2708  0.0219 -1.0946
  310TMC3    O1 4725   0.174   2.858  16.562 -0.3019  0.1763  0.1626
  310TMC3    O2 4726   4.562   3.153  16.478 -0.3082 -0.0011  0.1594
  311MPD2     C 4727   1.549   4.134  12.434  1.2467 -1.4796  0.2440
  311MPD2    C1 4728   1.586   4.198  12.548  0.4943 -0.3481  0.1657
  311MPD2    C2 4729   1.526   4.175  12.672 -0.3816  0.2265 -0.7853
  311MPD2    C3 4730   1.428   4.076  12.682  0.0049 -0.0030 -0.1770
  311MPD2    C4 4731   1.394   4.004  12.567  0.0153 -0.1043  0.3503
  311MPD2    C5 4732   1.455   4.034  12.446  0.7833  1.0383  0.8753
  311MPD2     H 4733   1.545   4.245  12.753 -1.2927 -2.8928  2.1734
  311MPD2    H1 4734   1.316   3.928  12.572  0.6439 -0.7095  0.8813
  311MPD2    H2 4735   1.589   4.171  12.341  0.5406  1.1084  0.9516
  311MPD2    H3 4736   1.428   3.985  12.353  0.3255  0.5871  1.2475
  311MPD2     N 4737   1.359   4.053  12.799 -0.3539 -0.1829 -0.0926
  311MPD2    H5 4738   1.391   4.096  12.886  2.7502  0.9594 -1.7965
  311MPD2    N1 4739   1.692   4.290  12.547  0.5115  0.6605 -0.6208
  311MPD2    H7 4740   1.729   4.333  12.630  0.8655  0.9008 -0.9016
  312TMC3    C1 4741   1.200   3.979  12.950 -0.1624  0.0969 -0.6197
  312TMC3    C2 4742   1.075   3.935  12.964  0.3426  0.1262 -0.2446
  312TMC3    C3 4743   1.004   3.966  13.082 -0.0280  0.3543 -0.1702
  312TMC3    C4 4744   1.261   4.046  13.052 -0.2127  0.1496 -0.0513
  312TMC3    C5 4745   1.196   4.056  13.174  0.3036 -0.7854 -0.8545
  312TMC3    C6 4746   1.068   4.022  13.192  0.4351 -0.7785  0.7528
  312TMC3     C 4747   1.262   3.956  12.824 -0.4177  0.1579 -0.8074
  312TMC3     O 4748   1.207   3.877  12.751  0.0994  0.5420  0.7765
  312TMC3     H 4749   1.019   3.893  12.882 -0.8707  1.4670 -0.1102
  312TMC3    H1 4750   1.364   4.079  13.044 -0.6687  1.4960 -0.2630
  312TMC3    H2 4751   1.018   4.047  13.285  0.5589 -0.2349  0.6679
  312TMC3    C7 4752   1.257   4.150  13.267  0.1375 -0.0817 -0.3069
  312TMC3    C8 4753   0.887   3.884  13.109  0.1692  0.8080  0.4401
  312TMC3    O1 4754   1.330   4.237  13.224  0.0836  0.3217  0.0178
  312TMC3    O2 4755   0.886   3.769  13.070  0.1741 -0.5186  0.5692
  313MPD2     C 4756   0.659   4.019  11.191  0.2944  0.7384  0.4039
  313MPD2    C1 4757   0.700   4.003  11.059 -0.2912  0.0651  0.4905
  313MPD2    C2 4758   0.658   3.888  10.997 -0.8166 -0.0551 -1.2213
  313MPD2    C3 4759   0.561   3.803  11.049  1.0941  0.9056  0.5493
  313MPD2    C4 4760   0.525   3.823  11.183 -0.5738 -0.0746 -0.2962
  313MPD2    C5 4761   0.574   3.932  11.244 -0.2653 -0.2275  0.5286
  313MPD2     H 4762   0.696   3.870  10.897  0.3512  0.2061 -0.8252
  313MPD2    H1 4763   0.469   3.756  11.248 -0.5199  1.6165  1.4767
  313MPD2    H2 4764   0.690   4.107  11.245  1.0674  1.5388 -1.3282
  313MPD2    H3 4765   0.553   3.955  11.347  0.5187 -0.2904  0.6988
  313MPD2     N 4766   0.524   3.694  10.965 -0.5092 -0.2985  0.0351
  313MPD2    H5 4767   0.564   3.682  10.872 -0.7697  0.0206 -0.1192
  313MPD2    N1 4768   0.783   4.090  10.995 -0.3955 -1.0316  0.1049
  313MPD2    H7 4769   0.815   4.052  10.906  0.6409  1.3118 -0.5223
  314TMC3    C1 4770   0.917   4.280  10.939  0.2930  0.2367  0.1822
  314TMC3    C2 4771   1.003   4.378  10.984 -0.2777 -0.2846 -0.6524
  314TMC3    C3 4772   1.057   4.463  10.891  0.1682 -0.0613 -0.7535
  314TMC3    C4 4773   0.857   4.279  10.819  0.1153  0.4381 -0.8643
  314TMC3    C5 4774   0.908   4.365  10.732 -0.4222 -0.5225 -0.4776
  314TMC3    C6 4775   1.008   4.458  10.770 -0.0908 -0.1887  0.1303
  314TMC3     C 4776   0.854   4.199  11.040  1.2149 -0.8385 -0.1957
  314TMC3     O 4777   0.859   4.250  11.149  0.0890 -0.5861  0.6006
  314TMC3     H 4778   1.030   4.388  11.089  0.6964 -2.4117 -0.6807
  314TMC3    H1 4779   0.766   4.225  10.798  0.5746 -0.8278  0.4466
  314TMC3    H2 4780   1.047   4.527  10.697  1.5791  0.8304  1.9696
  314TMC3    C7 4781   0.836   4.383  10.607 -0.7344  0.4296  0.0526
  314TMC3    C8 4782   1.156   4.565  10.918 -0.6187  0.1080 -0.0167
  314TMC3    O1 4783   0.757   4.289  10.583 -0.2727 -0.1781  0.0568
  314TMC3    O2 4784   1.187   4.646  10.826 -0.6966  0.3945  0.3300
  315MPD2     C 4785   0.646   2.326  17.583  0.3914 -0.2384 -0.0972
  315MPD2    C1 4786   0.773   2.339  17.630  0.3325 -0.2480  0.0732
  315MPD2    C2 4787   0.865   2.423  17.566  0.0006  0.4158 -0.2353
  315MPD2    C3 4788   0.820   2.504  17.468 -0.4691 -0.0621  0.0885
  315MPD2    C4 4789   0.688   2.501  17.424 -0.2869 -0.9564 -0.2613
  315MPD2    C5 4790   0.602   2.420  17.491  0.1109 -0.0324 -0.3997
  315MPD2     H 4791   0.970   2.421  17.592  0.2216 -0.8414 -1.2414
  315MPD2    H1 4792   0.647   2.555  17.339  0.2671  0.1345  0.1716
  315MPD2    H2 4793   0.571   2.262  17.628 -0.4223  0.6742 -0.1524
  315MPD2    H3 4794   0.500   2.418  17.456 -0.3600  0.2155  0.9748
  315MPD2     N 4795   0.915   2.592  17.396  0.3215  0.1686 -0.0624
  315MPD2    H5 4796   1.008   2.592  17.436 -0.3515  1.0970  1.5107
  315MPD2    N1 4797   0.822   2.254  17.734  0.3562 -0.1195  0.1416
  315MPD2    H7 4798   0.913   2.268   0.040  0.7532 -0.5723 -0.5671
  316TMC3    C1 4799   1.011   2.767  17.257 -0.1636  0.4511 -0.3603
  316TMC3    C2 4800   1.112   2.781  17.348 -0.4877  0.1948  0.7556
  316TMC3    C3 4801   1.201   2.871  17.311 -0.2359  0.3744 -0.3308
  316TMC3    C4 4802   1.001   2.834  17.138 -0.0170  0.5183  0.1312
  316TMC3    C5 4803   1.091   2.933  17.109 -0.1405 -0.3070  0.3159
  316TMC3    C6 4804   1.194   2.950  17.200  0.0423  0.7957 -0.5596
  316TMC3     C 4805   0.897   2.676  17.287  0.6948 -0.6559  0.1632
  316TMC3     O 4806   0.796   2.702  17.221 -0.1256 -0.0144  0.4273
  316TMC3     H 4807   1.104   2.744  17.450  1.6732  1.8233  1.5218
  316TMC3    H1 4808   0.920   2.809  17.072  0.2584 -2.1061  0.8008
  316TMC3    H2 4809   1.276   3.013  17.167  0.6428 -0.2231 -1.0104
  316TMC3    C7 4810   1.128   2.955  16.972 -0.0980 -0.5595 -0.3358
  316TMC3    C8 4811   1.320   2.889  17.396  0.0172  0.7090 -0.6641
  316TMC3    O1 4812   1.195   2.874  16.912 -0.6247 -0.3182  0.0287
  316TMC3    O2 4813   1.389   2.989  17.382  0.2066  0.3351 -0.3336
  317MPD2     C 4814   2.925   1.289  12.634 -0.0471 -0.1249 -0.1180
  317MPD2    C1 4815   3.025   1.204  12.595  0.1991 -0.3274 -0.6316
  317MPD2    C2 4816   3.088   1.140  12.696 -0.2837  0.1644  0.8662
  317MPD2    C3 4817   3.059   1.156  12.832  0.5549 -0.0100  0.3356
  317MPD2    C4 4818   2.942   1.225  12.861  0.1479  0.4379 -0.6102
  317MPD2    C5 4819   2.889   1.297  12.762 -0.5681  0.0633  0.0249
  317MPD2     H 4820   3.175   1.084  12.661 -0.5562  2.4430 -3.5062
  317MPD2    H1 4821   2.902   1.241  12.961  0.9770  1.5588 -0.4600
  317MPD2    H2 4822   2.864   1.343  12.562 -1.7700 -0.3333  1.2011
  317MPD2    H3 4823   2.807   1.365  12.780 -1.2320 -0.4603 -1.0009
  317MPD2     N 4824   3.141   1.091  12.923 -1.0509 -0.1663 -0.6022
  317MPD2    H5 4825   3.225   1.044  12.891  0.0412  1.5674 -0.2760
  317MPD2    N1 4826   3.083   1.201  12.465 -0.0335 -0.3742  0.1863
  317MPD2    H7 4827   3.147   1.126  12.446 -0.8512 -1.0024 -0.0952
  318TMC3    C1 4828   3.209   0.975  13.119  0.1779 -0.1230 -0.1546
  318TMC3    C2 4829   3.148   0.856  13.155 -0.0521 -1.0822  0.0616
  318TMC3    C3 4830   3.220   0.735  13.143  0.0723 -0.0377 -0.6330
  318TMC3    C4 4831   3.341   0.971  13.073  0.6494  0.3564  0.4213
  318TMC3    C5 4832   3.406   0.852  13.060  0.2239 -0.3876 -0.3012
  318TMC3    C6 4833   3.350   0.740  13.103 -0.1520 -0.1481 -0.2815
  318TMC3     C 4834   3.114   1.070  13.060  0.3096  0.3016 -0.2847
  318TMC3     O 4835   3.005   1.083  13.116  0.2463 -0.0592  0.4936
  318TMC3     H 4836   3.045   0.858  13.189 -0.4958  3.0136 -1.5019
  318TMC3    H1 4837   3.389   1.067  13.052  0.7488  0.1444 -0.3248
  318TMC3    H2 4838   3.394   0.642  13.097 -2.1946 -1.1711  1.3001
  318TMC3    C7 4839   3.528   0.846  12.982 -0.2471  0.3881  0.0438
  318TMC3    C8 4840   3.144   0.631  13.074  0.4078  0.0052  0.9191
  318TMC3    O1 4841   3.538   0.930  12.892  0.2703 -0.2802  0.4703
  318TMC3    O2 4842   3.200   0.571  12.980 -0.4510  0.2460 -0.4498
  319MPD2     C 4843   3.464   2.516  16.968  0.4692  0.2278 -0.2154
  319MPD2    C1 4844   3.520   2.515  16.839 -0.7002  0.3100 -0.3313
  319MPD2    C2 4845   3.436   2.490  16.732  0.6441  0.5292  0.2696
  319MPD2    C3 4846   3.305   2.458  16.747  0.5007 -0.4537 -0.1000
  319MPD2    C4 4847   3.252   2.460  16.876 -0.5995 -0.8973 -0.4178
  319MPD2    C5 4848   3.331   2.484  16.981 -0.4090  0.4274 -0.1699
  319MPD2     H 4849   3.485   2.483  16.636  1.2897  0.6032  0.5942
  319MPD2    H1 4850   3.149   2.438  16.900 -0.5097  1.7948  2.3856
  319MPD2    H2 4851   3.529   2.539  17.051  2.6838  1.4630 -2.2930
  319MPD2    H3 4852   3.291   2.466  17.080  1.7218  0.4964  0.7075
  319MPD2     N 4853   3.222   2.412  16.645 -0.0191  0.7645  0.4228
  319MPD2    H5 4854   3.131   2.374  16.669  0.1973 -0.0323 -0.0092
  319MPD2    N1 4855   3.657   2.532  16.810  0.1764 -0.1797 -0.4903
  319MPD2    H7 4856   3.689   2.491  16.724 -0.9162 -0.1027 -0.9355
  320TMC3    C1 4857   3.150   2.351  16.424 -0.7172 -0.6863  0.4587
  320TMC3    C2 4858   3.139   2.393  16.296 -0.5599  0.0337  0.4244
  320TMC3    C3 4859   3.068   2.308  16.214 -0.4049  0.5775 -1.1139
  320TMC3    C4 4860   3.097   2.232  16.463  0.0308  0.1923  1.5783
  320TMC3    C5 4861   3.012   2.159  16.383  0.7049  0.1362 -0.1090
  320TMC3    C6 4862   2.993   2.194  16.248 -0.7147 -0.0985  0.6585
  320TMC3     C 4863   3.252   2.419  16.508  0.0633 -0.2269  0.4634
  320TMC3     O 4864   3.319   2.501  16.451 -0.5087  0.0877  0.4229
  320TMC3     H 4865   3.201   2.471  16.255 -1.7009 -0.1590 -1.6917
  320TMC3    H1 4866   3.121   2.188  16.560  0.8408  0.1430  1.3512
  320TMC3    H2 4867   2.938   2.133  16.177  0.4316  0.6993 -0.9307
  320TMC3    C7 4868   3.018   2.015  16.405  0.4497  0.3955  0.5387
  320TMC3    C8 4869   3.036   2.362  16.081 -0.1302  0.2151 -0.3001
  320TMC3    O1 4870   3.121   1.979  16.457 -0.0717 -0.1620 -0.7446
  320TMC3    O2 4871   3.046   2.484  16.074  0.0256 -0.1735  0.5131
  321TMC3    C1 4872   3.879   2.560  16.856 -0.3549  0.3678  0.3830
  321TMC3    C2 4873   3.911   2.428  16.819 -0.0900 -0.0642 -0.5523
  321TMC3    C3 4874   4.044   2.393  16.811  0.3329 -0.9777 -0.6458
  321TMC3    C4 4875   3.976   2.654  16.877  0.2160  0.4123  0.1995
  321TMC3    C5 4876   4.111   2.609  16.878  0.0781  0.5636  0.3109
  321TMC3    C6 4877   4.143   2.489  16.834  0.0139  0.2299  0.3144
  321TMC3     C 4878   3.747   2.593  16.899  1.0565 -0.4451  0.6525
  321TMC3     O 4879   3.739   2.670  16.999 -0.2064  0.3909 -0.7190
  321TMC3     H 4880   3.826   2.363  16.799  0.6309 -1.4621  0.8771
  321TMC3    H1 4881   3.952   2.752  16.918 -2.2439  0.5596 -1.6131
  321TMC3    H2 4882   4.247   2.465  16.819  0.1009 -0.4866  2.1398
  321TMC3    C7 4883   4.167   2.631  17.008 -0.2380  0.7569  0.1346
  321TMC3    C8 4884   4.082   2.263  16.863 -0.5090 -0.4597  0.4784
  321TMC3    O1 4885   4.153   2.736  17.071  0.2531  0.0740 -0.5794
  321TMC3    O2 4886   4.198   2.242  16.900  0.3514 -0.6434 -0.1516
  322MPD2     C 4887   2.706   3.577  13.583 -0.4482  0.1452  0.1015
  322MPD2    C1 4888   2.759   3.471  13.648  0.0157 -0.3270 -0.1479
  322MPD2    C2 4889   2.851   3.385  13.599 -0.4912 -0.5056  0.3086
  322MPD2    C3 4890   2.888   3.392  13.467 -0.2438 -0.6080 -0.6136
  322MPD2    C4 4891   2.846   3.508  13.406  0.3411 -0.0081 -0.2804
  322MPD2    C5 4892   2.746   3.591  13.456  0.4312  0.0638  0.0976
  322MPD2     H 4893   2.900   3.305  13.654 -1.5272 -0.3161  1.4814
  322MPD2    H1 4894   2.873   3.532  13.304 -1.6934 -0.6079 -0.9760
  322MPD2    H2 4895   2.640   3.653  13.623  1.5114  1.1706  1.4311
  322MPD2    H3 4896   2.720   3.680  13.401  1.3573 -0.3501 -1.0321
  322MPD2     N 4897   2.984   3.302  13.411 -0.3025 -0.4766 -0.3030
  322MPD2    H5 4898   3.007   3.224  13.472 -0.3222  0.1178  0.4530
  322MPD2    N1 4899   2.715   3.465  13.784 -0.8445  0.5500 -0.3250
  322MPD2    H7 4900   2.652   3.534  13.825 -1.1637  0.8561 -1.3411
  323TMC3    C1 4901   2.741   3.422  14.012 -0.3795 -0.1509 -0.0156
  323TMC3    C2 4902   2.765   3.554  14.037  0.2607  0.4873 -0.0698
  323TMC3    C3 4903   2.821   3.593  14.154  1.4387  0.4123 -0.1560
  323TMC3    C4 4904   2.757   3.324  14.102  0.0994 -0.1176  0.5410
  323TMC3    C5 4905   2.796   3.371  14.229  0.6018 -0.1242 -0.1245
  323TMC3    C6 4906   2.839   3.498  14.250 -0.4692  0.3072 -0.1495
  323TMC3     C 4907   2.754   3.372  13.875 -0.7278  0.2457  0.0273
  323TMC3     O 4908   2.803   3.259  13.860  0.1844  1.0369  0.7161
  323TMC3     H 4909   2.760   3.621  13.952  1.3856 -0.1791 -0.6651
  323TMC3    H1 4910   2.761   3.217  14.086  1.0930  0.2457 -1.6313
  323TMC3    H2 4911   2.892   3.512  14.343  0.6455 -0.6830 -0.6288
  323TMC3    C7 4912   2.879   3.274  14.306 -0.2377 -0.3669  0.4821
  323TMC3    C8 4913   2.916   3.706  14.162 -0.1457  0.6705 -0.2504
  323TMC3    O1 4914   2.941   3.182  14.247  0.1681 -0.2473  0.1502
  323TMC3    O2 4915   3.017   3.685  14.229  0.1309  0.3157  0.2044
  324MPD2     C 4916   3.589   0.086  14.419  0.2654 -0.0559  0.3569
  324MPD2    C1 4917   3.636   0.053  14.295  0.3688  0.0154  0.0299
  324MPD2    C2 4918   3.537   0.022  14.199 -0.2658  0.1710 -0.0921
  324MPD2    C3 4919   3.402   0.037  14.225 -0.0356  0.4254  0.6884
  324MPD2    C4 4920   3.361   0.084  14.348  0.3045 -0.1558  0.1837
  324MPD2    C5 4921   3.456   0.113  14.448 -0.5012  0.3078  0.1109
  324MPD2     H 4922   3.571   4.726  14.100 -1.4968  1.2761 -0.8413
  324MPD2    H1 4923   3.260   0.114  14.373 -0.1718 -1.7430  0.1653
  324MPD2    H2 4924   3.665   0.098  14.496  0.5067 -1.4644  0.3385
  324MPD2    H3 4925   3.422   0.140  14.547  0.7918 -2.7350  1.3832
  324MPD2     N 4926   3.309   0.017  14.120  0.2721  0.4814  0.4021
  324MPD2    H5 4927   3.219   0.064  14.128  0.6162  1.3935 -1.0632
  324MPD2    N1 4928   3.776   0.054  14.251 -0.1776 -0.3248 -0.1290
  324MPD2    H7 4929   3.786   0.007  14.162 -0.2673 -0.0775 -0.2712
  325TMC3    C1 4930   3.235   4.709  13.902 -0.1625 -0.3697 -0.4077
  325TMC3    C2 4931   3.198   4.610  13.811  0.0296 -1.0253  0.1397
  325TMC3    C3 4932   3.222   4.644  13.683 -0.3301  0.5097  0.2404
  325TMC3    C4 4933   3.260   0.110  13.863 -0.1788 -0.1716  0.1430
  325TMC3    C5 4934   3.268   0.139  13.728 -0.7472 -0.3003 -0.0268
  325TMC3    C6 4935   3.265   0.033  13.637 -1.1291 -0.4750  0.1019
  325TMC3     C 4936   3.328   4.673  14.008  0.1744 -0.7042 -0.1848
  325TMC3     O 4937   3.420   4.601  13.973  0.0113 -0.3627  0.2412
  325TMC3     H 4938   3.181   4.506  13.838 -1.0690 -1.4518 -2.1924
  325TMC3    H1 4939   3.288   0.185  13.935  0.1152  1.1620 -1.3634
  325TMC3    H2 4940   3.283   0.052  13.531  3.6043 -0.9117  0.8130
  325TMC3    C7 4941   3.365   0.246  13.706  0.3421 -0.9483  0.6284
  325TMC3    C8 4942   3.212   4.541  13.586 -0.2465 -0.5498 -0.1002
  325TMC3    O1 4943   3.331   0.355  13.758  0.6593  0.7998  0.0617
  325TMC3    O2 4944   3.302   4.543  13.497  0.0355 -0.4870  0.4941
  326MPD2     C 4945   0.177   2.234  10.226  0.5875  0.6123  0.7752
  326MPD2    C1 4946   0.202   2.099  10.205 -0.5374 -0.9712  0.3347
  326MPD2    C2 4947   0.333   2.064  10.170  0.0471 -0.8691 -0.2705
  326MPD2    C3 4948   0.431   2.155  10.144 -0.4256 -0.8111 -0.6365
  326MPD2    C4 4949   0.402   2.288  10.152  0.7591  0.1760 -0.4648
  326MPD2    C5 4950   0.277   2.323  10.186  0.0130 -0.3023  0.3382
  326MPD2     H 4951   0.363   1.961  10.155 -4.5021 -2.6054  2.6825
  326MPD2    H1 4952   0.486   2.356  10.144  0.1836  1.0839  1.2150
  326MPD2    H2 4953   0.080   2.276  10.252  0.4545  0.9402 -0.2700
  326MPD2    H3 4954   0.246   2.427  10.191 -1.0845 -0.5352 -1.8033
  326MPD2     N 4955   0.559   2.108  10.104 -0.5581 -0.4385  0.0426
  326MPD2    H5 4956   0.579   2.010  10.121 -0.5739 -0.3916  0.3358
  326MPD2    N1 4957   0.098   2.012  10.239 -0.6600  0.1778 -0.3297
  326MPD2    H7 4958   0.015   2.060  10.271 -1.0476 -0.8454  0.1707
  327TMC3    C1 4959   4.730   1.797  10.263 -0.0850 -0.0539 -0.3596
  327TMC3    C2 4960   4.601   1.846  10.269  0.2153  0.7314 -0.4507
  327TMC3    C3 4961   4.498   1.772  10.323  0.1427 -0.2788  0.3017
  327TMC3    C4 4962   0.012   1.671  10.317 -0.3470  0.4010  0.6004
  327TMC3    C5 4963   4.640   1.608  10.382  0.3236  0.1326  0.1957
  327TMC3    C6 4964   4.511   1.650  10.376 -0.4324 -0.4538 -0.2149
  327TMC3     C 4965   0.115   1.876  10.227  0.1995 -0.1998 -0.1894
  327TMC3     O 4966   0.217   1.815  10.200 -0.3573  0.2765 -0.4713
  327TMC3     H 4967   4.570   1.941  10.226 -3.1853 -0.3779 -0.4249
  327TMC3    H1 4968   0.112   1.630  10.314 -0.9938 -1.1663  0.2665
  327TMC3    H2 4969   4.427   1.590  10.408  0.3183 -1.2517  0.2630
  327TMC3    C7 4970   4.660   1.465  10.408 -0.5550 -0.8043 -0.8661
  327TMC3    C8 4971   4.377   1.839  10.325  0.2050  0.2476  0.4079
  327TMC3    O1 4972   4.564   1.392  10.395 -0.1250  0.5830  0.4011
  327TMC3    O2 4973   4.342   1.909  10.229 -0.2439 -0.2173 -0.0831
  328MPD2     C 4974   3.202   0.735  17.446 -0.1266 -0.1591  0.2208
  328MPD2    C1 4975   3.121   0.636  17.395  0.0074  1.0049 -0.7022
  328MPD2    C2 4976   3.070   0.652  17.267 -0.2277  0.8411 -0.2037
  328MPD2    C3 4977   3.086   0.765  17.191  0.1819 -0.1461  0.6002
  328MPD2    C4 4978   3.177   0.865  17.238 -0.6534  0.1397 -0.4042
  328MPD2    C5 4979   3.230   0.843  17.364  0.1283 -0.8020  1.0011
  328MPD2     H 4980   3.023   0.563  17.226 -0.7198  0.6076  0.8661
  328MPD2    H1 4981   3.184   0.960  17.186 -1.0491  0.3500 -0.0729
  328MPD2    H2 4982   3.234   0.739  17.549 -0.5790 -0.1624  0.3598
  328MPD2    H3 4983   3.293   0.923  17.401  0.6871 -0.6249 -0.3334
  328MPD2     N 4984   3.017   0.791  17.070 -0.0696 -0.0752  0.4745
  328MPD2    H5 4985   3.044   0.867  17.009 -0.3697  0.2834  0.7898
  328MPD2    N1 4986   3.094   0.529  17.476  0.3182 -0.2437 -0.0549
  328MPD2    H7 4987   3.138   0.516  17.566  0.5326 -1.4436 -0.3321
  329TMC3    C1 4988   2.946   0.371  17.570  0.4626 -0.0704  0.0696
  329TMC3    C2 4989   2.937   0.441  17.689 -0.3153  0.0632 -0.3080
  329TMC3    C3 4990   2.855   0.389   0.049  0.6836  0.0682 -0.5230
  329TMC3    C4 4991   2.878   0.250  17.550  0.2654 -0.1281  0.2892
  329TMC3    C5 4992   2.811   0.193  17.657  0.5482 -0.8493 -1.0534
  329TMC3    C6 4993   2.799   0.261   0.042 -0.2150 -0.4174 -0.5869
  329TMC3     C 4994   2.987   0.447  17.460 -0.8614 -0.0030  0.9417
  329TMC3     O 4995   2.910   0.434  17.368  0.1691 -0.1586  0.0158
  329TMC3     H 4996   2.981   0.540  17.701 -2.1747  0.8091  0.5390
  329TMC3    H1 4997   2.892   0.195  17.458 -1.3022  0.0593 -0.0657
  329TMC3    H2 4998   2.719   0.239   0.113 -0.6436 -0.8971 -1.2118
  329TMC3    C7 4999   2.746   0.069  17.635 -0.5111 -0.4278 -0.5844
  329TMC3    C8 5000   2.761   0.486   0.114 -0.4365  0.2876  0.5948
  329TMC3    O1 5001   2.750   0.020  17.522  0.3530  0.3446 -0.3582
  329TMC3    O2 5002   2.641   0.456   0.129 -0.5208  0.9031  0.0170
  330TMC3    C1 5003   1.110   1.293   9.528 -0.0895  0.2257 -0.3085
  330TMC3    C2 5004   1.034   1.196   9.471  0.0263 -0.6002 -0.8282
  330TMC3    C3 5005   1.061   1.068   9.508  0.1957 -0.0132 -0.6786
  330TMC3    C4 5006   1.208   1.271   9.617  0.4417 -0.0828 -0.2890
  330TMC3    C5 5007   1.230   1.139   9.658  0.9769  0.7427  0.4578
  330TMC3    C6 5008   1.158   1.031   9.607 -0.3315 -0.1105 -0.1147
  330TMC3     C 5009   1.085   1.431   9.478  0.5615 -0.1773  0.7755
  330TMC3     O 5010   1.170   1.514   9.486 -0.3762 -0.1116 -0.0094
  330TMC3     H 5011   0.970   1.208   9.384  0.4371  0.5602 -0.9651
  330TMC3    H1 5012   1.270   1.355   9.647  0.3413 -0.4686  0.9666
  330TMC3    H2 5013   1.189   0.929   9.627  0.1511 -0.2047 -1.3057
  330TMC3    C7 5014   1.339   1.106   9.751  0.1103 -0.1374 -0.3589
  330TMC3    C8 5015   0.977   0.969   9.454 -0.0917  0.0525  0.5685
  330TMC3    O1 5016   1.357   0.986   9.772  0.1658  0.2282  0.3379
  330TMC3    O2 5017   0.942   0.985   9.337 -0.4721  0.1051 -0.2988
  331MPD2     C 5018   4.453   4.219  11.850  0.3889 -0.6302  0.3199
  331MPD2    C1 5019   4.343   4.162  11.781  0.3487 -0.3120  0.6139
  331MPD2    C2 5020   4.294   4.042  11.816  0.1444 -0.0152  0.4739
  331MPD2    C3 5021   4.341   3.981  11.933  0.3398 -0.0874 -0.0726
  331MPD2    C4 5022   4.448   4.033  11.999  0.0218 -0.4264 -0.0932
  331MPD2    C5 5023   4.501   4.155  11.960 -0.1948 -0.4301  0.3073
  331MPD2     H 5024   4.209   3.993  11.770 -0.6414  3.2580 -1.5267
  331MPD2    H1 5025   4.478   3.991  12.095  1.1859 -1.6385 -0.9845
  331MPD2    H2 5026   4.504   4.306  11.810  0.6058 -0.8213  0.1799
  331MPD2    H3 5027   4.582   4.198  12.018  1.1814 -0.1735 -1.8200
  331MPD2     N 5028   4.278   3.864  11.975 -0.0452  0.2064 -0.3361
  331MPD2    H5 5029   4.196   3.834  11.923 -1.3745  1.4615  1.0360
  331MPD2    N1 5030   4.294   4.235  11.673 -0.2387 -0.0954  0.4886
  331MPD2    H7 5031   4.340   4.323  11.651  0.3991 -0.4971  0.1845
  332TMC3    C1 5032   4.217   3.677  12.103 -0.4446 -0.0979  0.1310
  332TMC3    C2 5033   4.105   3.660  12.025  0.0478 -0.0394 -0.0972
  332TMC3    C3 5034   4.028   3.544  12.036  0.2618  0.2091 -0.0498
  332TMC3    C4 5035   4.242   3.582  12.195  0.6491  0.0288  0.1904
  332TMC3    C5 5036   4.160   3.480  12.217  0.1510 -0.3957  0.0697
  332TMC3    C6 5037   4.056   3.452  12.139 -0.1718 -0.1133 -0.4116
  332TMC3     C 5038   4.313   3.785  12.080  0.4564  0.2354 -0.1926
  332TMC3     O 5039   4.411   3.787  12.151 -0.0990 -0.4236  0.1572
  332TMC3     H 5040   4.059   3.725  11.951  2.4271  0.1167 -1.4641
  332TMC3    H1 5041   4.318   3.605  12.269  0.4318  1.4155 -0.0162
  332TMC3    H2 5042   4.001   3.360  12.153 -0.8528  0.0525 -2.0108
  332TMC3    C7 5043   4.209   3.364  12.291 -0.8453 -0.3530  1.0603
  332TMC3    C8 5044   3.905   3.540  11.957  0.6178 -0.0607 -0.1769
  332TMC3    O1 5045   4.160   3.250  12.276  0.7350  0.1819  0.5894
  332TMC3    O2 5046   3.917   3.573  11.842  0.8031 -0.3615  0.0101
  333MPD2     C 5047   4.031   0.273  10.840 -0.1999  0.3358 -0.8773
  333MPD2    C1 5048   4.089   0.165  10.782 -0.0570 -0.0591 -0.0243
  333MPD2    C2 5049   4.028   0.041  10.799  0.0014 -0.2607  0.6438
  333MPD2    C3 5050   3.904   0.018  10.858  0.1541  0.1803 -0.6181
  333MPD2    C4 5051   3.840   0.130  10.903  0.2986  0.2617 -1.0505
  333MPD2    C5 5052   3.906   0.255  10.898 -0.9199 -0.5238  0.6033
  333MPD2     H 5053   4.073   4.684  10.763 -0.1119 -1.3511  3.3119
  333MPD2    H1 5054   3.740   0.121  10.944  0.7337  0.2598  0.0159
  333MPD2    H2 5055   4.059   0.376  10.817  2.1134  0.0341  0.5787
  333MPD2    H3 5056   3.858   0.336  10.951 -0.4521 -0.1260  0.4261
  333MPD2     N 5057   3.857   4.619  10.856 -0.7545 -0.3838 -0.3513
  333MPD2    H5 5058   3.926   4.545  10.841 -0.4231 -0.6550  2.6115
  333MPD2    N1 5059   4.208   0.189  10.713 -0.1248  0.5061 -0.1699
  333MPD2    H7 5060   4.256   0.279  10.713 -0.2623  0.5785 -0.5983
  334TMC3    C1 5061   4.399   0.159  10.591 -0.2657  0.1830  0.0052
  334TMC3    C2 5062   4.503   0.068  10.588 -0.0752  0.1608  0.1501
  334TMC3    C3 5063   4.628   0.112  10.614 -0.1108  0.4133  0.1950
  334TMC3    C4 5064   4.415   0.294  10.606  0.2140 -0.4912 -0.3092
  334TMC3    C5 5065   4.542   0.332  10.619 -0.0447  0.0473  0.0389
  334TMC3    C6 5066   4.648   0.248  10.623  0.6421 -0.4679  0.0251
  334TMC3     C 5067   4.275   0.098  10.640 -0.1187  0.4928 -0.2177
  334TMC3     O 5068   4.246   4.715  10.621  0.0362  0.0778 -0.1216
  334TMC3     H 5069   4.478   4.697  10.586  1.3398 -0.1139 -2.2722
  334TMC3    H1 5070   4.332   0.364  10.599  0.3757 -0.4982 -2.2275
  334TMC3    H2 5071   0.006   0.291  10.660  1.4158 -1.1646 -1.0969
  334TMC3    C7 5072   4.577   0.467  10.658 -0.1571 -0.6044 -0.1509
  334TMC3    C8 5073   4.732   0.037  10.552 -0.5354  0.3318 -0.5466
  334TMC3    O1 5074   4.655   0.475  10.751  0.3029 -0.2014 -0.8154
  334TMC3    O2 5075   4.711   4.653  10.537  0.1187  0.5068 -0.0564
  335TMC3    C1 5076   3.856   1.281  17.656 -0.1022  0.1007  0.3345
  335TMC3    C2 5077   3.758   1.212  17.598 -0.2979  0.8357  0.6488
  335TMC3    C3 5078   3.796   1.119  17.502 -0.3280 -0.7061 -1.0192
  335TMC3    C4 5079   3.989   1.253  17.638 -0.1104  0.2814 -0.3003
  335TMC3    C5 5080   4.025   1.154  17.543  0.1325 -0.2941  0.4370
  335TMC3    C6 5081   3.926   1.093  17.469 -0.8286  0.3619  0.0800
  335TMC3     C 5082   3.829   1.385   0.019 -0.3600 -0.1940 -0.1455
  335TMC3     O 5083   3.914   1.398   0.108  0.5441 -0.0697  0.4754
  335TMC3     H 5084   3.651   1.226  17.612 -0.5458 -0.4479 -0.0344
  335TMC3    H1 5085   4.065   1.312  17.689 -1.1571  1.2029  0.1822
  335TMC3    H2 5086   3.952   1.021  17.393  0.6666  2.9911 -1.9019
  335TMC3    C7 5087   4.162   1.126  17.508  0.4549 -0.6895 -0.2405
  335TMC3    C8 5088   3.701   1.057  17.419  0.2795  0.3868 -0.3049
  335TMC3    O1 5089   4.183   1.032  17.434  0.6735 -0.0637 -0.2533
  335TMC3    O2 5090   3.594   1.031  17.462 -0.0233 -0.7081 -0.2174
  336MPD2     C 5091   3.506   4.003  16.464 -0.0138 -0.4508  0.2819
  336MPD2    C1 5092   3.423   3.965  16.362 -0.6174  0.0777  0.1927
  336MPD2    C2 5093   3.439   3.838  16.312  0.4662 -0.4367  0.4311
  336MPD2    C3 5094   3.516   3.737  16.368 -0.5709 -0.3698 -0.6344
  336MPD2    C4 5095   3.601   3.771  16.476 -0.7021  0.3650 -0.2229
  336MPD2    C5 5096   3.596   3.905  16.518  1.1328 -0.1734  0.0840
  336MPD2     H 5097   3.390   3.817  16.218  0.4063  3.0878 -0.3149
  336MPD2    H1 5098   3.660   3.700  16.533  0.8717  3.1645  1.6356
  336MPD2    H2 5099   3.505   4.097  16.517  0.1569  0.1590 -0.8139
  336MPD2    H3 5100   3.655   3.931  16.605  1.1637 -2.5631  0.7939
  336MPD2     N 5101   3.531   3.611  16.312 -0.2977  0.0012  0.1691
  336MPD2    H5 5102   3.600   3.548  16.351 -0.5290 -0.0169  0.5497
  336MPD2    N1 5103   3.322   4.039  16.302 -0.3927  0.0708 -0.1783
  336MPD2    H7 5104   3.264   3.988  16.236 -0.6153  1.0405 -0.7370
  337TMC3    C1 5105   3.160   4.205  16.269  0.3357 -0.1913  0.0935
  337TMC3    C2 5106   3.070   4.112  16.237 -0.2603 -0.1072 -0.0014
  337TMC3    C3 5107   2.960   4.163  16.179 -0.8050 -0.2675 -0.0509
  337TMC3    C4 5108   3.137   4.342  16.269  0.5171  0.0336  0.5626
  337TMC3    C5 5109   3.027   4.378  16.194  0.0839  0.3466  0.4417
  337TMC3    C6 5110   2.935   4.293  16.149 -0.1774  0.5085 -0.6797
  337TMC3     C 5111   3.286   4.162  16.338  0.4133 -0.8009  0.6406
  337TMC3     O 5112   3.352   4.251  16.393 -0.2453  0.2708 -0.7598
  337TMC3     H 5113   3.080   4.005  16.250  3.1418 -0.0309 -1.9724
  337TMC3    H1 5114   3.201   4.419  16.310 -0.8155  2.3583 -1.7536
  337TMC3    H2 5115   2.843   4.323  16.101 -2.1869  0.5351  3.2400
  337TMC3    C7 5116   3.002   4.516  16.160 -0.2867  0.0456 -0.2741
  337TMC3    C8 5117   2.854   4.064  16.152 -0.0639 -0.1075 -0.5049
  337TMC3    O1 5118   2.899   4.558  16.108 -0.4615  0.2255  0.3288
  337TMC3    O2 5119   2.826   3.988  16.242  0.1692  0.2797  0.3089
  338MPD2     C 5120   4.474   3.339   0.997  0.1253 -0.8646  0.2243
  338MPD2    C1 5121   4.391   3.275   0.907  0.0833  0.4626 -0.4980
  338MPD2    C2 5122   4.262   3.322   0.908  0.5773  0.4050  0.1421
  338MPD2    C3 5123   4.222   3.434   0.975  0.8864 -0.7400 -0.0851
  338MPD2    C4 5124   4.312   3.510   1.048 -0.3842 -0.4045 -0.1488
  338MPD2    C5 5125   4.441   3.460   1.062  0.1498  0.6434  0.6401
  338MPD2     H 5126   4.181   3.269   0.859  0.4918 -1.5360  2.3752
  338MPD2    H1 5127   4.278   3.598   1.102  0.2132  0.2552 -0.8545
  338MPD2    H2 5128   4.571   3.294   1.012  0.0381 -0.9822  0.4380
  338MPD2    H3 5129   4.508   3.516   1.127  0.9669  0.4636 -0.0373
  338MPD2     N 5130   4.086   3.466   0.977 -0.2514 -0.5643 -0.2669
  338MPD2    H5 5131   4.021   3.405   0.929 -1.3718 -0.2587  0.8552
  338MPD2    N1 5132   4.425   3.159   0.831 -0.5149 -0.1313  0.5991
  338MPD2    H7 5133   4.340   3.123   0.789  0.8475 -0.0232 -2.2805
  339TMC3    C1 5134   3.879   3.541   1.032  0.5979  0.6232  0.7142
  339TMC3    C2 5135   3.802   3.511   1.140 -0.2867 -0.0075 -0.2316
  339TMC3    C3 5136   3.682   3.442   1.124  0.0486  0.1515 -0.6308
  339TMC3    C4 5137   3.836   3.499   0.915  0.2280 -0.0492  0.2831
  339TMC3    C5 5138   3.716   3.432   0.897  0.9521 -0.1687  0.2355
  339TMC3    C6 5139   3.633   3.403   1.004  0.3087 -0.2337  0.2341
  339TMC3     C 5140   4.022   3.559   1.054  1.2042  0.1407 -0.3688
  339TMC3     O 5141   4.068   3.629   1.138 -0.2711 -0.4246 -0.1730
  339TMC3     H 5142   3.827   3.555   1.236  0.8946  1.7302 -1.3420
  339TMC3    H1 5143   3.888   3.538   0.828  1.7245  0.4259  1.4069
  339TMC3    H2 5144   3.539   3.349   0.997 -0.0884  0.5443 -0.4862
  339TMC3    C7 5145   3.683   3.383   0.766  0.7435 -0.0151 -0.6705
  339TMC3    C8 5146   3.614   3.409   1.252  0.6709  0.0556 -0.2382
  339TMC3    O1 5147   3.779   3.389   0.687 -0.2561 -0.7465 -0.1613
  339TMC3    O2 5148   3.622   3.482   1.351 -0.3137  0.1780 -0.4259
  340MPD2     C 5149   4.043   1.548  10.297  0.1896  0.6887 -0.1483
  340MPD2    C1 5150   4.016   1.421  10.257  0.8526  0.3895 -0.0106
  340MPD2    C2 5151   4.098   1.349  10.173 -0.3874  0.8673  0.6560
  340MPD2    C3 5152   4.191   1.420  10.091  0.0027  0.4831  0.4322
  340MPD2    C4 5153   4.193   1.554  10.112 -0.5064  0.1019 -0.0142
  340MPD2    C5 5154   4.123   1.615  10.207 -0.4613 -0.0025 -0.5994
  340MPD2     H 5155   4.085   1.244  10.150 -0.5321  1.3284 -1.3959
  340MPD2    H1 5156   4.251   1.608  10.038  0.5436 -0.4361  0.4170
  340MPD2    H2 5157   3.985   1.604  10.369 -0.0757  0.1890  0.0247
  340MPD2    H3 5158   4.123   1.723  10.211  1.4233  0.0422 -1.9636
  340MPD2     N 5159   4.270   1.358   9.990 -0.0567  0.2402 -0.2661
  340MPD2    H5 5160   4.331   1.413   9.930 -1.5134 -1.4270 -3.3103
  340MPD2    N1 5161   3.907   1.359  10.328  0.1376 -0.4050 -0.3453
  340MPD2    H7 5162   3.871   1.396  10.415  2.2736  1.0584 -0.0765
  341TMC3    C1 5163   3.836   1.196  10.159 -0.4095 -0.7277 -0.4373
  341TMC3    C2 5164   3.823   1.066  10.140  0.0879 -0.0604 -0.2156
  341TMC3    C3 5165   3.822   1.020  10.009  0.0579  0.3698  0.1355
  341TMC3    C4 5166   3.835   1.287  10.055 -0.3503 -0.1984 -0.3685
  341TMC3    C5 5167   3.838   1.236   9.927  0.0628  0.0443 -0.2209
  341TMC3    C6 5168   3.828   1.100   9.905  0.1564 -0.3943  0.3994
  341TMC3     C 5169   3.844   1.240  10.299  0.9242 -0.2354 -0.6609
  341TMC3     O 5170   3.759   1.184  10.365 -0.0234  0.2146 -0.7879
  341TMC3     H 5171   3.825   0.994  10.221  1.5581  0.1387 -0.0746
  341TMC3    H1 5172   3.839   1.394  10.071  1.6096 -0.6138  1.8861
  341TMC3    H2 5173   3.843   1.058   9.806  0.2016  0.6093 -0.0188
  341TMC3    C7 5174   3.904   1.303   9.815 -0.1477  0.3029  0.3581
  341TMC3    C8 5175   3.780   0.891   9.984  0.4034 -0.1576  0.1939
  341TMC3    O1 5176   3.942   1.229   9.726  0.0201  0.1777  0.1298
  341TMC3    O2 5177   3.739   0.868   9.870 -0.1864 -0.2981 -0.2507
  342MPD2     C 5178   1.766   3.529   0.073 -0.3006 -0.0711  0.2907
  342MPD2    C1 5179   1.868   3.539  17.720  0.0037 -0.1511 -0.0756
  342MPD2    C2 5180   1.949   3.649  17.719 -0.2762 -0.1155 -0.7578
  342MPD2    C3 5181   1.927   3.761   0.062 -0.0109 -0.2329 -0.7683
  342MPD2    C4 5182   1.808   3.754   0.139  0.3128  0.1708  0.5995
  342MPD2    C5 5183   1.741   3.638   0.151 -0.1156  0.1563  0.1007
  342MPD2     H 5184   2.045   3.645  17.671 -1.4117 -0.0410 -3.0092
  342MPD2    H1 5185   1.784   3.843   0.197  2.6317  2.1937 -1.4939
  342MPD2    H2 5186   1.699   3.445   0.077 -1.7164  0.9410 -2.0679
  342MPD2    H3 5187   1.663   3.624   0.225  0.2616  0.1756  0.4985
  342MPD2     N 5188   2.007   3.874   0.052 -0.0751 -0.6001 -0.1576
  342MPD2    H5 5189   1.984   3.959   0.104  1.6378  0.8876 -1.8272
  342MPD2    N1 5190   1.894   3.433  17.634 -0.6644  0.2932  0.1498
  342MPD2    H7 5191   1.973   3.452  17.574 -0.4494  1.5429  0.8230
  343TMC3    C1 5192   1.867   3.257  17.490 -0.5016 -0.5172  0.3361
  343TMC3    C2 5193   1.922   3.341  17.402 -0.3257  0.4404  0.4433
  343TMC3    C3 5194   1.969   3.297  17.288  0.6200  0.0100 -0.1117
  343TMC3    C4 5195   1.875   3.125  17.472  0.2372  0.2368  0.6115
  343TMC3    C5 5196   1.929   3.075  17.357  0.6731  0.2639  0.0549
  343TMC3    C6 5197   1.994   3.164  17.271 -0.5694  0.4472  0.6042
  343TMC3     C 5198   1.826   3.314  17.616  0.3270  0.3245  0.0263
  343TMC3     O 5199   1.744   3.251  17.684 -1.1065 -0.2495 -0.0556
  343TMC3     H 5200   1.902   3.448  17.402  0.0158  0.5056 -0.3857
  343TMC3    H1 5201   1.822   3.063  17.544 -2.8107  0.3037 -1.5949
  343TMC3    H2 5202   2.052   3.115  17.193 -0.6586  2.1829 -0.5517
  343TMC3    C7 5203   1.911   2.936  17.329 -0.2664  0.0489  0.1763
  343TMC3    C8 5204   2.043   3.400  17.212 -0.0981  0.0314 -0.9737
  343TMC3    O1 5205   1.925   2.902  17.212 -0.1136 -0.2147  0.5944
  343TMC3    O2 5206   2.080   3.495  17.278  0.5452 -0.6145 -0.6950
  344MPD2     C 5207   2.245   4.119  11.602  0.0018  0.2760 -0.0161
  344MPD2    C1 5208   2.239   4.081  11.467 -0.4730  0.3589  0.3063
  344MPD2    C2 5209   2.286   4.171  11.368 -0.2976 -0.4737 -0.4487
  344MPD2    C3 5210   2.329   4.291  11.401  0.1766  0.0684 -0.3423
  344MPD2    C4 5211   2.337   4.324  11.538  0.1817 -0.4058 -0.0405
  344MPD2    C5 5212   2.298   4.237  11.638 -0.1261 -0.5456  0.1426
  344MPD2     H 5213   2.291   4.134  11.267  0.6673 -2.3756  0.2966
  344MPD2    H1 5214   2.387   4.420  11.551 -1.1320  0.2840 -0.0949
  344MPD2    H2 5215   2.220   4.052  11.685 -0.9287  0.2715 -0.2937
  344MPD2    H3 5216   2.298   4.275  11.739 -0.0875  1.1967 -0.5059
  344MPD2     N 5217   2.406   4.367  11.313 -0.3072 -0.1589  0.7897
  344MPD2    H5 5218   2.451   4.448  11.356 -0.8232  0.3386  0.3958
  344MPD2    N1 5219   2.198   3.952  11.418 -0.4572 -0.3790 -0.3760
  344MPD2    H7 5220   2.203   3.946  11.317  1.2325  2.5276 -0.4878
  345TMC3    C1 5221   2.504   4.454  11.122  0.7757  0.0770  0.1379
  345TMC3    C2 5222   2.613   4.475  11.197 -0.3502 -0.3721 -0.1083
  345TMC3    C3 5223   2.703   4.559  11.141 -0.4008  0.7070  0.1505
  345TMC3    C4 5224   2.476   4.507  10.999  0.4611 -0.1408  0.7032
  345TMC3    C5 5225   2.572   4.593  10.941 -0.8616 -0.3067  0.2768
  345TMC3    C6 5226   2.683   4.611  11.015 -0.0848 -0.4035 -0.2903
  345TMC3     C 5227   2.409   4.358  11.174  0.7281 -0.6501 -0.9485
  345TMC3     O 5228   2.330   4.301  11.098  0.4355  0.5918 -0.1667
  345TMC3     H 5229   2.626   4.431  11.295  0.8436 -0.9961 -0.5546
  345TMC3    H1 5230   2.375   4.503  10.959  0.3368 -0.6182  1.0628
  345TMC3    H2 5231   2.768   4.658  10.966  0.5329 -2.6390 -1.3660
  345TMC3    C7 5232   2.554   4.684  10.827  0.2456 -0.3321  0.5581
  345TMC3    C8 5233   2.770   4.646  11.233 -0.1613 -0.5599 -0.6588
  345TMC3    O1 5234   2.653   0.019  10.802 -0.0999 -0.5867 -0.5848
  345TMC3    O2 5235   2.791   4.600  11.347  0.1008 -0.0399 -0.2145
  346MPD2     C 5236   2.995   0.373  14.204 -0.3084  0.4795 -0.4087
  346MPD2    C1 5237   3.074   0.436  14.113 -0.3414 -0.5083  0.8157
  346MPD2    C2 5238   3.190   0.491  14.160  0.7052  0.6610  0.0632
  346MPD2    C3 5239   3.243   0.453  14.283  0.2301 -0.7321 -0.1440
  346MPD2    C4 5240   3.158   0.395  14.375  0.5892 -0.7838  0.4580
  346MPD2    C5 5241   3.029   0.368  14.338 -0.0607  0.0711 -1.1801
  346MPD2     H 5242   3.250   0.544  14.088 -0.9889  2.0993 -0.2801
  346MPD2    H1 5243   3.192   0.373  14.476  2.5825 -2.1316 -0.5071
  346MPD2    H2 5244   2.898   0.334  14.174 -0.7759  1.2259  0.1546
  346MPD2    H3 5245   2.957   0.321  14.404 -1.4731  0.7691 -2.2202
  346MPD2     N 5246   3.379   0.474  14.317 -0.5885  0.3198 -0.4518
  346MPD2    H5 5247   3.433   0.515  14.242 -1.7113  1.8074 -0.4461
  346MPD2    N1 5248   3.048   0.444  13.980 -0.4959  0.1557  0.1063
  346MPD2    H7 5249   3.102   0.510  13.924  0.5517 -0.1138  0.8051
  347TMC3    C1 5250   3.596   0.431  14.411  0.2496 -0.5684  0.6869
  347TMC3    C2 5251   3.637   0.405  14.286  0.2334 -0.1490 -0.0258
  347TMC3    C3 5252   3.765   0.431  14.264  0.3303 -1.1808 -0.5490
  347TMC3    C4 5253   3.679   0.463  14.513 -0.2780 -0.2826 -0.0300
  347TMC3    C5 5254   3.809   0.486  14.480  1.1234 -0.3267 -0.2528
  347TMC3    C6 5255   3.858   0.477  14.355  0.6391  0.6439 -0.0032
  347TMC3     C 5256   3.452   0.433  14.432 -0.6864  0.5012  0.1109
  347TMC3     O 5257   3.413   0.421  14.547 -0.0662  0.4401  0.2422
  347TMC3     H 5258   3.573   0.367  14.207  0.5688 -0.3985 -0.1772
  347TMC3    H1 5259   3.633   0.475  14.611  0.9838 -0.9934  0.6583
  347TMC3    H2 5260   3.958   0.506  14.325  0.5120  1.1747  0.0706
  347TMC3    C7 5261   3.912   0.503  14.587  0.9358 -0.4960  0.4980
  347TMC3    C8 5262   3.825   0.400  14.130  0.1894  0.0826 -0.3499
  347TMC3    O1 5263   4.027   0.534  14.552  0.5649  0.5355 -0.3689
  347TMC3    O2 5264   3.940   0.367  14.119 -0.3128  0.1465  0.2193
  348MPD2     C 5265   1.875   0.458  11.752  0.1213  0.0121 -0.4455
  348MPD2    C1 5266   1.766   0.430  11.672  0.3859  0.1746  0.3669
  348MPD2    C2 5267   1.706   0.538  11.607 -0.1137  0.9111  0.2470
  348MPD2    C3 5268   1.751   0.669  11.612  0.2061 -0.2305  0.1593
  348MPD2    C4 5269   1.858   0.691  11.696  0.3548 -0.0758  0.7528
  348MPD2    C5 5270   1.914   0.585  11.765  0.0167 -0.9120  0.2022
  348MPD2     H 5271   1.631   0.520  11.531 -0.5539  1.0879  0.6401
  348MPD2    H1 5272   1.910   0.785  11.704  0.3473  0.1565 -2.0175
  348MPD2    H2 5273   1.925   0.382  11.811  1.5307 -0.5105 -2.3203
  348MPD2    H3 5274   2.002   0.601  11.826  0.8245 -1.2377 -0.8744
  348MPD2     N 5275   1.682   0.771  11.531  0.3074  0.4050  0.2871
  348MPD2    H5 5276   1.590   0.746  11.497  0.1472 -0.4331  1.3532
  348MPD2    N1 5277   1.707   0.304  11.664  0.1598 -0.0723  0.4476
  348MPD2    H7 5278   1.654   0.285  11.580  0.2162  0.8196  0.2165
  349TMC3    C1 5279   1.660   0.082  11.693  0.1352  0.2552 -0.1968
  349TMC3    C2 5280   1.691   4.696  11.750  0.3529 -0.4620 -1.1448
  349TMC3    C3 5281   1.609   4.586  11.729 -0.5021  0.0212 -0.4971
  349TMC3    C4 5282   1.547   0.106  11.615  0.1874 -0.1504  0.4294
  349TMC3    C5 5283   1.471   4.727  11.600 -0.0815  0.5597 -0.3107
  349TMC3    C6 5284   1.493   4.599  11.656  0.2590  0.7806  0.4982
  349TMC3     C 5285   1.740   0.191  11.733  0.4403 -0.3800 -0.2173
  349TMC3     O 5286   1.812   0.180  11.831 -0.3508  0.2967  0.3586
  349TMC3     H 5287   1.774   4.682  11.819 -0.1666 -1.6639 -0.7646
  349TMC3    H1 5288   1.524   0.197  11.562 -2.2626 -0.1466  1.4791
  349TMC3    H2 5289   1.418   4.522  11.642 -0.8809  1.9608  0.0670
  349TMC3    C7 5290   1.354   0.008  11.523  1.0057  0.2141  0.4888
  349TMC3    C8 5291   1.619   4.478  11.825 -0.1874  0.3273 -0.0085
  349TMC3    O1 5292   1.265   4.659  11.543 -1.2525 -0.0851  0.5769
  349TMC3    O2 5293   1.690   4.509  11.919 -0.0068 -0.0143  0.2847
  350MPD2     C 5294   0.736   3.220  10.155  0.1601  0.2517  0.2561
  350MPD2    C1 5295   0.688   3.112  10.231  0.3827 -0.1082  0.0047
  350MPD2    C2 5296   0.612   3.144  10.340 -0.4049  0.2265  0.1219
  350MPD2    C3 5297   0.581   3.278  10.381  0.1523 -0.1998  0.0117
  350MPD2    C4 5298   0.632   3.384  10.299  1.0590 -1.2806  0.1130
  350MPD2    C5 5299   0.703   3.350  10.185 -1.0417 -0.2824  0.0931
  350MPD2     H 5300   0.570   3.060  10.396  1.2193  0.1930  1.2990
  350MPD2    H1 5301   0.609   3.488  10.320 -2.3504 -1.9218 -0.4460
  350MPD2    H2 5302   0.808   3.205  10.075 -0.6894  1.2504 -0.6859
  350MPD2    H3 5303   0.740   3.422  10.113  0.1101  0.2180  1.1967
  350MPD2     N 5304   0.511   3.294  10.504 -0.2438  0.5801  0.2344
  350MPD2    H5 5305   0.466   3.214  10.549  3.0761 -0.3570  1.8974
  350MPD2    N1 5306   0.722   2.975  10.199  0.0589 -0.0658 -0.7531
  350MPD2    H7 5307   0.706   2.903  10.269 -2.5822  0.7170 -0.5489
  351TMC3    C1 5308   0.824   2.796  10.073  0.5649 -0.3198 -0.0824
  351TMC3    C2 5309   0.855   2.753   9.939 -0.5273  0.3482 -0.3886
  351TMC3    C3 5310   0.838   2.619   9.907 -0.9462  0.0257 -0.0294
  351TMC3    C4 5311   0.782   2.710  10.164  0.1157 -0.2452  0.3991
  351TMC3    C5 5312   0.772   2.572  10.129 -0.4545 -0.5618 -0.0185
  351TMC3    C6 5313   0.804   2.529  10.005 -0.3457 -0.0558  0.5954
  351TMC3     C 5314   0.785   2.932  10.082 -0.4070  0.2553 -0.1349
  351TMC3     O 5315   0.801   2.995   9.980  0.3598  0.5772  0.7464
  351TMC3     H 5316   0.877   2.820   9.857  2.6245  0.1715  0.3294
  351TMC3    H1 5317   0.775   2.739  10.268  0.5112 -1.7161  0.8320
  351TMC3    H2 5318   0.800   2.425   9.973  0.1484  0.1290 -0.0556
  351TMC3    C7 5319   0.773   2.475  10.232 -0.2897  0.2652 -0.4388
  351TMC3    C8 5320   0.874   2.561   9.774  0.3346  0.6480  0.0498
  351TMC3    O1 5321   0.851   2.382  10.227  0.1984 -0.0080  0.1866
  351TMC3    O2 5322   0.966   2.625   9.718  0.0307  0.1663 -0.2704
  352MPD2     C 5323   3.244   4.487   0.944 -1.0760  0.5543  0.1998
  352MPD2    C1 5324   3.310   4.581   1.023 -0.1212 -0.7014 -0.2622
  352MPD2    C2 5325   3.431   4.541   1.085 -0.5540 -0.0628  0.0664
  352MPD2    C3 5326   3.489   4.415   1.063  0.2015 -0.4437 -0.8648
  352MPD2    C4 5327   3.427   4.332   0.974  0.4149 -0.5219 -0.4319
  352MPD2    C5 5328   3.310   4.363   0.911  0.2173 -0.2518  0.1178
  352MPD2     H 5329   3.472   4.619   1.148  1.3820  0.2427 -1.5543
  352MPD2    H1 5330   3.477   4.244   0.934  0.6298 -0.1602 -0.9609
  352MPD2    H2 5331   3.151   4.509   0.894  0.0790  1.6419 -1.4892
  352MPD2    H3 5332   3.256   4.291   0.852 -0.4227  0.1259  0.2379
  352MPD2     N 5333   3.604   4.367   1.121 -0.0234 -0.2726 -0.6060
  352MPD2    H5 5334   3.631   4.272   1.099 -3.6837 -1.4972  0.1418
  352MPD2    N1 5335   3.243   4.704   1.034  0.4447  0.4207 -0.3057
  352MPD2    H7 5336   3.161   4.716   0.975  0.8190  1.1881 -0.6560
  353TMC3    C1 5337   3.789   4.355   1.257 -0.8278 -0.0030  0.1814
  353TMC3    C2 5338   3.913   4.417   1.254 -0.4269  0.2554 -0.5135
  353TMC3    C3 5339   4.013   4.338   1.215  0.2270 -0.4875  1.1609
  353TMC3    C4 5340   3.766   4.220   1.251  0.3330  0.0800  0.5298
  353TMC3    C5 5341   3.874   4.141   1.229  0.6913 -0.1029  0.4985
  353TMC3    C6 5342   3.992   4.200   1.201  0.7963 -0.2560 -0.1618
  353TMC3     C 5343   3.677   4.433   1.216  0.5336 -0.1992 -0.0353
  353TMC3     O 5344   3.682   4.555   1.241 -0.2952  0.0370 -0.7502
  353TMC3     H 5345   3.917   4.526   1.251 -0.2129  0.2425 -0.7479
  353TMC3    H1 5346   3.670   4.176   1.277 -0.2304  1.1546  0.2709
  353TMC3    H2 5347   4.076   4.141   1.166  2.1446  1.2627  0.5069
  353TMC3    C7 5348   3.840   4.016   1.166  0.0349  0.2684 -0.2281
  353TMC3    C8 5349   4.146   4.397   1.200  0.0376  0.6450 -0.3725
  353TMC3    O1 5350   3.905   3.992   1.066  0.2278 -0.0540  0.1029
  353TMC3    O2 5351   4.176   4.512   1.237 -0.1762  0.5224  1.0486
  354TMC3    C1 5352   0.855   1.150  13.498 -1.0428 -0.1313  0.4680
  354TMC3    C2 5353   0.968   1.183  13.423 -0.1836 -0.7125 -0.2311
  354TMC3    C3 5354   0.959   1.161  13.289  0.2597  0.7942 -0.1417
  354TMC3    C4 5355   0.756   1.080  13.431 -0.1564 -0.0408  0.1667
  354TMC3    C5 5356   0.758   1.052  13.296 -0.2446  0.2414 -0.0727
  354TMC3    C6 5357   0.868   1.084  13.223 -0.2444  0.0815 -0.0410
  354TMC3     C 5358   0.875   1.089  13.628  0.7443 -0.3592  0.5170
  354TMC3     O 5359   0.790   1.009  13.664 -0.0394 -0.1672 -0.0701
  354TMC3     H 5360   1.047   1.240  13.470 -1.7230  0.6794  0.6903
  354TMC3    H1 5361   0.656   1.073  13.473  0.7343 -0.2271  2.2915
  354TMC3    H2 5362   0.881   1.075  13.116  1.4108 -1.5182  0.2845
  354TMC3    C7 5363   0.640   1.052  13.222 -0.6293  0.4478  0.0428
  354TMC3    C8 5364   1.035   1.257  13.206  0.6676 -0.1398  0.0436
  354TMC3    O1 5365   0.545   1.112  13.269  0.2189 -0.4384  0.4303
  354TMC3    O2 5366   1.143   1.291  13.252  0.1757  0.5865 -0.8820
  355MPD2     C 5367   0.653   2.294  11.496 -0.9447  0.7471 -0.3526
  355MPD2    C1 5368   0.749   2.273  11.403  1.1248 -0.2923 -0.5124
  355MPD2    C2 5369   0.869   2.215  11.439  0.1289 -0.7749  0.1959
  355MPD2    C3 5370   0.883   2.177  11.570 -0.3780 -0.0602 -0.0447
  355MPD2    C4 5371   0.778   2.188  11.658 -0.2288  0.7950 -0.4115
  355MPD2    C5 5372   0.664   2.253  11.619  0.0452 -0.1607 -0.0869
  355MPD2     H 5373   0.958   2.222  11.378 -0.1258  1.3371  0.0400
  355MPD2    H1 5374   0.783   2.155  11.761 -0.1964 -0.8549 -0.9386
  355MPD2    H2 5375   0.556   2.330  11.463  0.5262  2.1360 -3.1654
  355MPD2    H3 5376   0.573   2.269  11.677 -1.0024 -1.0468 -1.4887
  355MPD2     N 5377   1.001   2.132  11.633  0.6198  0.0815 -0.4043
  355MPD2    H5 5378   1.003   2.134  11.734  2.7285 -2.6435 -0.4161
  355MPD2    N1 5379   0.730   2.333  11.276 -0.2998 -0.8984 -0.0155
  355MPD2    H7 5380   0.661   2.408  11.278  0.9098  0.2389 -0.6707
  356TMC3    C1 5381   1.237   2.086  11.647 -0.0861 -0.0021 -0.2820
  356TMC3    C2 5382   1.327   2.176  11.595 -0.8060  1.3262 -0.3095
  356TMC3    C3 5383   1.408   2.256  11.673  0.5550 -0.0636 -0.0686
  356TMC3    C4 5384   1.215   2.088  11.779  0.5519  0.4377 -0.3322
  356TMC3    C5 5385   1.317   2.146  11.861 -0.3887  0.0217  0.0463
  356TMC3    C6 5386   1.409   2.234  11.811  0.3996  0.0349 -0.1687
  356TMC3     C 5387   1.118   2.093  11.563  0.3173 -0.0592 -0.6749
  356TMC3     O 5388   1.128   2.080  11.442 -0.4479 -0.7308  0.0795
  356TMC3     H 5389   1.342   2.183  11.488 -1.4417 -1.3914 -0.5679
  356TMC3    H1 5390   1.133   2.033  11.822  0.3557  2.2213  1.5723
  356TMC3    H2 5391   1.486   2.280  11.871  0.0986  0.4265 -0.0846
  356TMC3    C7 5392   1.296   2.152  12.003 -0.7718  0.1030 -0.1506
  356TMC3    C8 5393   1.494   2.348  11.614 -0.0718 -0.6773 -0.4706
  356TMC3    O1 5394   1.205   2.078  12.045  0.9008 -0.1912  0.0121
  356TMC3    O2 5395   1.504   2.331  11.491 -0.0564 -0.4189 -0.0208
  357MPD2     C 5396   0.048   2.539   1.499 -0.3543 -0.1047 -0.1937
  357MPD2    C1 5397   0.043   2.402   1.474  0.4414 -0.4363  0.1847
  357MPD2    C2 5398   4.655   2.342   1.458 -1.3760 -0.5987 -0.2368
  357MPD2    C3 5399   4.537   2.409   1.448  0.1319 -0.1155  0.1358
  357MPD2    C4 5400   4.544   2.549   1.477  0.1921 -0.0104 -0.2735
  357MPD2    C5 5401   4.667   2.611   1.505 -0.4340 -0.3994 -0.3199
  357MPD2     H 5402   4.639   2.235   1.460 -0.5559 -0.7116  0.4837
  357MPD2    H1 5403   4.454   2.609   1.476 -1.8487 -3.0564  1.5205
  357MPD2    H2 5404   0.143   2.588   1.515 -0.3101  0.3515 -1.8201
  357MPD2    H3 5405   4.683   2.717   1.520  2.3305 -0.6445 -1.6247
  357MPD2     N 5406   4.411   2.350   1.419 -0.8564  0.4038  0.0625
  357MPD2    H5 5407   4.327   2.404   1.436 -3.1542 -2.5211 -1.9303
  357MPD2    N1 5408   0.164   2.323   1.459  0.4073  0.0989  0.8136
  357MPD2    H7 5409   0.252   2.370   1.476  0.3552  0.1909  0.8275
  358TMC3    C1 5410   0.294   2.136   1.378  0.7500  0.0225  0.3805
  358TMC3    C2 5411   0.279   2.076   1.255 -0.1779 -0.7786 -0.1056
  358TMC3    C3 5412   0.395   2.070   1.172  0.3170  0.0839 -0.8949
  358TMC3    C4 5413   0.416   2.182   1.431  0.2221 -0.2600 -0.2605
  358TMC3    C5 5414   0.522   2.173   1.342 -0.4947 -0.1627 -0.7101
  358TMC3    C6 5415   0.519   2.107   1.221  0.0881 -1.1558  0.1864
  358TMC3     C 5416   0.172   2.181   1.447  0.3235  0.1661 -0.1422
  358TMC3     O 5417   0.084   2.094   1.463  0.2124 -0.0032  0.2517
  358TMC3     H 5418   0.179   2.048   1.223 -0.7737  1.8308 -0.5902
  358TMC3    H1 5419   0.420   2.217   1.534 -0.5475  0.5117 -0.4933
  358TMC3    H2 5420   0.600   2.113   1.149 -0.5025  1.9742 -0.2025
  358TMC3    C7 5421   0.651   2.226   1.387  0.6394 -1.0266  0.3273
  358TMC3    C8 5422   0.378   2.015   1.041 -0.2785 -0.1925  0.3542
  358TMC3    O1 5423   0.745   2.180   1.325  0.6776 -0.3962 -0.4757
  358TMC3    O2 5424   0.484   1.994   0.984  0.6089  0.1356  0.0940
  359MPD2     C 5425   0.811   0.805  12.167 -0.1101 -0.0857  0.4630
  359MPD2    C1 5426   0.940   0.756  12.139  0.1385  0.4690 -0.5737
  359MPD2    C2 5427   1.021   0.703  12.236  0.1828 -0.0116  0.4370
  359MPD2    C3 5428   0.975   0.690  12.365 -0.4631 -0.0532  0.2217
  359MPD2    C4 5429   0.852   0.750  12.394 -0.2447  0.1896  0.7366
  359MPD2    C5 5430   0.776   0.806  12.300 -0.0626  0.1990  0.2967
  359MPD2     H 5431   1.111   0.653  12.202 -0.5036  1.2729 -3.2660
  359MPD2    H1 5432   0.826   0.743  12.499 -2.5412  0.3098  0.1838
  359MPD2    H2 5433   0.738   0.841  12.096  0.2042  0.8644  0.6198
  359MPD2    H3 5434   0.676   0.840  12.326  0.7472  1.4684  1.7583
  359MPD2     N 5435   1.051   0.626  12.472  0.1663  0.5534 -0.2754
  359MPD2    H5 5436   1.014   0.625  12.567 -0.7871  2.7256 -0.6281
  359MPD2    N1 5437   0.993   0.757  12.011  0.2784 -0.5304 -0.1004
  359MPD2    H7 5438   1.092   0.735  12.002 -0.0274 -1.7654 -0.3668
  360TMC3    C1 5439   1.014   0.835  11.784  0.6818  0.0647 -0.3446
  360TMC3    C2 5440   1.139   0.880  11.817  0.8962 -0.3891  0.0744
  360TMC3    C3 5441   1.200   0.947  11.715  0.2909  0.6018  0.6563
  360TMC3    C4 5442   0.950   0.858  11.664  0.1818  0.0533  0.4257
  360TMC3    C5 5443   1.011   0.917  11.562 -0.0653  0.4281  0.8110
  360TMC3    C6 5444   1.137   0.963  11.591 -0.4113 -0.1481  0.3342
  360TMC3     C 5445   0.923   0.798  11.900  0.1606  0.1409 -0.2800
  360TMC3     O 5446   0.803   0.797  11.883  0.1522 -0.4183  0.0099
  360TMC3     H 5447   1.163   0.911  11.919  1.2262  1.3385 -0.5222
  360TMC3    H1 5448   0.847   0.828  11.649 -0.6771  3.2924 -0.2141
  360TMC3    H2 5449   1.187   1.040  11.533  1.7214 -1.6319  0.2065
  360TMC3    C7 5450   0.937   0.981  11.451  0.3074  0.9281  0.2913
  360TMC3    C8 5451   1.242   1.080  11.766 -0.1727  0.1565  0.2012
  360TMC3    O1 5452   1.007   1.023  11.359 -0.4220 -0.4422 -0.5835
  360TMC3    O2 5453   1.154   1.168  11.770 -0.6320  0.0821 -0.2208
  361MPD2     C 5454   2.955   4.379  16.557  0.1692 -0.3906 -0.2622
  361MPD2    C1 5455   2.916   4.249  16.581 -0.4436 -0.6853 -0.1192
  361MPD2    C2 5456   3.014   4.167  16.635 -0.0767 -0.6402 -0.2322
  361MPD2    C3 5457   3.129   4.215  16.684  0.1101  0.0695 -0.4536
  361MPD2    C4 5458   3.168   4.341  16.643 -0.9382  0.0249 -0.2256
  361MPD2    C5 5459   3.081   4.424  16.582  0.5471 -0.4555 -0.1064
  361MPD2     H 5460   2.985   4.066  16.663 -0.5595 -0.0708  1.2727
  361MPD2    H1 5461   3.269   4.376  16.662 -1.0554 -1.1944  2.6217
  361MPD2    H2 5462   2.892   4.457  16.515  1.2864 -0.2192 -1.6533
  361MPD2    H3 5463   3.102   4.528  16.563 -2.8565  0.3157  0.3950
  361MPD2     N 5464   3.215   4.134  16.758 -0.6104 -0.2898 -0.4865
  361MPD2    H5 5465   3.178   4.042  16.778  0.2589 -0.2141  1.4876
  361MPD2    N1 5466   2.783   4.203  16.557  0.1625 -0.2950  0.2134
  361MPD2    H7 5467   2.763   4.107  16.585 -3.5679  0.5577  0.5235
  362TMC3    C1 5468   2.559   4.192  16.491 -0.2355 -0.3602  0.0436
  362TMC3    C2 5469   2.518   4.140  16.615 -0.5717  0.0882 -0.0295
  362TMC3    C3 5470   2.384   4.147  16.650 -0.4394 -1.1632  0.0872
  362TMC3    C4 5471   2.469   4.259  16.411 -0.0854  0.8479 -0.4161
  362TMC3    C5 5472   2.332   4.249  16.445  0.1389  0.8291  0.7533
  362TMC3    C6 5473   2.290   4.197  16.562  0.1505  0.2835 -0.6288
  362TMC3     C 5474   2.681   4.269  16.486 -0.5408 -0.1793  0.1068
  362TMC3     O 5475   2.688   4.363  16.412 -0.8462  0.0434 -0.2868
  362TMC3     H 5476   2.592   4.112  16.690 -1.3668 -1.0469  0.3277
  362TMC3    H1 5477   2.498   4.317  16.324 -0.9917  2.2847  0.2470
  362TMC3    H2 5478   2.184   4.194  16.584 -0.2095  0.0133 -2.3574
  362TMC3    C7 5479   2.245   4.346  16.384 -0.3843 -0.1028  0.0025
  362TMC3    C8 5480   2.352   4.151  16.791  0.1462  0.8106 -0.0685
  362TMC3    O1 5481   2.289   4.460  16.363 -0.5896 -0.4606 -0.1448
  362TMC3    O2 5482   2.410   4.063  16.851 -0.2007  0.1157  0.1542
  363TMC3    C1 5483   1.243   3.215   9.968 -0.5059  0.6796 -0.2080
  363TMC3    C2 5484   1.379   3.208   9.975  0.0253 -0.7971 -0.2147
  363TMC3    C3 5485   1.443   3.131   9.880 -0.1533  0.1223 -0.1948
  363TMC3    C4 5486   1.171   3.140   9.887  0.2449 -0.1095 -0.1418
  363TMC3    C5 5487   1.241   3.068   9.788 -1.1236 -0.1263 -0.0368
  363TMC3    C6 5488   1.373   3.068   9.779 -0.5470  0.3463  0.1662
  363TMC3     C 5489   1.170   3.312  10.043  0.0801  0.5888 -0.1051
  363TMC3     O 5490   1.061   3.351  10.006  0.7004 -0.5014 -0.2738
  363TMC3     H 5491   1.436   3.285  10.025  0.0621 -0.1550 -1.2498
  363TMC3    H1 5492   1.064   3.156   9.876 -0.0811 -1.8633  0.3589
  363TMC3    H2 5493   1.427   2.994   9.720 -0.0792  0.8809 -0.0820
  363TMC3    C7 5494   1.174   3.055   9.662  0.8762 -0.8932 -0.2399
  363TMC3    C8 5495   1.584   3.115   9.908  0.1804 -0.0568  0.4075
  363TMC3    O1 5496   1.055   3.042   9.660  0.2354 -0.3166  0.1519
  363TMC3    O2 5497   1.641   3.214   9.953 -0.0084 -0.5413 -0.0343
  364MPD2     C 5498   4.017   2.102  10.582 -0.2453 -0.3727 -0.4547
  364MPD2    C1 5499   4.077   2.129  10.465 -0.2175 -0.5362 -0.5905
  364MPD2    C2 5500   4.169   2.035  10.414  0.6814  0.4154 -0.5899
  364MPD2    C3 5501   4.212   1.927  10.488 -0.1629 -0.0995  0.1696
  364MPD2    C4 5502   4.158   1.914  10.619  0.3255 -0.2124  0.5620
  364MPD2    C5 5503   4.055   1.994  10.655 -0.3379  0.0470 -0.6177
  364MPD2     H 5504   4.236   2.074  10.339  0.1361 -0.5765 -1.5825
  364MPD2    H1 5505   4.190   1.836  10.686  0.9143  0.7030  1.3522
  364MPD2    H2 5506   3.953   2.177  10.627  0.2647 -0.0550 -0.2628
  364MPD2    H3 5507   4.014   1.979  10.754 -1.5725 -2.5605 -1.5213
  364MPD2     N 5508   4.320   1.839  10.449  0.2400  0.5753  0.3745
  364MPD2    H5 5509   4.358   1.778  10.520 -1.0097 -1.4952 -0.7289
  364MPD2    N1 5510   4.046   2.249  10.397  0.4806 -0.1001 -0.3957
  364MPD2    H7 5511   3.983   2.318  10.437 -0.3104 -0.1013 -1.6506
  365TMC3    C1 5512   4.145   2.416  10.269 -0.4444 -0.0161  0.5479
  365TMC3    C2 5513   4.223   2.449  10.164  0.4230  0.1855 -0.6313
  365TMC3    C3 5514   4.319   2.541  10.184 -0.0303 -1.1061  0.0915
  365TMC3    C4 5515   4.151   2.478  10.388  0.0583 -0.7055  0.2234
  365TMC3    C5 5516   4.245   2.568  10.401  0.0163 -0.2282 -0.2802
  365TMC3    C6 5517   4.336   2.610  10.303  0.6358  0.2975 -0.2958
  365TMC3     C 5518   4.102   2.280  10.274 -0.1424  1.3526 -0.1921
  365TMC3     O 5519   4.125   2.210  10.177  0.0387  0.4099 -0.5779
  365TMC3     H 5520   4.201   2.406  10.067  1.2007 -1.2856 -0.1449
  365TMC3    H1 5521   4.084   2.457  10.471  1.7539 -1.8428  1.2994
  365TMC3    H2 5522   4.416   2.679  10.324  0.8780  0.0563 -0.4240
  365TMC3    C7 5523   4.257   2.623  10.539 -0.9691  0.7849 -0.0911
  365TMC3    C8 5524   4.433   2.558  10.098  0.3019  0.5257 -0.4092
  365TMC3    O1 5525   4.160   2.672  10.588  0.7752  0.3125 -0.1464
  365TMC3    O2 5526   4.489   2.669  10.094 -0.0131  0.0705  0.1012
  366MPD2     C 5527   3.188   2.786  15.191 -0.6213 -0.6692  0.1488
  366MPD2    C1 5528   3.280   2.843  15.268 -0.2561  0.6277  0.5566
  366MPD2    C2 5529   3.370   2.763  15.329 -0.0967  0.3425 -0.5412
  366MPD2    C3 5530   3.369   2.627  15.321 -0.3635  0.1164  0.3772
  366MPD2    C4 5531   3.273   2.568  15.237 -0.3508 -0.2707 -0.5608
  366MPD2    C5 5532   3.185   2.652  15.168 -0.2179 -0.5432 -0.2894
  366MPD2     H 5533   3.447   2.808  15.391 -0.5827 -0.3427  0.5491
  366MPD2    H1 5534   3.255   2.463  15.215 -0.6750 -0.6250  1.3673
  366MPD2    H2 5535   3.115   2.854  15.149 -0.2043  0.1626  0.7753
  366MPD2    H3 5536   3.097   2.618  15.116 -0.6949  0.0072  0.1518
  366MPD2     N 5537   3.484   2.554  15.360  0.4375 -0.1255 -0.3297
  366MPD2    H5 5538   3.499   2.464  15.316  3.1484 -0.4852  1.3368
  366MPD2    N1 5539   3.286   2.985  15.286 -0.4851 -0.4460 -0.1558
  366MPD2    H7 5540   3.368   3.023  15.332 -1.0674  1.8860 -1.0419
  367TMC3    C1 5541   3.243   3.206  15.270 -0.1386  0.2619  0.4752
  367TMC3    C2 5542   3.330   3.222  15.373  0.1409  0.0987 -0.1790
  367TMC3    C3 5543   3.363   3.350  15.394 -0.7270  0.1873  0.0353
  367TMC3    C4 5544   3.203   3.300  15.180  0.2470 -0.3287 -0.7627
  367TMC3    C5 5545   3.239   3.426  15.209 -0.4450 -0.2377  1.1191
  367TMC3    C6 5546   3.315   3.451  15.320 -0.9003 -0.3649 -0.3989
  367TMC3     C 5547   3.191   3.078  15.248  0.4179 -0.4767  0.1010
  367TMC3     O 5548   3.079   3.061  15.197  0.0237  0.4558 -0.1801
  367TMC3     H 5549   3.355   3.147  15.448  2.1273  0.3305 -0.6304
  367TMC3    H1 5550   3.143   3.276  15.092  0.7831 -0.6865 -1.0278
  367TMC3    H2 5551   3.360   3.549  15.334 -1.4669 -0.1219 -0.2658
  367TMC3    C7 5552   3.165   3.543  15.155  0.2750  0.3937  0.1434
  367TMC3    C8 5553   3.459   3.381  15.505 -0.7006 -0.2234 -0.3471
  367TMC3    O1 5554   3.172   3.647  15.216 -0.2059 -0.1315  0.2806
  367TMC3    O2 5555   3.516   3.280  15.549  0.0260 -0.1704  0.5696
  368MPD2     C 5556   0.041   4.190  13.038  0.4304 -0.9842  0.1502
  368MPD2    C1 5557   0.051   4.256  12.917 -0.3199 -0.4251  0.1805
  368MPD2    C2 5558   0.173   4.315  12.873  0.1221 -1.0788  0.5496
  368MPD2    C3 5559   0.279   4.317  12.964  0.5205 -0.2517  0.4204
  368MPD2    C4 5560   0.262   4.261  13.084  0.0984 -0.3409  0.1568
  368MPD2    C5 5561   0.148   4.198  13.121  0.2345  0.7154  1.1036
  368MPD2     H 5562   0.203   4.376  12.788  0.9722 -2.3237 -0.0330
  368MPD2    H1 5563   0.343   4.260  13.156 -0.1330  1.4537  0.4341
  368MPD2    H2 5564   4.687   4.145  13.083 -0.1714  1.2852  1.2583
  368MPD2    H3 5565   0.131   4.157  13.220  1.2608  0.5951  1.2225
  368MPD2     N 5566   0.400   4.378  12.945  0.0532 -0.4569  0.0035
  368MPD2    H5 5567   0.449   4.397  13.032  0.1839 -1.4810  0.1543
  368MPD2    N1 5568   4.665   4.262  12.841  0.0261 -0.2999 -0.0229
  368MPD2    H7 5569   4.585   4.211  12.876 -0.0286  0.2290  0.6159
  369TMC3    C1 5570   4.525   4.334  12.667 -0.3143  0.0888 -0.2239
  369TMC3    C2 5571   4.516   4.394  12.547 -0.2789 -0.4147  0.1223
  369TMC3    C3 5572   4.385   4.411  12.495 -0.2797  0.1962  0.3226
  369TMC3    C4 5573   4.406   4.295  12.740  0.0793 -0.5346 -0.2602
  369TMC3    C5 5574   4.289   4.305  12.674 -0.0226 -0.2883  0.2882
  369TMC3    C6 5575   4.270   4.365  12.557  0.1113 -0.0496 -0.6018
  369TMC3     C 5576   4.652   4.346  12.732 -0.2704  0.2551 -0.0514
  369TMC3     O 5577   4.732   4.428  12.689  0.0372 -0.3729  0.0445
  369TMC3     H 5578   4.600   4.417  12.483 -0.8949  1.3193 -0.0550
  369TMC3    H1 5579   4.394   4.265  12.843  2.0503  1.3767  0.5089
  369TMC3    H2 5580   4.178   4.388  12.506  0.7864  1.0543 -1.3436
  369TMC3    C7 5581   4.181   4.230  12.731  0.4262  0.1133 -0.0619
  369TMC3    C8 5582   4.380   4.509  12.382 -0.3676  0.1459 -0.8617
  369TMC3    O1 5583   4.080   4.291  12.720 -0.0885  0.6222 -0.6041
  369TMC3    O2 5584   4.484   4.526  12.323 -0.6155  0.0344 -0.4279
  370TMC3    C1 5585   3.989   0.628  16.252 -0.4955 -0.0514  0.7448
  370TMC3    C2 5586   3.971   0.550  16.366  0.6321  0.6117  0.4505
  370TMC3    C3 5587   3.951   0.415  16.342 -0.4766  0.7755 -0.0219
  370TMC3    C4 5588   4.025   0.580  16.129 -0.3619  0.0125  0.0588
  370TMC3    C5 5589   4.021   0.438  16.116  0.4619  0.4493  0.3881
  370TMC3    C6 5590   3.989   0.359  16.226 -0.1395  0.0068 -0.1130
  370TMC3     C 5591   3.920   0.761  16.261  0.5617 -0.1621  0.1441
  370TMC3     O 5592   3.832   0.754  16.347  0.9966  1.0874 -0.3023
  370TMC3     H 5593   3.955   0.607  16.457 -1.5450  1.2453 -0.3371
  370TMC3    H1 5594   4.063   0.637  16.046  0.6390 -2.0090 -0.8827
  370TMC3    H2 5595   3.971   0.253  16.210 -1.2174  0.1775 -0.0396
  370TMC3    C7 5596   4.094   0.383  16.010  0.5776 -1.6045  0.5293
  370TMC3    C8 5597   3.935   0.327  16.453  0.6759  0.2579  0.0503
  370TMC3    O1 5598   4.110   0.450  15.909  0.3922 -0.2237 -0.0255
  370TMC3    O2 5599   3.973   0.208  16.447  0.9437  0.7206 -0.0215
  371TMC3    C1 5600   0.302   3.718  15.171  0.7520 -0.2558  0.6672
  371TMC3    C2 5601   0.258   3.696  15.298  0.6170  0.0683 -0.5124
  371TMC3    C3 5602   0.218   3.802  15.368  0.2737 -0.6331 -0.6476
  371TMC3    C4 5603   0.312   3.849  15.114 -0.3937 -0.5988 -0.4838
  371TMC3    C5 5604   0.276   3.951  15.196 -0.4634 -0.0766 -0.2899
  371TMC3    C6 5605   0.221   3.930  15.320 -0.3972 -0.5112  0.7119
  371TMC3     C 5606   0.329   3.609  15.076  0.2611  0.0896  0.0209
  371TMC3     O 5607   0.340   3.631  14.956  0.7651  0.1747 -0.4484
  371TMC3     H 5608   0.233   3.597  15.333  0.5012  0.1748 -0.2881
  371TMC3    H1 5609   0.350   3.861  15.013  0.9623  0.1704  0.1135
  371TMC3    H2 5610   0.178   4.014  15.373 -0.7506 -0.9965  1.1817
  371TMC3    C7 5611   0.298   4.083  15.140  0.9575 -0.0375 -0.2004
  371TMC3    C8 5612   0.163   3.770  15.500 -0.3937 -0.0413  0.3633
  371TMC3    O1 5613   0.217   4.169  15.173  0.5441 -0.2911 -0.0975
  371TMC3    O2 5614   0.180   3.651  15.536  0.3714 -0.0495 -0.2025
  372MPD2     C 5615   4.468   4.269  13.151 -0.5659 -0.3276  0.0692
  372MPD2    C1 5616   4.563   4.309  13.242 -0.5468  0.1551 -0.5335
  372MPD2    C2 5617   4.583   4.231  13.352  0.3974  0.0772  0.3430
  372MPD2    C3 5618   4.506   4.117  13.368  0.0394  0.1383  0.1790
  372MPD2    C4 5619   4.425   4.071  13.264 -0.2266  0.0624  0.3707
  372MPD2    C5 5620   4.400   4.152  13.155 -0.0388 -0.1186 -0.7615
  372MPD2     H 5621   4.653   4.265  13.427 -0.3149  0.3984  0.8677
  372MPD2    H1 5622   4.366   3.979  13.266 -0.5532  0.2568 -0.0815
  372MPD2    H2 5623   4.452   4.333  13.064 -0.3992 -0.3707  0.0060
  372MPD2    H3 5624   4.319   4.132  13.085  2.8553 -3.0371 -3.2527
  372MPD2     N 5625   4.522   4.047  13.494  0.2247  0.2032 -0.3281
  372MPD2    H5 5626   4.591   4.078  13.561  2.2686 -3.3239 -0.8174
  372MPD2    N1 5627   4.629   4.438  13.239 -0.0936 -0.4166  0.0618
  372MPD2    H7 5628   4.695   4.448  13.315  1.5188  1.3326 -1.5707
  373TMC3    C1 5629   4.508   3.895  13.662  0.2128  0.8637  0.0652
  373TMC3    C2 5630   4.451   3.978  13.754  0.0612 -0.2350 -0.6289
  373TMC3    C3 5631   4.504   3.985  13.876  0.1597 -0.2250 -0.2482
  373TMC3    C4 5632   4.630   3.833  13.676 -0.1620  0.5951  0.3006
  373TMC3    C5 5633   4.672   3.841  13.807 -0.9119 -0.1032 -0.0086
  373TMC3    C6 5634   4.616   3.921  13.900 -0.5162  0.2707 -0.2899
  373TMC3     C 5635   4.456   3.932  13.534 -0.2119 -0.0812 -0.1639
  373TMC3     O 5636   4.370   3.859  13.486  0.1074 -0.1908 -0.1966
  373TMC3     H 5637   4.362   4.032  13.725 -0.5556 -0.7221  0.3603
  373TMC3    H1 5638   4.674   3.772  13.598  0.0245 -0.7817  1.4763
  373TMC3    H2 5639   4.654   3.937  14.001 -2.1470  0.2925  0.3188
  373TMC3    C7 5640   0.073   3.790  13.825 -0.0054 -0.2432 -0.1356
  373TMC3    C8 5641   4.476   4.108  13.952  0.3096 -0.4395  0.1643
  373TMC3    O1 5642   0.120   3.745  13.723 -0.3608 -0.8467  0.3692
  373TMC3    O2 5643   4.441   4.209  13.889 -0.4291 -0.3760 -0.0592
  374TMC3    C1 5644   0.582   0.884   9.733  0.2257 -1.1332 -0.3481
  374TMC3    C2 5645   0.670   0.981   9.761  0.4109  0.3929 -0.7551
  374TMC3    C3 5646   0.699   1.074   9.665 -0.4749  0.0525 -0.2953
  374TMC3    C4 5647   0.539   0.865   9.608 -0.6138  0.3110 -0.6962
  374TMC3    C5 5648   0.578   0.945   9.509  0.1174 -0.5023 -0.3402
  374TMC3    C6 5649   0.647   1.062   9.544 -0.2506 -0.3295  0.0122
  374TMC3     C 5650   0.526   0.797   9.834 -0.0653  0.2952  0.2315
  374TMC3     O 5651   0.489   0.685   9.800 -0.7259 -0.6003 -0.5841
  374TMC3     H 5652   0.701   0.984   9.864  0.1106  0.3845 -0.6631
  374TMC3    H1 5653   0.470   0.784   9.586 -0.6080 -0.6450  2.8883
  374TMC3    H2 5654   0.681   1.132   9.469  0.1013  0.1033  0.5789
  374TMC3    C7 5655   0.570   0.910   9.360 -0.0157 -0.6015  0.2911
  374TMC3    C8 5656   0.786   1.187   9.694 -0.0732  0.2072 -0.1887
  374TMC3    O1 5657   0.593   1.002   9.280  0.2498  0.0885 -0.1244
  374TMC3    O2 5658   0.793   1.282   9.622  0.0575 -0.7676 -0.4901
  375MPD2     C 5659   0.539   0.560  16.993  0.1387  0.5514  0.3580
  375MPD2    C1 5660   0.449   0.639  16.924  0.1681  0.4182  0.0112
  375MPD2    C2 5661   0.476   0.672  16.794  0.3314 -0.0770  0.0313
  375MPD2    C3 5662   0.586   0.624  16.728  0.5805 -0.8247  1.3403
  375MPD2    C4 5663   0.680   0.553  16.800  0.0921 -0.0537 -0.1152
  375MPD2    C5 5664   0.654   0.514  16.932  0.2719 -0.3105  0.1128
  375MPD2     H 5665   0.399   0.729  16.743  0.0839  3.3019  4.1604
  375MPD2    H1 5666   0.768   0.513  16.751 -0.1370 -0.1260 -0.4648
  375MPD2    H2 5667   0.513   0.525  17.092 -0.9559  0.3659  0.0108
  375MPD2    H3 5668   0.716   0.450  16.994  1.4831 -0.2617 -1.0436
  375MPD2     N 5669   0.627   0.658  16.599 -0.2355 -0.1670  0.2140
  375MPD2    H5 5670   0.719   0.623  16.570 -0.5727  0.0459 -1.1300
  375MPD2    N1 5671   0.343   0.708  16.978  0.8812 -0.6832 -0.3149
  375MPD2    H7 5672   0.292   0.767  16.913  0.3647  0.9410  1.5643
  376TMC3    C1 5673   0.617   0.775  16.392 -0.4865  0.0528  0.6311
  376TMC3    C2 5674   0.756   0.760  16.387  0.5155  0.2459 -0.1903
  376TMC3    C3 5675   0.813   0.797  16.270 -0.1919  0.3004  0.7007
  376TMC3    C4 5676   0.535   0.820  16.294 -0.1214  0.2241 -0.1243
  376TMC3    C5 5677   0.605   0.870  16.186 -0.4759  0.0780  0.1037
  376TMC3    C6 5678   0.740   0.857  16.170 -0.5986  0.0312 -0.0340
  376TMC3     C 5679   0.547   0.723  16.509 -0.1534  0.5563 -0.1946
  376TMC3     O 5680   0.427   0.745  16.522 -0.5125  0.4748  0.0028
  376TMC3     H 5681   0.820   0.743  16.473 -1.5429 -0.8473  1.1131
  376TMC3    H1 5682   0.428   0.834  16.304  0.0611 -0.5484  2.9782
  376TMC3    H2 5683   0.799   0.923  16.107 -0.2812  0.6797  0.9402
  376TMC3    C7 5684   0.550   0.988  16.114  0.0238 -0.5117 -0.8297
  376TMC3    C8 5685   0.959   0.784  16.248 -0.0163 -0.0950 -0.7319
  376TMC3    O1 5686   0.622   1.080  16.080 -0.2818  0.5560 -0.2050
  376TMC3    O2 5687   1.007   0.819  16.142 -0.0742 -0.4639 -0.5916
  377MPD2     C 5688   4.224   4.148  12.236 -0.1207 -0.1328  0.6348
  377MPD2    C1 5689   4.117   4.226  12.185  0.3242  0.0510 -0.3442
  377MPD2    C2 5690   3.990   4.189  12.236 -0.1081  0.8311  0.4518
  377MPD2    C3 5691   3.976   4.095  12.336  0.2824  0.9965  0.1893
  377MPD2    C4 5692   4.081   4.024  12.387  1.0587 -0.1236 -0.5846
  377MPD2    C5 5693   4.206   4.051  12.332 -0.6135  0.1496  0.6556
  377MPD2     H 5694   3.899   4.238  12.205 -1.6086 -2.5057 -0.3776
  377MPD2    H1 5695   4.071   3.935  12.448  1.2511  0.1883 -0.1052
  377MPD2    H2 5696   4.327   4.160  12.206 -0.5789 -0.4958 -1.0941
  377MPD2    H3 5697   4.286   3.981  12.350 -0.0793  0.3466 -0.9971
  377MPD2     N 5698   3.852   4.092  12.402 -0.1768 -0.5835  0.5753
  377MPD2    H5 5699   3.772   4.142  12.366  2.3644  2.7936 -0.3358
  377MPD2    N1 5700   4.149   4.335  12.095 -0.2658 -0.1814 -0.2253
  377MPD2    H7 5701   4.245   4.346  12.065 -0.7992 -1.2684 -2.3445
  378TMC3    C1 5702   4.090   0.032  11.928 -0.7814  0.2926  0.4061
  378TMC3    C2 5703   4.034   4.648  11.966 -0.3284 -0.3647 -0.2083
  378TMC3    C3 5704   4.115   4.535  11.983  0.1168  0.3600 -0.0681
  378TMC3    C4 5705   4.221   0.049  11.906  0.7900 -1.0520 -0.4006
  378TMC3    C5 5706   4.302   4.673  11.923 -0.1792 -0.3036 -0.4752
  378TMC3    C6 5707   4.250   4.553  11.963  0.8167  0.4628 -0.5621
  378TMC3     C 5708   4.000   0.140  11.930  0.5075  0.2735 -0.2320
  378TMC3     O 5709   3.902   0.133  12.006  0.2197 -0.2951 -0.3206
  378TMC3     H 5710   3.926   4.638  11.968 -0.5715  2.4235  0.3274
  378TMC3    H1 5711   4.257   0.149  11.888  2.1540 -1.5295 -0.3239
  378TMC3    H2 5712   4.316   4.468  11.964  1.0065  0.6075 -0.7995
  378TMC3    C7 5713   4.439   4.672  11.887  0.1733  0.1744 -0.2034
  378TMC3    C8 5714   4.056   4.414  12.039  0.1773  0.8105  0.0034
  378TMC3    O1 5715   4.507   4.575  11.923 -0.4659 -0.0116 -0.4423
  378TMC3    O2 5716   3.932   4.409  12.059 -0.4002 -0.3294  0.0383
  379MPD2     C 5717   4.043   3.154  16.446 -0.8546  0.4649 -0.2286
  379MPD2    C1 5718   4.158   3.215  16.388 -0.6321 -0.3817 -0.3417
  379MPD2    C2 5719   4.283   3.213  16.454  0.2896 -0.0973  0.1142
  379MPD2    C3 5720   4.297   3.156  16.573  0.3420  0.1876  0.0574
  379MPD2    C4 5721   4.180   3.104  16.632 -0.2768 -0.4180  0.0511
  379MPD2    C5 5722   4.056   3.103  16.569  0.2807 -0.1829 -0.4167
  379MPD2     H 5723   4.358   3.275  16.407  0.2762  0.4282  0.7875
  379MPD2    H1 5724   4.176   3.050  16.726  1.0880  0.1435  0.4320
  379MPD2    H2 5725   3.948   3.145  16.394 -1.0291  1.1606 -0.0249
  379MPD2    H3 5726   3.977   3.041  16.609  0.6117 -1.5945 -1.9802
  379MPD2     N 5727   4.414   3.159  16.656  0.3512  0.4868 -0.6016
  379MPD2    H5 5728   4.408   3.150  16.757 -0.0835  1.4104 -0.5411
  379MPD2    N1 5729   4.141   3.279  16.263  0.2951 -0.5998 -0.3838
  379MPD2    H7 5730   4.047   3.289  16.226 -0.3158 -1.4609  0.9634
  380TMC3    C1 5731   4.213   3.406  16.069 -0.2872  0.5876  0.1146
  380TMC3    C2 5732   4.298   3.398  15.959 -0.2275  0.2087  0.2552
  380TMC3    C3 5733   4.245   3.433  15.836 -0.0491  0.8509 -0.1787
  380TMC3    C4 5734   4.084   3.450  16.062  0.7015  0.1709  0.3694
  380TMC3    C5 5735   4.035   3.495  15.944  0.2800  0.0750  0.0055
  380TMC3    C6 5736   4.115   3.480  15.830 -0.2201  0.1260 -0.2387
  380TMC3     C 5737   4.250   3.322  16.183  0.6815 -0.2347  1.3725
  380TMC3     O 5738   4.367   3.282  16.196  0.4074  0.3456  0.6105
  380TMC3     H 5739   4.396   3.352  15.964 -0.9006 -1.1580  0.6616
  380TMC3    H1 5740   4.022   3.459  16.150 -0.0342  1.0076 -0.2419
  380TMC3    H2 5741   4.078   3.540  15.748  0.7891 -0.3415 -1.0294
  380TMC3    C7 5742   3.907   3.560  15.948  1.2766  0.5550 -0.5680
  380TMC3    C8 5743   4.325   3.447  15.721 -0.4132 -0.5335 -0.1224
  380TMC3    O1 5744   3.889   3.620  16.054 -0.4941 -0.1382  0.1048
  380TMC3    O2 5745   4.277   3.520  15.636  0.3957 -0.2617 -0.3199
  381TMC3    C1 5746   3.900   4.418  16.299 -0.1011  0.2756  0.0282
  381TMC3    C2 5747   4.005   4.499  16.269  0.4446  0.3190  0.2008
  381TMC3    C3 5748   4.043   4.593  16.362 -0.0928  0.4162 -0.2494
  381TMC3    C4 5749   3.829   4.436  16.412 -0.1483 -0.7774 -0.9994
  381TMC3    C5 5750   3.857   4.533  16.502 -0.6914  0.3984 -0.1264
  381TMC3    C6 5751   3.969   4.612  16.477 -0.2398  0.0787 -0.6576
  381TMC3     C 5752   3.864   4.319  16.198  0.0096  0.0329 -0.6026
  381TMC3     O 5753   3.810   4.213  16.237 -0.3064 -0.2073  0.1639
  381TMC3     H 5754   4.073   4.479  16.186 -0.6710 -0.5535 -0.5065
  381TMC3    H1 5755   3.748   4.366  16.427  0.2458 -1.2808 -1.2360
  381TMC3    H2 5756   4.002   4.682  16.554 -1.0152 -1.8064  1.4004
  381TMC3    C7 5757   3.850   4.485  16.639  0.3519 -0.3243  0.3619
  381TMC3    C8 5758   4.181   4.647  16.354 -0.1753  0.9668 -0.1047
  381TMC3    O1 5759   3.916   4.385  16.666  0.6470 -0.0383  0.0396
  381TMC3    O2 5760   4.255   4.595  16.277  0.5811 -0.7803  0.6058
  382MPD2     C 5761   3.196   1.812  17.009 -0.7207  0.3007  0.2961
  382MPD2    C1 5762   3.300   1.788  17.103 -0.2167  0.7499 -0.5073
  382MPD2    C2 5763   3.297   1.667  17.171 -0.6966 -0.4913  0.7927
  382MPD2    C3 5764   3.198   1.572  17.148  0.4754 -0.0160 -0.2349
  382MPD2    C4 5765   3.101   1.598  17.053  0.1773  0.2186 -0.3550
  382MPD2    C5 5766   3.099   1.715  16.983 -0.5709 -0.2545 -0.6841
  382MPD2     H 5767   3.374   1.634  17.240  1.8980  3.4517 -0.2195
  382MPD2    H1 5768   3.015   1.533  17.042  0.2254  0.3416 -1.5073
  382MPD2    H2 5769   3.199   1.907  16.958  2.6466  0.7890  1.3986
  382MPD2    H3 5770   3.023   1.730  16.907  0.5467 -0.3690 -1.8234
  382MPD2     N 5771   3.188   1.459  17.227 -0.0413  0.2187  0.1494
  382MPD2    H5 5772   3.119   1.390  17.198 -3.5284  2.8035  2.3665
  382MPD2    N1 5773   3.403   1.875  17.143 -0.0348  0.2011  0.5000
  382MPD2    H7 5774   3.461   1.844  17.220 -0.6079 -1.0909  0.4143
  383TMC3    C1 5775   3.184   1.333  17.421  0.8329 -0.2574 -0.3214
  383TMC3    C2 5776   3.080   1.263  17.370  0.0419  0.2831 -0.2806
  383TMC3    C3 5777   3.043   1.150  17.430  0.9165 -0.8795 -0.9620
  383TMC3    C4 5778   3.247   1.283  17.532  0.2516  0.0494 -1.2066
  383TMC3    C5 5779   3.206   1.169  17.587  0.3699  0.4719  0.1075
  383TMC3    C6 5780   3.117   1.087  17.529 -0.1383  0.0516  0.2151
  383TMC3     C 5781   3.242   1.443  17.349  0.6302  0.4129  0.4014
  383TMC3     O 5782   3.325   1.503  17.415  0.1283  0.3297 -0.0568
  383TMC3     H 5783   3.024   1.297  17.284 -0.8492 -0.9341 -0.1915
  383TMC3    H1 5784   3.331   1.339  17.572  0.8993 -0.8397 -1.3224
  383TMC3    H2 5785   3.082   1.005  17.591 -1.0027  0.2655  0.0192
  383TMC3    C7 5786   3.272   1.118  17.699  0.0400 -0.3343  0.0028
  383TMC3    C8 5787   2.920   1.085  17.385 -0.1914  0.1683 -0.0571
  383TMC3    O1 5788   3.276   1.000  17.719 -0.4143 -0.3605 -0.2284
  383TMC3    O2 5789   2.844   1.147  17.310 -0.1460  0.1074 -0.2931
  384MPD2     C 5790   0.015   2.638  12.265  0.0218 -0.1706 -0.7705
  384MPD2    C1 5791   4.727   2.533  12.348  0.0627  0.2347  0.2978
  384MPD2    C2 5792   0.047   2.410  12.313 -0.9123  0.7283 -0.1384
  384MPD2    C3 5793   0.121   2.398  12.198 -0.1863  0.4123 -0.4512
  384MPD2    C4 5794   0.143   2.505  12.117 -0.0421 -0.2616  0.7866
  384MPD2    C5 5795   0.095   2.622  12.155 -0.9736 -0.5066 -0.5696
  384MPD2     H 5796   0.034   2.326  12.382  0.4854  0.9097  0.3544
  384MPD2    H1 5797   0.210   2.506  12.031 -0.7162 -0.6833  0.2570
  384MPD2    H2 5798   4.722   2.741  12.285 -1.2889 -0.7349  0.3456
  384MPD2    H3 5799   0.120   2.709  12.095 -1.1430 -0.2027 -0.1988
  384MPD2     N 5800   0.189   2.282  12.159 -0.9696 -0.1496  1.0357
  384MPD2    H5 5801   0.270   2.305  12.102  0.0830 -0.4352  2.4271
  384MPD2    N1 5802   4.654   2.536  12.473 -0.3659  0.0846 -0.4597
  384MPD2    H7 5803   4.610   2.448  12.498  0.1379 -0.2226 -0.6567
  385TMC3    C1 5804   0.033   2.113  12.218  0.2443  0.6202  0.3749
  385TMC3    C2 5805   4.703   2.136  12.100  0.4108  0.5246  0.2792
  385TMC3    C3 5806   4.573   2.091  12.091  0.2741 -0.0954  1.1552
  385TMC3    C4 5807   4.706   2.049  12.324 -0.6189 -0.3826  0.0385
  385TMC3    C5 5808   4.586   1.990  12.303 -0.0155 -0.4429 -0.5637
  385TMC3    C6 5809   4.516   2.016  12.189  0.3724 -0.3795  0.4176
  385TMC3     C 5810   0.169   2.157  12.223 -0.5881 -0.0303  0.3497
  385TMC3     O 5811   0.248   2.067  12.250  0.3024 -0.1112 -0.2704
  385TMC3     H 5812   0.013   2.195  12.020  0.8096  0.0941  0.1841
  385TMC3    H1 5813   0.032   2.030  12.413  0.0187  0.3853 -0.2268
  385TMC3    H2 5814   4.410   1.991  12.189  0.1531  0.5115  1.6412
  385TMC3    C7 5815   4.498   1.980  12.420 -0.0609  0.6670  0.1412
  385TMC3    C8 5816   4.493   2.139  11.986 -0.3211  0.5110  0.2149
  385TMC3    O1 5817   4.394   2.040  12.409  0.1043 -0.2064  0.2972
  385TMC3    O2 5818   4.374   2.148  12.020  0.2280  0.4882  0.1867
  386TMC3    C1 5819   1.084   0.364  11.686  0.3588 -0.1905 -0.7805
  386TMC3    C2 5820   1.090   0.442  11.581 -0.5423  0.4891  0.3005
  386TMC3    C3 5821   0.973   0.487  11.524  0.1556 -0.1435  0.6325
  386TMC3    C4 5822   0.971   0.309  11.732 -0.0694  0.3607  0.0844
  386TMC3    C5 5823   0.852   0.359  11.681  0.1937  0.3796 -0.2141
  386TMC3    C6 5824   0.861   0.454  11.580 -0.7428 -0.9098  0.0784
  386TMC3     C 5825   1.203   0.323  11.754  0.2259  0.4606 -0.6165
  386TMC3     O 5826   1.299   0.403  11.758  0.5521 -0.0685  0.6840
  386TMC3     H 5827   1.186   0.477  11.546 -1.2724  0.0595 -2.1226
  386TMC3    H1 5828   0.958   0.246  11.818 -1.3498 -2.1933 -1.9733
  386TMC3    H2 5829   0.765   0.478  11.537 -0.7639  0.7952  1.0963
  386TMC3    C7 5830   0.722   0.320  11.725 -0.6654  0.0356  0.1856
  386TMC3    C8 5831   0.979   0.579  11.408 -0.1461 -0.1558 -0.0565
  386TMC3    O1 5832   0.627   0.400  11.703 -0.3140  0.4359 -0.8375
  386TMC3    O2 5833   1.093   0.585  11.358 -0.4760 -0.1617 -0.0740
  387MPD2     C 5834   2.649   1.200   9.873  0.2938 -0.6325 -0.5665
  387MPD2    C1 5835   2.776   1.169   9.926  0.0419  0.4079 -0.2271
  387MPD2    C2 5836   2.800   1.031   9.963 -0.1685 -0.3193 -0.3187
  387MPD2    C3 5837   2.708   0.935   9.933 -0.2355 -0.2554  0.2436
  387MPD2    C4 5838   2.592   0.962   9.864  0.6993  0.5808 -0.0655
  387MPD2    C5 5839   2.563   1.096   9.848 -0.1915  0.4622  0.2149
  387MPD2     H 5840   2.893   1.007  10.014  0.2693 -0.1659 -1.0277
  387MPD2    H1 5841   2.519   0.892   9.826 -0.6955  0.4781  2.7800
  387MPD2    H2 5842   2.628   1.303   9.849  0.7492 -1.0399 -2.6422
  387MPD2    H3 5843   2.466   1.121   9.807 -1.8084 -2.9637  1.9539
  387MPD2     N 5844   2.740   0.802   9.980 -0.1355  0.4263 -0.4407
  387MPD2    H5 5845   2.825   0.792  10.033  0.0357 -1.1254 -0.9987
  387MPD2    N1 5846   2.887   1.254   9.951  0.3574 -0.0068 -0.6237
  387MPD2    H7 5847   2.972   1.212   9.988  0.3488 -0.5848 -1.2654
  388TMC3    C1 5848   2.970   1.440  10.075  0.2311  0.1227 -0.0878
  388TMC3    C2 5849   2.972   1.574  10.103 -0.2162 -0.2232  0.1022
  388TMC3    C3 5850   3.046   1.615  10.212 -0.4053 -0.6858  0.6937
  388TMC3    C4 5851   3.020   1.343  10.164 -0.3563 -0.1083  0.6214
  388TMC3    C5 5852   3.095   1.390  10.270  0.0590 -0.3422 -0.2330
  388TMC3    C6 5853   3.114   1.524  10.288 -0.2209  0.0186  0.3771
  388TMC3     C 5854   2.876   1.392   9.970  0.5189 -0.2243  0.2703
  388TMC3     O 5855   2.782   1.463   9.952 -0.6782  0.6611  0.2301
  388TMC3     H 5856   2.921   1.637  10.031 -0.2157  0.7832  0.9808
  388TMC3    H1 5857   3.032   1.239  10.136 -2.6692  0.2511 -1.5781
  388TMC3    H2 5858   3.172   1.567  10.369  0.1335 -1.2207  0.7911
  388TMC3    C7 5859   3.152   1.301  10.360 -0.0239 -0.5294  0.5882
  388TMC3    C8 5860   2.992   1.733  10.283  0.4795 -0.4967  0.1631
  388TMC3    O1 5861   3.236   1.322  10.444 -0.3010  0.0654 -0.2990
  388TMC3    O2 5862   3.006   1.738  10.402  0.1029 -0.3698 -0.1421
  389MPD2     C 5863   1.288   4.193  10.971 -0.0558 -0.2079 -0.1857
  389MPD2    C1 5864   1.263   4.077  10.903 -0.6294 -0.4643  0.1551
  389MPD2    C2 5865   1.261   3.955  10.967  0.5898  0.3272  0.4947
  389MPD2    C3 5866   1.287   3.949  11.104 -0.1208 -0.4479  0.3818
  389MPD2    C4 5867   1.313   4.063  11.174  0.0752 -0.2465  1.1030
  389MPD2    C5 5868   1.320   4.181  11.103  0.6941  0.3277 -0.3223
  389MPD2     H 5869   1.238   3.865  10.912  0.9387  0.4432  0.1565
  389MPD2    H1 5870   1.346   4.049  11.276 -0.4296 -0.7187  1.2021
  389MPD2    H2 5871   1.308   4.289  10.925 -1.9698 -0.5504 -1.7555
  389MPD2    H3 5872   1.355   4.267  11.159  0.6383  0.7099 -0.8840
  389MPD2     N 5873   1.299   3.823  11.178  0.5299 -0.2413  0.2669
  389MPD2    H5 5874   1.315   3.837  11.277 -1.2015  1.7378  0.2585
  389MPD2    N1 5875   1.258   4.095  10.761  0.1598  0.2405  0.1169
  389MPD2    H7 5876   1.286   4.185  10.724  1.8410 -0.2117  0.2936
  390TMC3    C1 5877   1.315   3.599  11.236 -0.2794 -0.1220 -0.3536
  390TMC3    C2 5878   1.222   3.503  11.242 -0.7518  0.0173  0.1796
  390TMC3    C3 5879   1.228   3.410  11.341 -0.7754  0.2366  0.0892
  390TMC3    C4 5880   1.396   3.631  11.346 -0.8976  0.1792  0.1393
  390TMC3    C5 5881   1.390   3.544  11.454  0.6232  0.2155  0.5484
  390TMC3    C6 5882   1.311   3.429  11.456  0.4330  0.8743 -0.7800
  390TMC3     C 5883   1.288   3.700  11.133 -0.7794  0.2615  0.4261
  390TMC3     O 5884   1.261   3.659  11.021 -0.2578  0.7114 -0.0018
  390TMC3     H 5885   1.168   3.478  11.151  0.8893 -0.0008 -0.8017
  390TMC3    H1 5886   1.469   3.711  11.355 -1.9372  1.3541 -1.9113
  390TMC3    H2 5887   1.300   3.378  11.551 -1.1828  4.0674  0.7674
  390TMC3    C7 5888   1.460   3.588  11.578 -0.0209  0.2453 -0.3393
  390TMC3    C8 5889   1.192   3.280  11.307  0.2753 -0.5488 -0.0467
  390TMC3    O1 5890   1.481   3.707  11.591  0.1383 -0.2175 -0.6782
  390TMC3    O2 5891   1.166   3.255  11.192 -0.1214 -0.5655  0.1415
  391MPD2     C 5892   1.301   0.632  11.055  0.0579 -0.1233 -0.0722
  391MPD2    C1 5893   1.324   0.766  11.051  0.5305  0.2171 -1.0166
  391MPD2    C2 5894   1.323   0.837  10.935 -0.4654  0.4997  0.5641
  391MPD2    C3 5895   1.291   0.774  10.816  0.1280 -0.3617  0.1085
  391MPD2    C4 5896   1.267   0.635  10.821 -0.2705  0.1555 -0.3788
  391MPD2    C5 5897   1.261   0.566  10.943 -0.4377  0.3654 -0.7711
  391MPD2     H 5898   1.345   0.942  10.927 -0.6816  0.7832  3.9817
  391MPD2    H1 5899   1.247   0.576  10.732 -1.3061  1.0049 -0.7003
  391MPD2    H2 5900   1.288   0.573  11.145  0.4984 -0.8549 -0.4891
  391MPD2    H3 5901   1.231   0.462  10.937 -0.8871  0.4960 -0.8563
  391MPD2     N 5902   1.318   0.834  10.691  0.1482 -0.1248  0.7748
  391MPD2    H5 5903   1.355   0.928  10.695  2.3070 -0.8829 -1.3878
  391MPD2    N1 5904   1.333   0.834  11.177  0.3877  0.6095  0.3227
  391MPD2    H7 5905   1.345   0.773  11.257  1.1852 -0.0560 -0.3040
  392TMC3    C1 5906   1.319   0.882  10.470 -0.1077  0.0947  0.2643
  392TMC3    C2 5907   1.229   0.946  10.395 -0.3494  0.0344  0.4768
  392TMC3    C3 5908   1.271   1.043  10.310  0.0126  0.1058 -0.1660
  392TMC3    C4 5909   1.453   0.903  10.461 -0.8470 -0.1339  1.1011
  392TMC3    C5 5910   1.492   1.007  10.382  0.1974  0.3556 -0.0653
  392TMC3    C6 5911   1.403   1.078  10.305 -0.3573 -0.4382  0.3753
  392TMC3     C 5912   1.268   0.792  10.565  0.2513 -0.0801 -0.1777
  392TMC3     O 5913   1.174   0.718  10.551 -0.5354 -0.0157 -0.0495
  392TMC3     H 5914   1.122   0.926  10.396 -0.2103 -0.7046  0.8013
  392TMC3    H1 5915   1.525   0.844  10.516  0.4189 -2.6820 -3.3036
  392TMC3    H2 5916   1.436   1.147  10.228 -1.7657  1.2014  1.2403
  392TMC3    C7 5917   1.601   1.094  10.419  0.4611  0.1952  0.0487
  392TMC3    C8 5918   1.181   1.071  10.200 -0.9758 -0.4469  0.6733
  392TMC3    O1 5919   1.581   1.215  10.454  1.1544 -0.7583  0.0060
  392TMC3    O2 5920   1.100   0.986  10.171  0.1013  0.3059 -0.0855
  393TMC3    C1 5921   4.145   3.636  10.647 -0.1744 -0.2249 -0.4387
  393TMC3    C2 5922   4.123   3.572  10.531 -0.7289 -0.1468 -0.1786
  393TMC3    C3 5923   4.092   3.436  10.545  0.3664 -0.1675 -0.3069
  393TMC3    C4 5924   4.131   3.573  10.766  0.0522  0.3859  0.0560
  393TMC3    C5 5925   4.106   3.440  10.775  0.3693 -0.4219 -0.0774
  393TMC3    C6 5926   4.088   3.367  10.664  0.3704  0.5148  0.7232
  393TMC3     C 5927   4.164   3.783  10.658  0.3360 -0.2689  0.2458
  393TMC3     O 5928   4.157   3.826  10.771 -0.1834 -0.4427  0.2204
  393TMC3     H 5929   4.110   3.630  10.441  2.2820  2.9762  1.4234
  393TMC3    H1 5930   4.154   3.627  10.857  3.2189 -0.2841 -0.3514
  393TMC3    H2 5931   4.085   3.259  10.676  3.4330  0.5133  1.4842
  393TMC3    C7 5932   4.192   3.401  10.885  0.1542  0.1776  0.5586
  393TMC3    C8 5933   4.065   3.354  10.431 -0.0554 -0.6869  0.4890
  393TMC3    O1 5934   4.146   3.428  10.995 -0.0589  0.1402 -0.2089
  393TMC3    O2 5935   3.990   3.259  10.459 -0.2641 -0.5953  0.0649
  394TMC3    C1 5936   1.308   4.019  10.551 -0.1111  0.3418  0.0490
  394TMC3    C2 5937   1.257   3.965  10.442 -0.0120 -0.5045  0.2520
  394TMC3    C3 5938   1.317   4.000  10.326  0.1829 -0.1974 -0.9384
  394TMC3    C4 5939   1.422   4.099  10.542 -0.2750 -0.3036  0.4153
  394TMC3    C5 5940   1.487   4.108  10.425  0.2160  0.3798  0.7202
  394TMC3    C6 5941   1.437   4.063  10.308  1.2581  0.0362  0.3954
  394TMC3     C 5942   1.248   3.985  10.680  0.6080  0.6601 -0.8617
  394TMC3     O 5943   1.194   3.873  10.698  0.1187  0.4452  0.4704
  394TMC3     H 5944   1.169   3.902  10.451 -0.3832 -0.1095 -0.5438
  394TMC3    H1 5945   1.467   4.127  10.637  1.8620  0.6454 -0.8813
  394TMC3    H2 5946   1.469   4.080  10.206  2.7751  0.3494  0.9199
  394TMC3    C7 5947   1.621   4.164  10.416  0.5985 -0.5784 -0.1469
  394TMC3    C8 5948   1.287   3.913  10.212 -0.6103  0.2811  0.0743
  394TMC3    O1 5949   1.660   4.191  10.306  0.9411 -0.1064 -0.6837
  394TMC3    O2 5950   1.185   3.917  10.151 -0.3807 -0.3966 -0.4043
  395TMC3    C1 5951   1.942   0.726  14.573 -0.1029 -0.0358  0.0670
  395TMC3    C2 5952   1.830   0.766  14.500  0.9222  0.2557 -0.8213
  395TMC3    C3 5953   1.855   0.846  14.392  0.1523  0.5748 -0.0870
  395TMC3    C4 5954   2.070   0.772  14.545 -0.0383 -0.6825  0.5790
  395TMC3    C5 5955   2.089   0.842  14.424  0.3648 -0.7662 -0.5425
  395TMC3    C6 5956   1.982   0.875  14.348  0.2315  0.3028 -0.2247
  395TMC3     C 5957   1.914   0.676  14.704  0.1297  0.7819 -0.1437
  395TMC3     O 5958   1.834   0.747  14.764 -0.0358  0.4335  0.4503
  395TMC3     H 5959   1.738   0.738  14.550  0.0746  1.7540 -1.5475
  395TMC3    H1 5960   2.154   0.727  14.595  0.5930  0.5004  0.5756
  395TMC3    H2 5961   1.985   0.946  14.266 -0.1466  1.8030  1.0719
  395TMC3    C7 5962   2.188   0.945  14.422  0.5677  0.1121 -0.8122
  395TMC3    C8 5963   1.745   0.928  14.339  0.7171  0.4147  0.4787
  395TMC3    O1 5964   2.214   0.989  14.532 -0.0777 -0.2751  0.2701
  395TMC3    O2 5965   1.774   1.038  14.292  0.5176  0.0027 -0.3845
  396MPD2     C 5966   1.384   1.321  16.807 -0.0684 -0.3219 -0.2932
  396MPD2    C1 5967   1.515   1.343  16.832  0.1301  0.2371  0.7206
  396MPD2    C2 5968   1.584   1.432  16.756  0.6172  0.1118  0.1240
  396MPD2    C3 5969   1.522   1.482  16.642 -0.0077  0.3915 -0.0159
  396MPD2    C4 5970   1.399   1.438  16.607  0.2278 -0.0047 -0.3074
  396MPD2    C5 5971   1.325   1.360  16.692 -0.4513  0.1254 -0.2070
  396MPD2     H 5972   1.690   1.447  16.775  1.1031 -0.1395 -2.2672
  396MPD2    H1 5973   1.354   1.476  16.515  0.2777  2.9128  0.8679
  396MPD2    H2 5974   1.327   1.265  16.881 -0.8652  1.6158  0.5583
  396MPD2    H3 5975   1.222   1.330  16.674 -0.3795 -0.1094 -0.2256
  396MPD2     N 5976   1.595   1.574  16.566  0.0407  0.0463  0.3541
  396MPD2    H5 5977   1.695   1.580  16.584  0.4340  0.1756 -1.7829
  396MPD2    N1 5978   1.572   1.302  16.951 -0.4190 -0.7011  0.4870
  396MPD2    H7 5979   1.521   1.226  16.995  1.3810 -1.5948  1.0547
  397TMC3    C1 5980   1.696   1.274  17.140  0.0263 -0.2291 -0.3764
  397TMC3    C2 5981   1.806   1.202  17.138 -0.2856 -0.2901 -0.0014
  397TMC3    C3 5982   1.812   1.064  17.160  0.7505 -0.0973  0.1214
  397TMC3    C4 5983   1.581   1.203  17.177 -0.2574  0.0284  0.4043
  397TMC3    C5 5984   1.587   1.071  17.216  0.2536 -0.4300  0.3884
  397TMC3    C6 5985   1.703   0.999  17.199 -0.7202 -0.0826  0.1453
  397TMC3     C 5986   1.690   1.333  17.015 -0.1721  0.3765 -0.0187
  397TMC3     O 5987   1.777   1.416  16.988 -0.0835  0.3599  0.6444
  397TMC3     H 5988   1.896   1.255  17.111 -0.7774  0.8003  0.5120
  397TMC3    H1 5989   1.488   1.255  17.197  1.0934  2.5582  0.0875
  397TMC3    H2 5990   1.710   0.897  17.235  3.3231  0.1618 -0.0191
  397TMC3    C7 5991   1.475   1.003  17.280 -0.1492 -0.4583  0.3490
  397TMC3    C8 5992   1.942   0.999  17.184  0.0281  0.2555  0.3128
  397TMC3    O1 5993   1.470   0.880  17.292 -0.1289  0.1991 -0.8927
  397TMC3    O2 5994   1.951   0.933  17.286 -0.8394  0.2237  0.0200
  398MPD2     C 5995   4.392   3.371   0.064  0.5907  0.0606 -0.0579
  398MPD2    C1 5996   4.487   3.318   0.148 -0.2532  0.7216  0.6456
  398MPD2    C2 5997   4.573   3.408   0.208 -0.4669 -0.2350 -0.0481
  398MPD2    C3 5998   4.550   3.545   0.192 -0.0626  0.5609  0.0472
  398MPD2    C4 5999   4.448   3.597   0.114 -0.6227 -0.1757 -0.5515
  398MPD2    C5 6000   4.374   3.507   0.042  0.5436 -0.1313  0.7939
  398MPD2     H 6001   4.646   3.372   0.279 -3.3313 -1.9215  2.0712
  398MPD2    H1 6002   4.420   3.701   0.109 -0.7476 -0.2751 -1.9533
  398MPD2    H2 6003   4.338   3.307  17.731 -0.2631  1.5795 -0.8176
  398MPD2    H3 6004   4.297   3.541  17.710 -0.4081  0.0042  1.9539
  398MPD2     N 6005   4.640   3.636   0.253  0.6201  0.9453  0.5585
  398MPD2    H5 6006   4.719   3.595   0.302 -0.6140 -0.5861  1.2595
  398MPD2    N1 6007   4.510   3.175   0.178 -0.4158  0.2363 -0.5817
  398MPD2    H7 6008   4.588   3.143   0.234 -1.1601  1.0611  0.9241
  399TMC3    C1 6009   4.472   2.942   0.153  0.2113  0.1593  0.6072
  399TMC3    C2 6010   4.600   2.922   0.182 -0.7248 -0.6684 -0.2289
  399TMC3    C3 6011   4.647   2.793   0.197 -0.6187 -0.6013 -0.4663
  399TMC3    C4 6012   4.387   2.845   0.119  0.1879  0.1758  0.3244
  399TMC3    C5 6013   4.435   2.716   0.129 -0.1922 -0.6824 -0.3681
  399TMC3    C6 6014   4.563   2.686   0.176 -0.0698 -0.4446 -0.3705
  399TMC3     C 6015   4.423   3.076   0.134  0.0972  0.2658 -0.3010
  399TMC3     O 6016   4.312   3.091   0.086  0.2628  0.2414  0.3240
  399TMC3     H 6017   4.665   3.005   0.207 -0.5533 -1.2436  1.2360
  399TMC3    H1 6018   4.284   2.865   0.092 -0.3275 -1.9374  0.7059
  399TMC3    H2 6019   4.614   2.591   0.163  0.0023 -0.4261 -0.2260
  399TMC3    C7 6020   4.358   2.605   0.087  0.1116  0.2676 -0.6372
  399TMC3    C8 6021   0.052   2.787   0.251 -0.2926 -0.1997  0.3169
  399TMC3    O1 6022   4.386   2.493   0.133  0.2538  0.5787 -0.2776
  399TMC3    O2 6023   0.110   2.892   0.272 -0.1426 -0.3099 -0.4548
  400TMC3    C1 6024   2.842   0.751  16.898 -1.2235  0.2209 -0.1525
  400TMC3    C2 6025   2.753   0.651  16.850  0.0872 -0.2450 -0.9043
  400TMC3    C3 6026   2.689   0.681  16.735  0.2718 -0.3007  0.1233
  400TMC3    C4 6027   2.866   0.871  16.827 -1.1304 -0.3969  0.6603
  400TMC3    C5 6028   2.805   0.887  16.713 -0.3287  0.0865 -0.6699
  400TMC3    C6 6029   2.709   0.804  16.665  0.5500  0.2129  0.7367
  400TMC3     C 6030   2.901   0.720  17.033  0.1459 -0.2523  0.1589
  400TMC3     O 6031   2.862   0.613  17.078  0.7039  0.4793 -0.5126
  400TMC3     H 6032   2.734   0.559  16.904 -1.0280 -0.9525 -2.4707
  400TMC3    H1 6033   2.948   0.939  16.849 -0.1408 -0.7173 -2.0644
  400TMC3    H2 6034   2.642   0.830  16.584 -3.0992  1.7632  4.2477
  400TMC3    C7 6035   2.808   1.021  16.660  0.0512 -0.2344  0.4802
  400TMC3    C8 6036   2.578   0.593  16.701 -0.3538  0.1731  0.3693
  400TMC3    O1 6037   2.794   1.031  16.538 -0.5436 -0.2331  0.3957
  400TMC3    O2 6038   2.560   0.592  16.582 -0.1777 -0.2320 -0.1169
  401MPD2     C 6039   1.137   0.398   0.586  0.3739 -0.3284  0.4520
  401MPD2    C1 6040   1.209   0.312   0.502 -0.2788 -0.1238  0.1024
  401MPD2    C2 6041   1.236   0.186   0.545 -0.5337  0.0319 -0.5777
  401MPD2    C3 6042   1.188   0.142   0.670 -0.3234  0.1910  0.0279
  401MPD2    C4 6043   1.117   0.222   0.746  0.3471 -0.8840  0.1440
  401MPD2    C5 6044   1.094   0.350   0.703  0.8689  0.5479 -0.4020
  401MPD2     H 6045   1.294   0.115   0.486  0.0724  0.9034 -1.0252
  401MPD2    H1 6046   1.079   0.196   0.845 -0.5442  3.5513  0.9688
  401MPD2    H2 6047   1.119   0.501   0.558  1.0669 -0.2908  0.1590
  401MPD2    H3 6048   1.049   0.423   0.769  1.2933  1.2099 -0.8517
  401MPD2     N 6049   1.216   0.012   0.698  0.8481 -0.0558 -0.0840
  401MPD2    H5 6050   1.285   4.703   0.637  1.5379  0.6835  0.1799
  401MPD2    N1 6051   1.260   0.348   0.380  0.6858 -1.0997  0.2173
  401MPD2    H7 6052   1.308   0.273   0.331 -2.0661 -2.8110  0.1142
  402TMC3    C1 6053   1.193   4.532   0.800  0.0004 -0.0230 -0.5559
  402TMC3    C2 6054   1.178   4.477   0.922  0.1275 -0.2498  0.2959
  402TMC3    C3 6055   1.220   4.355   0.951 -0.0896  0.5355 -0.0281
  402TMC3    C4 6056   1.259   4.463   0.698  0.3299  0.1198 -0.3649
  402TMC3    C5 6057   1.292   4.334   0.728 -0.1203  0.4099 -0.0821
  402TMC3    C6 6058   1.271   4.278   0.852  0.2020  1.1253  0.5929
  402TMC3     C 6059   1.150   4.673   0.794 -0.3301 -0.8159 -0.1807
  402TMC3     O 6060   1.064   4.710   0.876 -0.2406  0.1111  0.0640
  402TMC3     H 6061   1.146   4.542   1.003 -0.0880 -0.7359  0.5976
  402TMC3    H1 6062   1.266   4.502   0.597 -2.9313  0.5410 -0.4133
  402TMC3    H2 6063   1.276   4.171   0.867 -2.7875  0.9118 -0.0501
  402TMC3    C7 6064   1.343   4.256   0.621  0.6983  0.2621 -0.6217
  402TMC3    C8 6065   1.200   4.296   1.086  0.5231 -0.4511  0.0339
  402TMC3    O1 6066   1.311   4.281   0.506 -0.5108 -0.0725 -0.1827
  402TMC3    O2 6067   1.130   4.366   1.160 -0.3765 -0.2273 -0.0644
  403MPD2     C 6068   4.256   3.088  13.146 -0.0059 -0.5910  0.8692
  403MPD2    C1 6069   4.254   2.964  13.202  0.1550 -0.0901 -0.3437
  403MPD2    C2 6070   4.348   2.935  13.296 -0.2367  0.0308  0.7026
  403MPD2    C3 6071   4.433   3.025  13.359 -0.0349  0.2961 -0.0661
  403MPD2    C4 6072   4.433   3.149  13.303  0.2483 -0.4754 -0.6495
  403MPD2    C5 6073   4.347   3.182  13.201  0.0144 -0.4652  0.3285
  403MPD2     H 6074   4.355   2.833  13.334  1.3583 -0.2557 -0.3443
  403MPD2    H1 6075   4.492   3.224  13.354 -1.2745 -0.1506  0.6243
  403MPD2    H2 6076   4.179   3.113  13.074 -1.0262  2.0199  2.8868
  403MPD2    H3 6077   4.339   3.285  13.169 -0.3329  0.0087  1.9376
  403MPD2     N 6078   4.504   2.974  13.472  0.2807  0.9017  0.3929
  403MPD2    H5 6079   4.511   2.874  13.487  0.2538  0.6645 -1.1950
  403MPD2    N1 6080   4.150   2.875  13.168 -0.2993 -0.0994  0.2109
  403MPD2    H7 6081   4.099   2.887  13.082 -0.2316  0.6192  0.2720
  404TMC3    C1 6082   4.002   2.692  13.198 -0.3645  0.2724  0.2527
  404TMC3    C2 6083   3.959   2.611  13.308  0.2667 -0.5983  0.1792
  404TMC3    C3 6084   3.940   2.479  13.288  0.3104 -0.1104  0.1497
  404TMC3    C4 6085   4.004   2.638  13.071 -0.3400 -0.5545  0.8633
  404TMC3    C5 6086   3.997   2.506  13.060  0.5282 -0.2650  0.3981
  404TMC3    C6 6087   3.952   2.429  13.162  0.7896  0.2556  0.3189
  404TMC3     C 6088   4.109   2.772  13.250 -0.2221  0.7220 -0.3284
  404TMC3     O 6089   4.157   2.739  13.358 -0.2018 -0.5313  0.1601
  404TMC3     H 6090   3.959   2.657  13.406 -1.8280  1.7949 -0.9147
  404TMC3    H1 6091   4.039   2.696  12.987 -0.5294 -0.4184  0.8786
  404TMC3    H2 6092   3.911   2.330  13.147  0.1201  0.8125 -1.5612
  404TMC3    C7 6093   3.971   2.467  12.926 -0.2462 -0.3807 -0.4963
  404TMC3    C8 6094   3.990   2.392  13.393 -0.7770  0.1141 -0.5340
  404TMC3    O1 6095   4.061   2.402  12.876  0.5758  0.4836  0.0803
  404TMC3    O2 6096   4.047   2.289  13.363 -0.2806  0.5361 -0.1555
  405MPD2     C 6097   4.341   3.416  14.728  0.0596 -0.0900  0.1880
  405MPD2    C1 6098   4.212   3.433  14.691  0.6424 -0.2576  0.1231
  405MPD2    C2 6099   4.162   3.558  14.667 -0.2971 -0.5186  0.2912
  405MPD2    C3 6100   4.244   3.668  14.687 -0.0318  0.8220 -0.7144
  405MPD2    C4 6101   4.375   3.644  14.729 -0.8273  0.5119 -0.4538
  405MPD2    C5 6102   4.419   3.519  14.750 -0.1719 -0.6654 -0.4159
  405MPD2     H 6103   4.061   3.588  14.642 -0.2189 -0.4860  0.0116
  405MPD2    H1 6104   4.443   3.724  14.755  1.0243 -1.3739  0.6104
  405MPD2    H2 6105   4.382   3.320  14.756 -2.1217 -0.6306  1.4543
  405MPD2    H3 6106   4.517   3.502  14.794 -0.9014  0.4135  1.6564
  405MPD2     N 6107   4.186   3.793  14.684 -0.1830  0.5628 -0.2940
  405MPD2    H5 6108   4.087   3.790  14.661 -0.7606 -0.4817  2.3243
  405MPD2    N1 6109   4.137   3.318  14.690 -0.3591 -0.1754  0.7068
  405MPD2    H7 6110   4.182   3.228  14.706 -0.7012 -0.2186  1.4088
  406TMC3    C1 6111   3.993   4.206  14.684  0.4624 -0.3911  0.2466
  406TMC3    C2 6112   3.906   4.177  14.786  0.1399  0.1853  0.1623
  406TMC3    C3 6113   3.936   4.062  14.856  0.2578 -0.1676  0.0959
  406TMC3    C4 6114   4.103   4.124  14.662 -0.0093  0.5556  0.1676
  406TMC3    C5 6115   4.127   4.012  14.740  0.6593  0.1705 -0.2273
  406TMC3    C6 6116   4.034   3.979  14.825  0.5286 -0.5689 -0.3905
  406TMC3     C 6117   3.923   4.218  14.560  0.8467 -0.4018  0.1227
  406TMC3     O 6118   3.928   4.124  14.489  0.0235 -0.3161  0.8193
  406TMC3     H 6119   3.814   4.231  14.807 -0.8718 -1.0712 -0.9954
  406TMC3    H1 6120   4.168   4.135  14.576  1.9109 -0.8740  1.4059
  406TMC3    H2 6121   4.052   3.898  14.896 -0.8616  0.7992  1.5211
  406TMC3    C7 6122   4.236   3.921  14.703  0.1779  0.2214  0.4007
  406TMC3    C8 6123   3.813   3.998  14.894 -0.1781 -0.0592 -0.4661
  406TMC3    O1 6124   4.347   3.959  14.732  0.2491  0.4198 -0.0454
  406TMC3    O2 6125   3.720   4.061  14.943 -0.4075 -0.1201 -0.4267
  407MPD2     C 6126   2.062   0.848   9.887  0.0389 -0.2045  0.4912
  407MPD2    C1 6127   2.200   0.834   9.919  0.1730 -0.0989 -0.3314
  407MPD2    C2 6128   2.263   0.920  10.002  0.1064 -0.0294 -0.4892
  407MPD2    C3 6129   2.198   1.044  10.033 -0.4693  0.2303 -0.2125
  407MPD2    C4 6130   2.059   1.051  10.017  0.3021 -0.2240 -0.1554
  407MPD2    C5 6131   1.992   0.952   9.944  0.6734 -0.2401 -0.0224
  407MPD2     H 6132   2.369   0.906  10.019 -0.1087 -0.3174  0.6460
  407MPD2    H1 6133   1.993   1.123  10.065 -0.2564 -0.1293 -1.0722
  407MPD2    H2 6134   2.010   0.793   9.809 -0.5760  2.9665 -1.3630
  407MPD2    H3 6135   1.884   0.960   9.938  0.4226 -1.9911  2.2370
  407MPD2     N 6136   2.256   1.145  10.117  0.2895  0.1076  0.2017
  407MPD2    H5 6137   2.202   1.228  10.138 -1.6379 -1.2230  0.4823
  407MPD2    N1 6138   2.284   0.741   9.858  0.0182  0.4507  0.3180
  407MPD2    H7 6139   2.380   0.738   9.893 -0.2866 -0.5420  1.0525
  408TMC3    C1 6140   2.351   0.617   9.685  0.5388 -0.6825 -0.3580
  408TMC3    C2 6141   2.415   0.518   9.751  0.0508 -0.7981  0.1660
  408TMC3    C3 6142   2.546   0.504   9.716  0.3019  0.7382 -0.3044
  408TMC3    C4 6143   2.422   0.709   9.611  0.3353  0.4646  0.1953
  408TMC3    C5 6144   2.549   0.686   9.576 -0.5406  0.9235  0.8809
  408TMC3    C6 6145   2.616   0.585   9.630 -0.0070  0.5717  0.0971
  408TMC3     C 6146   2.241   0.671   9.747 -0.3429  0.1195  0.2075
  408TMC3     O 6147   2.142   0.674   9.676 -0.3793 -0.3690 -0.3575
  408TMC3     H 6148   2.351   0.453   9.809 -0.2521 -0.9033 -0.2917
  408TMC3    H1 6149   2.375   0.802   9.582 -0.0175  0.6117  1.2438
  408TMC3    H2 6150   2.722   0.579   9.613  0.1637 -0.0320  1.4076
  408TMC3    C7 6151   2.621   0.804   9.532 -0.2326 -0.4811 -0.4900
  408TMC3    C8 6152   2.610   0.389   9.768 -0.1550 -0.8243 -0.0313
  408TMC3    O1 6153   2.733   0.821   9.575  0.0644 -0.4474  0.0520
  408TMC3    O2 6154   2.537   0.292   9.796  0.0115  0.2555  0.6552
  409MPD2     C 6155   1.735   0.357  16.785  0.3522  0.3375  0.4810
  409MPD2    C1 6156   1.800   0.358  16.905 -0.0715  0.6098 -0.2211
  409MPD2    C2 6157   1.877   0.466  16.936  0.6295  0.4854  1.4479
  409MPD2    C3 6158   1.896   0.570  16.846  0.4160 -0.0595 -1.1688
  409MPD2    C4 6159   1.832   0.566  16.727 -0.0956 -0.6088 -0.1275
  409MPD2    C5 6160   1.745   0.462  16.702  0.6243 -0.0434 -0.2903
  409MPD2     H 6161   1.943   0.456  17.021 -1.7341 -0.0531  3.2238
  409MPD2    H1 6162   1.843   0.645  16.653 -1.1124 -1.4358 -1.1549
  409MPD2    H2 6163   1.669   0.276  16.754  2.7951 -1.1174 -0.9259
  409MPD2    H3 6164   1.697   0.462  16.605  0.9217 -0.0507 -0.4390
  409MPD2     N 6165   1.998   0.669  16.857  0.6264  0.3508  0.1672
  409MPD2    H5 6166   2.019   0.718  16.770 -3.2686 -1.2730 -1.6760
  409MPD2    N1 6167   1.789   0.260  16.996  0.4397 -0.0638 -0.0296
  409MPD2    H7 6168   1.853   0.280  17.072  0.2444 -0.8322  0.3339
  410TMC3    C1 6169   2.188   0.773  16.953  0.6307 -0.1078 -0.1575
  410TMC3    C2 6170   2.281   0.774  17.052 -0.3959  0.0330 -0.4962
  410TMC3    C3 6171   2.391   0.852  17.028 -0.0149 -0.0050  0.1592
  410TMC3    C4 6172   2.201   0.840  16.838  0.1127  0.2502  0.3380
  410TMC3    C5 6173   2.312   0.906  16.812 -0.1204 -0.8463 -0.6448
  410TMC3    C6 6174   2.409   0.916  16.905  0.0967  0.5847 -0.0372
  410TMC3     C 6175   2.067   0.689  16.978  0.6612 -0.0411  0.1846
  410TMC3     O 6176   2.048   0.643  17.092 -0.1084 -0.0809 -0.4304
  410TMC3     H 6177   2.261   0.723  17.146 -0.2675 -0.3642 -0.6865
  410TMC3    H1 6178   2.129   0.830  16.757 -0.5000 -1.0082  1.0340
  410TMC3    H2 6179   2.508   0.942  16.869  0.1000 -0.4048 -0.7522
  410TMC3    C7 6180   2.331   0.936  16.669 -0.0122 -0.0221  0.2826
  410TMC3    C8 6181   2.491   0.886  17.134  0.3659  0.0455  0.3321
  410TMC3    O1 6182   2.291   0.862  16.583  0.6347  0.2403 -0.2022
  410TMC3    O2 6183   2.587   0.946  17.095  0.1024 -0.4091 -0.0019
  411MPD2     C 6184   2.567   1.962  13.981  0.2733 -0.9468  0.1813
  411MPD2    C1 6185   2.497   1.932  14.093  0.3673 -1.1749 -0.4374
  411MPD2    C2 6186   2.414   1.817  14.097  0.8325  0.0235  1.2704
  411MPD2    C3 6187   2.406   1.743  13.979 -0.0956 -0.2743  0.2260
  411MPD2    C4 6188   2.483   1.771  13.870  0.5489  0.7119 -0.2450
  411MPD2    C5 6189   2.559   1.881  13.868 -0.9399  0.2051  0.6099
  411MPD2     H 6190   2.356   1.785  14.183 -1.9321  3.2023  0.5930
  411MPD2    H1 6191   2.471   1.711  13.781 -1.3913 -1.2725  1.3295
  411MPD2    H2 6192   2.628   2.051  13.974 -1.2770 -0.0406 -1.7859
  411MPD2    H3 6193   2.592   1.924  13.774 -0.8145 -2.2716 -0.4666
  411MPD2     N 6194   2.325   1.630  13.965  0.0339  0.0651 -0.2064
  411MPD2    H5 6195   2.336   1.578  13.879 -0.0453  0.4782 -0.4627
  411MPD2    N1 6196   2.495   2.022  14.196 -0.3193  0.3024  0.2280
  411MPD2    H7 6197   2.545   2.110  14.190 -0.7540  0.5727  0.5261
  412TMC3    C1 6198   2.200   1.446  14.016 -0.2501 -0.3376  0.7395
  412TMC3    C2 6199   2.079   1.404  14.068  0.7356 -0.4155  0.5148
  412TMC3    C3 6200   2.041   1.276  14.044 -0.0543 -0.4454 -0.3072
  412TMC3    C4 6201   2.278   1.372  13.937 -0.0461  0.2023  0.4158
  412TMC3    C5 6202   2.239   1.240  13.930 -0.0107 -0.6870 -0.4050
  412TMC3    C6 6203   2.131   1.186  13.991 -0.1247 -0.1971  0.0909
  412TMC3     C 6204   2.240   1.576  14.053  0.2194  0.2769  0.1049
  412TMC3     O 6205   2.190   1.622  14.153  0.5237  0.2597 -0.1962
  412TMC3     H 6206   2.002   1.469  14.107  0.5171 -0.5794  0.3567
  412TMC3    H1 6207   2.374   1.405  13.899 -0.8695  1.1455 -0.8163
  412TMC3    H2 6208   2.090   1.087  13.977 -1.9348  0.2812  1.8769
  412TMC3    C7 6209   2.284   1.181  13.809 -0.3018  0.0922 -0.5997
  412TMC3    C8 6210   1.909   1.257  13.989  0.0273  0.5400 -0.3108
  412TMC3    O1 6211   2.401   1.201  13.771  0.1979 -0.6513  0.4355
  412TMC3    O2 6212   1.908   1.195  13.886  0.3956 -0.4288 -0.5531
  413MPD2     C 6213   3.147   4.674  15.722  0.2505 -0.9548 -0.3010
  413MPD2    C1 6214   3.130   4.647  15.591  0.3963  0.2819 -0.3386
  413MPD2    C2 6215   3.221   4.561  15.533  0.6408 -0.1300  0.4050
  413MPD2    C3 6216   3.337   4.520  15.603  0.1656 -0.1363  0.4661
  413MPD2    C4 6217   3.354   4.558  15.733 -0.2251 -0.2418  0.3189
  413MPD2    C5 6218   3.253   4.623  15.794  0.0526 -0.2663 -0.2052
  413MPD2     H 6219   3.219   4.531  15.429  1.5118 -0.0439  0.3616
  413MPD2    H1 6220   3.447   4.544  15.787  1.0107  0.4219 -1.6185
  413MPD2    H2 6221   3.071   4.732  15.773 -0.2425 -3.2970  1.6364
  413MPD2    H3 6222   3.258   4.668  15.892  2.0063 -2.8432  0.8790
  413MPD2     N 6223   3.428   4.440  15.533 -0.7079  0.3681  0.0868
  413MPD2    H5 6224   3.411   4.424  15.434  0.5678  1.2830 -0.2860
  413MPD2    N1 6225   3.024   4.717  15.514 -0.3087 -0.2586 -0.4075
  413MPD2    H7 6226   2.962   0.047  15.561 -0.8352 -0.1011 -1.3264
  414TMC3    C1 6227   3.628   4.335  15.460 -0.4025 -0.7985  1.0311
  414TMC3    C2 6228   3.730   4.258  15.496  0.1297  0.1049  0.7077
  414TMC3    C3 6229   3.775   4.162  15.405  0.3504 -0.1488 -1.1040
  414TMC3    C4 6230   3.600   4.352  15.331  0.2147  0.1641 -0.4414
  414TMC3    C5 6231   3.655   4.272  15.237 -0.0931 -0.5779  0.3726
  414TMC3    C6 6232   3.746   4.175  15.277 -0.0734 -0.0640  0.3726
  414TMC3     C 6233   3.555   4.399  15.570 -0.8154 -0.1168  0.9008
  414TMC3     O 6234   3.606   4.412  15.682 -0.1270 -0.1900 -0.2113
  414TMC3     H 6235   3.755   4.250  15.601 -1.0629  2.0796  1.1607
  414TMC3    H1 6236   3.522   4.419  15.299  2.0094  1.5227 -1.9901
  414TMC3    H2 6237   3.809   4.121  15.207 -0.0267 -1.5163  1.5217
  414TMC3    C7 6238   3.692   4.346  15.122  0.4505  0.0251 -0.2511
  414TMC3    C8 6239   3.913   4.131  15.417 -0.0460  0.3642 -0.1116
  414TMC3    O1 6240   3.620   4.442  15.099 -0.3185 -0.1755  0.6401
  414TMC3    O2 6241   3.945   4.016  15.388 -0.5561  0.3692  0.3870
  415TMC3    C1 6242   4.280   2.941  10.171  0.6922  0.4494 -0.4762
  415TMC3    C2 6243   4.381   2.998  10.095 -0.6548 -0.0286 -0.6959
  415TMC3    C3 6244   4.387   2.963   9.963 -0.5725  0.1168  0.8891
  415TMC3    C4 6245   4.189   2.854  10.115  0.5426 -0.4153  0.7636
  415TMC3    C5 6246   4.200   2.824   9.984 -1.3732  0.5003 -0.3966
  415TMC3    C6 6247   4.297   2.876   9.905  0.0556 -0.9715 -0.0736
  415TMC3     C 6248   4.278   2.956  10.315 -0.2495  0.5387  1.1779
  415TMC3     O 6249   4.172   2.935  10.366 -0.2655  0.7468  0.6569
  415TMC3     H 6250   4.448   3.069  10.142 -2.5011  0.8605  0.6201
  415TMC3    H1 6251   4.127   2.801  10.187  0.2767 -2.2881 -0.8579
  415TMC3    H2 6252   4.327   2.825   9.814  0.3336 -0.5804 -0.1986
  415TMC3    C7 6253   4.108   2.718   9.931 -1.0683 -0.2254  0.0834
  415TMC3    C8 6254   4.484   3.014   9.874  0.2092  1.1438 -0.0248
  415TMC3    O1 6255   4.117   2.679   9.817 -0.1587 -0.1314  0.2174
  415TMC3    O2 6256   4.451   3.017   9.757  0.4542  0.4526 -0.0063
  416MPD2     C 6257   0.970   1.976  10.914  0.3100 -0.0064  0.0929
  416MPD2    C1 6258   0.953   1.875  11.005 -0.2793  0.1905 -0.4422
  416MPD2    C2 6259   0.954   1.742  10.975  0.7907  0.0845 -0.4370
  416MPD2    C3 6260   0.960   1.718  10.841 -0.2601  0.1763  0.0844
  416MPD2    C4 6261   0.966   1.818  10.744  0.3766 -0.0553 -0.3970
  416MPD2    C5 6262   0.973   1.949  10.781  0.6821 -0.4939 -0.1755
  416MPD2     H 6263   0.960   1.660  11.046 -0.1673 -0.0762 -0.5360
  416MPD2    H1 6264   0.988   1.802  10.639 -1.5075  1.4308 -1.0185
  416MPD2    H2 6265   0.960   2.078  10.949  1.5863  0.4403 -0.8580
  416MPD2    H3 6266   0.989   2.026  10.706  0.8114  0.4649  0.8409
  416MPD2     N 6267   0.963   1.583  10.807 -0.0088  0.4825  0.0097
  416MPD2    H5 6268   0.972   1.519  10.885  1.7067  1.2544  0.4486
  416MPD2    N1 6269   0.928   1.914  11.140 -0.6026 -0.0465  0.3710
  416MPD2    H7 6270   0.915   2.011  11.166  0.8582 -0.0271  1.0661
  417TMC3    C1 6271   0.859   1.890  11.357  0.2890 -0.2410 -1.0338
  417TMC3    C2 6272   0.874   1.839  11.479  0.6405  0.0327 -0.2666
  417TMC3    C3 6273   0.766   1.843  11.563 -0.2888 -0.5844 -0.2418
  417TMC3    C4 6274   0.733   1.930  11.312  0.0833 -0.7401  0.2271
  417TMC3    C5 6275   0.629   1.930  11.395 -0.2475  0.5274 -0.8323
  417TMC3    C6 6276   0.647   1.895  11.525  0.1786 -0.1797  0.5259
  417TMC3     C 6277   0.929   1.832  11.248 -0.3186 -0.1894 -0.1127
  417TMC3     O 6278   0.971   1.720  11.264 -0.0236  0.2857 -0.3399
  417TMC3     H 6279   0.966   1.787  11.503  0.0524 -0.1808  1.4810
  417TMC3    H1 6280   0.715   1.957  11.209 -0.6653  0.5881  0.6997
  417TMC3    H2 6281   0.560   1.900  11.591 -1.3351 -1.9490 -1.3413
  417TMC3    C7 6282   0.517   2.017  11.343  0.5008 -0.4124 -0.7034
  417TMC3    C8 6283   0.774   1.811  11.702  0.5415  0.3552 -0.3189
  417TMC3    O1 6284   0.508   2.034  11.220 -0.3542 -0.5961  0.0795
  417TMC3    O2 6285   0.671   1.836  11.765  0.2851  0.1060  0.3752
  418TMC3    C1 6286   0.188   3.980   0.325  0.9877 -0.0475  0.0749
  418TMC3    C2 6287   0.061   3.955   0.289 -0.1587 -0.3776 -0.0288
  418TMC3    C3 6288   0.012   3.833   0.321 -0.0429  0.1006  0.1067
  418TMC3    C4 6289   0.260   3.900   0.402  0.4112 -0.6565  0.3409
  418TMC3    C5 6290   0.207   3.788   0.452  0.3506  0.2942  0.4201
  418TMC3    C6 6291   0.088   3.747   0.408 -0.1350  0.0693 -0.0400
  418TMC3     C 6292   0.256   4.080   0.241 -0.0905 -0.2471  0.6233
  418TMC3     O 6293   0.195   4.187   0.220 -0.0789 -0.3848  0.0573
  418TMC3     H 6294   0.011   4.016   0.214 -0.9125  0.9502  1.5607
  418TMC3    H1 6295   0.357   3.931   0.438  1.1564 -1.8446 -0.6480
  418TMC3    H2 6296   0.037   3.666   0.459  1.5806 -1.7598 -1.2176
  418TMC3    C7 6297   0.274   3.684   0.522  0.0020 -0.1393 -0.4360
  418TMC3    C8 6298   4.637   3.767   0.243  0.0958 -0.3605  0.0608
  418TMC3    O1 6299   0.220   3.575   0.514 -0.2598  0.5184  0.3404
  418TMC3    O2 6300   4.558   3.848   0.199  0.1902  0.0631 -0.1492
  419MPD2     C 6301   3.530   1.386  12.281  0.3572  0.1122  0.5426
  419MPD2    C1 6302   3.429   1.471  12.308 -0.4371 -1.0349 -0.3681
  419MPD2    C2 6303   3.372   1.490  12.430  0.2765 -0.6203  0.8529
  419MPD2    C3 6304   3.396   1.400  12.532 -0.3429  0.7764  0.7608
  419MPD2    C4 6305   3.481   1.297  12.505 -0.4282 -0.5303 -0.2703
  419MPD2    C5 6306   3.551   1.296  12.388  0.2671  0.2295  0.9496
  419MPD2     H 6307   3.309   1.573  12.460 -1.1716 -0.5625 -2.3409
  419MPD2    H1 6308   3.502   1.220  12.579  1.2150 -0.3666 -0.5707
  419MPD2    H2 6309   3.585   1.361  12.191 -2.3392 -0.6943 -0.8765
  419MPD2    H3 6310   3.625   1.217  12.375  0.6882  0.6865  0.5481
  419MPD2     N 6311   3.324   1.420  12.647  0.6865  0.0065 -0.0587
  419MPD2    H5 6312   3.269   1.504  12.660 -1.7692 -1.7845  1.2717
  419MPD2    N1 6313   3.400   1.568  12.211  0.3308  0.3834  0.0187
  419MPD2    H7 6314   3.361   1.654  12.247  0.4325  0.7915 -0.8353
  420TMC3    C1 6315   3.273   1.395  12.874 -0.2873  0.4780 -0.0325
  420TMC3    C2 6316   3.162   1.474  12.853  0.5103  0.4794 -0.6408
  420TMC3    C3 6317   3.127   1.572  12.942  0.1887  1.0759 -0.3234
  420TMC3    C4 6318   3.339   1.412  12.999  0.7584 -0.6148  0.1259
  420TMC3    C5 6319   3.301   1.511  13.086 -0.6011 -0.0474 -0.3239
  420TMC3    C6 6320   3.192   1.593  13.061 -0.1464  0.1061 -0.8280
  420TMC3     C 6321   3.342   1.343  12.759 -0.7836  0.2046  0.0424
  420TMC3     O 6322   3.417   1.249  12.783  0.0920  0.4796  0.3269
  420TMC3     H 6323   3.103   1.470  12.762  1.9539  1.3557 -1.6113
  420TMC3    H1 6324   3.432   1.360  13.015  0.7150 -0.2072  1.6936
  420TMC3    H2 6325   3.157   1.669  13.129  1.9709 -0.8189  1.2959
  420TMC3    C7 6326   3.365   1.528  13.213  0.3209  0.2544 -0.0663
  420TMC3    C8 6327   3.019   1.662  12.887  0.8483 -0.1976  0.9772
  420TMC3    O1 6328   3.434   1.435  13.253  0.1106  0.1837  0.2031
  420TMC3    O2 6329   2.945   1.612  12.804 -0.1013  0.5282  0.6243
  421TMC3    C1 6330   4.642   2.981  13.671 -0.1644 -0.9227  0.0907
  421TMC3    C2 6331   4.683   3.064  13.775 -0.0062  0.0939 -0.0868
  421TMC3    C3 6332   0.059   3.033  13.849  0.2497 -0.4432 -0.0912
  421TMC3    C4 6333   4.712   2.874  13.637  0.8652  0.3425 -0.1815
  421TMC3    C5 6334   0.088   2.850  13.710  0.0085  0.3257 -0.1269
  421TMC3    C6 6335   0.129   2.919  13.820  0.0842 -0.3878 -1.2448
  421TMC3     C 6336   4.571   3.054  13.562 -0.0506  0.2263 -0.3645
  421TMC3     O 6337   4.543   3.173  13.581 -0.5666  0.4301 -0.7424
  421TMC3     H 6338   4.638   3.161  13.796 -0.4147  0.0021 -0.5305
  421TMC3    H1 6339   4.689   2.820  13.546 -1.9391  0.3362  0.5124
  421TMC3    H2 6340   0.215   2.888  13.878 -2.0765 -1.2537  1.4824
  421TMC3    C7 6341   0.180   2.749  13.676 -0.3556  0.1099  0.0800
  421TMC3    C8 6342   0.131   3.132  13.933 -0.2496 -0.6581  0.0528
  421TMC3    O1 6343   0.293   2.754  13.727  0.2899  0.1530 -0.0202
  421TMC3    O2 6344   0.252   3.120  13.962 -0.0792 -0.2529 -0.3622
  422TMC3    C1 6345   2.080   4.482  12.477 -0.0989  0.1311 -0.6040
  422TMC3    C2 6346   2.072   4.542  12.599  0.1944  0.1022 -0.3485
  422TMC3    C3 6347   1.959   4.533  12.669 -0.1836  0.6229  1.0180
  422TMC3    C4 6348   1.976   4.433  12.412  0.4643  0.8289  0.3452
  422TMC3    C5 6349   1.859   4.433  12.480  0.3623  0.1884 -0.3892
  422TMC3    C6 6350   1.848   4.479  12.611 -0.9087 -0.7667 -0.3181
  422TMC3     C 6351   2.184   4.544  12.390 -0.8185  0.6103  0.8226
  422TMC3     O 6352   2.288   4.565  12.445  0.2064 -0.2632  0.3685
  422TMC3     H 6353   2.168   4.575  12.638  0.0121 -0.0690  0.2484
  422TMC3    H1 6354   1.993   4.380  12.319 -1.9589 -1.2185  1.0615
  422TMC3    H2 6355   1.753   4.480  12.663 -0.1838 -0.7035  1.0015
  422TMC3    C7 6356   1.762   4.337  12.436 -0.0828 -0.5730  0.2219
  422TMC3    C8 6357   1.957   4.541  12.814 -0.0078 -0.2502 -0.4771
  422TMC3    O1 6358   1.755   4.308  12.318  0.1496 -0.0377 -0.4388
  422TMC3    O2 6359   1.887   4.461  12.872  0.1351 -0.6438 -0.2785
  423MPD2     C 6360   3.487   0.559   0.587  0.0687  0.6871 -0.0080
  423MPD2    C1 6361   3.448   0.424   0.585  0.1729  0.1371 -0.0374
  423MPD2    C2 6362   3.480   0.338   0.476 -0.3810 -0.2519 -0.6672
  423MPD2    C3 6363   3.562   0.381   0.385 -0.1024  0.2024 -0.0981
  423MPD2    C4 6364   3.616   0.507   0.396  0.2483 -0.5468  0.0730
  423MPD2    C5 6365   3.574   0.598   0.488 -0.1012 -0.6935  0.0014
  423MPD2     H 6366   3.424   0.246   0.462  0.3098 -1.0678  1.8413
  423MPD2    H1 6367   3.682   0.550   0.321  0.5712 -2.1334 -0.5532
  423MPD2    H2 6368   3.452   0.644   0.645 -0.9265  0.7895 -0.7577
  423MPD2    H3 6369   3.596   0.704   0.477  0.6837 -0.7478  0.9902
  423MPD2     N 6370   3.594   0.309   0.265 -0.1696 -0.0349 -0.4467
  423MPD2    H5 6371   3.645   0.356   0.190  0.5119  0.6845  0.4609
  423MPD2    N1 6372   3.357   0.380   0.681  0.5894 -0.3410 -0.1893
  423MPD2    H7 6373   3.325   0.283   0.684 -0.6547  0.1846  2.7544
  424TMC3    C1 6374   3.235   0.370   0.883 -0.0789 -0.2803 -0.1289
  424TMC3    C2 6375   3.300   0.284   0.962 -0.1929 -0.6988 -0.1811
  424TMC3    C3 6376   3.226   0.197   1.042 -0.3191 -0.6139 -0.4270
  424TMC3    C4 6377   3.101   0.377   0.877 -0.6639  0.5214 -0.5691
  424TMC3    C5 6378   3.035   0.274   0.942 -0.0587  0.4672 -0.9164
  424TMC3    C6 6379   3.086   0.190   1.029  0.2559  0.6259 -0.4088
  424TMC3     C 6380   3.304   0.453   0.784 -0.5517  0.2991 -0.2842
  424TMC3     O 6381   3.322   0.568   0.818 -0.2651 -0.5034  0.0654
  424TMC3     H 6382   3.407   0.271   0.959  0.0770  0.9063  2.5966
  424TMC3    H1 6383   3.069   0.433   0.790  1.7822  1.9717 -0.5388
  424TMC3    H2 6384   3.029   0.114   1.081  0.1803 -0.1068 -1.5536
  424TMC3    C7 6385   2.898   0.246   0.901  0.5101  0.4325 -0.0942
  424TMC3    C8 6386   3.304   0.083   1.078 -0.1376 -0.2307 -0.1091
  424TMC3    O1 6387   2.852   0.134   0.910 -0.5525  0.4668 -0.1267
  424TMC3    O2 6388   3.412   0.098   1.133  0.0293  0.0001 -0.3971
  425MPD2     C 6389   2.648   4.098  17.095  0.6411  0.2574  0.9909
  425MPD2    C1 6390   2.643   3.990  17.185  0.4985  0.1222 -0.3551
  425MPD2    C2 6391   2.602   4.020  17.309  0.3611  0.4002 -0.0984
  425MPD2    C3 6392   2.550   4.144  17.346  0.3211 -0.0590 -0.3138
  425MPD2    C4 6393   2.542   4.238  17.248  0.3275 -0.4170  0.3788
  425MPD2    C5 6394   2.595   4.222  17.122 -0.2763  0.1954 -0.1464
  425MPD2     H 6395   2.595   3.940  17.382 -1.6070 -1.6549 -2.5445
  425MPD2    H1 6396   2.488   4.330  17.266  3.0828  0.5737  3.6764
  425MPD2    H2 6397   2.686   4.082  16.994 -1.5292  0.6586  0.1139
  425MPD2    H3 6398   2.594   4.301  17.049 -2.4769  0.1220 -0.1792
  425MPD2     N 6399   2.472   4.145  17.464  0.1457 -0.0182 -0.5454
  425MPD2    H5 6400   2.472   4.057  17.515 -0.2488 -0.0016 -0.5159
  425MPD2    N1 6401   2.669   3.860  17.139 -0.7566  0.4414  0.1501
  425MPD2    H7 6402   2.703   3.857  17.044 -0.4566  0.2504  0.2639
  426TMC3    C1 6403   2.638   3.623  17.108 -0.0234  0.7668 -0.2881
  426TMC3    C2 6404   2.732   3.618  17.006  0.4660 -0.0589 -0.1382
  426TMC3    C3 6405   2.721   3.511  16.920  0.5707 -0.0679 -0.7374
  426TMC3    C4 6406   2.534   3.532  17.124 -0.5230 -0.3481 -0.3735
  426TMC3    C5 6407   2.527   3.431  17.030  0.1594 -0.0257  0.3300
  426TMC3    C6 6408   2.615   3.423  16.921 -0.8466 -0.3491 -0.1492
  426TMC3     C 6409   2.624   3.741  17.195 -0.2371  0.5112 -0.1770
  426TMC3     O 6410   2.573   3.720  17.306  0.1403 -0.1474  0.2409
  426TMC3     H 6411   2.814   3.689  17.011 -0.9618  1.4938  0.8997
  426TMC3    H1 6412   2.459   3.551  17.200  0.0117  1.2245 -0.2480
  426TMC3    H2 6413   2.621   3.334  16.860 -0.0174  0.9364 -1.9317
  426TMC3    C7 6414   2.453   3.307  17.061 -0.7949  0.1040  0.1999
  426TMC3    C8 6415   2.790   3.524  16.796 -0.2109  0.3933  0.8286
  426TMC3    O1 6416   2.465   3.214  16.984 -0.3965 -0.0163  0.4682
  426TMC3    O2 6417   2.777   3.428  16.719 -0.6094  0.2490  0.0566
  427MPD2     C 6418   1.438   1.595  14.395  0.3057 -1.0154  0.2906
  427MPD2    C1 6419   1.401   1.565  14.528  0.3196 -0.5380  0.2380
  427MPD2    C2 6420   1.268   1.552  14.562 -1.0005 -0.2749 -0.2038
  427MPD2    C3 6421   1.166   1.594  14.478 -0.2497  0.5710 -0.5601
  427MPD2    C4 6422   1.200   1.643  14.350  0.5068  0.2743 -0.4814
  427MPD2    C5 6423   1.335   1.645  14.317  0.5736 -0.4482  0.0537
  427MPD2     H 6424   1.247   1.511  14.661  0.5823 -0.8395 -0.0975
  427MPD2    H1 6425   1.134   1.668  14.268  0.5562 -2.3977 -1.3372
  427MPD2    H2 6426   1.538   1.590  14.352  0.2379  0.6932 -0.0784
  427MPD2    H3 6427   1.352   1.677  14.215 -1.9766  0.7551 -0.0047
  427MPD2     N 6428   1.035   1.597  14.518  0.4587  0.4176  0.3238
  427MPD2    H5 6429   0.971   1.629  14.447 -0.6517  0.4708  1.3501
  427MPD2    N1 6430   1.497   1.530  14.631  0.2471 -0.8598 -0.0243
  427MPD2    H7 6431   1.468   1.476  14.712  0.2666  0.1050  0.6383
  428TMC3    C1 6432   1.698   1.502  14.734  0.4536 -0.2577  0.4727
  428TMC3    C2 6433   1.643   1.402  14.795 -0.1532  0.0709 -0.2305
  428TMC3    C3 6434   1.731   1.339  14.890  0.4829  0.3928 -0.1732
  428TMC3    C4 6435   1.817   1.569  14.766 -0.7137  0.2205  0.3364
  428TMC3    C5 6436   1.889   1.505  14.865 -0.2996  0.2807 -1.0701
  428TMC3    C6 6437   1.850   1.384  14.917  0.2651 -0.4782 -0.3440
  428TMC3     C 6438   1.628   1.558  14.621  0.4150 -0.4314  0.6579
  428TMC3     O 6439   1.682   1.638  14.546  0.3427  0.1340  0.3556
  428TMC3     H 6440   1.548   1.357  14.771  0.3170 -0.7932 -0.4513
  428TMC3    H1 6441   1.839   1.670  14.734  1.2723 -1.3325 -3.2178
  428TMC3    H2 6442   1.914   1.327  14.984 -0.0509 -2.3588 -1.6285
  428TMC3    C7 6443   1.989   1.582  14.936  0.0370  0.0721 -0.4603
  428TMC3    C8 6444   1.671   1.244  14.986 -0.1726  0.8856  0.0319
  428TMC3    O1 6445   2.014   1.539  15.050  0.5430 -0.1612 -0.1370
  428TMC3    O2 6446   1.739   1.153  15.024  0.7068 -0.5893  0.1395
  429MPD2     C 6447   1.911   1.414  17.374  0.2969  0.4262  0.9986
  429MPD2    C1 6448   2.021   1.346  17.412  0.0822  0.2805  0.1185
  429MPD2    C2 6449   2.144   1.392  17.374  0.6603 -0.1222 -0.3748
  429MPD2    C3 6450   2.159   1.516  17.315  0.2602 -0.2139 -0.2953
  429MPD2    C4 6451   2.047   1.588  17.280  0.5284  0.0633  0.2545
  429MPD2    C5 6452   1.927   1.532  17.302  0.2613 -0.9368 -0.9015
  429MPD2     H 6453   2.233   1.347  17.418  1.8093  2.3843 -0.1322
  429MPD2    H1 6454   2.057   1.682  17.226  0.9785 -0.6389 -0.8784
  429MPD2    H2 6455   1.814   1.372  17.398  1.4409 -2.1136  1.0980
  429MPD2    H3 6456   1.833   1.580  17.278  0.9088  0.3328 -0.8899
  429MPD2     N 6457   2.290   1.562  17.301  0.2017 -0.1141  0.2235
  429MPD2    H5 6458   2.365   1.505  17.339 -0.0742 -0.9843 -0.5159
  429MPD2    N1 6459   2.015   1.229  17.495 -0.0764 -0.6588 -0.5629
  429MPD2    H7 6460   2.110   1.195  17.508 -1.3494 -4.2015 -0.3674
  430TMC3    C1 6461   2.461   1.703  17.252 -0.0579 -0.1105  0.0596
  430TMC3    C2 6462   2.518   1.826  17.224 -0.3115 -0.0984  0.0250
  430TMC3    C3 6463   2.649   1.833  17.175  0.9477  0.2717 -0.4874
  430TMC3    C4 6464   2.541   1.591  17.238  0.7106  0.2014 -0.1175
  430TMC3    C5 6465   2.674   1.599  17.192  0.5705  0.3640 -0.0872
  430TMC3    C6 6466   2.726   1.722  17.169 -0.0345  0.2339  0.0164
  430TMC3     C 6467   2.320   1.694  17.265  0.0588 -0.1497 -0.0139
  430TMC3     O 6468   2.253   1.797  17.261  0.0734 -0.3928  0.5104
  430TMC3     H 6469   2.450   1.911  17.215 -1.7521 -1.5337 -2.4856
  430TMC3    H1 6470   2.510   1.487  17.250  0.1936  0.3531 -0.1608
  430TMC3    H2 6471   2.828   1.727  17.135 -0.5834  1.4589 -1.4468
  430TMC3    C7 6472   2.705   1.493  17.100  0.5521  0.2098  0.4534
  430TMC3    C8 6473   2.657   1.908  17.047  0.3636 -0.6848  0.2336
  430TMC3    O1 6474   2.689   1.383  17.141  0.4207  0.3741 -0.5746
  430TMC3    O2 6475   2.716   1.848  16.958 -0.3054 -0.3856 -0.0949
  431MPD2     C 6476   2.963   2.127  12.513  0.2603  0.2148  0.1116
  431MPD2    C1 6477   3.048   2.189  12.426  0.0302 -0.2592  0.2907
  431MPD2    C2 6478   3.092   2.131  12.313  0.5391  0.2871  0.6603
  431MPD2    C3 6479   3.061   2.004  12.293 -0.4260 -0.3548 -0.2763
  431MPD2    C4 6480   2.989   1.929  12.382 -0.5515 -0.3366 -0.1455
  431MPD2    C5 6481   2.926   1.995  12.488  0.2286  0.0408 -0.7423
  431MPD2     H 6482   3.145   2.194  12.242 -0.7497 -0.1881 -0.7469
  431MPD2    H1 6483   2.966   1.824  12.366  1.2862 -1.0336  1.6915
  431MPD2    H2 6484   2.916   2.183  12.593  0.3896 -1.3391  1.2776
  431MPD2    H3 6485   2.860   1.941  12.554  0.1339  0.0603 -0.8203
  431MPD2     N 6486   3.118   1.928  12.183 -0.2857 -0.2203  0.3724
  431MPD2    H5 6487   3.100   1.828  12.181 -0.7219 -0.0806 -2.7409
  431MPD2    N1 6488   3.092   2.325  12.449 -0.3654 -0.1787 -0.6293
  431MPD2    H7 6489   3.127   2.369  12.365  2.5458 -0.6431  0.3654
  432TMC3    C1 6490   3.258   1.878  12.005  0.1457 -0.0577  0.6665
  432TMC3    C2 6491   3.318   1.919  11.892  0.2293 -0.6674 -0.0407
  432TMC3    C3 6492   3.408   1.832  11.837 -0.3706 -0.8733  0.4713
  432TMC3    C4 6493   3.280   1.760  12.065  0.4710 -0.3024  0.1200
  432TMC3    C5 6494   3.371   1.671  12.009  0.5114 -0.1585 -0.2708
  432TMC3    C6 6495   3.437   1.706  11.896  0.2006 -0.3728 -0.0054
  432TMC3     C 6496   3.186   1.979  12.079 -0.7180 -0.2353  0.4828
  432TMC3     O 6497   3.185   2.093  12.044 -0.5997 -0.1941  0.1956
  432TMC3     H 6498   3.297   2.013  11.843  0.3998 -2.1373 -2.9396
  432TMC3    H1 6499   3.238   1.738  12.162  1.8922  0.3937  0.9048
  432TMC3    H2 6500   3.512   1.642  11.852  0.9271  0.7706 -0.4145
  432TMC3    C7 6501   3.427   1.557  12.074  0.1126 -0.2855 -0.0963
  432TMC3    C8 6502   3.493   1.878  11.735 -0.4437 -0.3263 -0.4001
  432TMC3    O1 6503   3.477   1.465  12.010  0.0570  0.5258 -0.1607
  432TMC3    O2 6504   3.522   1.994  11.752 -0.1780  0.0600 -0.2523
  433MPD2     C 6505   1.843   1.182  10.821 -0.1453  0.1544  0.7391
  433MPD2    C1 6506   1.956   1.118  10.871  0.1697 -0.1901  0.6082
  433MPD2    C2 6507   2.004   1.152  10.998 -0.3792 -0.1690 -0.2531
  433MPD2    C3 6508   1.955   1.264  11.063  0.2668  0.2495 -0.1449
  433MPD2    C4 6509   1.845   1.325  11.011  0.3740 -0.2056 -0.4472
  433MPD2    C5 6510   1.789   1.279  10.896  0.1898 -0.2739 -0.3575
  433MPD2     H 6511   2.091   1.098  11.035 -1.0088  0.3019  1.9160
  433MPD2    H1 6512   1.790   1.403  11.062  1.4255 -0.1798  0.6358
  433MPD2    H2 6513   1.791   1.152  10.731 -1.5564  0.2435  1.5398
  433MPD2    H3 6514   1.700   1.326  10.855 -0.7631 -1.8014 -0.0019
  433MPD2     N 6515   2.016   1.297  11.187  0.0307 -0.0549 -0.2109
  433MPD2    H5 6516   2.070   1.224  11.233 -1.1657  0.2154  1.6546
  433MPD2    N1 6517   2.020   1.029  10.790 -0.2108 -0.2525 -0.7940
  433MPD2    H7 6518   1.965   0.969  10.730 -0.3963 -0.2421 -0.6360
  434TMC3    C1 6519   2.195   0.881  10.729 -0.0714 -0.1919  0.5671
  434TMC3    C2 6520   2.289   0.808  10.790 -0.0064 -0.5722  0.5432
  434TMC3    C3 6521   2.281   0.677  10.773 -0.0798  0.1820 -0.1520
  434TMC3    C4 6522   2.117   0.830  10.627 -1.1946  0.3210  0.0127
  434TMC3    C5 6523   2.126   0.698  10.608  0.0485 -0.1946  0.0213
  434TMC3    C6 6524   2.208   0.614  10.677  0.5294 -0.5897  0.0824
  434TMC3     C 6525   2.152   0.996  10.806 -0.1898 -1.1571  0.3437
  434TMC3     O 6526   2.239   1.057  10.864 -0.0209 -0.4043 -0.2935
  434TMC3     H 6527   2.364   0.847  10.858  0.5979 -0.9039  0.0666
  434TMC3    H1 6528   2.042   0.889  10.576 -0.0037  0.6342 -1.3787
  434TMC3    H2 6529   2.215   0.508  10.658  1.1294 -0.0684 -2.5794
  434TMC3    C7 6530   2.045   0.630  10.509  0.7006  0.2025 -0.5236
  434TMC3    C8 6531   2.350   0.601  10.881  0.1169  0.8068  0.2829
  434TMC3    O1 6532   2.045   0.692  10.402 -0.4652 -0.1940  0.1660
  434TMC3    O2 6533   2.413   0.661  10.966  0.7547 -1.0761 -0.3580
  435MPD2     C 6534   4.355   0.721  15.588  0.3281 -0.2651  0.8017
  435MPD2    C1 6535   4.305   0.651  15.693  0.0795 -0.0550 -0.5985
  435MPD2    C2 6536   4.376   0.555  15.765  0.5491 -0.1915  0.9239
  435MPD2    C3 6537   4.512   0.537  15.733  0.4556  0.6065 -0.6689
  435MPD2    C4 6538   4.563   0.599  15.623  0.0559 -0.0380  0.2058
  435MPD2    C5 6539   4.485   0.691  15.552 -0.3965  0.0226 -0.4189
  435MPD2     H 6540   4.327   0.498  15.843 -1.4777  0.9040  0.4725
  435MPD2    H1 6541   4.669   0.604  15.603  0.2728 -0.8761  1.1632
  435MPD2    H2 6542   4.293   0.793  15.535  1.0868 -0.1816  0.0370
  435MPD2    H3 6543   4.535   0.735  15.466  1.7295 -1.1098  0.2444
  435MPD2     N 6544   4.585   0.439  15.806 -0.7068 -0.1266 -0.0531
  435MPD2    H5 6545   4.543   0.410  15.894 -0.4125  2.6619  1.0403
  435MPD2    N1 6546   4.171   0.672  15.733 -0.6856  0.1720  0.0977
  435MPD2    H7 6547   4.142   0.622  15.816  0.3270 -1.2167 -0.3931
  436TMC3    C1 6548   3.749   0.830  15.853  0.2132  0.0629 -0.3833
  436TMC3    C2 6549   3.875   0.849  15.796  0.6214 -0.3846  0.1545
  436TMC3    C3 6550   3.952   0.739  15.763 -0.5320 -0.0435 -0.5933
  436TMC3    C4 6551   3.695   0.707  15.881 -0.8333  0.7216 -0.0096
  436TMC3    C5 6552   3.767   0.601  15.829 -0.0038 -0.0251  0.1027
  436TMC3    C6 6553   3.896   0.614  15.774  0.3072  0.1242  0.0414
  436TMC3     C 6554   3.691   0.951  15.897 -0.5734 -0.8296 -0.0442
  436TMC3     O 6555   3.700   1.046  15.824  0.5899 -0.1419  0.3999
  436TMC3     H 6556   3.909   0.951  15.778 -0.1865 -0.1663 -0.1075
  436TMC3    H1 6557   3.597   0.703  15.927 -0.5979 -1.0112  0.3536
  436TMC3    H2 6558   3.948   0.522  15.753 -0.0542 -0.1792  0.4823
  436TMC3    C7 6559   3.718   0.469  15.859 -0.5056  1.0264  0.0577
  436TMC3    C8 6560   4.077   0.765  15.693  0.3167  0.1836 -0.2436
  436TMC3    O1 6561   3.763   0.376  15.794 -0.2709  0.1827  0.0373
  436TMC3    O2 6562   4.081   0.860  15.615  0.0528  0.0787  0.3182
  437TMC3    C1 6563   2.622   3.375  12.590  0.4311  0.5398 -1.0235
  437TMC3    C2 6564   2.541   3.440  12.494  0.0492  0.2693 -0.8220
  437TMC3    C3 6565   2.590   3.442  12.361  0.6869  1.0252  0.3612
  437TMC3    C4 6566   2.744   3.330  12.556  0.1720  0.6961 -0.6057
  437TMC3    C5 6567   2.796   3.345  12.428 -0.3206  0.0939 -0.4270
  437TMC3    C6 6568   2.720   3.402  12.330  0.0220  1.1266  0.4129
  437TMC3     C 6569   2.573   3.368  12.726 -0.4103 -0.1467 -0.8756
  437TMC3     O 6570   2.648   3.336  12.816 -0.6392  0.3865 -0.7822
  437TMC3     H 6571   2.452   3.497  12.518 -0.7235 -1.3199  0.0402
  437TMC3    H1 6572   2.806   3.287  12.634  1.0539  3.7896  0.3996
  437TMC3    H2 6573   2.754   3.400  12.227 -0.8670  1.5820  0.1095
  437TMC3    C7 6574   2.937   3.316  12.405 -0.0188  0.7610  0.2078
  437TMC3    C8 6575   2.507   3.515  12.257 -0.6481  0.6265  0.3745
  437TMC3    O1 6576   2.982   3.392  12.319  0.0518 -0.1110  0.3048
  437TMC3    O2 6577   2.396   3.558  12.282  0.1417 -0.1888  0.3083
  438MPD2     C 6578   0.515   3.133  16.673 -1.1384 -1.0856  0.0191
  438MPD2    C1 6579   0.638   3.087  16.712 -0.6357 -0.1937  0.6564
  438MPD2    C2 6580   0.675   3.098  16.848  0.2023 -0.4199  0.5440
  438MPD2    C3 6581   0.580   3.140  16.940  0.3165 -0.0793 -0.1859
  438MPD2    C4 6582   0.455   3.177  16.900 -0.3589 -0.3139 -0.0955
  438MPD2    C5 6583   0.420   3.179  16.767 -0.0051 -0.1814 -0.7574
  438MPD2     H 6584   0.770   3.062  16.885  0.8423  0.1856 -0.5100
  438MPD2    H1 6585   0.382   3.210  16.973 -2.5625  2.0806 -3.3780
  438MPD2    H2 6586   0.492   3.146  16.568 -0.0402  3.2761  0.3106
  438MPD2    H3 6587   0.318   3.209  16.746 -0.1440 -1.2693 -1.7023
  438MPD2     N 6588   0.604   3.143  17.074 -0.4711  0.3759  0.4107
  438MPD2    H5 6589   0.534   3.164  17.145 -1.9771  0.0960 -0.9975
  438MPD2    N1 6590   0.730   3.031  16.618 -0.0299 -0.1006 -1.0882
  438MPD2    H7 6591   0.819   3.005  16.660 -0.1737  2.6843  0.9485
  439TMC3    C1 6592   0.819   2.913  16.436  0.2357  0.5072  0.1412
  439TMC3    C2 6593   0.800   2.869  16.306  0.5459  0.0724 -0.2504
  439TMC3    C3 6594   0.849   2.751  16.262  0.3029 -0.4638  0.1816
  439TMC3    C4 6595   0.887   2.836  16.529  0.1594  0.1395 -0.3275
  439TMC3    C5 6596   0.920   2.710  16.487 -0.0636 -0.7187  0.0728
  439TMC3    C6 6597   0.908   2.672  16.357 -0.1174 -1.2014  0.2484
  439TMC3     C 6598   0.713   2.999  16.487 -0.7201 -0.3576  0.3428
  439TMC3     O 6599   0.614   3.020  16.409  0.3934  0.7543 -0.4828
  439TMC3     H 6600   0.740   2.938  16.248 -2.0977 -1.8030  0.2360
  439TMC3    H1 6601   0.901   2.856  16.634 -0.3614  0.5469 -0.3349
  439TMC3    H2 6602   0.970   2.592  16.317  0.4425  0.9618 -3.2106
  439TMC3    C7 6603   0.996   2.623  16.568  0.2821 -0.6549 -0.1588
  439TMC3    C8 6604   0.902   2.750  16.126 -0.0838  0.0572  0.2729
  439TMC3    O1 6605   1.084   2.664  16.648  0.2133  0.0562  0.0372
  439TMC3    O2 6606   1.025   2.738  16.111 -0.4149 -0.5516 -0.1399
  440MPD2     C 6607   3.884   3.482  15.095  0.1002 -0.0453  0.1702
  440MPD2    C1 6608   3.894   3.606  15.153 -0.0695 -0.3623  0.1592
  440MPD2    C2 6609   4.013   3.667  15.136 -0.1554  0.1118  0.3690
  440MPD2    C3 6610   4.109   3.595  15.067 -0.0551 -0.7564 -0.9856
  440MPD2    C4 6611   4.098   3.465  15.021 -0.1053 -0.3810  1.4201
  440MPD2    C5 6612   3.982   3.418  15.043 -0.1965  0.6544 -0.0769
  440MPD2     H 6613   4.025   3.771  15.167 -1.4071  0.5744 -0.6879
  440MPD2    H1 6614   4.179   3.404  14.981  1.2667  1.8066  0.8011
  440MPD2    H2 6615   3.787   3.433  15.095 -0.1144  0.3834 -1.4839
  440MPD2    H3 6616   3.969   3.316  15.007 -0.5340  1.0160 -0.9815
  440MPD2     N 6617   4.243   3.645  15.050  0.0202  0.2289 -0.1843
  440MPD2    H5 6618   4.312   3.576  15.021 -0.5570 -0.1763 -0.5860
  440MPD2    N1 6619   3.792   3.670  15.220 -0.2829 -0.4402 -0.7181
  440MPD2    H7 6620   3.814   3.762  15.255  0.2236 -0.9776  0.3973
  441TMC3    C1 6621   4.420   3.796  15.047 -0.2746 -0.7531  0.0831
  441TMC3    C2 6622   4.457   3.928  15.040 -0.4730  0.3779  0.0998
  441TMC3    C3 6623   4.560   3.976  15.119  0.9224 -0.7761 -0.2650
  441TMC3    C4 6624   4.500   3.698  15.107 -0.1679  0.0070  0.3796
  441TMC3    C5 6625   4.597   3.745  15.191  0.0115  0.7148 -0.6002
  441TMC3    C6 6626   4.617   3.881  15.207 -0.1444  0.1206  0.3218
  441TMC3     C 6627   4.280   3.778  15.061 -0.2716  0.1941  0.6767
  441TMC3     O 6628   4.225   3.878  15.104 -0.2698 -0.2998 -0.0097
  441TMC3     H 6629   4.399   4.000  14.984 -0.8004  0.5517  0.6591
  441TMC3    H1 6630   4.475   3.594  15.125  0.0832  0.3639  2.7081
  441TMC3    H2 6631   4.670   3.920  15.293 -0.6524  0.9927  0.2349
  441TMC3    C7 6632   4.587   3.683  15.327  0.5524  0.0219  0.3656
  441TMC3    C8 6633   4.527   4.092  15.194 -0.0733  0.4988 -0.5364
  441TMC3    O1 6634   4.532   3.749  15.414  0.2665 -0.3626  0.2928
  441TMC3    O2 6635   4.617   4.166  15.228  0.0052  0.4149 -0.2687
  442MPD2     C 6636   2.210   3.755  16.438  0.8011  0.0794  0.0055
  442MPD2    C1 6637   2.105   3.682  16.482 -0.8279  0.1928 -0.9216
  442MPD2    C2 6638   2.061   3.592  16.395 -0.4251  0.0987 -0.0390
  442MPD2    C3 6639   2.124   3.570  16.274 -0.8761  0.3364  0.1566
  442MPD2    C4 6640   2.214   3.650  16.225 -0.4782 -0.3371 -0.7135
  442MPD2    C5 6641   2.260   3.742  16.313 -0.4470 -0.3966 -0.2523
  442MPD2     H 6642   1.977   3.528  16.421 -0.6533 -0.1316 -1.3712
  442MPD2    H1 6643   2.256   3.651  16.125  0.3688  1.4725 -0.3434
  442MPD2    H2 6644   2.271   3.812  16.507  0.2323  0.0157  0.5528
  442MPD2    H3 6645   2.336   3.807  16.271 -0.3135 -0.3436  0.0774
  442MPD2     N 6646   2.090   3.463  16.192  0.3771 -0.2012  0.6260
  442MPD2    H5 6647   2.116   3.462  16.094 -2.4124 -2.2640 -0.0858
  442MPD2    N1 6648   2.057   3.697  16.610 -0.0775 -0.8016 -0.0651
  442MPD2    H7 6649   1.997   3.625  16.649 -1.3775 -1.9790 -4.1869
  443TMC3    C1 6650   2.009   3.798  16.816 -0.7925 -0.6975  0.2818
  443TMC3    C2 6651   1.998   3.923  16.875 -0.4504 -0.1553 -0.2451
  443TMC3    C3 6652   1.904   3.937  16.974  0.1923  0.1027  0.6236
  443TMC3    C4 6653   1.937   3.685  16.859  1.0596 -0.0101  0.0613
  443TMC3    C5 6654   1.857   3.706  16.975 -0.1196 -0.1504  1.0000
  443TMC3    C6 6655   1.836   3.834  17.026  0.4229  0.4823  0.0320
  443TMC3     C 6656   2.068   3.810  16.683  0.2815  0.3971  0.3480
  443TMC3     O 6657   2.109   3.921  16.652 -0.2917 -0.3819  0.2704
  443TMC3     H 6658   2.047   4.014  16.841 -0.1614 -1.2227 -2.6981
  443TMC3    H1 6659   1.954   3.585  16.820 -1.0022 -0.9485  1.6029
  443TMC3    H2 6660   1.758   3.863  17.095  0.3989 -0.2894  0.3302
  443TMC3    C7 6661   1.803   3.582  17.039 -0.8048 -0.4339 -0.6864
  443TMC3    C8 6662   1.859   4.068  17.024  0.6970 -0.5493 -0.1277
  443TMC3    O1 6663   1.816   3.479  16.971 -0.3108 -0.2468 -0.7927
  443TMC3    O2 6664   1.845   4.062  17.146 -0.1299 -0.3888  0.1606
  444MPD2     C 6665   2.192   3.576  17.030  0.1585 -0.4825 -0.5227
  444MPD2    C1 6666   2.158   3.443  16.995 -0.3005  0.8747 -0.0833
  444MPD2    C2 6667   2.189   3.383  16.875  0.1080 -0.5790  0.1144
  444MPD2    C3 6668   2.275   3.443  16.785  0.7165 -0.1055  0.3075
  444MPD2    C4 6669   2.312   3.569  16.818 -0.8158  0.0356  1.3224
  444MPD2    C5 6670   2.275   3.633  16.936  0.0583 -0.0702 -0.0509
  444MPD2     H 6671   2.150   3.283  16.865 -0.7465 -0.2537  0.2537
  444MPD2    H1 6672   2.380   3.624  16.754  0.9130 -1.8048  1.6042
  444MPD2    H2 6673   2.170   3.632  17.120 -1.8429  1.3845 -2.1794
  444MPD2    H3 6674   2.295   3.738  16.955 -1.0255  0.0713  0.3492
  444MPD2     N 6675   2.303   3.375  16.662  0.5074  0.1887  0.3802
  444MPD2    H5 6676   2.269   3.280  16.655  0.0673  0.1459  3.3391
  444MPD2    N1 6677   2.073   3.367  17.083 -0.4731  0.0744  0.1533
  444MPD2    H7 6678   2.049   3.278  17.042 -0.4046 -0.8417  2.0929
  445TMC3    C1 6679   2.410   3.322  16.464 -0.1346  0.2062  0.5655
  445TMC3    C2 6680   2.316   3.222  16.448 -0.9176 -0.5917 -0.2571
  445TMC3    C3 6681   2.346   3.129  16.357 -0.4843  0.0574 -0.0530
  445TMC3    C4 6682   2.535   3.322  16.416 -0.5047 -0.1252 -0.3334
  445TMC3    C5 6683   2.566   3.217  16.338  0.1821  0.2667 -0.3305
  445TMC3    C6 6684   2.469   3.125  16.303 -0.2753  0.0508  0.9875
  445TMC3     C 6685   2.391   3.424  16.569  0.2650  0.3163 -0.0569
  445TMC3     O 6686   2.471   3.517  16.571 -0.5797  0.0248 -0.1348
  445TMC3     H 6687   2.213   3.228  16.481 -0.2844  3.7449  0.9932
  445TMC3    H1 6688   2.613   3.386  16.456  0.1629 -0.4616 -1.0697
  445TMC3    H2 6689   2.486   3.049  16.227 -1.4659 -0.2125  0.9798
  445TMC3    C7 6690   2.702   3.199  16.303 -0.6147  0.0450 -0.2104
  445TMC3    C8 6691   2.268   3.005  16.336 -0.4117  1.0301 -0.0118
  445TMC3    O1 6692   2.779   3.290  16.324 -0.4701 -0.4569 -0.7025
  445TMC3    O2 6693   2.309   2.912  16.267 -0.5566 -0.0020 -0.1149
  446MPD2     C 6694   1.963   0.538  11.326 -0.0773  0.3045  0.1039
  446MPD2    C1 6695   1.993   0.562  11.195 -0.2484 -0.2864  0.4615
  446MPD2    C2 6696   2.111   0.622  11.150 -0.5538 -0.2577 -0.3900
  446MPD2    C3 6697   2.204   0.661  11.245  0.0655  0.3870  0.6288
  446MPD2    C4 6698   2.170   0.645  11.375  0.2055  0.2534 -0.4999
  446MPD2    C5 6699   2.056   0.579  11.415  1.1365  0.5375 -0.3844
  446MPD2     H 6700   2.146   0.645  11.050  0.6260 -0.8197 -0.1111
  446MPD2    H1 6701   2.232   0.666  11.461 -0.6704  0.0193  0.2019
  446MPD2    H2 6702   1.870   0.485  11.343  0.3119 -1.2294 -2.5423
  446MPD2    H3 6703   2.032   0.564  11.519 -0.3363  1.8863 -0.5235
  446MPD2     N 6704   2.329   0.713  11.204  0.1487 -0.4126 -0.3835
  446MPD2    H5 6705   2.347   0.728  11.105 -3.0330 -1.3495 -1.1089
  446MPD2    N1 6706   1.892   0.529  11.109 -0.2360 -0.3128 -0.3927
  446MPD2    H7 6707   1.799   0.510  11.143  0.0283 -0.3072  0.3299
  447TMC3    C1 6708   2.556   0.802  11.234 -0.1806  0.2035  0.4291
  447TMC3    C2 6709   2.560   0.870  11.115  0.1086 -0.6622 -0.8937
  447TMC3    C3 6710   2.680   0.928  11.083  0.2009 -0.0347  0.1647
  447TMC3    C4 6711   2.667   0.800  11.317 -0.2028  0.0201  0.0064
  447TMC3    C5 6712   2.783   0.864  11.279 -0.4660  0.0170  0.0412
  447TMC3    C6 6713   2.801   0.919  11.156  0.6007 -0.0227  0.8666
  447TMC3     C 6714   2.432   0.746  11.290 -0.2160 -0.4053  0.4754
  447TMC3     O 6715   2.439   0.725  11.410  0.4195  0.9773  0.1263
  447TMC3     H 6716   2.467   0.881  11.060 -1.2924  2.3585  2.0848
  447TMC3    H1 6717   2.666   0.747  11.411 -3.2170  1.3888  0.7208
  447TMC3    H2 6718   2.885   0.981  11.126  0.1499  0.5856  0.8464
  447TMC3    C7 6719   2.909   0.785  11.316 -0.2098  0.2863 -0.0415
  447TMC3    C8 6720   2.687   1.014  10.961 -0.4783  0.5615  0.1461
  447TMC3    O1 6721   2.968   0.737  11.219  0.2756  0.5641 -0.2663
  447TMC3    O2 6722   2.583   1.014  10.897  0.0603  0.0479 -0.3424
  448TMC3    C1 6723   0.616   4.729  16.398 -0.3693  0.1047 -0.2588
  448TMC3    C2 6724   0.609   4.597  16.391 -0.1987 -0.2483  0.2139
  448TMC3    C3 6725   0.645   4.534  16.505  0.6054 -0.6382 -0.5619
  448TMC3    C4 6726   0.635   0.070  16.512  0.4359  0.1787  0.3335
  448TMC3    C5 6727   0.668   4.733  16.629 -0.1065 -0.6836 -0.6774
  448TMC3    C6 6728   0.675   4.597  16.624 -0.4002 -0.3975 -0.5693
  448TMC3     C 6729   0.602   0.073  16.274 -0.1000 -0.2176  0.1414
  448TMC3     O 6730   0.560   0.187  16.288  0.1627 -0.0207  0.1324
  448TMC3     H 6731   0.567   4.541  16.308  0.5961 -0.7487  0.1476
  448TMC3    H1 6732   0.645   0.177  16.518 -2.3937  0.3063  2.7890
  448TMC3    H2 6733   0.709   4.533  16.704 -1.3053 -1.9520 -1.4358
  448TMC3    C7 6734   0.701   0.064  16.746  0.2151  0.1710  0.7514
  448TMC3    C8 6735   0.601   4.396  16.526 -0.3452 -0.8230  0.2788
  448TMC3    O1 6736   0.642   0.169  16.770  0.7764  0.6209 -0.1283
  448TMC3    O2 6737   0.682   4.325  16.585  0.4342 -0.2313 -0.3654
  449MPD2     C 6738   1.874   2.651  12.707  0.8698 -0.3999  0.1344
  449MPD2    C1 6739   1.767   2.690  12.780 -0.1839 -0.3271  0.1861
  449MPD2    C2 6740   1.648   2.612  12.772 -0.9268  0.1682  0.7748
  449MPD2    C3 6741   1.634   2.499  12.695 -0.1992 -0.1437  0.1544
  449MPD2    C4 6742   1.742   2.460  12.624 -0.1410 -0.6321  0.6634
  449MPD2    C5 6743   1.858   2.537  12.630  0.0851 -0.1817  0.9817
  449MPD2     H 6744   1.567   2.637  12.840 -1.2787  1.6231 -0.1921
  449MPD2    H1 6745   1.739   2.373  12.559  1.6442 -0.2455  0.0623
  449MPD2    H2 6746   1.967   2.705  12.712  0.1190  0.7435  1.7691
  449MPD2    H3 6747   1.939   2.506  12.565 -0.3014  0.4539  0.1906
  449MPD2     N 6748   1.513   2.426  12.717 -0.2928 -0.0780  0.4766
  449MPD2    H5 6749   1.445   2.459  12.785  0.2666 -0.7350  1.3631
  449MPD2    N1 6750   1.770   2.798  12.874  0.3569  0.0276 -0.2219
  449MPD2    H7 6751   1.678   2.824  12.909  1.1675 -0.3339  2.1658
  450TMC3    C1 6752   1.861   2.908  13.062 -0.4532 -0.2831  1.0397
  450TMC3    C2 6753   1.952   3.001  13.118 -0.4131  0.0802 -0.4182
  450TMC3    C3 6754   1.909   3.059  13.232 -0.6473  0.0592  0.0055
  450TMC3    C4 6755   1.750   2.868  13.130  0.1221 -0.3745  0.1979
  450TMC3    C5 6756   1.709   2.940  13.237 -0.0864 -0.1034  0.1549
  450TMC3    C6 6757   1.790   3.035  13.284  0.1928  0.0664 -0.0447
  450TMC3     C 6758   1.881   2.843  12.932 -0.2584 -0.2523 -0.0365
  450TMC3     O 6759   1.991   2.845  12.886 -0.5394 -0.2668  0.0843
  450TMC3     H 6760   2.045   3.029  13.069 -0.2904 -0.2551 -0.3805
  450TMC3    H1 6761   1.701   2.775  13.103  1.5693 -0.9029 -0.5754
  450TMC3    H2 6762   1.759   3.090  13.372  1.9722  1.6945 -0.4389
  450TMC3    C7 6763   1.610   2.876  13.329 -0.2601 -0.1547 -0.1486
  450TMC3    C8 6764   2.005   3.124  13.327  0.0211  0.3948 -0.1395
  450TMC3    O1 6765   1.622   2.892  13.449  0.1190  0.0650 -0.2934
  450TMC3    O2 6766   1.957   3.193  13.415 -0.2304 -0.2399 -0.1024
  451MPD2     C 6767   3.182   1.374   1.309 -0.5229  0.3228  0.3329
  451MPD2    C1 6768   3.268   1.464   1.253 -0.0141 -0.1120  0.1006
  451MPD2    C2 6769   3.390   1.429   1.197  0.0696 -1.0570 -0.2862
  451MPD2    C3 6770   3.418   1.296   1.181 -0.1850  0.4525  0.1219
  451MPD2    C4 6771   3.328   1.204   1.235  0.5361 -0.3011  0.1986
  451MPD2    C5 6772   3.213   1.239   1.306 -0.2702  0.0079 -1.4474
  451MPD2     H 6773   3.458   1.503   1.156 -0.5254 -0.2493  0.1954
  451MPD2    H1 6774   3.353   1.099   1.232  0.9131 -0.2146  0.4067
  451MPD2    H2 6775   3.088   1.392   1.359 -1.2971 -1.6020 -0.4251
  451MPD2    H3 6776   3.151   1.164   1.354 -2.4345  2.0919 -0.9642
  451MPD2     N 6777   3.533   1.250   1.110 -0.1623 -0.0777 -0.0325
  451MPD2    H5 6778   3.536   1.148   1.104  0.0418  0.0003 -1.0960
  451MPD2    N1 6779   3.237   1.601   1.268 -0.7810 -0.2839 -0.5183
  451MPD2    H7 6780   3.154   1.624   1.323 -1.7798 -2.4495 -1.1069
  452TMC3    C1 6781   3.716   1.255   0.967  0.5464 -0.4937 -0.5035
  452TMC3    C2 6782   3.644   1.150   0.907  0.4381  0.4806  0.3738
  452TMC3    C3 6783   3.615   1.165   0.774  0.3236 -0.3793  0.1226
  452TMC3    C4 6784   3.781   1.350   0.897 -0.0532 -0.1794  0.3140
  452TMC3    C5 6785   3.758   1.351   0.765 -0.0519 -0.2000  1.0139
  452TMC3    C6 6786   3.673   1.260   0.700  0.4989 -0.2135 -0.3676
  452TMC3     C 6787   3.636   1.331   1.056  0.0925  0.4029  0.2926
  452TMC3     O 6788   3.667   1.448   1.070  0.0039 -0.1341 -0.2196
  452TMC3     H 6789   3.609   1.064   0.962 -1.2725  2.3049  2.1600
  452TMC3    H1 6790   3.849   1.418   0.946 -0.8476  0.6651  0.2621
  452TMC3    H2 6791   3.631   1.277   0.602  0.0501  0.8601  0.0125
  452TMC3    C7 6792   3.797   1.459   0.692  0.6466  0.3650  0.3966
  452TMC3    C8 6793   3.480   1.128   0.734 -0.1897  0.1805  0.1198
  452TMC3    O1 6794   3.808   1.439   0.570 -0.1052  0.0260 -0.1756
  452TMC3    O2 6795   3.411   1.194   0.659 -0.1846  0.0373 -0.0243
  453TMC3    C1 6796   3.916   2.648  11.736 -0.2150 -0.0178  0.9948
  453TMC3    C2 6797   3.863   2.537  11.803 -0.0274 -0.3629  0.3911
  453TMC3    C3 6798   3.744   2.487  11.754 -0.0998 -0.0292  0.0550
  453TMC3    C4 6799   3.865   2.696  11.622 -0.0326  0.3332 -0.1820
  453TMC3    C5 6800   3.754   2.628  11.573  1.2115 -0.4523  0.0311
  453TMC3    C6 6801   3.687   2.537  11.642  0.2066 -0.5008  0.2403
  453TMC3     C 6802   4.027   2.720  11.797 -0.1477  0.0255 -0.1645
  453TMC3     O 6803   4.052   2.833  11.751  0.2140 -0.0027 -0.2312
  453TMC3     H 6804   3.906   2.497  11.894 -0.6399  0.0852  0.8759
  453TMC3    H1 6805   3.914   2.772  11.563  1.6515 -1.7309 -1.4344
  453TMC3    H2 6806   3.599   2.486  11.606  0.0095 -0.2903  0.4235
  453TMC3    C7 6807   3.692   2.682  11.453  0.2192 -0.5168 -0.3903
  453TMC3    C8 6808   3.660   2.413  11.841 -0.2320  0.6553 -0.9199
  453TMC3    O1 6809   3.721   2.798  11.423 -0.2684  0.1063 -1.1636
  453TMC3    O2 6810   3.540   2.427  11.825  0.0712 -0.0470  0.1528
  454MPD2     C 6811   3.208   3.260  15.775  0.0725 -0.2088  0.8335
  454MPD2    C1 6812   3.101   3.282  15.701 -0.6727 -0.9011 -0.0184
  454MPD2    C2 6813   3.033   3.403  15.720  0.4130 -0.2611  0.1775
  454MPD2    C3 6814   3.063   3.481  15.828  0.7084 -0.3750 -0.7774
  454MPD2    C4 6815   3.180   3.465  15.901  0.0117 -0.1742 -0.6840
  454MPD2    C5 6816   3.254   3.354  15.866 -0.0954  0.7285  0.1110
  454MPD2     H 6817   2.940   3.421  15.666 -0.5276 -1.0921  1.5306
  454MPD2    H1 6818   3.210   3.533  15.979 -0.3158 -1.0499  0.2047
  454MPD2    H2 6819   3.278   3.180  15.752  0.0356 -0.0380  0.1200
  454MPD2    H3 6820   3.354   3.334  15.903  0.3856  2.8809 -0.0075
  454MPD2     N 6821   2.975   3.584  15.875  0.4193  0.4369 -0.4524
  454MPD2    H5 6822   2.994   3.617  15.968  0.6104 -0.4052 -0.1905
  454MPD2    N1 6823   3.061   3.187  15.604  0.0869  0.4588  0.1554
  454MPD2    H7 6824   2.994   3.218  15.534  1.4260 -1.8082 -2.0923
  455TMC3    C1 6825   2.753   3.640  15.913  0.7733  0.4197 -0.1301
  455TMC3    C2 6826   2.795   3.678  16.038 -0.2224 -0.5703 -0.2199
  455TMC3    C3 6827   2.715   3.626  16.138  1.0539 -0.3519  0.4511
  455TMC3    C4 6828   2.649   3.551  15.899 -0.2107 -0.1289 -0.2277
  455TMC3    C5 6829   2.578   3.498  15.998  0.2448 -0.5667  0.0737
  455TMC3    C6 6830   2.606   3.541  16.123  0.3546 -0.1001 -0.4537
  455TMC3     C 6831   2.858   3.626  15.811  0.0058  0.3509  0.5443
  455TMC3     O 6832   2.829   3.615  15.693  0.3590  0.5985 -0.0263
  455TMC3     H 6833   2.876   3.750  16.044 -0.4922 -0.4156  1.6853
  455TMC3    H1 6834   2.622   3.515  15.800 -0.0903  0.9372 -0.6434
  455TMC3    H2 6835   2.573   3.483  16.208  2.5886  2.6442  2.2730
  455TMC3    C7 6836   2.580   3.356  15.992 -0.4964  0.1773 -0.6824
  455TMC3    C8 6837   2.762   3.641  16.278  0.3652 -0.1339  0.6930
  455TMC3    O1 6838   2.481   3.302  16.042 -0.1504 -0.2486 -0.5950
  455TMC3    O2 6839   2.671   3.645  16.357  0.1680  0.0302 -0.4617
  456MPD2     C 6840   0.513   3.165  15.953  0.2976  0.2785  0.7144
  456MPD2    C1 6841   0.639   3.166  16.010 -0.1763  0.5613  0.9009
  456MPD2    C2 6842   0.650   3.243  16.132  0.5599  0.0655 -0.5881
  456MPD2    C3 6843   0.549   3.316  16.180  0.3431 -0.2604 -0.1403
  456MPD2    C4 6844   0.427   3.318  16.118 -0.8000 -0.0421  0.1125
  456MPD2    C5 6845   0.407   3.234  16.007 -0.0421  0.1269 -0.4596
  456MPD2     H 6846   0.749   3.253  16.174  0.9317 -0.3983 -1.3549
  456MPD2    H1 6847   0.345   3.377  16.156 -0.6418  1.2098 -1.4899
  456MPD2    H2 6848   0.495   3.130  15.853 -1.5936  0.2564  1.0765
  456MPD2    H3 6849   0.311   3.236  15.957  0.0887  1.3787 -0.6596
  456MPD2     N 6850   0.571   3.396  16.296 -0.0480  0.2042 -0.2336
  456MPD2    H5 6851   0.668   3.400  16.325 -0.1903  1.9412  0.0148
  456MPD2    N1 6852   0.746   3.106  15.940 -0.5149 -0.2321  0.0017
  456MPD2    H7 6853   0.724   3.055  15.855 -1.0157  2.5315 -1.5282
  457TMC3    C1 6854   0.562   3.553  16.460 -0.3300 -0.2112 -0.5083
  457TMC3    C2 6855   0.516   3.676  16.500  0.6959  0.7390 -0.5630
  457TMC3    C3 6856   0.588   3.735  16.601  0.4143 -0.0038 -0.3847
  457TMC3    C4 6857   0.671   3.490  16.515 -0.6388 -0.5407 -0.4658
  457TMC3    C5 6858   0.743   3.558  16.609 -0.0340 -0.6009  0.0197
  457TMC3    C6 6859   0.702   3.683  16.651 -0.1434  1.1970 -0.3744
  457TMC3     C 6860   0.494   3.485  16.358  0.5792 -0.1934 -0.7768
  457TMC3     O 6861   0.377   3.525  16.336 -0.1585  0.2407  0.0717
  457TMC3     H 6862   0.428   3.722  16.458 -1.0685 -2.7930 -0.7919
  457TMC3    H1 6863   0.683   3.383  16.501  3.9352 -0.1380  0.4294
  457TMC3    H2 6864   0.768   3.739  16.716  1.2118 -0.6324 -0.1935
  457TMC3    C7 6865   0.839   3.484  16.687  0.3741 -0.2561 -0.8043
  457TMC3    C8 6866   0.562   3.881  16.612  0.3961  0.1612 -0.4985
  457TMC3    O1 6867   0.863   3.517  16.801 -0.2236  0.0950  0.3661
  457TMC3    O2 6868   0.655   3.946  16.656 -0.7663  0.0713 -0.2692
  458MPD2     C 6869   3.414   3.162  12.461  0.1972  0.2748 -0.4663
  458MPD2    C1 6870   3.342   3.112  12.569 -0.0633  0.0994  0.4500
  458MPD2    C2 6871   3.208   3.135  12.581  1.1285  0.0541 -0.8064
  458MPD2    C3 6872   3.135   3.190  12.473  0.4805  0.3507  0.2389
  458MPD2    C4 6873   3.209   3.232  12.369 -0.4275  0.1244  0.7364
  458MPD2    C5 6874   3.343   3.220  12.359 -0.3589  0.2102 -0.1165
  458MPD2     H 6875   3.157   3.096  12.669  2.0657  1.5663  0.4230
  458MPD2    H1 6876   3.169   3.263  12.273  0.3143 -0.2204  0.3082
  458MPD2    H2 6877   3.521   3.145  12.452 -0.0377 -0.0127 -2.7062
  458MPD2    H3 6878   3.393   3.237  12.264 -1.5757  1.2944 -0.5502
  458MPD2     N 6879   2.994   3.214  12.483  0.1425 -0.1268 -0.1003
  458MPD2    H5 6880   2.940   3.167  12.555 -0.2441 -0.5484 -0.6698
  458MPD2    N1 6881   3.418   3.048  12.674  0.2940  0.5364  0.4041
  458MPD2    H7 6882   3.519   3.060  12.666  0.1169  0.8637 -1.1454
  459TMC3    C1 6883   3.467   2.927  12.875  0.0049 -0.4378  0.8244
  459TMC3    C2 6884   3.597   2.987  12.869  0.5672  0.2329  0.4412
  459TMC3    C3 6885   3.693   2.927  12.936  0.1020 -0.3326  0.5028
  459TMC3    C4 6886   3.438   2.823  12.966  0.2802 -0.0179  0.1531
  459TMC3    C5 6887   3.538   2.775  13.042  0.4238  0.0932 -0.1690
  459TMC3    C6 6888   3.665   2.830  13.029  0.1860  0.6473 -0.1013
  459TMC3     C 6889   3.363   2.973  12.775  0.2559 -0.4616  1.1815
  459TMC3     O 6890   3.243   2.945  12.787 -0.0146  0.5737  0.2611
  459TMC3     H 6891   3.621   3.074  12.810  0.2309  1.3466  1.9539
  459TMC3    H1 6892   3.339   2.787  12.990  1.3611 -4.0639 -1.4810
  459TMC3    H2 6893   3.743   2.783  13.087 -1.9303 -2.3664  0.3023
  459TMC3    C7 6894   3.537   2.633  13.089  0.0575  0.4034 -0.1374
  459TMC3    C8 6895   3.834   2.963  12.927 -1.1886 -0.1047  0.1270
  459TMC3    O1 6896   3.639   2.573  13.069  0.0504  0.6871  0.3731
  459TMC3    O2 6897   3.915   2.919  13.012 -0.2677  0.2536 -0.8308
  460MPD2     C 6898   2.973   1.196  10.796 -0.3466 -0.4620  0.0644
  460MPD2    C1 6899   2.845   1.144  10.804 -0.4941  0.4930 -0.1612
  460MPD2    C2 6900   2.752   1.181  10.710 -0.1231 -0.8779  0.7761
  460MPD2    C3 6901   2.787   1.271  10.610 -0.3091  0.0675 -0.4965
  460MPD2    C4 6902   2.917   1.321  10.613  0.2795  0.0406 -0.6336
  460MPD2    C5 6903   3.005   1.295  10.710 -0.4072  1.0192 -0.9708
  460MPD2     H 6904   2.664   1.118  10.704  0.5493 -1.7059 -0.5302
  460MPD2    H1 6905   2.960   1.386  10.537 -0.2382 -0.9685 -1.7856
  460MPD2    H2 6906   3.057   1.165  10.857  0.1032 -0.7921 -0.7301
  460MPD2    H3 6907   3.101   1.343  10.697  0.6757 -1.1296 -0.9773
  460MPD2     N 6908   2.698   1.296  10.501 -0.0995  0.1154  0.8559
  460MPD2    H5 6909   2.614   1.239  10.502  1.0579 -1.6183 -1.6089
  460MPD2    N1 6910   2.811   1.057  10.916 -0.8098  0.4758  0.0572
  460MPD2    H7 6911   2.892   1.026  10.969 -1.6149  2.0588  2.2295
  461TMC3    C1 6912   2.620   1.380  10.301  0.1159  0.4421 -0.4136
  461TMC3    C2 6913   2.549   1.265  10.292 -0.2899 -0.2051  0.0846
  461TMC3    C3 6914   2.436   1.270  10.214  0.3800  0.5471  0.5031
  461TMC3    C4 6915   2.591   1.493  10.229  0.3991  0.2640  0.1567
  461TMC3    C5 6916   2.472   1.490  10.160  0.3979  0.8306 -0.2195
  461TMC3    C6 6917   2.392   1.381  10.151 -0.6119  0.8678 -0.7442
  461TMC3     C 6918   2.717   1.391  10.404 -0.7521  0.0719 -0.6326
  461TMC3     O 6919   2.802   1.477  10.392 -0.4011 -0.5802 -0.6271
  461TMC3     H 6920   2.578   1.169  10.333  2.1169 -0.0055 -1.1685
  461TMC3    H1 6921   2.666   1.571  10.230  0.0971  0.5501  0.3922
  461TMC3    H2 6922   2.304   1.388  10.088 -0.0558 -3.3394 -2.0286
  461TMC3    C7 6923   2.412   1.618  10.119 -0.3330  0.5088  0.4820
  461TMC3    C8 6924   2.391   1.142  10.159 -0.9127 -0.6606  0.8834
  461TMC3    O1 6925   2.320   1.627  10.037  0.7937  0.0432  0.1695
  461TMC3    O2 6926   2.461   1.046  10.180 -0.3330 -0.0609 -0.4858
  462TMC3    C1 6927   3.126   1.283   0.418 -0.4335 -0.4663  0.2155
  462TMC3    C2 6928   3.025   1.297   0.329 -1.1846 -0.2516  0.1900
  462TMC3    C3 6929   2.905   1.256   0.376 -0.3867  0.5443  0.2900
  462TMC3    C4 6930   3.116   1.223   0.537 -0.3086 -0.0366  0.2185
  462TMC3    C5 6931   2.991   1.178   0.572  0.5048  0.9000  0.4080
  462TMC3    C6 6932   2.884   1.213   0.497  0.2173  0.4789  0.3879
  462TMC3     C 6933   3.215   1.403   0.419  0.8769  0.0288 -0.8979
  462TMC3     O 6934   3.199   1.487   0.335  0.3886  0.3506 -0.4246
  462TMC3     H 6935   3.029   1.354   0.237  1.6848  0.0170  0.4897
  462TMC3    H1 6936   3.195   1.185   0.601 -0.6485  1.2943  1.4461
  462TMC3    H2 6937   2.793   1.155   0.504 -1.6925  3.6097  1.7198
  462TMC3    C7 6938   2.964   1.046   0.639  0.1471 -0.5357 -0.1475
  462TMC3    C8 6939   2.819   1.186   0.285  0.4672  0.5315 -0.5512
  462TMC3    O1 6940   2.861   1.043   0.700  0.1831 -0.1281 -0.0988
  462TMC3    O2 6941   2.719   1.247   0.236 -0.6470 -0.0638  0.0686
  463MPD2     C 6942   3.693   0.398   1.800 -0.3008 -0.9732 -0.0376
  463MPD2    C1 6943   3.589   0.428   1.712 -1.1441 -0.8266  0.1399
  463MPD2    C2 6944   3.589   0.561   1.677 -0.6461 -0.2842  0.5411
  463MPD2    C3 6945   3.682   0.657   1.710 -0.1763  0.1370 -0.4700
  463MPD2    C4 6946   3.782   0.620   1.795  0.1275 -0.4325 -0.0701
  463MPD2    C5 6947   3.796   0.490   1.836 -0.4875 -0.7044 -0.5203
  463MPD2     H 6948   3.508   0.590   1.611  0.6622  2.3923  0.1024
  463MPD2    H1 6949   3.851   0.697   1.828 -0.1130 -0.1856 -0.1467
  463MPD2    H2 6950   3.698   0.306   1.857 -1.0105 -1.8845 -1.4619
  463MPD2    H3 6951   3.862   0.456   1.915  0.5366 -0.8821 -1.4646
  463MPD2     N 6952   3.675   0.792   1.661 -0.9023 -0.0669  0.4081
  463MPD2    H5 6953   3.751   0.858   1.675 -0.4851 -0.1224 -1.5714
  463MPD2    N1 6954   3.489   0.338   1.670  0.2240 -0.0123 -0.2568
  463MPD2    H7 6955   3.411   0.378   1.618  1.9657  2.3165 -1.0496
  464TMC3    C1 6956   3.401   0.121   1.613 -0.4136  0.4267  0.2652
  464TMC3    C2 6957   3.294   0.183   1.550 -0.9729 -0.1323 -0.2148
  464TMC3    C3 6958   3.242   0.116   1.442  0.8157 -0.9055  0.1487
  464TMC3    C4 6959   3.428   4.722   1.591  0.5736 -0.4144 -0.5456
  464TMC3    C5 6960   3.353   4.659   1.495 -0.0876 -0.3037  0.0179
  464TMC3    C6 6961   3.263   4.723   1.415 -0.1363 -0.5169 -0.3771
  464TMC3     C 6962   3.494   0.203   1.688  0.5223  0.6316 -0.4689
  464TMC3     O 6963   3.580   0.133   1.734  0.0694 -0.0967 -0.6082
  464TMC3     H 6964   3.267   0.285   1.571  1.0836 -0.1823  2.5917
  464TMC3    H1 6965   3.500   4.671   1.654  1.5620  0.2376 -1.1458
  464TMC3    H2 6966   3.225   4.679   1.324 -1.4083 -2.3928  1.0766
  464TMC3    C7 6967   3.389   4.523   1.463  0.0952 -0.3257 -0.1548
  464TMC3    C8 6968   3.116   0.161   1.390  1.1236  0.1221 -0.0038
  464TMC3    O1 6969   3.496   4.477   1.506 -0.4583 -0.2405  0.2512
  464TMC3    O2 6970   3.043   0.072   1.354  0.4826  0.6541  0.9994
  465MPD2     C 6971   0.475   3.569  16.986  0.3290  0.0382  0.7796
  465MPD2    C1 6972   0.389   3.676  17.013  0.2943 -0.2373 -0.2890
  465MPD2    C2 6973   0.302   3.717  16.915 -0.0348 -0.4594 -0.1034
  465MPD2    C3 6974   0.278   3.643  16.801  0.0349 -0.0881  0.5416
  465MPD2    C4 6975   0.371   3.550  16.775 -1.4915  0.1692 -0.3946
  465MPD2    C5 6976   0.461   3.511  16.867  0.4700 -0.2921  0.4765
  465MPD2     H 6977   0.238   3.803  16.926 -0.7806 -1.0755  0.3564
  465MPD2    H1 6978   0.363   3.480  16.693 -1.6101  1.2929 -1.3498
  465MPD2    H2 6979   0.555   3.535  17.051  1.0278 -1.1810 -0.7300
  465MPD2    H3 6980   0.530   3.431  16.842 -2.0204 -1.7268 -1.8194
  465MPD2     N 6981   0.171   3.669  16.714 -0.1423  0.0386 -0.4095
  465MPD2    H5 6982   0.122   3.758  16.724 -0.6911 -0.5785  2.4444
  465MPD2    N1 6983   0.380   3.747  17.134 -0.2120 -0.1672  1.0717
  465MPD2    H7 6984   0.314   3.824  17.143  0.4525  0.5989 -0.6480
  466TMC3    C1 6985   4.499   3.539  16.567 -1.1089  0.0269  0.8385
  466TMC3    C2 6986   4.463   3.656  16.511  0.5941  0.2972  0.3928
  466TMC3    C3 6987   4.553   3.760  16.508  0.3110 -0.1620 -0.6456
  466TMC3    C4 6988   4.636   3.513  16.575  0.4863 -0.1822 -0.2332
  466TMC3    C5 6989   4.722   3.619  16.568  0.0795  0.0007 -0.5824
  466TMC3    C6 6990   4.683   3.750  16.548 -0.1956 -0.0346 -0.3640
  466TMC3     C 6991   4.438   3.510  16.692 -0.1237  0.0888  0.6905
  466TMC3     O 6992   4.516   3.476  16.784  0.8097 -0.4789  0.2076
  466TMC3     H 6993   4.358   3.681  16.514 -0.2000 -2.8966 -0.2086
  466TMC3    H1 6994   4.665   3.416  16.613 -0.9056  0.9883  3.8812
  466TMC3    H2 6995   0.028   3.820  16.525  1.3276 -1.2113  1.2962
  466TMC3    C7 6996   0.115   3.580  16.623 -0.1345  0.0108 -0.0182
  466TMC3    C8 6997   4.511   3.893  16.502 -0.8209  0.6292  0.6479
  466TMC3    O1 6998   0.142   3.462  16.597 -0.5041 -0.3329 -0.1547
  466TMC3    O2 6999   4.581   3.982  16.548  0.2315 -0.1065 -0.2101
  467TMC3    C1 7000   1.076   1.617  13.321  0.5705 -0.3535 -0.2454
  467TMC3    C2 7001   1.031   1.676  13.207 -0.5982  0.4186 -1.1282
  467TMC3    C3 7002   0.910   1.734  13.204 -0.7758 -0.1659 -0.2555
  467TMC3    C4 7003   0.993   1.606  13.426 -0.0940  0.6404  0.4766
  467TMC3    C5 7004   0.862   1.649  13.410  0.4991 -0.6759  1.0716
  467TMC3    C6 7005   0.824   1.721  13.310  0.2272  0.0236 -0.1311
  467TMC3     C 7006   1.214   1.617  13.357 -0.1795 -0.8860 -0.5309
  467TMC3     O 7007   1.251   1.631  13.472 -0.1786 -0.5132 -0.0172
  467TMC3     H 7008   1.106   1.703  13.134 -1.7114  1.5059 -1.8651
  467TMC3    H1 7009   1.021   1.541  13.508 -0.2780 -1.6455 -1.2765
  467TMC3    H2 7010   0.720   1.751  13.299  0.4158  0.3092 -1.1393
  467TMC3    C7 7011   0.762   1.548  13.457 -0.0072 -0.4860  0.2250
  467TMC3    C8 7012   0.872   1.849  13.116 -0.4962 -0.2489 -0.4692
  467TMC3    O1 7013   0.796   1.428  13.431 -0.1377 -0.0252 -0.1551
  467TMC3    O2 7014   0.773   1.918  13.142  0.9200 -0.3484  0.1607
  468MPD2     C 7015   4.557   0.976  10.644  0.6107 -0.4477 -0.0238
  468MPD2    C1 7016   4.648   0.893  10.712 -0.1968 -0.4634  0.5149
  468MPD2    C2 7017   4.633   0.756  10.696 -0.4408 -0.8825  0.0991
  468MPD2    C3 7018   4.521   0.703  10.623  0.5381  0.5124 -0.2321
  468MPD2    C4 7019   4.434   0.792  10.553 -0.5870 -0.4391 -0.5763
  468MPD2    C5 7020   4.461   0.930  10.559 -0.8157 -0.3059  0.3587
  468MPD2     H 7021   4.709   0.694  10.743 -2.0598 -1.8438  1.4734
  468MPD2    H1 7022   4.351   0.761  10.490  0.8412 -0.3205 -2.5332
  468MPD2    H2 7023   4.547   1.083  10.658  0.3539 -0.6013  0.9410
  468MPD2    H3 7024   4.389   0.998  10.515  0.9224  1.5300  0.3512
  468MPD2     N 7025   4.495   0.564  10.608 -0.2398  0.4488  0.4696
  468MPD2    H5 7026   4.432   0.532  10.535 -2.6364 -0.9160  3.1428
  468MPD2    N1 7027   0.026   0.934  10.790  0.5125 -0.6787  0.5552
  468MPD2    H7 7028   0.088   0.864  10.829  2.5733 -0.2109 -1.9084
  469TMC3    C1 7029   0.147   1.059  10.929 -0.4597 -0.2764  0.1485
  469TMC3    C2 7030   0.262   0.988  10.898 -0.1306  0.1203 -0.4735
  469TMC3    C3 7031   0.341   0.938  10.999 -0.2670  1.9409 -0.4107
  469TMC3    C4 7032   0.107   1.095  11.053 -0.4220  0.6799 -0.7735
  469TMC3    C5 7033   0.195   1.063  11.147  0.2183 -0.3592  0.2821
  469TMC3    C6 7034   0.306   0.982  11.129 -0.7583  0.2700 -0.4490
  469TMC3     C 7035   0.036   1.059  10.844 -0.0605 -0.5985  0.2743
  469TMC3     O 7036   4.704   1.161  10.842  0.3157  0.7013  0.9258
  469TMC3     H 7037   0.279   0.963  10.794  1.7554  3.0155 -0.8877
  469TMC3    H1 7038   0.013   1.144  11.077 -0.7264 -0.8636  1.1698
  469TMC3    H2 7039   0.371   0.960  11.213  0.2484 -1.9176 -1.7908
  469TMC3    C7 7040   0.142   1.072  11.280 -0.0949 -0.4912 -0.2569
  469TMC3    C8 7041   0.482   0.899  10.977 -0.0489  0.0363 -0.1707
  469TMC3    O1 7042   0.073   1.172  11.290 -0.3653 -0.4392 -0.1310
  469TMC3    O2 7043   0.535   0.935  10.869 -0.2632 -0.5996 -0.0924
  470TMC3    C1 7044   1.603   1.129   0.607 -0.2593  0.1790 -0.2661
  470TMC3    C2 7045   1.724   1.155   0.668  0.2358  0.5225 -1.0105
  470TMC3    C3 7046   1.723   1.199   0.800 -0.1120 -0.1566 -0.1432
  470TMC3    C4 7047   1.483   1.131   0.673  0.0451  0.3007  0.6535
  470TMC3    C5 7048   1.484   1.188   0.800 -0.6255 -0.1970  0.5528
  470TMC3    C6 7049   1.598   1.219   0.864 -0.2351 -0.3016  0.1798
  470TMC3     C 7050   1.600   1.087   0.465 -0.0814 -0.4870 -0.3383
  470TMC3     O 7051   1.694   1.124   0.396  0.4316 -0.2575  0.2002
  470TMC3     H 7052   1.820   1.150   0.618  0.3043 -2.0920 -0.5942
  470TMC3    H1 7053   1.387   1.107   0.630  0.3298  0.4254 -0.0599
  470TMC3    H2 7054   1.612   1.251   0.966  0.1941 -0.3107  0.1241
  470TMC3    C7 7055   1.368   1.262   0.832  0.7139 -0.2220 -0.7095
  470TMC3    C8 7056   1.832   1.284   0.848  0.4084  0.4255 -0.4167
  470TMC3    O1 7057   1.273   1.255   0.755 -0.5333 -0.2673  0.0931
  470TMC3    O2 7058   1.814   1.330   0.957 -0.2322  0.3733  0.2288
  471MPD2     C 7059   2.416   2.202  16.697 -0.4358 -0.1233 -0.1167
  471MPD2    C1 7060   2.479   2.080  16.683  0.5192 -0.3620 -0.2415
  471MPD2    C2 7061   2.544   2.031  16.796 -0.6243 -0.0863 -0.5099
  471MPD2    C3 7062   2.546   2.092  16.918  0.3995 -0.4971 -1.0636
  471MPD2    C4 7063   2.485   2.219  16.927 -0.4637  0.4986 -0.2616
  471MPD2    C5 7064   2.419   2.268  16.817  0.4432  0.3144 -0.4890
  471MPD2     H 7065   2.599   1.938  16.785  0.0603  0.0568  1.7765
  471MPD2    H1 7066   2.489   2.269  17.023 -0.1408 -0.1589  0.0744
  471MPD2    H2 7067   2.363   2.238  16.610 -0.1128  1.6607  0.4193
  471MPD2    H3 7068   2.359   2.358  16.828  0.9684  0.4207  1.6378
  471MPD2     N 7069   2.588   2.025  17.039 -0.1266  0.0616  0.4210
  471MPD2    H5 7070   2.573   2.078  17.124  1.2353  1.2222 -0.0534
  471MPD2    N1 7071   2.473   2.017  16.557 -0.5797  0.1108 -0.4882
  471MPD2    H7 7072   2.535   1.937  16.558  0.9611  1.3049 -0.0984
  472TMC3    C1 7073   2.359   1.914  16.382 -0.2016  0.6531 -0.6121
  472TMC3    C2 7074   2.272   1.919  16.278  0.3745  0.4135 -0.2821
  472TMC3    C3 7075   2.231   1.800  16.219  0.3383  0.0141 -0.4565
  472TMC3    C4 7076   2.412   1.796  16.416 -0.7878  0.0587  0.1731
  472TMC3    C5 7077   2.384   1.677  16.351  0.0024 -0.2242 -0.0337
  472TMC3    C6 7078   2.289   1.679  16.255  0.2973  0.9235 -0.5571
  472TMC3     C 7079   2.365   2.025  16.470  0.3088 -0.0181 -0.2331
  472TMC3     O 7080   2.272   2.105  16.468 -0.3612  0.2756  0.5731
  472TMC3     H 7081   2.226   2.014  16.251  0.7113  0.6934  0.1198
  472TMC3    H1 7082   2.466   1.777  16.508  0.7785 -1.9934 -1.1777
  472TMC3    H2 7083   2.265   1.585  16.206  2.1983  1.1108 -1.8485
  472TMC3    C7 7084   2.414   1.554  16.426  0.1791  0.5584  0.0835
  472TMC3    C8 7085   2.099   1.787  16.160 -0.5910  0.0919  0.4245
  472TMC3    O1 7086   2.403   1.552  16.549  0.7577 -0.3552 -0.1578
  472TMC3    O2 7087   2.058   1.885  16.101  0.2080  0.7884  0.3696
  473MPD2     C 7088   1.781   4.581  14.241 -0.5532 -0.9504  0.6490
  473MPD2    C1 7089   1.871   4.591  14.133  0.6560 -0.0989 -0.1115
  473MPD2    C2 7090   1.992   4.658  14.146  0.3805  0.5916  0.1207
  473MPD2    C3 7091   2.019   4.732  14.260  0.4635 -0.2913  0.5951
  473MPD2    C4 7092   1.930   4.731  14.365  0.2356 -1.0621 -0.1078
  473MPD2    C5 7093   1.815   4.658  14.355  0.6665  0.2997  0.4833
  473MPD2     H 7094   2.068   4.667  14.069  0.1459 -1.1135 -0.3115
  473MPD2    H1 7095   1.960   0.042  14.459  0.6503 -0.0681 -0.7138
  473MPD2    H2 7096   1.685   4.531  14.244 -1.5408  1.0121  2.2286
  473MPD2    H3 7097   1.748   4.676  14.438  0.5320  0.1763  0.4007
  473MPD2     N 7098   2.147   0.061  14.259  0.0909  0.1914 -0.8311
  473MPD2    H5 7099   2.221   0.039  14.193  0.6438  0.7905 -0.4121
  473MPD2    N1 7100   1.853   4.532  14.003  0.4340  1.4741 -0.1943
  473MPD2    H7 7101   1.938   4.542  13.948  2.0592 -0.8170  1.8566
  474TMC3    C1 7102   2.333   0.188  14.343  0.7844  0.2266 -0.5947
  474TMC3    C2 7103   2.369   0.216  14.217  0.3445 -0.4841  0.0028
  474TMC3    C3 7104   2.495   0.255  14.196 -0.1627  0.0602  0.5439
  474TMC3    C4 7105   2.430   0.200  14.445  0.2777 -0.6211 -0.1438
  474TMC3    C5 7106   2.565   0.221  14.411  0.2020  0.0195  0.2967
  474TMC3    C6 7107   2.601   0.248  14.284 -0.4320  0.1364  0.3316
  474TMC3     C 7108   2.200   0.135  14.365  0.1610 -0.4128  0.6877
  474TMC3     O 7109   2.150   0.154  14.473  0.2806  0.0602 -0.2170
  474TMC3     H 7110   2.297   0.213  14.136  0.8520 -0.0977 -0.4680
  474TMC3    H1 7111   2.397   0.173  14.544 -2.6688  1.1554 -0.6599
  474TMC3    H2 7112   2.705   0.259  14.254 -0.5461  0.7077  0.1426
  474TMC3    C7 7113   2.675   0.216  14.506  0.0760 -0.4139  0.5645
  474TMC3    C8 7114   2.518   0.321  14.069 -0.1864  0.2658 -0.5150
  474TMC3    O1 7115   2.773   0.169  14.459 -0.6679  0.1162  0.2628
  474TMC3    O2 7116   2.432   0.303  13.986  0.0908  0.0519  0.7125
  475MPD2     C 7117   4.631   3.291  11.115  0.5582  0.1994 -0.5745
  475MPD2    C1 7118   4.649   3.299  10.976 -0.2862 -0.1845  0.1646
  475MPD2    C2 7119   4.543   3.322  10.893  0.3335 -0.5083 -1.1861
  475MPD2    C3 7120   4.412   3.337  10.939  0.4248  0.0571  0.4115
  475MPD2    C4 7121   4.402   3.319  11.075  0.9594  0.9607 -0.5696
  475MPD2    C5 7122   4.504   3.306  11.164 -0.0285  0.1580 -0.8128
  475MPD2     H 7123   4.564   3.330  10.787 -3.3965  1.9194 -1.7698
  475MPD2    H1 7124   4.308   3.307  11.127 -0.0692  0.9304 -2.4414
  475MPD2    H2 7125   4.720   3.295  11.177 -1.0018  0.5686  1.6121
  475MPD2    H3 7126   4.496   3.293  11.272  2.1690  0.4351 -0.6114
  475MPD2     N 7127   4.313   3.356  10.846  0.8059 -0.4823  0.1256
  475MPD2    H5 7128   4.348   3.352  10.750  1.1649  2.0109  0.1485
  475MPD2    N1 7129   0.052   3.308  10.934  0.1693  0.2272  0.1508
  475MPD2    H7 7130   0.117   3.281  11.007 -4.1297 -2.7530  2.8951
  476TMC3    C1 7131   0.243   3.356  10.819 -0.8094 -0.1280 -0.4127
  476TMC3    C2 7132   0.310   3.347  10.703 -0.2331  0.3302 -0.2084
  476TMC3    C3 7133   0.432   3.409  10.692 -0.5051 -0.4771  0.4423
  476TMC3    C4 7134   0.280   3.439  10.919 -0.8364  0.3787  0.5427
  476TMC3    C5 7135   0.386   3.520  10.893 -0.7636 -0.3576 -0.3553
  476TMC3    C6 7136   0.467   3.493  10.785  0.0746 -0.2760 -0.2253
  476TMC3     C 7137   0.100   3.316  10.812  0.4362 -0.9149  0.2660
  476TMC3     O 7138   0.044   3.306  10.703  0.3600 -0.2525 -0.1235
  476TMC3     H 7139   0.274   3.292  10.617  0.4017 -1.7656  0.8717
  476TMC3    H1 7140   0.218   3.457  11.006  0.2805 -2.7072  1.9754
  476TMC3    H2 7141   0.558   3.551  10.774 -0.5668  0.3996 -2.0443
  476TMC3    C7 7142   0.421   3.616  11.000 -0.0180 -0.1298 -0.2357
  476TMC3    C8 7143   0.506   3.411  10.573 -0.8291  0.3935 -0.0512
  476TMC3    O1 7144   0.357   3.609  11.105 -0.3796 -0.0491  0.4658
  476TMC3    O2 7145   0.574   3.510  10.551 -0.5166  0.7703  0.0352
  477MPD2     C 7146   3.108   0.324  11.929 -0.2180  0.0877 -0.3373
  477MPD2    C1 7147   3.046   0.241  11.839 -0.6839  0.7134  0.4307
  477MPD2    C2 7148   3.089   0.110  11.835  0.0170  0.1373  0.3300
  477MPD2    C3 7149   3.187   0.058  11.910 -0.3741  0.2615  0.3419
  477MPD2    C4 7150   3.256   0.146  11.995 -0.2578 -0.8899 -0.1132
  477MPD2    C5 7151   3.214   0.277  12.007 -0.5145 -0.3732  0.0668
  477MPD2     H 7152   3.035   0.037  11.777 -0.5726 -1.7078  3.2037
  477MPD2    H1 7153   3.333   0.110  12.063  1.3974 -0.8828 -1.9721
  477MPD2    H2 7154   3.085   0.429  11.935 -0.5098  0.1089 -1.6623
  477MPD2    H3 7155   3.270   0.345  12.071  0.4529 -0.6976 -0.4236
  477MPD2     N 7156   3.210   4.656  11.889  0.7531 -0.3994 -0.4197
  477MPD2    H5 7157   3.149   4.607  11.824  0.6949 -0.1554 -0.5461
  477MPD2    N1 7158   2.928   0.292  11.782  0.0884  0.0874 -0.0641
  477MPD2    H7 7159   2.910   0.391  11.797  0.3818  0.0628  0.4356
  478TMC3    C1 7160   2.710   0.297  11.675 -0.4517 -0.3266  0.6930
  478TMC3    C2 7161   2.700   0.435  11.698  0.3662 -0.0527  0.6607
  478TMC3    C3 7162   2.594   0.497  11.639 -0.1184 -0.2550 -0.4632
  478TMC3    C4 7163   2.627   0.227  11.593 -0.0873 -0.5110 -0.6111
  478TMC3    C5 7164   2.533   0.304  11.527 -0.5700 -0.1518 -0.0215
  478TMC3    C6 7165   2.514   0.434  11.547  0.2328  0.1567  0.7267
  478TMC3     C 7166   2.829   0.221  11.716 -0.1314 -0.0713  0.6175
  478TMC3     O 7167   2.827   0.102  11.692  0.5641 -0.3482 -0.2637
  478TMC3     H 7168   2.758   0.491  11.770  0.1234 -2.1728  2.4955
  478TMC3    H1 7169   2.633   0.119  11.585 -1.3608 -0.5609 -0.9732
  478TMC3    H2 7170   2.424   0.482  11.509  1.4498  1.9596  0.1296
  478TMC3    C7 7171   2.477   0.238  11.411 -0.1277  0.4423 -0.2963
  478TMC3    C8 7172   2.529   0.586  11.728  1.1151  0.5090 -0.5083
  478TMC3    O1 7173   2.481   0.116  11.405 -0.3285 -0.3512  0.0529
  478TMC3    O2 7174   2.552   0.574  11.848  0.2447 -0.2957  0.3317
  479MPD2     C 7175   2.216   1.854  14.813 -0.4238  0.2113  0.3609
  479MPD2    C1 7176   2.146   1.771  14.906  0.0610  0.7795  0.3071
  479MPD2    C2 7177   2.188   1.769  15.038  0.0144 -0.5492 -0.1534
  479MPD2    C3 7178   2.276   1.866  15.088  0.1037 -0.0756 -0.2786
  479MPD2    C4 7179   2.344   1.940  14.995  0.1051  0.8133  0.5138
  479MPD2    C5 7180   2.312   1.938  14.860  0.3908 -0.2625  0.4833
  479MPD2     H 7181   2.143   1.700  15.108 -0.6358 -0.7575 -0.7804
  479MPD2    H1 7182   2.424   2.002  15.035 -0.3866 -0.5566  3.5758
  479MPD2    H2 7183   2.194   1.863  14.707  1.3248  0.3678  0.0040
  479MPD2    H3 7184   2.362   1.999  14.786  0.2997  0.3601  0.9351
  479MPD2     N 7185   2.317   1.886  15.219  0.7826 -0.0176 -0.3088
  479MPD2    H5 7186   2.402   1.940  15.230 -0.0088  1.1477  0.0654
  479MPD2    N1 7187   2.045   1.687  14.859 -0.1836  0.0105  0.5744
  479MPD2    H7 7188   2.018   1.708  14.763  1.4527  1.2674  0.3820
  480TMC3    C1 7189   1.919   1.713  15.404  0.2734  0.8058  0.2726
  480TMC3    C2 7190   1.837   1.787  15.328  0.0669 -0.6315  0.8780
  480TMC3    C3 7191   1.890   1.872  15.237 -0.1086  0.2616 -0.3728
  480TMC3    C4 7192   2.051   1.732  15.412 -0.4849  0.0376  0.5497
  480TMC3    C5 7193   2.103   1.826  15.330  0.0437  0.5314 -0.7452
  480TMC3    C6 7194   2.027   1.898  15.238 -0.4560  0.5655  0.4624
  480TMC3     C 7195   1.863   1.619  15.502  0.3609 -0.2466 -0.5180
  480TMC3     O 7196   1.940   1.537  15.553 -0.2640 -0.0625 -0.3178
  480TMC3     H 7197   1.734   1.754  15.326 -1.4830  4.3808  0.5264
  480TMC3    H1 7198   2.119   1.674  15.473  0.0125  0.9095  0.8356
  480TMC3    H2 7199   2.079   1.982  15.194  0.5719 -1.4293 -2.0937
  480TMC3    C7 7200   2.250   1.834  15.335  0.1190 -0.6589  0.0766
  480TMC3    C8 7201   1.812   1.897  15.113  0.3282  0.3999 -0.1840
  480TMC3    O1 7202   2.297   1.814  15.450 -0.4086 -0.1374 -0.1434
  480TMC3    O2 7203   1.694   1.861  15.111  0.3097 -0.4566  0.6592
  481MPD2     C 7204   3.829   1.230  14.291 -0.3099 -0.6178 -0.0139
  481MPD2    C1 7205   3.694   1.219  14.319  0.2222  0.7229 -0.0266
  481MPD2    C2 7206   3.656   1.171  14.446 -0.2687 -0.0962  0.1651
  481MPD2    C3 7207   3.755   1.150  14.549  0.5346 -0.0346 -0.5607
  481MPD2    C4 7208   3.887   1.162  14.512 -0.3988  0.6626  0.1124
  481MPD2    C5 7209   3.919   1.196  14.380 -0.1854  0.2362  0.0649
  481MPD2     H 7210   3.551   1.160  14.471 -0.2415 -1.4612 -0.3171
  481MPD2    H1 7211   3.972   1.160  14.580 -1.3693  2.2171  1.3775
  481MPD2    H2 7212   3.867   1.251  14.191 -0.4442  1.0628  0.2846
  481MPD2    H3 7213   4.024   1.200  14.354 -0.5455 -0.8716 -1.5164
  481MPD2     N 7214   3.727   1.119  14.683  0.4513  0.1495  0.2783
  481MPD2    H5 7215   3.809   1.103  14.740  0.6099 -0.4625 -0.1198
  481MPD2    N1 7216   3.602   1.252  14.216 -0.3192  0.7577  0.2937
  481MPD2    H7 7217   3.636   1.275  14.123  0.2499 -1.6561 -0.1070
  482TMC3    C1 7218   3.394   1.272  14.113 -0.0932  0.0039  0.2996
  482TMC3    C2 7219   3.286   1.202  14.074 -0.8134 -0.3328 -0.0558
  482TMC3    C3 7220   3.221   1.250  13.965  0.4881  0.2565  0.1654
  482TMC3    C4 7221   3.446   1.375  14.041  0.7082 -0.8295 -0.1238
  482TMC3    C5 7222   3.376   1.421  13.936 -0.5071  0.0808  0.2951
  482TMC3    C6 7223   3.262   1.355  13.895  0.2971 -0.4260 -0.2387
  482TMC3     C 7224   3.469   1.223  14.220 -0.0524 -0.6347 -0.3386
  482TMC3     O 7225   3.406   1.143  14.287  0.0643  0.3337 -0.5711
  482TMC3     H 7226   3.249   1.117  14.130  1.7654 -0.5325  1.3334
  482TMC3    H1 7227   3.524   1.434  14.088  1.1122 -0.5116 -1.2121
  482TMC3    H2 7228   3.194   1.410  13.832 -1.0624  0.2762  1.8182
  482TMC3    C7 7229   3.414   1.549  13.869 -0.3661  0.3514 -0.3371
  482TMC3    C8 7230   3.151   1.138  13.897 -0.2601 -1.0733  0.3112
  482TMC3    O1 7231   3.457   1.649  13.925 -0.8321  1.2530  0.3631
  482TMC3    O2 7232   3.133   1.032  13.953  0.0846  0.5801  0.1363
  483TMC3    C1 7233   1.308   0.471   0.190 -0.2475 -0.2949  0.0139
  483TMC3    C2 7234   1.430   0.540   0.190  0.3963 -0.0014 -0.5349
  483TMC3    C3 7235   1.531   0.479   0.120  0.6338  0.8702  0.2659
  483TMC3    C4 7236   1.288   0.350   0.126  0.1638 -0.2906  0.3422
  483TMC3    C5 7237   1.400   0.290   0.070  0.4196 -0.0548 -0.2597
  483TMC3    C6 7238   1.520   0.356   0.059 -0.4013  0.4155  0.5472
  483TMC3     C 7239   1.248   0.473   0.320  0.4423 -0.4934  0.2097
  483TMC3     O 7240   1.199   0.580   0.354 -0.2319 -0.1963 -0.5228
  483TMC3     H 7241   1.444   0.622   0.260 -1.5820  1.1180 -1.4687
  483TMC3    H1 7242   1.194   0.296   0.138 -0.6762  0.9392 -0.8083
  483TMC3    H2 7243   1.604   0.306   0.011  1.1215  0.9115  2.7065
  483TMC3    C7 7244   1.401   0.143   0.069  0.6022 -0.5083 -0.2134
  483TMC3    C8 7245   1.665   0.518   0.154 -0.3978  0.0244 -0.9860
  483TMC3    O1 7246   1.341   0.090   0.154  0.1301  0.3880 -0.0347
  483TMC3    O2 7247   1.754   0.434   0.129 -0.8088  0.5758  0.3430
  484MPD2     C 7248   4.014   3.214  12.746  0.0321  0.3553  0.2273
  484MPD2    C1 7249   3.991   3.104  12.807  0.3790 -1.4471  0.9430
  484MPD2    C2 7250   4.099   3.018  12.824 -0.7937 -0.5883  0.5615
  484MPD2    C3 7251   4.230   3.053  12.809  0.1137 -0.3816 -0.5667
  484MPD2    C4 7252   4.251   3.177  12.771 -0.0373 -0.0654 -0.5367
  484MPD2    C5 7253   4.140   3.250  12.737 -0.0319  0.0520  0.9555
  484MPD2     H 7254   4.075   2.915  12.844 -2.1375 -0.4838 -0.4983
  484MPD2    H1 7255   4.346   3.226  12.752 -0.3865  0.9397  0.3481
  484MPD2    H2 7256   3.938   3.285  12.715  0.4665 -0.3207 -2.3799
  484MPD2    H3 7257   4.153   3.343  12.683  1.6331 -0.4213  0.5265
  484MPD2     N 7258   4.340   2.969  12.824 -0.5387  0.2025 -0.3241
  484MPD2    H5 7259   4.430   3.013  12.812 -0.2359 -0.5562 -0.8913
  484MPD2    N1 7260   3.862   3.068  12.839 -0.1986 -0.1690  0.1401
  484MPD2    H7 7261   3.786   3.118  12.793  0.3462 -0.6275 -1.2720
  485TMC3    C1 7262   4.450   2.754  12.848  0.2062 -0.0982  0.0889
  485TMC3    C2 7263   4.447   2.638  12.917  0.1576  0.2681 -0.1055
  485TMC3    C3 7264   4.489   2.523  12.851 -0.1659 -0.2290  0.4581
  485TMC3    C4 7265   4.500   2.759  12.716  0.5160 -0.1034 -0.3031
  485TMC3    C5 7266   4.544   2.640  12.659  0.2548  0.3464  0.1173
  485TMC3    C6 7267   4.544   2.519  12.726  0.3243 -0.5449  0.4696
  485TMC3     C 7268   4.329   2.832  12.863  0.1650  0.1389 -0.5184
  485TMC3     O 7269   4.228   2.768  12.877 -0.2271  0.6155 -0.7457
  485TMC3     H 7270   4.400   2.636  13.014 -3.2924  0.4853 -1.7790
  485TMC3    H1 7271   4.494   2.845  12.651 -0.4780 -0.7760 -1.1161
  485TMC3    H2 7272   4.587   2.429  12.684  2.4455  0.0337  1.3769
  485TMC3    C7 7273   4.615   2.651  12.536  0.7666  0.2303 -0.4814
  485TMC3    C8 7274   4.474   2.396  12.915 -0.0404 -0.8544  0.1063
  485TMC3    O1 7275   4.656   2.764  12.506 -0.1023 -0.0891  0.1091
  485TMC3    O2 7276   4.526   2.398  13.027 -0.2523 -0.4507 -0.2618
  486MPD2     C 7277   1.350   1.535  12.250 -0.1017 -0.3965  0.5049
  486MPD2    C1 7278   1.241   1.540  12.333  0.7853  0.0371  0.6291
  486MPD2    C2 7279   1.170   1.661  12.346  0.3877  0.4981 -0.0526
  486MPD2    C3 7280   1.194   1.768  12.262 -0.2457 -0.4466  0.5456
  486MPD2    C4 7281   1.296   1.762  12.172  0.2520 -0.5729 -0.6665
  486MPD2    C5 7282   1.384   1.651  12.172 -0.2657 -0.0039  0.1679
  486MPD2     H 7283   1.088   1.665  12.416 -0.1687  1.7516 -0.7912
  486MPD2    H1 7284   1.300   1.840  12.096  1.8852  0.9678  0.9806
  486MPD2    H2 7285   1.420   1.453  12.244 -1.7109 -1.7430  0.1693
  486MPD2    H3 7286   1.480   1.659  12.123 -0.8627  1.1153 -0.8220
  486MPD2     N 7287   1.108   1.880  12.250  0.6479 -0.1870 -0.1702
  486MPD2    H5 7288   1.134   1.953  12.185 -0.7690 -0.2764 -0.8448
  486MPD2    N1 7289   1.207   1.425  12.406 -0.0528 -0.0358  0.2532
  486MPD2    H7 7290   1.270   1.348  12.390  1.7039  1.1866  1.2765
  487TMC3    C1 7291   1.092   1.271  12.529  0.1991  0.1617  0.3826
  487TMC3    C2 7292   0.965   1.223  12.537 -0.4056 -0.2580  0.5473
  487TMC3    C3 7293   0.947   1.091  12.521  0.1595  0.0498  0.1620
  487TMC3    C4 7294   1.203   1.192  12.524  0.9762 -0.6488  0.3727
  487TMC3    C5 7295   1.184   1.062  12.543 -0.2469 -0.8925  0.1864
  487TMC3    C6 7296   1.061   1.011  12.518  0.4354  0.0928  0.1688
  487TMC3     C 7297   1.093   1.409  12.480 -0.1994 -0.2084  0.1922
  487TMC3     O 7298   0.990   1.475  12.472  0.0686  0.0764 -0.0457
  487TMC3     H 7299   0.886   1.289  12.572 -0.8236 -1.0766  1.1382
  487TMC3    H1 7300   1.297   1.236  12.556  1.0194  0.7550 -1.6904
  487TMC3    H2 7301   1.045   0.904  12.518 -3.1221  0.6347 -0.6386
  487TMC3    C7 7302   1.227   1.015  12.677 -0.6965 -0.4708 -0.2712
  487TMC3    C8 7303   0.841   1.032  12.609  0.7171  0.2765  0.6129
  487TMC3    O1 7304   1.330   1.065  12.723  0.2478  0.2724  0.4702
  487TMC3    O2 7305   0.864   0.924  12.658 -0.7942 -0.1901  0.1774
  488MPD2     C 7306   1.550   3.207  16.270 -0.3602 -0.1255  0.0946
  488MPD2    C1 7307   1.617   3.274  16.370 -0.5347  0.2736  0.1621
  488MPD2    C2 7308   1.619   3.214  16.498 -0.4998 -0.0371  0.1459
  488MPD2    C3 7309   1.572   3.089  16.529  0.3295  0.0299  0.0179
  488MPD2    C4 7310   1.510   3.019  16.424 -0.1041  0.4290  0.6529
  488MPD2    C5 7311   1.503   3.082  16.300 -0.3953 -0.5297  0.7155
  488MPD2     H 7312   1.670   3.270  16.575 -0.7954  0.6468 -0.1512
  488MPD2    H1 7313   1.469   2.919  16.429 -1.0504  0.7879 -0.0357
  488MPD2    H2 7314   1.546   3.239  16.167  2.0733  2.3912  0.7641
  488MPD2    H3 7315   1.448   3.031  16.221 -0.1816  1.1798 -0.5502
  488MPD2     N 7316   1.579   3.044  16.667 -0.2975  1.2880 -0.1044
  488MPD2    H5 7317   1.619   3.102  16.741  0.0789  0.3077  0.4653
  488MPD2    N1 7318   1.674   3.401  16.356  0.2526  0.1370 -0.7716
  488MPD2    H7 7319   1.725   3.426  16.441 -0.0511 -2.5749  0.2087
  489TMC3    C1 7320   1.521   2.906  16.853  0.0766  0.0750 -0.0578
  489TMC3    C2 7321   1.554   3.010  16.935  0.9388 -0.0384 -0.7373
  489TMC3    C3 7322   1.561   2.987  17.068  0.3501 -0.0998 -0.8188
  489TMC3    C4 7323   1.484   2.786  16.896  0.3725 -0.5750  0.2254
  489TMC3    C5 7324   1.485   2.771  17.030  0.0745  0.5005  0.4847
  489TMC3    C6 7325   1.520   2.869  17.120  0.2478  0.1871 -0.4707
  489TMC3     C 7326   1.519   2.924  16.707 -0.0909 -1.1516  0.4314
  489TMC3     O 7327   1.483   2.831  16.638  0.1467 -0.3032  0.2327
  489TMC3     H 7328   1.582   3.110  16.902  3.9844 -0.7602 -0.3180
  489TMC3    H1 7329   1.450   2.713  16.824 -0.2740  1.1861 -1.2559
  489TMC3    H2 7330   1.524   2.855  17.228  3.3732 -0.3864 -0.6788
  489TMC3    C7 7331   1.415   2.660  17.090 -0.3702 -0.3124 -0.4807
  489TMC3    C8 7332   1.640   3.081  17.144 -0.1715 -0.5374  0.7351
  489TMC3    O1 7333   1.437   2.637  17.208  0.1798  0.1080  0.1698
  489TMC3    O2 7334   1.742   3.121  17.085  0.6704  0.1709  0.1713
  490MPD2     C 7335   2.450   2.741  17.460 -0.0381 -0.9171 -0.3785
  490MPD2    C1 7336   2.504   2.618  17.461 -0.1003  0.3656  0.5272
  490MPD2    C2 7337   2.629   2.597  17.523  0.1779  0.3309 -0.2596
  490MPD2    C3 7338   2.706   2.703  17.568  0.3838 -0.3380  0.9711
  490MPD2    C4 7339   2.649   2.828  17.555  1.1074 -0.5380  0.5721
  490MPD2    C5 7340   2.527   2.845  17.503 -0.5443  0.4465 -0.2967
  490MPD2     H 7341   2.669   2.496  17.526  1.9457  1.0623  1.3143
  490MPD2    H1 7342   2.698   2.914  17.600  1.2573  0.4784 -1.5453
  490MPD2    H2 7343   2.352   2.759  17.417 -0.1504  0.5580  0.4877
  490MPD2    H3 7344   2.490   2.947  17.497  1.2028  1.2586  2.9732
  490MPD2     N 7345   2.836   2.698  17.618  0.5531 -0.4900 -0.0326
  490MPD2    H5 7346   2.873   2.787  17.650  0.6144 -0.0307 -1.4113
  490MPD2    N1 7347   2.432   2.505  17.412 -0.2751  0.3290 -0.1525
  490MPD2    H7 7348   2.474   2.416  17.434 -3.7269 -0.2210  4.2320
  491TMC3    C1 7349   2.287   2.372  17.294 -0.3485  0.1327  0.5845
  491TMC3    C2 7350   2.283   2.282  17.391 -0.1208 -0.4320  0.7108
  491TMC3    C3 7351   2.217   2.158  17.378 -0.3796 -0.4870  0.1376
  491TMC3    C4 7352   2.228   2.339  17.171  0.5222 -0.1592  0.1852
  491TMC3    C5 7353   2.176   2.214  17.164 -0.0746  0.2428 -0.5530
  491TMC3    C6 7354   2.177   2.117  17.258 -0.1708  0.1061 -0.8158
  491TMC3     C 7355   2.325   2.506  17.327  0.2769  0.1039 -0.4887
  491TMC3     O 7356   2.260   2.595  17.275  0.7593 -0.3962  0.3626
  491TMC3     H 7357   2.327   2.309  17.487 -2.1974 -2.5164  2.2639
  491TMC3    H1 7358   2.239   2.415  17.095  0.1589 -1.4648 -1.1565
  491TMC3    H2 7359   2.133   2.020  17.239  0.8851 -0.8732  1.7104
  491TMC3    C7 7360   2.104   2.179  17.045  0.3848  0.8504  0.5957
  491TMC3    C8 7361   2.196   2.089  17.499  0.0889 -0.2876 -0.0178
  491TMC3    O1 7362   2.075   2.059  17.027  0.3461  0.1246  0.2671
  491TMC3    O2 7363   2.185   2.156  17.601  0.5624  0.1853  0.5365
  492MPD2     C 7364   2.326   3.361  11.833  0.0678  1.4002  0.2733
  492MPD2    C1 7365   2.251   3.308  11.726 -0.1042 -0.1117  0.4365
  492MPD2    C2 7366   2.206   3.173  11.734 -0.3301  0.0809  0.4880
  492MPD2    C3 7367   2.231   3.104  11.845 -0.2646  0.0702  0.1953
  492MPD2    C4 7368   2.297   3.157  11.956  0.4651 -0.3227 -0.0332
  492MPD2    C5 7369   2.338   3.290  11.948  1.2526  0.0584 -0.1197
  492MPD2     H 7370   2.144   3.130  11.655 -0.8041  0.6247  0.5642
  492MPD2    H1 7371   2.307   3.099  12.047 -1.7091  0.9335  0.9926
  492MPD2    H2 7372   2.358   3.464  11.821 -0.8414  1.8412  1.6887
  492MPD2    H3 7373   2.382   3.344  12.031 -0.4765  0.0471  0.8265
  492MPD2     N 7374   2.190   2.972  11.864  0.2306 -0.6407  0.6872
  492MPD2    H5 7375   2.202   2.938  11.959  1.2369  3.1523  1.9186
  492MPD2    N1 7376   2.229   3.394  11.622 -0.0962 -0.6362 -0.5979
  492MPD2    H7 7377   2.272   3.486  11.622 -0.3602 -0.5108  0.0384
  493TMC3    C1 7378   2.145   3.495  11.432 -0.5417 -0.5535 -0.0601
  493TMC3    C2 7379   2.145   3.614  11.497  0.3094  0.3670 -0.1527
  493TMC3    C3 7380   2.119   3.732  11.430 -0.2432  0.5180 -0.0561
  493TMC3    C4 7381   2.115   3.490  11.301 -0.3588  0.5057  0.1213
  493TMC3    C5 7382   2.086   3.608  11.238  0.0377 -0.0863 -0.5451
  493TMC3    C6 7383   2.086   3.731  11.299 -0.1183 -0.5040  0.3602
  493TMC3     C 7384   2.162   3.369  11.506  0.6054 -0.5390  0.2080
  493TMC3     O 7385   2.112   3.268  11.459  0.3324 -0.3593  0.4207
  493TMC3     H 7386   2.170   3.622  11.602 -0.6922 -0.5676  0.1613
  493TMC3    H1 7387   2.116   3.396  11.246  0.7596  0.9197 -0.5721
  493TMC3    H2 7388   2.037   3.820  11.260  3.4547  0.6454 -1.5051
  493TMC3    C7 7389   2.031   3.605  11.097  0.6188 -0.0034  0.2180
  493TMC3    C8 7390   2.152   3.852  11.499  0.0463 -0.1647  0.5097
  493TMC3    O1 7391   2.002   3.501  11.053 -0.6153 -0.1329 -0.0727
  493TMC3    O2 7392   2.154   3.850  11.624 -0.0642  0.4841  0.1162
  494TMC3    C1 7393   2.807   4.396   0.369 -1.0703  0.1392 -0.3836
  494TMC3    C2 7394   2.849   4.263   0.352  0.1585  0.3720 -0.0982
  494TMC3    C3 7395   2.918   4.223   0.242 -0.1921 -1.2705 -0.4173
  494TMC3    C4 7396   2.841   4.489   0.275 -0.2118 -0.7356 -0.1936
  494TMC3    C5 7397   2.922   4.448   0.172  0.3072 -0.1208  0.1942
  494TMC3    C6 7398   2.967   4.320   0.156  0.2619 -0.3469  0.4424
  494TMC3     C 7399   2.750   4.436   0.491 -0.7680  0.2208 -0.0150
  494TMC3     O 7400   2.678   4.534   0.498 -0.0442  0.1410 -0.5554
  494TMC3     H 7401   2.803   4.195   0.423 -0.4915 -1.5465 -2.3612
  494TMC3    H1 7402   2.802   4.590   0.279 -1.5620 -1.2803  0.4048
  494TMC3    H2 7403   3.030   4.292   0.073 -0.2866 -0.2722  0.0010
  494TMC3    C7 7404   2.984   4.551   0.090 -0.2709  0.5093  0.3635
  494TMC3    C8 7405   2.985   4.094   0.240  0.0354 -0.0883 -0.4014
  494TMC3    O1 7406   3.022   4.515  17.715 -0.6398 -0.1436  0.8331
  494TMC3    O2 7407   2.992   4.045   0.354 -0.0666  0.4322  0.7129
  495TMC3    C1 7408   2.375   2.142  14.339 -0.1884 -0.9399  1.1016
  495TMC3    C2 7409   2.328   2.217  14.237  0.4274  0.3206 -0.0956
  495TMC3    C3 7410   2.203   2.269  14.241 -0.3241 -0.2240  0.1746
  495TMC3    C4 7411   2.307   2.128  14.460 -0.4510 -0.1042  0.0500
  495TMC3    C5 7412   2.179   2.180  14.459 -0.2749 -0.2926  0.5765
  495TMC3    C6 7413   2.129   2.249  14.357 -0.4624 -0.4612 -0.1239
  495TMC3     C 7414   2.426   2.009  14.312 -0.3163  0.0527  0.2745
  495TMC3     O 7415   2.363   1.920  14.364  0.2720  0.3154 -0.5976
  495TMC3     H 7416   2.381   2.230  14.143  0.4037 -0.4075 -0.2087
  495TMC3    H1 7417   2.351   2.075  14.543  0.3051  0.8785  0.2825
  495TMC3    H2 7418   2.027   2.284  14.368 -0.5939 -0.7397 -0.4890
  495TMC3    C7 7419   2.101   2.155  14.583 -0.1839  0.1868 -0.3669
  495TMC3    C8 7420   2.123   2.231  14.127 -1.0287 -0.0264  0.0174
  495TMC3    O1 7421   2.179   2.128  14.676 -0.3122  0.5664  0.4269
  495TMC3    O2 7422   2.010   2.277  14.123  0.0557 -1.0350  0.2344
  496MPD2     C 7423   4.242   2.221  15.444 -0.1282 -0.0882  0.0542
  496MPD2    C1 7424   4.224   2.130  15.346  0.3497  0.5424 -0.2419
  496MPD2    C2 7425   4.098   2.089  15.298 -0.1144  0.0100  0.9216
  496MPD2    C3 7426   3.986   2.149  15.357  0.9212 -0.7046 -0.0076
  496MPD2    C4 7427   4.007   2.247  15.453  0.3495  0.2440  0.4875
  496MPD2    C5 7428   4.130   2.278  15.502 -0.3901 -0.6047  0.1435
  496MPD2     H 7429   4.096   2.006  15.229  1.0510  0.6748  0.0767
  496MPD2    H1 7430   3.935   2.317  15.494  0.7530 -0.6466  2.7021
  496MPD2    H2 7431   4.338   2.258  15.478  1.2689 -0.0536 -3.9537
  496MPD2    H3 7432   4.138   2.363  15.569 -0.7787 -0.1804 -0.3495
  496MPD2     N 7433   3.852   2.113  15.330 -0.1354  0.2359  0.2412
  496MPD2    H5 7434   3.785   2.147  15.398 -1.4624  0.2763 -1.0951
  496MPD2    N1 7435   4.338   2.075  15.295 -0.1509  0.5292  0.5009
  496MPD2    H7 7436   4.424   2.085  15.349  0.2409  1.7619 -0.3444
  497TMC3    C1 7437   3.687   1.960  15.259  0.3536  0.2432  0.0434
  497TMC3    C2 7438   3.632   1.879  15.163  0.3544 -0.8662 -0.0675
  497TMC3    C3 7439   3.515   1.806  15.188  0.1861  0.0806  0.0222
  497TMC3    C4 7440   3.630   1.964  15.381 -0.3678 -0.0164 -0.0910
  497TMC3    C5 7441   3.512   1.888  15.404  0.2209  0.0828  0.4872
  497TMC3    C6 7442   3.452   1.813  15.311  0.5383  0.0131  0.2061
  497TMC3     C 7443   3.816   2.021  15.232 -0.1501 -0.0405  0.1948
  497TMC3     O 7444   3.880   1.988  15.132 -0.5019  0.2976  0.0734
  497TMC3     H 7445   3.693   1.858  15.076 -0.6210 -0.5770 -0.8219
  497TMC3    H1 7446   3.664   2.030  15.460  2.2821  0.1591 -1.4055
  497TMC3    H2 7447   3.364   1.755  15.336  0.5425  0.2257  0.7124
  497TMC3    C7 7448   3.450   1.897  15.534  0.0996 -0.1543  0.3961
  497TMC3    C8 7449   3.464   1.723  15.079 -0.4111 -0.0198 -0.3642
  497TMC3    O1 7450   3.334   1.850  15.544 -0.0819 -0.1015  0.5302
  497TMC3    O2 7451   3.486   1.757  14.963 -1.1107 -0.1702  0.3208
  498MPD2     C 7452   0.152   3.303   9.751  0.2228 -0.2508  0.3364
  498MPD2    C1 7453   0.138   3.306   9.888  0.7854 -0.3458 -0.5430
  498MPD2    C2 7454   0.040   3.231   9.955 -0.3864 -0.2531  0.2105
  498MPD2    C3 7455   4.690   3.154   9.877 -0.7772 -0.2374  0.1031
  498MPD2    C4 7456   4.701   3.151   9.741 -0.0426 -0.1269 -0.1480
  498MPD2    C5 7457   0.062   3.229   9.678 -0.4514 -0.1279  0.1618
  498MPD2     H 7458   0.039   3.232  10.064  0.1984  1.9376  0.2148
  498MPD2    H1 7459   4.629   3.094   9.683 -1.7835  2.3860 -0.4626
  498MPD2    H2 7460   0.226   3.364   9.700 -1.2124  2.0688  1.0360
  498MPD2    H3 7461   0.069   3.244   9.571  2.7314 -1.8852  0.1305
  498MPD2     N 7462   4.585   3.085   9.943 -0.0996 -0.1953 -0.3194
  498MPD2    H5 7463   4.596   3.080  10.043  0.5417 -3.8192 -0.5726
  498MPD2    N1 7464   0.235   3.374   9.967  0.8009 -0.7718 -0.6198
  498MPD2    H7 7465   0.223   3.358  10.066 -0.4733  0.2998 -0.5923
  499TMC3    C1 7466   0.362   3.564  10.023  0.1520  0.1428  0.2683
  499TMC3    C2 7467   0.330   3.534  10.150  0.8851  0.0949  0.0041
  499TMC3    C3 7468   0.314   3.633  10.245  0.2560 -0.1412 -0.2659
  499TMC3    C4 7469   0.375   3.699   9.982 -1.0361  0.1937  0.2599
  499TMC3    C5 7470   0.348   3.797  10.071  0.1921  0.0812 -0.6588
  499TMC3    C6 7471   0.316   3.764  10.200 -0.0590  0.2212 -0.2037
  499TMC3     C 7472   0.323   3.471   9.924 -0.2096  0.2644 -0.5968
  499TMC3     O 7473   0.351   3.513   9.809  0.1852 -0.3796 -0.3662
  499TMC3     H 7474   0.328   3.431  10.182  2.9980  0.1817  0.4343
  499TMC3    H1 7475   0.406   3.729   9.883  0.5716  0.5243  0.8687
  499TMC3    H2 7476   0.284   3.842  10.268  0.0183  0.4642 -0.4464
  499TMC3    C7 7477   0.323   3.936  10.021 -0.4514  0.6148 -0.6400
  499TMC3    C8 7478   0.269   3.607  10.383  0.0932 -0.0002 -0.3543
  499TMC3    O1 7479   0.322   3.950   9.901  0.8759  0.4551  0.1434
  499TMC3    O2 7480   0.221   3.495  10.403 -0.7191 -0.2511  0.0124
  500MPD2     C 7481   1.200   4.326  10.451  0.0217 -0.9241 -0.4392
  500MPD2    C1 7482   1.296   4.425  10.421  0.1331  0.5735  0.1108
  500MPD2    C2 7483   1.316   4.456  10.288 -0.1544 -0.5285  0.5990
  500MPD2    C3 7484   1.233   4.405  10.190 -0.2969 -0.5056  0.3623
  500MPD2    C4 7485   1.140   4.308  10.222  0.2584 -0.4326  0.6592
  500MPD2    C5 7486   1.125   4.266  10.350 -0.0432 -0.3787  0.3952
  500MPD2     H 7487   1.390   4.533  10.269  0.2662 -0.6762  1.6363
  500MPD2    H1 7488   1.087   4.257  10.142  0.1870 -1.0763  1.1123
  500MPD2    H2 7489   1.207   4.289  10.553 -0.1080 -2.3905 -0.9741
  500MPD2    H3 7490   1.066   4.180  10.378  0.2822 -1.2458 -1.5138
  500MPD2     N 7491   1.238   4.453  10.065  0.4162 -0.0343  0.4279
  500MPD2    H5 7492   1.155   4.443  10.008  1.1518  0.3204 -0.7135
  500MPD2    N1 7493   1.378   4.489  10.517  0.1824 -0.3428 -0.3724
  500MPD2    H7 7494   1.448   4.555  10.485 -1.3483  0.2529 -2.4539
  501TMC3    C1 7495   1.488   4.537  10.726  0.3269 -0.2935 -0.2034
  501TMC3    C2 7496   1.539   4.649  10.662 -0.4247 -0.5858 -0.1808
  501TMC3    C3 7497   1.659   4.699  10.713 -0.8548 -0.1070  0.6865
  501TMC3    C4 7498   1.555   4.466  10.821  0.7604 -0.1122 -0.1879
  501TMC3    C5 7499   1.678   4.522  10.862 -0.2139 -0.3674 -0.8281
  501TMC3    C6 7500   1.731   4.637  10.808 -0.2039 -0.4408 -0.3511
  501TMC3     C 7501   1.392   4.460  10.653  0.1377 -0.1085  0.4715
  501TMC3     O 7502   1.345   4.366  10.714  0.1538  0.3304 -0.6740
  501TMC3     H 7503   1.477   4.705  10.594  3.3261  1.6153 -1.8055
  501TMC3    H1 7504   1.516   4.375  10.864  0.9066 -1.1089 -2.1322
  501TMC3    H2 7505   1.824   4.689  10.829 -1.2223  0.9645  0.6674
  501TMC3    C7 7506   1.753   4.464  10.974 -0.2716 -0.0273 -0.8904
  501TMC3    C8 7507   1.699   0.097  10.674 -0.2448  0.4301  0.5130
  501TMC3    O1 7508   1.698   4.364  11.025 -0.3298 -0.0906 -0.4238
  501TMC3    O2 7509   1.750   0.168  10.759 -0.5137 -0.1164 -0.6548
  502TMC3    C1 7510   1.412   2.356  14.634  0.7459  0.1943 -0.0816
  502TMC3    C2 7511   1.358   2.396  14.509  0.3705  0.9457 -0.3309
  502TMC3    C3 7512   1.229   2.371  14.491  0.4399  0.7637  0.0630
  502TMC3    C4 7513   1.342   2.276  14.722  0.3834 -0.7112  0.1938
  502TMC3    C5 7514   1.212   2.258  14.688 -0.3205  0.5947  0.0012
  502TMC3    C6 7515   1.152   2.293  14.572 -0.8008  0.4148  0.2646
  502TMC3     C 7516   1.478   2.466  14.696 -0.3458  0.4285 -0.6040
  502TMC3     O 7517   1.539   2.550  14.630 -0.6878  0.2358 -0.4809
  502TMC3     H 7518   1.409   2.471  14.450 -2.2115  3.6024  0.8613
  502TMC3    H1 7519   1.387   2.244  14.815  2.3664 -1.4630 -1.0101
  502TMC3    H2 7520   1.053   2.255  14.551 -1.8335  2.8522  0.8066
  502TMC3    C7 7521   1.130   2.269  14.802 -0.0443  0.7523 -1.0442
  502TMC3    C8 7522   1.151   2.465  14.422  0.1043  0.3393 -0.2408
  502TMC3    O1 7523   1.174   2.219  14.904  0.4141  0.6296  0.2753
  502TMC3    O2 7524   1.057   2.522  14.476 -0.1312  0.3268  0.2451
  503MPD2     C 7525   3.377   3.454  17.092 -0.0833 -0.0796  0.1376
  503MPD2    C1 7526   3.504   3.509  17.070  0.6604  0.5657  0.2790
  503MPD2    C2 7527   3.611   3.446  17.124  0.4123  0.2584  0.7327
  503MPD2    C3 7528   3.590   3.330  17.211  0.4630 -1.1407  1.1083
  503MPD2    C4 7529   3.466   3.286  17.230 -0.6432 -0.4829 -0.2404
  503MPD2    C5 7530   3.360   3.354  17.181 -0.2043 -0.1306 -1.0891
  503MPD2     H 7531   3.706   3.494  17.109  0.9014 -1.3842 -1.4143
  503MPD2    H1 7532   3.444   3.194  17.283  1.4141 -1.0475 -0.3744
  503MPD2    H2 7533   3.288   3.490  17.041 -0.8812 -3.4424 -0.8594
  503MPD2    H3 7534   3.257   3.322  17.188  0.4279 -1.6494  1.1755
  503MPD2     N 7535   3.704   3.285  17.281 -0.0476  1.0032 -0.1387
  503MPD2    H5 7536   3.790   3.339  17.272  0.0631  0.9184  0.4311
  503MPD2    N1 7537   3.523   3.622  16.987  0.0382  0.5963 -0.2706
  503MPD2    H7 7538   3.619   3.647  16.965 -0.1225 -0.2701 -1.9874
  504TMC3    C1 7539   3.828   3.159  17.445  0.2081 -0.1264 -0.7219
  504TMC3    C2 7540   3.818   3.062  17.539  0.3671 -0.4582  0.3794
  504TMC3    C3 7541   3.927   3.032  17.614  0.4751  0.0513  0.2084
  504TMC3    C4 7542   3.944   3.219  17.411 -0.1700 -0.1014 -0.4359
  504TMC3    C5 7543   4.051   3.185  17.488 -0.6382  0.5769 -0.0506
  504TMC3    C6 7544   4.047   3.096  17.593  0.3569  0.0894  0.3003
  504TMC3     C 7545   3.710   3.172  17.359  0.1100  0.4966 -1.1029
  504TMC3     O 7546   3.620   3.097  17.386 -0.1843 -0.2057  0.7118
  504TMC3     H 7547   3.721   3.021  17.565 -0.6331  1.1050 -0.9583
  504TMC3    H1 7548   3.940   3.283  17.323  2.8052  0.9336  0.2007
  504TMC3    H2 7549   4.132   3.062  17.651 -0.2868 -2.2852 -0.1505
  504TMC3    C7 7550   4.176   3.227  17.424  0.2902 -0.5376 -0.2973
  504TMC3    C8 7551   3.906   2.932  17.710  1.0280  0.6445 -0.3368
  504TMC3    O1 7552   4.157   3.295  17.322  0.2593 -0.0500 -0.8462
  504TMC3    O2 7553   3.797   2.878  17.706  0.1864  0.5625  0.4623
  505MPD2     C 7554   3.511   3.161  10.537 -0.9466 -0.1477 -0.3695
  505MPD2    C1 7555   3.531   3.038  10.600  0.2699  0.2060  0.4851
  505MPD2    C2 7556   3.632   3.035  10.697 -0.2058  0.5211 -0.5071
  505MPD2    C3 7557   3.705   3.141  10.739 -0.2684 -0.1088  0.1970
  505MPD2    C4 7558   3.686   3.264  10.672  0.1578  0.6783 -0.5115
  505MPD2    C5 7559   3.582   3.275  10.585  0.5907 -0.2027 -0.0150
  505MPD2     H 7560   3.646   2.937  10.741  4.2336  1.4804  0.2030
  505MPD2    H1 7561   3.745   3.351  10.700 -1.0668  1.6389 -0.9038
  505MPD2    H2 7562   3.431   3.188  10.469 -0.3984  1.0102 -0.5464
  505MPD2    H3 7563   3.562   3.375  10.546  1.3360  0.0885  0.3403
  505MPD2     N 7564   3.806   3.138  10.844 -0.1110  0.4195  0.4972
  505MPD2    H5 7565   3.865   3.216  10.872 -0.1729  0.1377  1.4469
  505MPD2    N1 7566   3.461   2.930  10.556 -0.1935  0.2623  0.0640
  505MPD2    H7 7567   3.399   2.936  10.476 -1.1339  0.3832  0.8007
  506TMC3    C1 7568   3.402   2.693  10.550 -0.3779  0.7040 -0.1072
  506TMC3    C2 7569   3.432   2.676  10.418  0.0730 -0.6366 -0.0682
  506TMC3    C3 7570   3.474   2.555  10.370 -0.6772 -0.3234  0.4668
  506TMC3    C4 7571   3.405   2.587  10.633 -0.2650  0.3086 -0.0659
  506TMC3    C5 7572   3.454   2.469  10.585  0.7417 -1.1867 -0.3186
  506TMC3    C6 7573   3.479   2.453  10.456 -0.4735 -0.1978 -0.6052
  506TMC3     C 7574   3.482   2.804  10.608  0.3158 -0.0143 -0.0718
  506TMC3     O 7575   3.532   2.761  10.711 -0.3036  0.3617  0.2090
  506TMC3     H 7576   3.424   2.764  10.355  1.3309 -0.6042 -0.1807
  506TMC3    H1 7577   3.379   2.596  10.738 -1.5030 -2.2333 -0.1394
  506TMC3    H2 7578   3.524   2.362  10.419  0.7091  0.7652 -1.5123
  506TMC3    C7 7579   3.542   2.408  10.675  0.2194  0.4228 -0.4588
  506TMC3    C8 7580   3.599   2.576  10.298  0.1803  0.1313 -0.2311
  506TMC3    O1 7581   3.599   2.304  10.643 -0.2194 -1.2088  0.7956
  506TMC3    O2 7582   3.641   2.693  10.293 -0.3846  0.7486  0.0927
  507TMC3    C1 7583   3.908   3.080  14.905  0.2051  0.3922 -0.4407
  507TMC3    C2 7584   3.769   3.099  14.903 -0.2201  0.1795  0.6581
  507TMC3    C3 7585   3.719   3.169  14.796  0.1906 -0.1965  0.1557
  507TMC3    C4 7586   3.987   3.131  14.810 -0.6745 -0.3662 -0.1937
  507TMC3    C5 7587   3.932   3.193  14.699 -0.5606  0.0255 -0.6337
  507TMC3    C6 7588   3.795   3.206  14.690 -0.0608 -0.4869 -0.5302
  507TMC3     C 7589   3.966   3.045  15.033 -0.0251 -0.0777 -0.0356
  507TMC3     O 7590   4.090   3.035  15.031  0.2090  0.1810 -0.2480
  507TMC3     H 7591   3.701   3.064  14.980 -1.9196  2.7901  0.3351
  507TMC3    H1 7592   4.094   3.112  14.813 -0.1997  2.7339  3.0482
  507TMC3    H2 7593   3.757   3.265  14.607  3.0609  1.8305 -0.2953
  507TMC3    C7 7594   4.005   3.315  14.660 -0.5545  0.2154 -0.3332
  507TMC3    C8 7595   3.635   3.280  14.826 -0.7266 -0.6397 -0.3549
  507TMC3    O1 7596   3.924   3.408  14.640  0.4375  0.0277 -0.0454
  507TMC3    O2 7597   3.531   3.256  14.887 -0.5541  0.3914 -0.5589
  508MPD2     C 7598   0.208   1.003  15.978  0.0000 -0.3078 -0.4399
  508MPD2    C1 7599   0.336   1.044  15.997 -0.1563  0.2790 -0.1424
  508MPD2    C2 7600   0.380   1.163  15.944 -0.4955  0.3672 -0.1671
  508MPD2    C3 7601   0.303   1.235  15.860 -0.4590 -0.6713  0.4423
  508MPD2    C4 7602   0.167   1.197  15.851 -0.2550 -0.4401 -0.5572
  508MPD2    C5 7603   0.118   1.082  15.907 -0.3317 -0.4568  0.1080
  508MPD2     H 7604   0.480   1.202  15.958 -0.4784  0.6823 -1.1463
  508MPD2    H1 7605   0.091   1.258  15.804  0.6435  1.4324  0.4589
  508MPD2    H2 7606   0.171   0.910  16.018  3.6386 -1.7955 -0.4747
  508MPD2    H3 7607   0.018   1.047  15.885 -0.5610 -2.0302  3.5654
  508MPD2     N 7608   0.347   1.365  15.825  0.0601 -0.1540  0.0448
  508MPD2    H5 7609   0.429   1.402  15.874 -1.1545  0.9427  1.2744
  508MPD2    N1 7610   0.416   0.963  16.078  0.5803  0.2872 -0.0679
  508MPD2    H7 7611   0.376   0.880  16.122 -1.0001  1.3155  0.3932
  509TMC3    C1 7612   0.351   1.778  15.607 -0.6798 -0.1737 -0.6280
  509TMC3    C2 7613   0.417   1.847  15.707 -0.1141  0.5464 -0.5198
  509TMC3    C3 7614   0.441   1.762  15.815 -0.1171 -0.3237  0.3269
  509TMC3    C4 7615   0.308   1.647  15.610  0.0634  0.1330  0.5804
  509TMC3    C5 7616   0.326   1.582  15.727 -0.1440  0.0479 -0.1257
  509TMC3    C6 7617   0.393   1.637  15.827 -0.2661  0.7154  0.8551
  509TMC3     C 7618   0.346   1.850  15.482  0.9716 -0.2664 -0.6719
  509TMC3     O 7619   0.317   1.972  15.494 -0.6443 -0.1617 -0.3378
  509TMC3     H 7620   0.464   1.942  15.685  0.3254  0.5251  0.3422
  509TMC3    H1 7621   0.261   1.601  15.524  0.1267  2.5358 -0.7573
  509TMC3    H2 7622   0.407   1.598  15.928 -1.5582  0.7605  1.0509
  509TMC3    C7 7623   0.281   1.444  15.735 -0.4017 -0.0706  0.0595
  509TMC3    C8 7624   0.553   1.789  15.905 -0.2190 -0.2896  0.0559
  509TMC3    O1 7625   0.193   1.401  15.657  0.7722 -0.1570  0.1740
  509TMC3    O2 7626   0.565   1.716  16.007  0.0035 -0.6624 -0.1311
  510MPD2     C 7627   3.218   2.602  14.532 -0.4455  0.1216 -0.4841
  510MPD2    C1 7628   3.287   2.490  14.570 -0.2079 -0.5799 -1.1575
  510MPD2    C2 7629   3.417   2.466  14.534 -0.0951 -0.7808  0.3025
  510MPD2    C3 7630   3.476   2.551  14.445  0.7270  0.7805 -0.7014
  510MPD2    C4 7631   3.406   2.649  14.381 -0.5148 -0.3022  0.6090
  510MPD2    C5 7632   3.283   2.675  14.430 -0.0628  0.2976  0.0344
  510MPD2     H 7633   3.479   2.385  14.569 -0.9393 -1.1457  0.9405
  510MPD2    H1 7634   3.447   2.722  14.312  0.6756 -0.3575  1.2552
  510MPD2    H2 7635   3.111   2.616  14.545 -0.9614 -2.1284 -2.2770
  510MPD2    H3 7636   3.231   2.753  14.376 -3.4697 -2.1017 -0.1415
  510MPD2     N 7637   3.610   2.524  14.419 -0.4159  0.1892 -0.6590
  510MPD2    H5 7638   3.667   2.483  14.493 -1.6095 -1.1888 -0.4956
  510MPD2    N1 7639   3.227   2.407  14.674 -0.4338 -0.3778 -0.4112
  510MPD2    H7 7640   3.273   2.318  14.689  1.1195  0.6102  0.7574
  511TMC3    C1 7641   3.063   2.310  14.812  0.5133  0.3175  0.2916
  511TMC3    C2 7642   3.017   2.317  14.940 -0.6459 -0.0309 -0.7830
  511TMC3    C3 7643   2.951   2.214  14.990  0.3023  0.1009  0.3771
  511TMC3    C4 7644   3.057   2.205  14.728 -0.3948 -0.8127 -0.2304
  511TMC3    C5 7645   2.984   2.099  14.786  0.0068  0.3520  0.1874
  511TMC3    C6 7646   2.936   2.101  14.910  0.0899 -0.0677  0.5304
  511TMC3     C 7647   3.111   2.427  14.751 -0.3024 -0.9593 -0.1655
  511TMC3     O 7648   3.054   2.528  14.788 -0.1514 -0.0959 -1.1587
  511TMC3     H 7649   3.032   2.411  14.992 -1.3232  1.0611 -2.5434
  511TMC3    H1 7650   3.094   2.195  14.627  0.6979  0.0946  0.0919
  511TMC3    H2 7651   2.899   2.007  14.948 -1.7330  0.5388  0.2311
  511TMC3    C7 7652   3.011   1.974  14.717 -0.1569 -0.4626  0.2839
  511TMC3    C8 7653   2.873   2.254  15.104  0.5451  0.2996 -0.4108
  511TMC3    O1 7654   3.101   1.983  14.634 -0.4283 -0.0406  0.0036
  511TMC3    O2 7655   2.868   2.373  15.136  0.1681 -0.1715  0.3923
  512TMC3    C1 7656   1.979   1.791  13.055  0.7778  0.4361 -0.4086
  512TMC3    C2 7657   2.116   1.779  13.059 -0.0139  0.4086 -0.7207
  512TMC3    C3 7658   2.164   1.665  13.003  0.1174  0.0292  0.6047
  512TMC3    C4 7659   1.901   1.689  13.008 -0.0195  0.1460  0.0561
  512TMC3    C5 7660   1.959   1.588  12.949 -0.5250  0.0692  1.1425
  512TMC3    C6 7661   2.091   1.565  12.943 -0.2393  0.0234 -0.1412
  512TMC3     C 7662   1.921   1.913  13.131  0.6864  0.2284  0.4956
  512TMC3     O 7663   2.002   1.983  13.188 -0.4750 -0.2984  0.1120
  512TMC3     H 7664   2.179   1.867  13.065 -0.9826  0.9823  1.1244
  512TMC3    H1 7665   1.793   1.681  13.015  0.1503 -1.4963  0.6610
  512TMC3    H2 7666   2.131   1.471  12.907  0.0701  0.3909 -0.7546
  512TMC3    C7 7667   1.877   1.474  12.898  0.1553 -0.0379 -0.1250
  512TMC3    C8 7668   2.306   1.633  12.990  0.1303 -0.1518 -0.1975
  512TMC3    O1 7669   1.756   1.498  12.874 -0.6193 -0.0290  0.6428
  512TMC3    O2 7670   2.337   1.560  12.897  0.4348 -0.3950  0.1039
  513MPD2     C 7671   3.669   1.650  13.168  0.2969 -0.0110 -0.0723
  513MPD2    C1 7672   3.710   1.518  13.144 -0.5778  0.4496  1.1000
  513MPD2    C2 7673   3.788   1.450  13.237  0.2187  0.0582  0.5614
  513MPD2    C3 7674   3.818   1.517  13.358  0.6377  0.4631  0.5250
  513MPD2    C4 7675   3.770   1.644  13.381 -0.2615  0.7202 -0.6681
  513MPD2    C5 7676   3.698   1.706  13.285 -0.1178  0.3850 -0.3777
  513MPD2     H 7677   3.818   1.347  13.220 -0.4244  0.0441 -0.5069
  513MPD2    H1 7678   3.785   1.692  13.477 -3.2854  0.7245 -0.1818
  513MPD2    H2 7679   3.624   1.709  13.089 -0.7000 -0.5370  0.1126
  513MPD2    H3 7680   3.656   1.805  13.301 -0.6639  0.0209  0.4352
  513MPD2     N 7681   3.890   1.442  13.456  0.0333 -0.0911  0.1924
  513MPD2    H5 7682   3.921   1.350  13.426 -0.5039 -0.2705  0.1879
  513MPD2    N1 7683   3.686   1.476  13.011 -0.5216 -0.0954  0.1570
  513MPD2    H7 7684   3.654   1.554  12.954  0.6406  1.0131  1.0211
  514TMC3    C1 7685   3.722   1.332  12.820 -0.0702  0.0929 -0.2746
  514TMC3    C2 7686   3.754   1.439  12.741  1.0854  0.2441 -0.0035
  514TMC3    C3 7687   3.834   1.417  12.628  0.0742  0.1000 -0.6203
  514TMC3    C4 7688   3.764   1.212  12.772 -0.0223 -0.6724  0.3419
  514TMC3    C5 7689   3.847   1.194  12.664  0.0479 -1.1540 -0.6516
  514TMC3    C6 7690   3.890   1.295  12.595  0.6960  0.3612  0.2954
  514TMC3     C 7691   3.715   1.345  12.962  0.7085 -0.3049  0.0498
  514TMC3     O 7692   3.749   1.245  13.024 -0.1640 -0.0919  0.0056
  514TMC3     H 7693   3.724   1.541  12.763 -0.2020 -0.7641  2.9000
  514TMC3    H1 7694   3.715   1.134  12.830  0.8961 -2.8433 -1.7903
  514TMC3    H2 7695   3.962   1.281  12.515  1.3870 -0.6492  1.1103
  514TMC3    C7 7696   3.959   1.113  12.711 -0.1940 -0.0030 -0.3693
  514TMC3    C8 7697   3.814   1.519  12.524 -0.2727 -0.4791 -0.6952
  514TMC3    O1 7698   4.048   1.081  12.633 -0.4148  0.1031 -0.0857
  514TMC3    O2 7699   3.747   1.617  12.545 -0.3357 -0.0736  0.0174
  515MPD2     C 7700   1.954   4.103  14.782  0.0752 -0.8887 -0.1435
  515MPD2    C1 7701   2.062   4.007  14.778  0.0339 -0.3845  0.6363
  515MPD2    C2 7702   2.152   4.000  14.883  0.8914  0.6648  0.7178
  515MPD2    C3 7703   2.128   4.078  14.990  0.6834  0.1996 -0.5295
  515MPD2    C4 7704   2.025   4.169  14.992 -0.3123  0.9376 -0.6184
  515MPD2    C5 7705   1.948   4.185  14.883  0.5675  0.8474  0.2130
  515MPD2     H 7706   2.227   3.925  14.904 -0.2039 -0.4459  0.6607
  515MPD2    H1 7707   2.008   4.227  15.082  1.4394  0.2933  0.1096
  515MPD2    H2 7708   1.870   4.096  14.713 -0.8699  2.3754  0.6756
  515MPD2    H3 7709   1.868   4.258  14.886  0.0009  0.3044 -1.2123
  515MPD2     N 7710   2.226   4.087  15.096 -0.4462  0.3150 -0.9769
  515MPD2    H5 7711   2.197   4.137  15.179 -0.2244 -1.2387  0.0491
  515MPD2    N1 7712   2.070   3.903  14.682  0.2076  0.3549  0.3256
  515MPD2    H7 7713   2.126   3.821  14.700 -0.8462 -0.1786  1.1618
  516TMC3    C1 7714   1.955   3.764  14.528  0.2862  0.2741  0.7219
  516TMC3    C2 7715   1.900   3.738  14.404  0.3138 -0.4231  0.5049
  516TMC3    C3 7716   1.855   3.615  14.375  0.5433 -0.6016  0.0714
  516TMC3    C4 7717   1.958   3.674  14.626  0.4669  0.5397 -1.0750
  516TMC3    C5 7718   1.910   3.551  14.598  0.1434 -0.5018 -0.1144
  516TMC3    C6 7719   1.864   3.513  14.471 -0.1596 -0.0710  0.5015
  516TMC3     C 7720   1.991   3.897  14.571 -0.0152 -0.2051  0.4401
  516TMC3     O 7721   1.937   3.995  14.518  0.1745  0.4059 -0.1570
  516TMC3     H 7722   1.892   3.816  14.328 -1.7780 -0.5148  0.6383
  516TMC3    H1 7723   1.974   3.692  14.732 -1.0899  2.0264 -1.1062
  516TMC3    H2 7724   1.837   3.413  14.442 -1.3882  0.3343  0.2572
  516TMC3    C7 7725   1.921   3.443  14.698  0.2619 -0.1834 -0.4713
  516TMC3    C8 7726   1.774   3.590  14.256 -0.5058 -0.0684  0.3685
  516TMC3    O1 7727   2.023   3.433  14.768 -0.0737 -0.1593 -0.0558
  516TMC3    O2 7728   1.709   3.486  14.255 -0.1480 -0.6872  0.5009
  517MPD2     C 7729   1.957   4.600   0.225  0.3215  0.0383  0.3731
  517MPD2    C1 7730   2.094   4.573   0.222  0.0002 -0.3088  0.4573
  517MPD2    C2 7731   2.182   4.673   0.264  0.7044 -0.0040 -0.4890
  517MPD2    C3 7732   2.131   0.062   0.306 -0.4283  0.3616  0.1767
  517MPD2    C4 7733   1.996   0.078   0.327  0.4405  0.2787 -0.4033
  517MPD2    C5 7734   1.912   4.714   0.284 -0.1189  0.0126 -0.5768
  517MPD2     H 7735   2.290   4.659   0.257  0.9915  2.3081 -0.7121
  517MPD2    H1 7736   1.949   0.168   0.364  1.5226  0.8548 -0.4097
  517MPD2    H2 7737   1.877   4.534   0.194 -0.3642  1.7623 -1.4656
  517MPD2    H3 7738   1.806   4.725   0.301  0.1328 -2.5210  2.7212
  517MPD2     N 7739   2.213   0.173   0.331 -0.4609  0.0206  0.5651
  517MPD2    H5 7740   2.169   0.256   0.370  0.4344  0.7298  0.0708
  517MPD2    N1 7741   2.147   4.452   0.168 -0.5143  0.4424 -0.4720
  517MPD2    H7 7742   2.248   4.446   0.161 -0.6356  0.2929 -2.0690
  518TMC3    C1 7743   2.153   4.242   0.058  0.1497 -0.1849 -0.5309
  518TMC3    C2 7744   2.115   4.117   0.075 -0.3353  0.2217  0.7170
  518TMC3    C3 7745   2.168   4.031  17.719  0.1688  0.0752  0.4998
  518TMC3    C4 7746   2.243   4.284  17.697  0.3287 -0.3720  0.0424
  518TMC3    C5 7747   2.295   4.195  17.606  0.5483 -1.1318  0.6492
  518TMC3    C6 7748   2.256   4.059  17.613  0.1798 -0.0656  0.1185
  518TMC3     C 7749   2.073   4.346   0.124 -1.0180 -0.4192 -0.3194
  518TMC3     O 7750   1.954   4.323   0.128  0.1638  0.0389  0.6104
  518TMC3     H 7751   2.038   4.096   0.148 -0.0446  0.9362  1.2270
  518TMC3    H1 7752   2.250   4.390  17.673  1.9467 -0.5852 -0.4074
  518TMC3    H2 7753   2.289   3.986  17.540 -0.9883 -0.5133  0.0333
  518TMC3    C7 7754   2.384   4.240  17.505  0.0746 -0.6420  0.4217
  518TMC3    C8 7755   2.127   3.888  17.715 -0.3306 -0.1378  0.5819
  518TMC3    O1 7756   2.374   4.357  17.468  0.2138  0.2627 -0.5560
  518TMC3    O2 7757   2.182   3.816  17.632 -0.6803  0.2300  0.1252
  519MPD2     C 7758   3.849   3.170  14.168 -0.1534  0.3595  1.0156
  519MPD2    C1 7759   3.849   3.216  14.041  0.3333  0.6143  0.0404
  519MPD2    C2 7760   3.966   3.192  13.971 -0.3286 -0.4476  0.1100
  519MPD2    C3 7761   4.082   3.139  14.021 -1.0314 -0.4561  0.1011
  519MPD2    C4 7762   4.082   3.103  14.154  0.6037 -0.0746 -0.6772
  519MPD2    C5 7763   3.967   3.119  14.228 -0.0753 -0.3309  0.2445
  519MPD2     H 7764   3.962   3.196  13.862 -2.3030 -0.5342  0.1842
  519MPD2    H1 7765   4.169   3.056  14.198 -0.3235 -0.3364  0.8422
  519MPD2    H2 7766   3.760   3.175  14.229 -0.7179  1.4478  0.1028
  519MPD2    H3 7767   3.971   3.086  14.331  2.1346 -1.2846 -0.1455
  519MPD2     N 7768   4.193   3.100  13.943  0.2874 -0.2974  0.2072
  519MPD2    H5 7769   4.239   3.014  13.971 -0.2225 -0.5157  0.3773
  519MPD2    N1 7770   3.737   3.256  13.962 -0.3061 -0.4557 -0.1357
  519MPD2    H7 7771   3.754   3.266  13.862 -0.5937  1.0609 -0.0339
  520TMC3    C1 7772   4.284   3.077  13.726 -0.1468  0.0129 -0.0292
  520TMC3    C2 7773   4.220   3.101  13.607  0.3574 -0.3578  0.1164
  520TMC3    C3 7774   4.142   2.998  13.555 -0.5318  0.0213  0.8289
  520TMC3    C4 7775   4.303   2.956  13.784  0.1471  0.1942 -0.1089
  520TMC3    C5 7776   4.237   2.853  13.717 -0.0978  0.0139 -0.2042
  520TMC3    C6 7777   4.143   2.876  13.621 -0.1073 -0.2999 -0.6766
  520TMC3     C 7778   4.219   3.166  13.822 -0.1727  0.3471  0.1872
  520TMC3     O 7779   4.167   3.264  13.775  0.1263  0.0819  0.6949
  520TMC3     H 7780   4.211   3.199  13.562  1.9364  0.1711  1.0085
  520TMC3    H1 7781   4.386   2.941  13.851 -0.8404 -0.6434  0.9330
  520TMC3    H2 7782   4.087   2.798  13.572 -0.3233 -0.8162  0.3889
  520TMC3    C7 7783   4.296   2.721  13.733  0.4802  0.0380  0.3764
  520TMC3    C8 7784   4.024   3.022  13.476 -0.2544  0.2637  0.4885
  520TMC3    O1 7785   4.356   2.699  13.836  0.2200 -0.6286  0.2852
  520TMC3    O2 7786   3.929   2.950  13.487 -0.1346  0.4215  0.7485
  521MPD2     C 7787   4.469   1.172  17.705 -0.1178  0.9000 -0.0613
  521MPD2    C1 7788   4.396   1.158  17.587  0.7257 -0.3560  0.4087
  521MPD2    C2 7789   4.466   1.109  17.480  0.5037  0.0096  0.7706
  521MPD2    C3 7790   4.601   1.091  17.477  0.5660  0.3937  1.3554
  521MPD2    C4 7791   4.676   1.119  17.594  0.2349  0.0651  0.5383
  521MPD2    C5 7792   4.602   1.163  17.704  0.7668 -0.3727  0.1848
  521MPD2     H 7793   4.406   1.086  17.393  3.2193  0.0738 -1.1227
  521MPD2    H1 7794   0.049   1.117  17.612  0.0927 -0.2589  1.3423
  521MPD2    H2 7795   4.419   1.186   0.064  0.0791  1.3098 -0.0196
  521MPD2    H3 7796   4.653   1.180   0.062 -0.1659 -0.8220  0.7758
  521MPD2     N 7797   4.655   1.048  17.357  0.4016  0.5176  0.2224
  521MPD2    H5 7798   4.591   1.036  17.279  1.3781 -1.8577 -0.2041
  521MPD2    N1 7799   4.260   1.184  17.588 -0.1042 -0.4908 -0.1033
  521MPD2    H7 7800   4.226   1.240  17.666  0.5911  0.5872 -0.5821
  522TMC3    C1 7801   0.069   0.954  17.214 -0.1014 -0.6674 -0.1663
  522TMC3    C2 7802   0.160   0.854  17.227  0.4016  0.2575  0.1342
  522TMC3    C3 7803   0.176   0.773  17.118  0.7862  0.4025  0.1564
  522TMC3    C4 7804   0.004   0.971  17.100  0.6600  0.3508 -0.1366
  522TMC3    C5 7805   0.023   0.884  16.993  0.2242 -0.5268  0.5152
  522TMC3    C6 7806   0.110   0.779  17.003  0.6617 -0.3705 -0.5986
  522TMC3     C 7807   0.055   1.038  17.323  0.1225  0.5393  0.2434
  522TMC3     O 7808   0.152   1.085  17.382 -0.6429  0.2110 -0.2311
  522TMC3     H 7809   0.227   0.841  17.310  0.4360  1.5479  0.3067
  522TMC3    H1 7810   4.682   1.062  17.084 -1.3868 -0.9472 -0.3682
  522TMC3    H2 7811   0.118   0.709  16.921  0.5280 -0.4680 -0.5283
  522TMC3    C7 7812   0.008   0.939  16.860  0.1951 -0.0073 -0.4445
  522TMC3    C8 7813   0.299   0.697  17.106  0.2282  0.5414  0.2001
  522TMC3    O1 7814   0.085   0.893  16.772  0.4101  0.5396 -0.2943
  522TMC3    O2 7815   0.361   0.675  17.211 -0.1026  0.8023 -0.0690
  523MPD2     C 7816   2.427   1.921  10.326  0.7146  0.1252  0.4657
  523MPD2    C1 7817   2.404   1.854  10.212  0.2249  0.3246  0.3987
  523MPD2    C2 7818   2.316   1.905  10.116  0.1329  0.3855  0.0520
  523MPD2    C3 7819   2.262   2.034  10.138 -0.0826 -0.5567  0.1285
  523MPD2    C4 7820   2.292   2.104  10.252 -0.4042  0.0390 -0.0918
  523MPD2    C5 7821   2.363   2.041  10.350  0.5642  0.1657 -0.4487
  523MPD2     H 7822   2.298   1.866  10.017  0.4375 -1.5687  0.7742
  523MPD2    H1 7823   2.267   2.205  10.282  1.8481  0.6945 -0.4386
  523MPD2    H2 7824   2.479   1.879  10.411  3.6301 -0.0364 -1.4136
  523MPD2    H3 7825   2.377   2.100  10.440 -1.4421  0.8075 -0.5569
  523MPD2     N 7826   2.185   2.112  10.051  0.1363  0.1769  0.1054
  523MPD2    H5 7827   2.161   2.205  10.083 -1.9771 -0.0044 -0.9464
  523MPD2    N1 7828   2.446   1.716  10.214 -0.3186 -0.8195 -0.0031
  523MPD2    H7 7829   2.503   1.689  10.294 -0.1164 -0.5548 -0.0580
  524TMC3    C1 7830   2.060   2.165   9.865 -0.5247 -0.0475  0.6374
  524TMC3    C2 7831   1.950   2.123   9.795 -0.1160  0.0783  0.1352
  524TMC3    C3 7832   1.860   2.216   9.765 -0.3294  0.5734 -0.0216
  524TMC3    C4 7833   2.092   2.300   9.884 -0.2187  0.0209 -0.3803
  524TMC3    C5 7834   2.002   2.389   9.834  0.2268 -0.1486  0.4607
  524TMC3    C6 7835   1.884   2.349   9.766  0.1589 -0.2748 -0.1757
  524TMC3     C 7836   2.131   2.063   9.940 -0.0387 -0.3515  0.3890
  524TMC3     O 7837   2.148   1.958   9.877  0.5431  0.2257  0.2117
  524TMC3     H 7838   1.930   2.016   9.795  1.9906 -0.3056 -2.4985
  524TMC3    H1 7839   2.184   2.331   9.932 -0.3389  1.5598 -1.1559
  524TMC3    H2 7840   1.812   2.421   9.728  1.9416  1.9053  0.5488
  524TMC3    C7 7841   2.026   2.526   9.867 -0.1364  0.2472  0.8631
  524TMC3    C8 7842   1.737   2.177   9.701  0.5763  0.0817 -0.2042
  524TMC3    O1 7843   2.133   2.550   9.924 -0.0292  0.0160  0.0000
  524TMC3    O2 7844   1.649   2.262   9.691  0.0073  0.0465 -0.1126
  525MPD2     C 7845   0.285   2.275  14.085 -0.1149 -0.1557 -0.5088
  525MPD2    C1 7846   0.283   2.335  14.210 -0.0504 -0.3672 -0.0487
  525MPD2    C2 7847   0.205   2.445  14.217 -0.4513 -0.5479  0.3909
  525MPD2    C3 7848   0.143   2.502  14.110 -0.3772 -0.2658 -0.0792
  525MPD2    C4 7849   0.142   2.435  13.988  0.9249 -0.3095 -0.0371
  525MPD2    C5 7850   0.214   2.325  13.981  0.5855  0.4707  0.0404
  525MPD2     H 7851   0.193   2.499  14.310  1.0627  2.4387 -1.1427
  525MPD2    H1 7852   0.087   2.469  13.902 -0.0347 -2.0660 -0.1270
  525MPD2    H2 7853   0.342   2.187  14.060  2.3683  1.6836 -1.3340
  525MPD2    H3 7854   0.215   2.271  13.887 -1.9056 -1.2808  1.0449
  525MPD2     N 7855   0.065   2.619  14.113  0.1181 -0.0933  0.3656
  525MPD2    H5 7856   0.007   2.637  14.031  0.9558  2.2755  0.3019
  525MPD2    N1 7857   0.347   2.285  14.324  0.0753  0.0977 -0.6791
  525MPD2    H7 7858   0.324   2.323  14.416  0.0653  0.7690 -0.9570
  526TMC3    C1 7859   0.483   2.136  14.453  0.0309  0.1570  0.3616
  526TMC3    C2 7860   0.406   2.148  14.564 -0.5496 -0.4321  0.3804
  526TMC3    C3 7861   0.464   2.110  14.681  0.3926 -0.5017 -0.7314
  526TMC3    C4 7862   0.617   2.107  14.462  0.0574 -0.1863 -0.2163
  526TMC3    C5 7863   0.667   2.076  14.584 -0.4005 -1.2447 -0.6715
  526TMC3    C6 7864   0.590   2.079  14.698 -0.8499 -0.3247  0.0780
  526TMC3     C 7865   0.438   2.181  14.324  0.1278  0.0365 -0.1711
  526TMC3     O 7866   0.500   2.136  14.228  0.8057 -0.2731 -0.1262
  526TMC3     H 7867   0.303   2.181  14.568 -0.2278  0.7160 -0.7820
  526TMC3    H1 7868   0.673   2.096  14.370 -0.5427 -1.8706 -0.3802
  526TMC3    H2 7869   0.639   2.056  14.792 -1.6877 -1.8365  0.1343
  526TMC3    C7 7870   0.813   2.070  14.587  0.3027 -0.0067  0.2199
  526TMC3    C8 7871   0.407   2.163  14.801  0.0785  0.0411 -0.2042
  526TMC3    O1 7872   0.857   2.132  14.487  0.7581  0.1669  0.5763
  526TMC3    O2 7873   0.492   2.189  14.888  0.9968 -0.4822  0.0751
  527MPD2     C 7874   2.423   0.333   0.730 -0.2129  0.1190  0.3074
  527MPD2    C1 7875   2.469   0.455   0.773  0.6485  0.4614  0.4369
  527MPD2    C2 7876   2.605   0.462   0.804  0.5935  0.7375  0.9266
  527MPD2    C3 7877   2.693   0.347   0.803 -0.0788  0.3150 -0.0841
  527MPD2    C4 7878   2.635   0.226   0.767 -0.0660  0.6830  0.4204
  527MPD2    C5 7879   2.513   0.228   0.711 -0.2425 -0.2654  0.1758
  527MPD2     H 7880   2.644   0.554   0.846  0.0238  0.8399  1.2399
  527MPD2    H1 7881   2.683   0.129   0.759 -0.2725  0.6752 -0.6907
  527MPD2    H2 7882   2.323   0.320   0.691 -0.5903  0.2516  1.2355
  527MPD2    H3 7883   2.482   0.139   0.657 -1.5530 -1.3416  2.6877
  527MPD2     N 7884   2.826   0.357   0.852  0.2749 -0.4141  0.5540
  527MPD2    H5 7885   2.865   0.446   0.880  0.7594 -0.7186  0.8578
  527MPD2    N1 7886   2.389   0.565   0.786 -0.0613 -0.5558  0.4154
  527MPD2    H7 7887   2.437   0.654   0.795  0.2331 -0.7324  0.5875
  528TMC3    C1 7888   2.200   0.702   0.799  0.6831 -0.0775  0.9126
  528TMC3    C2 7889   2.278   0.809   0.834 -0.2033  0.2957 -0.6430
  528TMC3    C3 7890   2.225   0.930   0.855 -0.1332  0.1520 -0.1400
  528TMC3    C4 7891   2.069   0.723   0.766  0.1566 -0.5077  0.7676
  528TMC3    C5 7892   2.012   0.842   0.801  0.1063  0.3840 -0.4238
  528TMC3    C6 7893   2.089   0.946   0.848  0.0302  0.5615  0.1208
  528TMC3     C 7894   2.263   0.577   0.746 -0.1179 -0.3625  0.2717
  528TMC3     O 7895   2.188   0.498   0.686  0.0068 -0.4028 -0.4986
  528TMC3     H 7896   2.386   0.800   0.839 -0.3652 -1.5885 -0.6101
  528TMC3    H1 7897   2.011   0.637   0.736 -1.3851  0.7733  0.1216
  528TMC3    H2 7898   2.038   1.040   0.867 -1.0130  0.1258 -0.5097
  528TMC3    C7 7899   1.867   0.862   0.794  0.8420  0.6341 -0.0207
  528TMC3    C8 7900   2.312   1.026   0.922 -0.4694 -0.0521  0.4464
  528TMC3    O1 7901   1.825   0.951   0.860 -0.2146 -0.3726 -0.3015
  528TMC3    O2 7902   2.431   1.018   0.900  0.8036 -0.0581 -0.0232
  529MPD2     C 7903   0.891   4.298   0.304  0.3461 -0.2897 -0.4056
  529MPD2    C1 7904   0.981   4.203   0.267 -0.0437  0.3459 -0.4970
  529MPD2    C2 7905   1.048   4.226   0.150  0.0977 -0.4521 -0.3649
  529MPD2    C3 7906   1.017   4.334   0.065  0.6149  0.0731  0.8419
  529MPD2    C4 7907   0.920   4.425   0.097 -0.4435 -0.6488 -0.4004
  529MPD2    C5 7908   0.863   4.407   0.225  0.4748  0.5169 -0.1310
  529MPD2     H 7909   1.128   4.154   0.141  1.4164  0.8361  0.8237
  529MPD2    H1 7910   0.901   4.511   0.034  3.0142 -0.4611 -1.1613
  529MPD2    H2 7911   0.833   4.289   0.395  0.9671  2.1209  0.2400
  529MPD2    H3 7912   0.787   4.476   0.261 -0.7654 -1.8231  1.6845
  529MPD2     N 7913   1.081   4.353  17.681  0.6207 -0.4336  0.6054
  529MPD2    H5 7914   1.055   4.431  17.622 -1.2565 -1.9535 -0.5345
  529MPD2    N1 7915   1.003   4.087   0.335  0.0773  0.6000 -0.2358
  529MPD2    H7 7916   1.071   4.025   0.292 -0.2505  0.2919 -0.3026
  530TMC3    C1 7917   1.043   3.951   0.512  0.7357 -0.6503 -0.0639
  530TMC3    C2 7918   1.117   3.968   0.620 -0.0383  0.2077 -0.0151
  530TMC3    C3 7919   1.191   3.864   0.665 -0.0865 -0.4510 -0.3799
  530TMC3    C4 7920   1.036   3.829   0.451  0.5918 -0.5375 -0.3813
  530TMC3    C5 7921   1.109   3.723   0.497  0.1570 -0.2236 -0.4450
  530TMC3    C6 7922   1.195   3.750   0.600  0.5949  0.0885  0.4214
  530TMC3     C 7923   0.977   4.071   0.465 -0.3489 -0.6702 -0.0386
  530TMC3     O 7924   0.914   4.135   0.546  0.0208  0.6710  0.0880
  530TMC3     H 7925   1.114   4.063   0.672  0.5599  0.4074 -0.3551
  530TMC3    H1 7926   0.977   3.807   0.363 -0.4949  2.3786 -0.3809
  530TMC3    H2 7927   1.261   3.668   0.626  2.0920  1.4324  0.8236
  530TMC3    C7 7928   1.052   3.596   0.505  0.0892  0.2905 -0.0608
  530TMC3    C8 7929   1.207   3.865   0.806 -0.3565 -0.2542 -0.7198
  530TMC3    O1 7930   0.989   3.551   0.409  0.0097  0.1317  0.2844
  530TMC3    O2 7931   1.155   3.956   0.871 -0.4269  0.2140 -0.5625
  531MPD2     C 7932   4.283   0.987  13.084  0.1242  0.2527  0.3671
  531MPD2    C1 7933   4.179   1.058  13.137 -0.5780  0.0531 -0.7018
  531MPD2    C2 7934   4.075   1.094  13.049 -0.2741  0.7177 -0.3529
  531MPD2    C3 7935   4.076   1.056  12.916 -0.6976 -0.1096  0.1931
  531MPD2    C4 7936   4.178   0.982  12.869  0.7039 -0.4147 -0.6919
  531MPD2    C5 7937   4.279   0.949  12.952  0.0691  0.6906  0.4027
  531MPD2     H 7938   3.991   1.148  13.090 -1.0890  0.7454 -2.0821
  531MPD2    H1 7939   4.180   0.937  12.771  1.1101 -0.3468 -0.7131
  531MPD2    H2 7940   4.368   0.949  13.139 -2.1123 -0.3750  3.3511
  531MPD2    H3 7941   4.362   0.885  12.924  1.0156  1.3651  1.7058
  531MPD2     N 7942   3.970   1.112  12.846  0.7068 -0.0922  0.5208
  531MPD2    H5 7943   3.897   1.157  12.899  0.7980 -0.1043  0.6558
  531MPD2    N1 7944   4.180   1.091  13.273  0.0179  0.5265 -0.5623
  531MPD2    H7 7945   4.264   1.063  13.322 -0.7591  2.1302  1.6747
  532TMC3    C1 7946   4.107   1.201  13.478 -0.0602  0.0969 -0.1794
  532TMC3    C2 7947   4.007   1.260  13.552 -0.2583 -0.3166  0.4642
  532TMC3    C3 7948   4.024   1.375  13.626 -0.3809 -0.6471  0.0613
  532TMC3    C4 7949   4.236   1.239  13.503 -0.2968  0.2310 -0.1089
  532TMC3    C5 7950   4.254   1.336  13.596 -0.2119  0.3056 -0.1508
  532TMC3    C6 7951   4.154   1.411  13.651  0.4428 -0.0709 -0.1147
  532TMC3     C 7952   4.075   1.152  13.345  0.3018 -0.3500  0.3230
  532TMC3     O 7953   3.960   1.161  13.304 -0.3786 -0.3137  0.4173
  532TMC3     H 7954   3.906   1.222  13.550 -1.1887  2.1862 -0.0190
  532TMC3    H1 7955   4.316   1.200  13.441  0.1974  0.3776  0.4292
  532TMC3    H2 7956   4.177   1.502  13.706 -0.1113  0.2705 -0.4421
  532TMC3    C7 7957   4.373   1.322  13.683 -0.4197  0.1236  0.7306
  532TMC3    C8 7958   3.942   1.481  13.580  0.9966 -0.0644 -0.1156
  532TMC3    O1 7959   4.383   1.393  13.784  0.5489  0.2446 -0.0637
  532TMC3    O2 7960   3.942   1.591  13.635 -0.1563 -0.2460  0.5676
  533TMC3    C1 7961   0.047   2.844  14.172 -0.0898  0.4612  0.2152
  533TMC3    C2 7962   0.170   2.904  14.192 -0.4209 -0.3608  0.3561
  533TMC3    C3 7963   0.174   3.028  14.250 -0.1710 -0.2451 -0.6910
  533TMC3    C4 7964   4.663   2.904  14.221 -0.3810 -0.4256  0.4130
  533TMC3    C5 7965   4.674   3.025  14.282 -0.4015 -0.0645  0.2494
  533TMC3    C6 7966   0.059   3.089  14.297 -0.0052 -0.3620  0.2887
  533TMC3     C 7967   0.073   2.710  14.218 -0.1031 -0.1520 -0.5098
  533TMC3     O 7968   0.134   2.707  14.326 -0.0760 -0.2306  0.1920
  533TMC3     H 7969   0.259   2.855  14.155 -1.4554 -1.6022 -0.5087
  533TMC3    H1 7970   4.571   2.850  14.235 -1.5389  0.7211 -2.6642
  533TMC3    H2 7971   0.061   3.194  14.322 -3.7372  0.2084 -1.7036
  533TMC3    C7 7972   4.553   3.098  14.320 -0.0565  0.0009  0.2683
  533TMC3    C8 7973   0.299   3.058  14.317 -0.1047  0.2185  0.1913
  533TMC3    O1 7974   4.460   3.082  14.236  0.6877 -0.0990 -0.2769
  533TMC3    O2 7975   0.376   2.966  14.345  0.2361  0.4759  0.6179
  534MPD2     C 7976   3.405   4.239   1.347  0.1810 -0.6371  0.3751
  534MPD2    C1 7977   3.292   4.325   1.335  0.3429  0.0568 -0.1371
  534MPD2    C2 7978   3.188   4.284   1.257 -0.0567 -0.3516  0.1639
  534MPD2    C3 7979   3.195   4.162   1.189  0.1985 -0.5908 -0.1891
  534MPD2    C4 7980   3.302   4.076   1.201 -0.4597 -0.5776  0.0056
  534MPD2    C5 7981   3.408   4.115   1.289 -0.1598 -0.5560 -0.3379
  534MPD2     H 7982   3.103   4.350   1.245  0.0224 -0.0502  1.3085
  534MPD2    H1 7983   3.313   3.981   1.151 -2.4477 -0.1917 -1.1942
  534MPD2    H2 7984   3.479   4.263   1.422 -0.0592 -1.8301  0.9884
  534MPD2    H3 7985   3.488   4.050   1.322  0.9549 -0.3222 -2.6293
  534MPD2     N 7986   3.082   4.136   1.112  0.4502 -0.1808 -0.5125
  534MPD2    H5 7987   3.009   4.204   1.131  1.1491  0.5411 -0.4270
  534MPD2    N1 7988   3.287   4.460   1.392 -0.0888 -0.0385 -0.0118
  534MPD2    H7 7989   3.209   4.522   1.373 -0.0267  0.0871  0.1375
  535TMC3    C1 7990   2.946   4.041   0.958  0.3076 -0.0640  0.3585
  535TMC3    C2 7991   2.842   4.051   1.046 -0.1715  0.5910 -0.1205
  535TMC3    C3 7992   2.718   4.055   0.993 -0.4681  0.1148  0.1197
  535TMC3    C4 7993   2.930   4.019   0.825  0.7553 -0.3184  0.2389
  535TMC3    C5 7994   2.799   4.011   0.775  0.1938 -0.1845 -0.4296
  535TMC3    C6 7995   2.690   4.030   0.858 -0.1221 -0.0462  0.1144
  535TMC3     C 7996   3.082   4.044   1.007  0.3024  0.3533  0.1586
  535TMC3     O 7997   3.173   3.985   0.954 -0.1079 -0.2385  0.3589
  535TMC3     H 7998   2.858   4.047   1.153 -0.3621  1.5336 -0.0558
  535TMC3    H1 7999   3.019   4.020   0.763  0.2738 -1.6419 -0.4731
  535TMC3    H2 8000   2.591   4.009   0.820 -0.1538 -0.9441  0.6853
  535TMC3    C7 8001   2.778   3.967   0.643 -1.5355  0.1599 -0.1107
  535TMC3    C8 8002   2.605   4.058   1.083  0.3163  0.3797  0.0462
  535TMC3    O1 8003   2.873   3.916   0.583  0.7592 -0.3136 -0.4282
  535TMC3    O2 8004   2.497   4.017   1.041  0.0295 -0.2763  0.2353
  536MPD2     C 8005   1.953   2.198  15.985 -0.1333 -0.0166 -0.0630
  536MPD2    C1 8006   1.825   2.147  16.002  0.3579 -0.0324 -0.2894
  536MPD2    C2 8007   1.730   2.179  15.905  0.4100 -0.3673 -0.1315
  536MPD2    C3 8008   1.764   2.278  15.807  0.6903 -0.0610  0.3889
  536MPD2    C4 8009   1.894   2.315  15.789 -0.1091  0.2798 -0.4910
  536MPD2    C5 8010   1.990   2.285  15.883  0.0888 -0.2599  0.1121
  536MPD2     H 8011   1.628   2.145  15.910  0.5894 -0.9797 -0.6493
  536MPD2    H1 8012   1.918   2.382  15.707  0.1077  1.1395  0.2874
  536MPD2    H2 8013   2.030   2.170  16.056 -2.7156 -2.1509  1.9092
  536MPD2    H3 8014   2.093   2.319  15.875  0.1158 -0.8624 -2.3067
  536MPD2     N 8015   1.671   2.338  15.715  0.0586  0.1686 -0.4541
  536MPD2    H5 8016   1.701   2.414  15.654  0.0936  0.1067 -0.5137
  536MPD2    N1 8017   1.802   2.074  16.121  0.4721  0.5195 -0.1845
  536MPD2    H7 8018   1.878   2.064  16.188 -0.6912  1.7439  1.3034
  537TMC3    C1 8019   1.701   1.921  16.265 -0.6813  0.1218  0.4530
  537TMC3    C2 8020   1.784   1.974  16.361 -0.0804  0.6969  0.4763
  537TMC3    C3 8021   1.792   1.910  16.482  0.2775  0.3199 -0.0740
  537TMC3    C4 8022   1.629   1.799  16.285 -0.0345  0.0801  0.3321
  537TMC3    C5 8023   1.654   1.735  16.407 -0.2197  0.1767 -0.0522
  537TMC3    C6 8024   1.739   1.786  16.505  0.9470  0.8035  0.1326
  537TMC3     C 8025   1.692   1.992  16.142 -0.0043  0.2721 -0.4260
  537TMC3     O 8026   1.606   1.951  16.062 -0.0881  0.0635  0.5240
  537TMC3     H 8027   1.827   2.074  16.359  1.1591  0.1723  0.5656
  537TMC3    H1 8028   1.562   1.759  16.210  0.7526  1.9969 -1.3808
  537TMC3    H2 8029   1.748   1.743  16.604 -1.1475 -0.5543 -0.2737
  537TMC3    C7 8030   1.556   1.640  16.450  0.2054  0.3170  0.2054
  537TMC3    C8 8031   1.856   1.982  16.596  0.0464  0.1723 -0.2297
  537TMC3    O1 8032   1.445   1.646  16.404 -0.3522 -0.2752  0.1147
  537TMC3    O2 8033   1.917   1.915  16.676 -0.2179  0.1445 -0.1285
  538TMC3    C1 8034   2.873   1.208  11.471 -0.3047  0.1867 -0.2200
  538TMC3    C2 8035   2.997   1.205  11.413  0.7661 -0.3852 -0.2062
  538TMC3    C3 8036   2.996   1.243  11.279  0.3040 -0.1106 -0.2120
  538TMC3    C4 8037   2.757   1.249  11.410 -0.0463 -0.2016 -0.4053
  538TMC3    C5 8038   2.762   1.281  11.278 -0.4477  0.1770  0.0172
  538TMC3    C6 8039   2.880   1.275  11.202 -0.1126 -0.2600  0.1418
  538TMC3     C 8040   2.863   1.207  11.617 -0.1829 -0.3780 -0.2178
  538TMC3     O 8041   2.774   1.265  11.672 -0.1036 -0.3501  0.0206
  538TMC3     H 8042   3.082   1.182  11.475 -0.6087 -2.9618  0.7003
  538TMC3    H1 8043   2.665   1.218  11.459 -0.5765  0.4770 -0.9679
  538TMC3    H2 8044   2.883   1.292  11.095 -1.9818 -2.9357 -0.3522
  538TMC3    C7 8045   2.651   1.369  11.231 -0.4923 -0.5776 -0.4724
  538TMC3    C8 8046   3.112   1.196  11.209 -0.2015  0.4523 -0.9335
  538TMC3    O1 8047   2.616   1.355  11.112  0.1524 -0.0404 -0.4835
  538TMC3    O2 8048   3.170   1.103  11.259  0.0702  0.3931  0.1000
  539MPD2     C 8049   2.313   0.710  11.864 -1.1346 -0.2469 -0.4219
  539MPD2    C1 8050   2.363   0.751  11.745  0.2153  0.3199  0.4202
  539MPD2    C2 8051   2.316   0.868  11.691 -0.5017 -0.4251 -0.1853
  539MPD2    C3 8052   2.234   0.955  11.764  0.4282  0.8340 -0.4771
  539MPD2    C4 8053   2.198   0.921  11.896 -0.5174  0.7600  0.1561
  539MPD2    C5 8054   2.248   0.805  11.942  0.5461 -0.1601 -0.8807
  539MPD2     H 8055   2.343   0.889  11.588  0.4644  1.1826  0.3961
  539MPD2    H1 8056   2.122   0.971  11.954  1.7730  0.6907  3.1698
  539MPD2    H2 8057   2.332   0.613  11.911 -0.2247  0.8247  1.4392
  539MPD2    H3 8058   2.237   0.774  12.045  0.3525 -0.2863 -0.9401
  539MPD2     N 8059   2.170   1.069  11.712 -0.1881  0.4270  0.2846
  539MPD2    H5 8060   2.096   1.103  11.772 -0.5829  1.4052 -0.7649
  539MPD2    N1 8061   2.442   0.671  11.669 -0.3819  0.2527 -0.7584
  539MPD2    H7 8062   2.451   0.687  11.569  1.0801  1.8304 -0.3726
  540TMC3    C1 8063   2.105   1.231  11.550 -0.5626  0.3842 -0.6156
  540TMC3    C2 8064   2.118   1.291  11.422 -0.3745  0.5273  0.0699
  540TMC3    C3 8065   2.053   1.405  11.388 -0.4442 -0.2855 -1.1311
  540TMC3    C4 8066   2.027   1.286  11.650 -0.2252 -0.4226 -0.1339
  540TMC3    C5 8067   1.948   1.387  11.606  0.1147 -0.0272  0.3511
  540TMC3    C6 8068   1.956   1.448  11.485 -0.3370  0.2789 -0.1880
  540TMC3     C 8069   2.186   1.118  11.582 -1.2989  0.8471 -0.6367
  540TMC3     O 8070   2.259   1.081  11.492  0.1445  0.4532  0.6058
  540TMC3     H 8071   2.199   1.264  11.356  1.2171 -1.1656  2.6885
  540TMC3    H1 8072   2.020   1.250  11.752 -0.2614  0.8438  0.3146
  540TMC3    H2 8073   1.878   1.521  11.466 -0.2672  0.0110 -1.4957
  540TMC3    C7 8074   1.843   1.426  11.691  0.7129 -0.8012 -0.4054
  540TMC3    C8 8075   1.997   1.414  11.255 -0.5400  0.0395 -0.5388
  540TMC3    O1 8076   1.793   1.538  11.683  0.0615 -0.3826 -0.2636
  540TMC3    O2 8077   1.939   1.518  11.227  0.2398  0.6290 -0.2953
  541MPD2     C 8078   1.155   1.407  12.979  0.1519 -0.2910  0.3955
  541MPD2    C1 8079   1.021   1.378  12.987 -0.8908  0.6686 -0.2298
  541MPD2    C2 8080   0.923   1.424  12.898 -0.0389 -0.4613 -0.4122
  541MPD2    C3 8081   0.967   1.516  12.805  0.2162  0.4234  0.3705
  541MPD2    C4 8082   1.096   1.554  12.793 -0.0265  0.7356  0.3612
  541MPD2    C5 8083   1.189   1.495  12.879 -0.5043 -0.3377  0.5515
  541MPD2     H 8084   0.823   1.389  12.921  0.4757 -0.0377  2.4852
  541MPD2    H1 8085   1.133   1.619  12.715  1.0679 -1.3096 -0.8335
  541MPD2    H2 8086   1.229   1.366  13.048  1.2213  0.3874 -0.3561
  541MPD2    H3 8087   1.293   1.523  12.870 -0.5602  0.5757  2.6870
  541MPD2     N 8088   0.885   1.572  12.703  0.1286  0.1197  0.1387
  541MPD2    H5 8089   0.933   1.596  12.616 -0.9955 -1.8879 -1.0513
  541MPD2    N1 8090   0.967   1.301  13.093 -0.5673 -0.3562  0.5364
  541MPD2    H7 8091   0.867   1.285  13.087 -0.6527 -0.2594  1.7112
  542TMC3    C1 8092   0.667   1.626  12.603 -0.6797  0.3062  0.0301
  542TMC3    C2 8093   0.722   1.639  12.479  0.1913 -0.3413 -0.5375
  542TMC3    C3 8094   0.653   1.700  12.379  0.9748 -0.0856  0.2632
  542TMC3    C4 8095   0.542   1.675  12.632 -0.2104  0.1838  0.1675
  542TMC3    C5 8096   0.479   1.748  12.534  0.3389  0.1764 -0.3548
  542TMC3    C6 8097   0.533   1.768  12.405 -0.1933  0.2243  0.3137
  542TMC3     C 8098   0.742   1.569  12.712 -0.7885  0.5485 -0.0323
  542TMC3     O 8099   0.676   1.546  12.814  0.3557 -0.4880  0.4139
  542TMC3     H 8100   0.818   1.591  12.459 -0.6688 -0.7858 -3.5536
  542TMC3    H1 8101   0.492   1.664  12.728 -2.6939 -3.0097 -1.4858
  542TMC3    H2 8102   0.483   1.836  12.336  0.6932 -1.1370 -1.6530
  542TMC3    C7 8103   0.371   1.831  12.582 -0.1325  0.0561 -0.1153
  542TMC3    C8 8104   0.702   1.708  12.247  0.1100  0.0135 -0.1421
  542TMC3    O1 8105   0.290   1.782  12.659 -0.0986  0.0272  0.0532
  542TMC3    O2 8106   0.634   1.784  12.178 -0.3772 -0.5185  0.1135
  543TMC3    C1 8107   0.742   3.073  17.263  0.0438 -0.6184 -0.0182
  543TMC3    C2 8108   0.644   2.996  17.314  0.4018 -0.2499  0.0143
  543TMC3    C3 8109   0.642   2.962  17.448  0.3948 -0.9522 -0.5771
  543TMC3    C4 8110   0.825   3.135  17.351 -0.5066 -0.0481  0.3246
  543TMC3    C5 8111   0.807   3.122  17.490  0.6352 -0.6763  0.4973
  543TMC3    C6 8112   0.720   3.026  17.541  0.3104 -0.1869  0.0609
  543TMC3     C 8113   0.734   3.125  17.127 -0.6414 -0.4443  0.0280
  543TMC3     O 8114   0.841   3.145  17.081  0.1963  0.1563  0.3364
  543TMC3     H 8115   0.567   2.956  17.250 -0.6204  0.4384  0.8155
  543TMC3    H1 8116   0.885   3.216  17.311  1.1956 -0.4865  2.0042
  543TMC3    H2 8117   0.725   2.998  17.646  0.1820  0.5365  0.2620
  543TMC3    C7 8118   0.779   3.243  17.573 -0.2839 -0.9125  0.1466
  543TMC3    C8 8119   0.547   2.854  17.490 -0.7584  0.3728  0.0289
  543TMC3    O1 8120   0.693   3.225  17.658  0.4933  0.3682 -0.4912
  543TMC3    O2 8121   0.460   2.840  17.409 -0.0312 -0.0675  0.0201
  544MPD2     C 8122   0.333   2.485   0.038 -0.0279 -0.0889  0.0480
  544MPD2    C1 8123   0.285   2.538  17.657  0.1802 -0.2112 -0.7121
  544MPD2    C2 8124   0.359   2.645  17.600  0.2079  0.2835 -0.1130
  544MPD2    C3 8125   0.480   2.688  17.658  0.4616  0.1513 -0.3239
  544MPD2    C4 8126   0.530   2.622   0.031 -0.1623 -0.4020 -0.6798
  544MPD2    C5 8127   0.453   2.521   0.088  0.2437  0.3863 -0.0320
  544MPD2     H 8128   0.332   2.686  17.503  1.7810 -0.8012 -1.0222
  544MPD2    H1 8129   0.623   2.655   0.076 -1.2923 -0.8399  2.0130
  544MPD2    H2 8130   0.278   2.399   0.076 -1.5766  0.1647 -1.6043
  544MPD2    H3 8131   0.499   2.467   0.170  0.5770  0.2341 -0.3216
  544MPD2     N 8132   0.560   2.788  17.613 -0.0863  0.0472 -0.5828
  544MPD2    H5 8133   0.650   2.792  17.661 -0.1597 -1.4135 -0.3068
  544MPD2    N1 8134   0.176   2.477  17.593  0.0074  0.7337 -0.0559
  544MPD2    H7 8135   0.141   2.394  17.640  3.6372 -1.0297 -0.4976
  545TMC3    C1 8136   0.010   2.439  17.439 -0.1820 -0.8218  0.0530
  545TMC3    C2 8137   4.694   2.484  17.318 -0.1172 -0.4753  0.6021
  545TMC3    C3 8138   4.674   2.393  17.219  0.5044 -0.4830  0.1060
  545TMC3    C4 8139   0.016   2.303  17.469  0.2003 -0.0944 -0.1270
  545TMC3    C5 8140   4.730   2.213  17.368  0.2955 -0.1532 -0.1330
  545TMC3    C6 8141   4.688   2.261  17.240  0.1027  0.8783  0.5016
  545TMC3     C 8142   0.102   2.533  17.493  0.9568  0.4686 -0.6389
  545TMC3     O 8143   0.105   2.653  17.467 -0.0036 -0.3628  0.0335
  545TMC3     H 8144   4.715   2.586  17.289 -2.8697 -0.3094 -0.8428
  545TMC3    H1 8145   0.025   2.272  17.572  1.8563  1.2685  0.1262
  545TMC3    H2 8146   4.668   2.191  17.159 -3.3367 -0.1870  2.2499
  545TMC3    C7 8147   4.732   2.072  17.394 -0.0768 -0.2259  0.1054
  545TMC3    C8 8148   4.635   2.435  17.085 -0.3673  0.1991 -0.1995
  545TMC3    O1 8149   4.664   1.996  17.322 -0.3578  0.0292 -0.2492
  545TMC3    O2 8150   4.646   2.359  16.987 -0.1481 -0.3832  0.3325
  546MPD2     C 8151   1.961   2.456  17.454 -0.5693 -0.1424 -0.2640
  546MPD2    C1 8152   1.877   2.512  17.361  0.1897  0.6357  0.3570
  546MPD2    C2 8153   1.869   2.646  17.351 -0.0488  0.1576  0.9499
  546MPD2    C3 8154   1.932   2.728  17.444  0.6219  0.1378  0.0639
  546MPD2    C4 8155   2.011   2.677  17.541 -0.4705  0.8327  0.1119
  546MPD2    C5 8156   2.025   2.539  17.550 -0.8664  0.0336 -0.6500
  546MPD2     H 8157   1.811   2.687  17.269 -0.7949  0.9656  1.8913
  546MPD2    H1 8158   2.065   2.743  17.608 -1.9776  1.6712  0.5078
  546MPD2    H2 8159   1.980   2.350  17.459 -0.5768 -0.1403 -0.1892
  546MPD2    H3 8160   2.091   2.505  17.628 -2.5370 -0.8961  0.3457
  546MPD2     N 8161   1.929   2.865  17.440 -0.1431  0.0911  0.1421
  546MPD2    H5 8162   1.957   2.908  17.527  1.5287  1.4455 -1.0546
  546MPD2    N1 8163   1.798   2.421  17.280  0.4912 -0.1749 -0.0543
  546MPD2    H7 8164   1.795   2.321  17.301  0.2198 -0.0429  0.5590
  547TMC3    C1 8165   1.631   2.366  17.121  0.1910  0.4788 -1.4015
  547TMC3    C2 8166   1.588   2.385  16.992 -0.3280 -0.0840  0.0492
  547TMC3    C3 8167   1.485   2.304  16.950  0.6565 -1.2358  0.0922
  547TMC3    C4 8168   1.584   2.269  17.206  0.2712 -0.2437 -0.5012
  547TMC3    C5 8169   1.486   2.194  17.154 -0.3207 -0.4887  0.5954
  547TMC3    C6 8170   1.436   2.207  17.029 -0.3443  0.3621 -0.8917
  547TMC3     C 8171   1.728   2.464  17.168  0.3319 -0.5794 -0.6556
  547TMC3     O 8172   1.740   2.562  17.099  0.0301 -0.0585  0.3374
  547TMC3     H 8173   1.624   2.467  16.930 -1.3541  0.0725 -0.3308
  547TMC3    H1 8174   1.604   2.257  17.312  2.4238 -0.3000 -0.9181
  547TMC3    H2 8175   1.355   2.145  16.992  0.4064 -1.2955  0.2080
  547TMC3    C7 8176   1.402   2.134  17.253  0.3038 -0.2621 -0.1584
  547TMC3    C8 8177   1.411   2.357  16.839  0.0555  0.2837 -0.5967
  547TMC3    O1 8178   1.386   2.191  17.360  0.9916 -0.4242 -0.1160
  547TMC3    O2 8179   1.430   2.467  16.795  0.6995  0.2534  0.0923
  548MPD2     C 8180   1.065   3.265  12.611 -0.4157 -0.2229 -0.0918
  548MPD2    C1 8181   1.038   3.134  12.635 -0.8833 -0.5053 -0.2881
  548MPD2    C2 8182   1.145   3.042  12.630  0.2112 -0.4585 -0.4139
  548MPD2    C3 8183   1.282   3.084  12.614  0.4038  0.4639  0.9796
  548MPD2    C4 8184   1.306   3.216  12.595 -0.5365  0.0779 -0.0344
  548MPD2    C5 8185   1.196   3.300  12.587  0.0486 -0.0930 -0.0863
  548MPD2     H 8186   1.127   2.936  12.643  1.4457 -0.7882 -1.4881
  548MPD2    H1 8187   1.407   3.256  12.585 -0.5625 -0.0205 -0.7264
  548MPD2    H2 8188   0.990   3.343  12.607  0.2035  0.3864  0.1663
  548MPD2    H3 8189   1.221   3.404  12.567  0.0895 -0.0634  0.1217
  548MPD2     N 8190   1.385   2.991  12.601 -0.0316 -0.1714  0.1986
  548MPD2    H5 8191   1.357   2.895  12.582 -0.4341  0.2051 -1.1293
  548MPD2    N1 8192   0.903   3.091  12.646  0.5430  0.4548  0.2842
  548MPD2    H7 8193   0.825   3.155  12.636 -2.0154 -2.4256  1.6623
  549TMC3    C1 8194   0.716   2.967  12.708 -0.7783  0.0495  0.9214
  549TMC3    C2 8195   0.622   3.045  12.650  0.5242 -0.2770  0.6474
  549TMC3    C3 8196   0.496   3.039  12.706  0.0825  0.3124  0.0555
  549TMC3    C4 8197   0.690   2.870  12.800 -0.3182 -0.5898  0.1144
  549TMC3    C5 8198   0.561   2.861  12.843 -0.5591 -0.4944  0.6852
  549TMC3    C6 8199   0.461   2.947  12.804 -0.6577 -0.9255 -0.1136
  549TMC3     C 8200   0.860   2.965  12.676 -0.6438 -0.1085 -0.3942
  549TMC3     O 8201   0.918   2.857  12.661  0.2867  0.1353 -0.1958
  549TMC3     H 8202   0.638   3.099  12.558  2.0935 -0.6120  0.7178
  549TMC3    H1 8203   0.766   2.797  12.824 -0.9380 -1.5688 -0.9302
  549TMC3    H2 8204   0.358   2.936  12.839 -0.5739 -0.1926  0.3555
  549TMC3    C7 8205   0.515   2.720  12.860  0.3108 -0.5167 -0.5598
  549TMC3    C8 8206   0.396   3.118  12.643  0.3776 -0.2683  0.5384
  549TMC3    O1 8207   0.417   2.695  12.927 -0.4285  0.4404  0.5373
  549TMC3    O2 8208   0.281   3.087  12.663 -0.1456  0.3746 -0.3307
  550TMC3    C1 8209   0.443   1.397  12.353 -0.5802 -0.0202  0.5065
  550TMC3    C2 8210   0.392   1.430  12.474 -0.0734  0.5884  0.8799
  550TMC3    C3 8211   0.254   1.462  12.470  0.1036  0.2433  0.2809
  550TMC3    C4 8212   0.369   1.388  12.237 -0.5305  0.2150 -0.4712
  550TMC3    C5 8213   0.238   1.417  12.243 -0.3210  0.0270 -0.0076
  550TMC3    C6 8214   0.180   1.464  12.356 -0.2003 -0.4732  1.3487
  550TMC3     C 8215   0.582   1.363  12.334 -0.0077 -0.0906  0.7575
  550TMC3     O 8216   0.646   1.327  12.430  0.3231 -0.0421  0.5268
  550TMC3     H 8217   0.439   1.412  12.570  1.9995  1.9637  0.1098
  550TMC3    H1 8218   0.410   1.344  12.146 -1.3476 -0.8308 -0.3372
  550TMC3    H2 8219   0.076   1.495  12.350 -0.3202 -1.1968 -0.4496
  550TMC3    C7 8220   0.158   1.395  12.127 -0.0483  0.4005 -0.2628
  550TMC3    C8 8221   0.195   1.465  12.607 -0.2358  0.9570 -0.1980
  550TMC3    O1 8222   0.040   1.389  12.151 -0.1916 -0.1206  0.1671
  550TMC3    O2 8223   0.274   1.471  12.703 -0.2308  0.3348 -0.3063
  551TMC3    C1 8224   2.599   3.977  13.124  0.3702  1.1531 -0.1174
  551TMC3    C2 8225   2.735   3.946  13.104 -0.1238  0.1073 -1.0349
  551TMC3    C3 8226   2.810   3.926  13.215  0.2235  0.1461  0.1949
  551TMC3    C4 8227   2.550   3.984  13.250  0.1007 -0.3154  0.1710
  551TMC3    C5 8228   2.631   3.953  13.354  0.6676  0.9325 -0.3917
  551TMC3    C6 8229   2.761   3.926  13.341 -0.1773 -0.4739 -0.8188
  551TMC3     C 8230   2.506   3.992  13.014 -0.1129  0.2808  0.3479
  551TMC3     O 8231   2.390   3.971  13.030  0.2476  0.4325 -0.1484
  551TMC3     H 8232   2.781   3.922  13.009  1.1458 -0.0455 -0.3829
  551TMC3    H1 8233   2.445   4.003  13.269  0.4970  2.2840 -0.2913
  551TMC3    H2 8234   2.821   3.902  13.428 -1.6263 -2.6678 -0.4172
  551TMC3    C7 8235   2.593   4.002  13.484  0.1818  0.1202 -0.1547
  551TMC3    C8 8236   2.934   3.854  13.197 -0.1436  0.1807  0.7964
  551TMC3    O1 8237   2.640   3.960  13.590  0.1636 -0.3919  0.3803
  551TMC3    O2 8238   2.963   3.758  13.266  0.6187 -0.5644  0.3255
  552MPD2     C 8239   4.527   1.208  14.209 -0.9228 -0.4268  0.4926
  552MPD2    C1 8240   4.616   1.144  14.128  0.1656 -0.2453  0.6096
  552MPD2    C2 8241   0.023   1.154  14.150  0.3981  0.0185 -0.2149
  552MPD2    C3 8242   0.058   1.251  14.243 -0.1290  0.3383  0.7276
  552MPD2    C4 8243   4.703   1.326  14.310 -0.5881  0.8897 -0.3350
  552MPD2    C5 8244   4.569   1.307  14.288  0.1415  0.3448  1.2966
  552MPD2     H 8245   0.092   1.084  14.104  0.3698  0.5250 -1.0263
  552MPD2    H1 8246   4.726   1.405  14.380 -0.9200  1.4158 -0.8165
  552MPD2    H2 8247   4.421   1.186  14.214 -0.9612 -0.1370  0.9789
  552MPD2    H3 8248   4.495   1.353  14.354 -0.5958  1.4585 -0.3194
  552MPD2     N 8249   0.194   1.274  14.262 -0.4799 -0.6414  0.0206
  552MPD2    H5 8250   0.215   1.344  14.332  3.0704 -1.2496 -0.4271
  552MPD2    N1 8251   4.570   1.049  14.035  0.1017 -0.4657 -0.1575
  552MPD2    H7 8252   4.636   0.980  14.000 -0.6875 -1.1271 -0.3317
  553TMC3    C1 8253   4.419   0.913  13.916 -0.2270 -0.7957  0.4411
  553TMC3    C2 8254   4.329   0.919  13.804 -0.9479  0.5105  0.3536
  553TMC3    C3 8255   4.301   0.803  13.731  0.0879  0.3609  0.7156
  553TMC3    C4 8256   4.489   0.799  13.946  0.1940 -0.5564  0.5360
  553TMC3    C5 8257   4.459   0.689  13.870 -0.4042 -0.2244  0.2206
  553TMC3    C6 8258   4.366   0.686  13.769 -0.6317 -0.2342 -0.2853
  553TMC3     C 8259   4.440   1.035  13.990 -0.1233  0.5839 -0.3844
  553TMC3     O 8260   4.345   1.106  13.996 -0.2031 -0.1264 -0.1570
  553TMC3     H 8261   4.284   1.013  13.775 -0.4647 -0.3267 -3.1434
  553TMC3    H1 8262   4.559   0.792  14.029  1.9421 -1.4366 -1.0341
  553TMC3    H2 8263   4.360   0.600  13.703 -0.0582 -0.2207 -0.3523
  553TMC3    C7 8264   4.573   0.592  13.858 -0.3337  0.5299 -0.0569
  553TMC3    C8 8265   4.306   0.837  13.590 -0.2779  0.5786  0.0606
  553TMC3    O1 8266   4.576   0.526  13.752 -0.3269 -0.0898 -0.0860
  553TMC3    O2 8267   4.348   0.945  13.547 -0.0513 -0.4222  0.1727
  554TMC3    C1 8268   1.594   0.978  11.468 -1.5078 -0.2599 -0.3809
  554TMC3    C2 8269   1.513   0.923  11.375  0.0893 -0.6243 -0.2084
  554TMC3    C3 8270   1.415   1.005  11.319  0.0626 -0.2926 -0.2730
  554TMC3    C4 8271   1.582   1.114  11.492 -0.0901  0.5419 -0.0243
  554TMC3    C5 8272   1.490   1.194  11.435 -0.1584 -0.2276  0.1854
  554TMC3    C6 8273   1.395   1.138  11.353 -0.5736 -0.9986  0.9400
  554TMC3     C 8274   1.706   0.903  11.532 -0.3098 -0.3164  0.7015
  554TMC3     O 8275   1.795   0.959  11.592 -0.3631 -0.7796 -0.1943
  554TMC3     H 8276   1.527   0.822  11.339  1.7534 -0.6762  0.6239
  554TMC3    H1 8277   1.670   1.162  11.532  0.6228 -1.3818  0.7213
  554TMC3    H2 8278   1.338   1.203  11.288  2.2175  0.8436  0.3458
  554TMC3    C7 8279   1.560   1.314  11.386  0.6587  1.0747 -0.0692
  554TMC3    C8 8280   1.364   0.970  11.193 -0.9480  0.4926 -0.1897
  554TMC3    O1 8281   1.680   1.339  11.411 -0.1397 -0.9264  0.0555
  554TMC3    O2 8282   1.339   1.063  11.113  0.6219  0.0552  0.4529
  555TMC3    C1 8283   0.252   0.195  14.809 -0.2246  0.5881  0.4080
  555TMC3    C2 8284   0.301   0.285  14.905 -0.3560  0.0428  0.6505
  555TMC3    C3 8285   0.375   0.236  15.006 -0.0588 -0.4789 -0.3748
  555TMC3    C4 8286   0.267   0.062  14.821  0.8483  0.1260 -0.2102
  555TMC3    C5 8287   0.340   0.016  14.929 -0.8330  0.7776 -0.3672
  555TMC3    C6 8288   0.390   0.101  15.021  0.0427 -0.3854 -0.1994
  555TMC3     C 8289   0.216   0.244  14.679  0.3089  0.2834  0.1571
  555TMC3     O 8290   0.288   0.333  14.634 -0.1565 -0.3066 -0.6211
  555TMC3     H 8291   0.286   0.390  14.884  1.9794  0.2209 -0.0526
  555TMC3    H1 8292   0.248   4.724  14.743 -2.7079  2.0036 -1.0718
  555TMC3    H2 8293   0.463   0.068  15.094 -0.8232  1.2812  1.4194
  555TMC3    C7 8294   0.354   4.607  14.947 -0.5640 -0.3915  0.7318
  555TMC3    C8 8295   0.413   0.325  15.118 -0.1331 -0.2645 -0.7390
  555TMC3    O1 8296   0.254   4.534  14.943  0.4023 -0.3179 -0.2471
  555TMC3    O2 8297   0.392   0.442  15.088  0.8523  0.1379  0.3984
  556MPD2     C 8298   3.144   2.371  10.605 -0.1507 -0.0014  0.0491
  556MPD2    C1 8299   3.183   2.292  10.716 -0.4025 -1.3227 -0.3349
  556MPD2    C2 8300   3.237   2.165  10.701  0.3051 -0.8999  0.3240
  556MPD2    C3 8301   3.251   2.115  10.572  0.0294 -0.2505  0.8002
  556MPD2    C4 8302   3.201   2.189  10.466  0.6855  0.0158  0.5803
  556MPD2    C5 8303   3.158   2.319  10.479 -0.0605 -0.2618 -0.5368
  556MPD2     H 8304   3.261   2.100  10.785 -0.9266 -2.0225 -0.2032
  556MPD2    H1 8305   3.205   2.153  10.363 -0.2128  2.2340 -0.2379
  556MPD2    H2 8306   3.105   2.471  10.619  1.3046  0.5507  0.1958
  556MPD2    H3 8307   3.132   2.375  10.389 -0.1596 -1.9952 -1.5810
  556MPD2     N 8308   3.305   1.987  10.548 -0.2022  0.3271  0.1943
  556MPD2    H5 8309   3.342   1.940  10.630 -1.0638  0.7838  0.8420
  556MPD2    N1 8310   3.148   2.315  10.851  0.2901  0.5996 -0.3142
  556MPD2    H7 8311   3.179   2.247  10.919 -1.6454 -1.4111 -1.4458
  557TMC3    C1 8312   3.399   1.794  10.455  0.1724  0.2975  0.0419
  557TMC3    C2 8313   3.439   1.726  10.348  0.3817  0.4892 -0.3141
  557TMC3    C3 8314   3.468   1.595  10.356 -0.3670 -0.0241 -0.2275
  557TMC3    C4 8315   3.382   1.729  10.574  0.6581 -0.1468 -0.0279
  557TMC3    C5 8316   3.414   1.595  10.585  0.1584  0.2667  0.4687
  557TMC3    C6 8317   3.462   1.527  10.473  0.4370 -0.5919  0.3223
  557TMC3     C 8318   3.338   1.926  10.428  0.0590 -0.2074 -0.1088
  557TMC3     O 8319   3.344   1.976  10.315 -0.0683 -0.4257  0.3875
  557TMC3     H 8320   3.451   1.774  10.251 -0.2569 -0.7102 -0.9910
  557TMC3    H1 8321   3.330   1.781  10.654  1.2679  2.2027 -1.1568
  557TMC3    H2 8322   3.499   1.426  10.477  0.0887 -0.8105 -2.4763
  557TMC3    C7 8323   3.382   1.531  10.710  0.2704 -0.5269  0.7468
  557TMC3    C8 8324   3.465   1.535  10.223 -0.5454 -0.6445  0.2947
  557TMC3    O1 8325   3.313   1.595  10.785 -0.1386  0.1492  0.5187
  557TMC3    O2 8326   3.489   1.602  10.123 -1.0838 -0.5985  0.2911
  558TMC3    C1 8327   1.324   4.625   9.929  0.2072  0.7163  0.3650
  558TMC3    C2 8328   1.223   4.702   9.979  0.0373 -0.0728  0.6035
  558TMC3    C3 8329   1.112   4.734   9.911 -0.5599  0.1389 -0.1246
  558TMC3    C4 8330   1.312   4.584   9.800  0.5712 -0.5314  0.0250
  558TMC3    C5 8331   1.213   4.633   9.726  0.8132  0.3373 -0.2929
  558TMC3    C6 8332   1.113   4.713   9.774  0.3640 -0.3077 -0.7338
  558TMC3     C 8333   1.354   4.514  10.017 -0.1778  0.3807  0.4983
  558TMC3     O 8334   1.470   4.513  10.060 -0.2648 -0.0737 -0.0642
  558TMC3     H 8335   1.243   4.733  10.081 -0.6898  3.5225 -0.3347
  558TMC3    H1 8336   1.366   4.499   9.758  1.0334  0.0579 -0.5682
  558TMC3    H2 8337   1.024   0.010   9.721  1.9488  0.9713 -2.6190
  558TMC3    C7 8338   1.176   4.558   9.607  0.1527 -0.5007  0.2182
  558TMC3    C8 8339   0.994   4.676   9.968  0.0724  0.7470  0.3125
  558TMC3    O1 8340   1.268   4.500   9.547  0.5177  0.3649 -0.5242
  558TMC3    O2 8341   0.946   4.585   9.900 -0.0895  0.6900  0.1860
  559MPD2     C 8342   1.335   0.469  10.151 -0.3606  0.2128 -0.7567
  559MPD2    C1 8343   1.250   0.467  10.255  0.0266  0.1916  0.1394
  559MPD2    C2 8344   1.305   0.478  10.383 -0.3821  0.9289  0.0134
  559MPD2    C3 8345   1.447   0.482  10.399  0.2458  0.1801 -0.1803
  559MPD2    C4 8346   1.532   0.482  10.289 -0.2749  0.5650  0.0455
  559MPD2    C5 8347   1.472   0.477  10.168  0.5924  0.2860  0.2767
  559MPD2     H 8348   1.250   0.499  10.474  2.2769 -2.7801  2.4618
  559MPD2    H1 8349   1.638   0.503  10.300 -0.3750  0.1075  1.9165
  559MPD2    H2 8350   1.299   0.483  10.049  1.5511 -1.8704 -1.7169
  559MPD2    H3 8351   1.542   0.480  10.085  2.4550  3.0452  1.9428
  559MPD2     N 8352   1.505   0.479  10.526 -0.3345  0.2979  0.1351
  559MPD2    H5 8353   1.431   0.454  10.591 -0.5548  0.9088  0.1255
  559MPD2    N1 8354   1.112   0.466  10.250  0.5883  0.0613  0.6111
  559MPD2    H7 8355   1.068   0.471  10.341 -1.8864 -0.6749 -0.5408
  560TMC3    C1 8356   1.638   0.508  10.706 -0.4661  0.4587  0.4320
  560TMC3    C2 8357   1.540   0.429  10.774  0.0258  1.4590  0.5624
  560TMC3    C3 8358   1.572   0.367  10.893 -0.3700 -0.2636 -0.9318
  560TMC3    C4 8359   1.749   0.548  10.777 -0.0107  0.0913 -0.4755
  560TMC3    C5 8360   1.769   0.502  10.906 -0.5166  0.1208  0.5607
  560TMC3    C6 8361   1.677   0.418  10.963 -0.3917 -0.1673 -0.8593
  560TMC3     C 8362   1.622   0.538  10.571 -0.2887  0.3431  0.3529
  560TMC3     O 8363   1.684   0.632  10.516 -0.8822 -0.5356  0.4221
  560TMC3     H 8364   1.462   0.374  10.723 -1.4116  1.5361  2.7053
  560TMC3    H1 8365   1.827   0.610  10.734  1.4849 -1.1829  0.3835
  560TMC3    H2 8366   1.693   0.381  11.064  0.7501 -0.5095 -1.1615
  560TMC3    C7 8367   1.893   0.543  10.969 -0.4435  0.2205 -0.0200
  560TMC3    C8 8368   1.490   0.255  10.941 -0.5549  0.0730 -0.5037
  560TMC3    O1 8369   1.982   0.574  10.898 -0.3905  0.3782  1.1432
  560TMC3    O2 8370   1.383   0.243  10.887 -0.5413 -0.1689 -0.5612
  561TMC3    C1 8371   3.732   4.234  10.794  0.7464 -0.3712  0.1050
  561TMC3    C2 8372   3.637   4.175  10.871 -1.2890  0.7309 -0.2256
  561TMC3    C3 8373   3.562   4.264  10.951  0.0144  0.4311 -0.1131
  561TMC3    C4 8374   3.783   4.362  10.826 -0.4286  0.3456  0.1306
  561TMC3    C5 8375   3.710   4.441  10.907 -0.6439  0.1942  0.1388
  561TMC3    C6 8376   3.598   4.391  10.968  0.2451  0.6299  0.0256
  561TMC3     C 8377   3.799   4.161  10.688  0.4709 -0.4558 -0.5150
  561TMC3     O 8378   3.887   4.224  10.629 -0.5518  0.0768 -0.0437
  561TMC3     H 8379   3.608   4.071  10.858 -0.5421  0.8829 -3.1896
  561TMC3    H1 8380   3.862   4.402  10.763 -0.8202 -2.0078 -1.8938
  561TMC3    H2 8381   3.541   4.456  11.032 -0.0561  2.4216 -2.0709
  561TMC3    C7 8382   3.732   4.581  10.890  0.3444 -0.3351 -0.0848
  561TMC3    C8 8383   3.452   4.205  11.027  0.5031 -0.3116  0.4360
  561TMC3    O1 8384   3.632   4.646  10.917 -0.7704 -0.1078 -0.0570
  561TMC3    O2 8385   3.409   4.109  10.969 -0.5670  0.2750 -0.0209
  562TMC3    C1 8386   0.926   0.529  15.994  0.4168  0.0270  0.0995
  562TMC3    C2 8387   0.812   0.573  15.945  0.6221  0.3690  0.3277
  562TMC3    C3 8388   0.694   0.556  16.020 -0.2615 -0.2975  0.0723
  562TMC3    C4 8389   0.932   0.476  16.123 -0.0349 -0.3573 -0.3387
  562TMC3    C5 8390   0.814   0.444  16.180  0.2640  0.0352 -0.2984
  562TMC3    C6 8391   0.694   0.493  16.139 -1.0469  1.0570  0.7343
  562TMC3     C 8392   1.059   0.549  15.930 -0.2156 -0.0735  0.0417
  562TMC3     O 8393   1.142   0.464  15.963 -0.2904  0.0123 -0.3430
  562TMC3     H 8394   0.804   0.595  15.839  0.7071 -0.5202  0.1350
  562TMC3    H1 8395   1.030   0.451  16.163  1.2139  0.4033 -2.9421
  562TMC3    H2 8396   0.603   0.461  16.190  1.8192 -1.9645  3.9648
  562TMC3    C7 8397   0.824   0.397  16.317 -0.4712 -0.1238 -0.1106
  562TMC3    C8 8398   0.561   0.559  15.957 -0.3324 -0.1366  0.4996
  562TMC3    O1 8399   0.742   0.444  16.396 -0.3035  0.3862 -0.0676
  562TMC3    O2 8400   0.473   0.484  15.996  0.1634 -0.4086  0.1722
  563MPD2     C 8401   3.265   0.879  15.826 -0.3492  0.5209  0.6835
  563MPD2    C1 8402   3.172   0.949  15.894 -0.2038  0.3362 -0.7043
  563MPD2    C2 8403   3.181   1.088  15.887 -0.9291  0.2063  0.1285
  563MPD2    C3 8404   3.273   1.145  15.808  0.2097 -0.2084  0.1906
  563MPD2    C4 8405   3.369   1.072  15.742 -0.0670 -0.0658  0.0619
  563MPD2    C5 8406   3.363   0.937  15.755 -0.6305 -0.5467 -0.2607
  563MPD2     H 8407   3.107   1.152  15.932 -0.1336 -1.0450  3.2297
  563MPD2    H1 8408   3.458   1.105  15.690 -0.1476  3.8096  2.3782
  563MPD2    H2 8409   3.268   0.771  15.830 -1.2638  0.4586 -0.2418
  563MPD2    H3 8410   3.447   0.880  15.716 -0.2204  0.4382 -0.8276
  563MPD2     N 8411   3.294   1.281  15.820 -0.3176  0.0863 -0.0056
  563MPD2    H5 8412   3.233   1.331  15.884 -0.0189  1.7934 -1.0593
  563MPD2    N1 8413   3.076   0.882  15.972 -0.6757 -0.1458 -0.3291
  563MPD2    H7 8414   3.084   0.783  15.993  2.1908 -0.0031 -0.7279
  564TMC3    C1 8415   2.905   0.854  16.112  0.4391  1.0224 -0.0660
  564TMC3    C2 8416   2.772   0.829  16.089 -0.0714 -0.1924  0.1714
  564TMC3    C3 8417   2.713   0.771  16.196 -0.4630  0.0012  0.5370
  564TMC3    C4 8418   2.980   0.846  16.224 -0.5217  0.0014  0.3401
  564TMC3    C5 8419   2.912   0.783  16.327  0.3970 -0.5902 -0.3073
  564TMC3    C6 8420   2.779   0.744  16.321  0.8811  0.3361 -0.5062
  564TMC3     C 8421   2.959   0.936  16.007 -0.9101  0.3721  0.4458
  564TMC3     O 8422   2.897   1.030  15.959 -0.2646 -0.0126  0.1472
  564TMC3     H 8423   2.722   0.842  15.993  1.4659  1.1322 -0.4476
  564TMC3    H1 8424   3.083   0.877  16.235 -0.3571 -0.6178  0.5707
  564TMC3    H2 8425   2.727   0.693  16.401 -0.4659  3.3213  0.4951
  564TMC3    C7 8426   3.004   0.748  16.433  0.2821  0.5122  0.5282
  564TMC3    C8 8427   2.571   0.733  16.190  0.3406  0.4337  0.3202
  564TMC3    O1 8428   3.084   0.836  16.461  0.5687 -0.4548 -0.4286
  564TMC3    O2 8429   2.517   0.691  16.289  0.0734 -0.1149 -0.5307
  565TMC3    C1 8430   2.644   3.634  10.205  0.3463  0.3626 -0.2372
  565TMC3    C2 8431   2.629   3.563  10.315 -0.5021  0.0691 -0.1782
  565TMC3    C3 8432   2.534   3.465  10.311 -0.2548 -0.1906 -0.1422
  565TMC3    C4 8433   2.591   3.611  10.083 -0.3775  0.0299 -0.0451
  565TMC3    C5 8434   2.480   3.526  10.093  0.7852  0.1391  0.6997
  565TMC3    C6 8435   2.462   3.438  10.201  0.6616  0.4480  0.6455
  565TMC3     C 8436   2.740   3.743  10.203 -0.2339  0.6854 -0.1769
  565TMC3     O 8437   2.815   3.751  10.105  0.6538 -0.1293 -0.1090
  565TMC3     H 8438   2.687   3.590  10.403 -0.8408  1.7822 -0.4852
  565TMC3    H1 8439   2.596   3.689  10.008 -1.1437  0.6950  0.5879
  565TMC3    H2 8440   2.366   3.388  10.209  0.4667  0.8941  1.1182
  565TMC3    C7 8441   2.385   3.536   9.979  0.2231  0.3548  0.3800
  565TMC3    C8 8442   2.524   3.391  10.433 -1.2901 -0.7602 -0.1976
  565TMC3    O1 8443   2.421   3.599   9.883  0.2484  0.3058  0.3787
  565TMC3    O2 8444   2.563   3.443  10.534  0.3850 -0.1586 -0.1559
  566MPD2     C 8445   4.469   4.377  14.387 -0.8177 -0.4059 -0.9065
  566MPD2    C1 8446   4.516   4.413  14.261  0.0157  0.3406 -0.1807
  566MPD2    C2 8447   4.508   4.321  14.156 -0.1910  0.3922  0.6597
  566MPD2    C3 8448   4.462   4.193  14.178  0.1304  0.0020  0.2616
  566MPD2    C4 8449   4.411   4.155  14.302  0.7759  0.1879 -0.2018
  566MPD2    C5 8450   4.416   4.252  14.402  0.4433 -0.0779  0.4255
  566MPD2     H 8451   4.538   4.353  14.056 -0.0300  0.6891  0.8037
  566MPD2    H1 8452   4.371   4.057  14.324  1.3775  0.0461  0.2871
  566MPD2    H2 8453   4.467   4.436  14.478 -1.9142 -0.6720 -0.7570
  566MPD2    H3 8454   4.389   4.230  14.504  1.8393 -2.6464  0.2483
  566MPD2     N 8455   4.480   4.087  14.086  0.0424  0.4773  0.2044
  566MPD2    H5 8456   4.472   3.992  14.121 -2.1651  1.1138  1.4194
  566MPD2    N1 8457   4.582   4.542  14.250 -0.3524  0.0550 -0.4565
  566MPD2    H7 8458   4.595   4.587  14.340 -1.6381  0.6720 -0.5720
  567TMC3    C1 8459   4.691   4.722  14.154  0.2295  0.3565 -0.9022
  567TMC3    C2 8460   0.013   0.039  14.044 -0.1832  0.0415  0.0274
  567TMC3    C3 8461   0.155   0.051  14.032  0.3970  0.2565 -0.6906
  567TMC3    C4 8462   0.039   4.711  14.264 -0.0584  0.1551 -0.1771
  567TMC3    C5 8463   0.174   4.725  14.260 -0.1173 -0.2575  0.3042
  567TMC3    C6 8464   0.232   0.025  14.142  0.1504  0.2329 -0.0246
  567TMC3     C 8465   4.613   4.604  14.132  1.0065  0.4050  0.1391
  567TMC3     O 8466   4.582   4.581  14.014  0.0958 -0.4396 -0.0797
  567TMC3     H 8467   4.686   0.045  13.955  1.4644  2.5461 -0.9475
  567TMC3    H1 8468   0.004   4.693  14.365  3.5061 -2.7774  0.5204
  567TMC3    H2 8469   0.340   0.028  14.137  0.2276 -4.2944 -1.8391
  567TMC3    C7 8470   0.257   4.649  14.353 -0.1020  0.0823  0.0902
  567TMC3    C8 8471   0.201   0.052  13.893  0.1583  0.1806  0.2930
  567TMC3    O1 8472   0.375   4.685  14.348 -0.5022  0.2265 -0.6006
  567TMC3    O2 8473   0.120   0.102  13.815  0.0213 -0.1380 -0.1290
  568MPD2     C 8474   1.916   4.301  16.247 -0.3858 -0.4243  0.7616
  568MPD2    C1 8475   2.017   4.373  16.310 -0.2494  0.3828 -0.5326
  568MPD2    C2 8476   2.015   4.511  16.315 -0.2308 -0.4329 -0.6870
  568MPD2    C3 8477   1.916   4.572  16.240 -0.0342  0.3908 -0.1476
  568MPD2    C4 8478   1.822   4.502  16.164 -0.0816  0.0568 -0.2665
  568MPD2    C5 8479   1.819   4.364  16.171  0.9148 -0.1068 -0.9541
  568MPD2     H 8480   2.090   4.564  16.372  0.1403 -1.8037  0.1002
  568MPD2    H1 8481   1.740   4.555  16.115 -1.3103 -1.1081  0.5439
  568MPD2    H2 8482   1.924   4.193  16.244 -1.0386 -0.4436 -0.3085
  568MPD2    H3 8483   1.754   4.314  16.100 -1.2956  1.2342  0.1389
  568MPD2     N 8484   1.905   4.711  16.271 -0.6547 -0.0253  0.1182
  568MPD2    H5 8485   1.976   0.014  16.333 -0.6798  3.5433 -1.9823
  568MPD2    N1 8486   2.118   4.296  16.358 -0.0224  0.3217  0.2259
  568MPD2    H7 8487   2.103   4.195  16.352 -0.4601  0.5607 -2.4555
  569TMC3    C1 8488   1.847   0.192  16.272 -0.6479 -0.3904  0.1881
  569TMC3    C2 8489   1.869   0.202  16.411  0.3438  0.0130  0.5773
  569TMC3    C3 8490   1.927   0.319  16.446 -0.7603 -0.2150 -0.5771
  569TMC3    C4 8491   1.869   0.293  16.182 -0.7412  0.9213  0.2342
  569TMC3    C5 8492   1.919   0.407  16.235  0.1973 -0.0752  0.2077
  569TMC3    C6 8493   1.957   0.421  16.362  0.1937 -0.7848  0.7674
  569TMC3     C 8494   1.821   0.065  16.212 -0.2778  0.4046 -0.1609
  569TMC3     O 8495   1.769   0.054  16.101 -1.2128  0.5277 -0.1522
  569TMC3     H 8496   1.859   0.115  16.476 -1.8747  1.9489  2.8086
  569TMC3    H1 8497   1.861   0.272  16.076 -0.4247  3.2677 -0.2657
  569TMC3    H2 8498   2.004   0.508  16.406  1.9027 -3.3551  4.0634
  569TMC3    C7 8499   1.968   0.496  16.131 -0.2326 -0.5907  0.2838
  569TMC3    C8 8500   2.001   0.296  16.571 -0.1295 -0.8097  0.4044
  569TMC3    O1 8501   1.895   0.505  16.031 -0.1239 -0.4872  0.0146
  569TMC3    O2 8502   1.962   0.206  16.649 -0.1201 -0.1701 -0.4732
  570TMC3    C1 8503   1.731   3.606  16.263  0.5231 -0.1527  0.4259
  570TMC3    C2 8504   1.774   3.659  16.152  0.5601  0.3382 -0.1246
  570TMC3    C3 8505   1.818   3.794  16.161  0.1900 -0.3652 -0.4986
  570TMC3    C4 8506   1.728   3.661  16.385  0.8501 -0.9621 -0.1926
  570TMC3    C5 8507   1.758   3.796  16.382  0.5686  0.4960  0.7851
  570TMC3    C6 8508   1.811   3.860  16.272  0.3487  0.1474  0.3387
  570TMC3     C 8509   1.668   3.479  16.246 -0.1538 -0.3641 -0.4860
  570TMC3     O 8510   1.615   3.461  16.135 -0.1338 -0.5337  0.0340
  570TMC3     H 8511   1.792   3.605  16.060  1.9522  1.5558 -0.5594
  570TMC3    H1 8512   1.683   3.619  16.474 -2.0397  2.9867  0.2409
  570TMC3    H2 8513   1.863   3.955  16.278 -0.5737  0.6927 -0.4563
  570TMC3    C7 8514   1.763   3.864  16.509 -0.2427  0.3513 -0.2449
  570TMC3    C8 8515   1.898   3.855  16.058  0.7253  0.4353 -0.2959
  570TMC3    O1 8516   1.757   3.803  16.613  0.4356  0.1554 -0.0247
  570TMC3    O2 8517   1.965   3.954  16.090 -0.0605  0.2471 -0.3142
  571MPD2     C 8518   4.027   1.015   0.796  0.3504 -0.0422 -0.1578
  571MPD2    C1 8519   4.059   1.083   0.908 -0.3091 -0.0929  0.0843
  571MPD2    C2 8520   4.098   1.213   0.906  0.1444  0.1441  0.2761
  571MPD2    C3 8521   4.119   1.270   0.778  0.0495 -0.2103  0.4148
  571MPD2    C4 8522   4.101   1.196   0.668 -0.3511 -0.2239 -0.6129
  571MPD2    C5 8523   4.046   1.073   0.672  0.7990 -0.1565  0.2948
  571MPD2     H 8524   4.134   1.257   0.999  0.3686  1.7856 -0.5822
  571MPD2    H1 8525   4.110   1.243   0.571 -0.8157  4.3104  1.5489
  571MPD2    H2 8526   4.004   0.909   0.798 -1.1845  0.3004  0.6492
  571MPD2    H3 8527   4.029   1.018   0.580 -0.5039  1.3458 -0.3546
  571MPD2     N 8528   4.160   1.404   0.765 -0.0916  0.3422 -0.3925
  571MPD2    H5 8529   4.186   1.434   0.671  4.4924 -1.5396  0.2866
  571MPD2    N1 8530   4.039   1.021   1.033  0.2208  0.7889 -0.3473
  571MPD2    H7 8531   4.006   0.925   1.029 -0.2887  0.9275  0.5534
  572TMC3    C1 8532   4.235   1.618   0.816  0.6924 -0.1348 -0.1733
  572TMC3    C2 8533   4.196   1.737   0.869  0.9460  0.6583 -0.2759
  572TMC3    C3 8534   4.250   1.850   0.814 -0.7914 -0.1564  0.0867
  572TMC3    C4 8535   4.324   1.601   0.713  0.7026 -0.1802 -0.4644
  572TMC3    C5 8536   4.380   1.717   0.663  0.1475 -0.2015  0.5342
  572TMC3    C6 8537   4.343   1.843   0.709  0.2355 -0.6673  1.0442
  572TMC3     C 8538   4.176   1.495   0.866  0.0235 -0.2332  1.0751
  572TMC3     O 8539   4.133   1.491   0.976  0.8221  0.5971  0.5763
  572TMC3     H 8540   4.111   1.729   0.936 -0.3461 -1.0275 -2.1490
  572TMC3    H1 8541   4.352   1.509   0.664  1.8967 -0.2796  0.4190
  572TMC3    H2 8542   4.397   1.931   0.676  0.2647  0.2844  3.5893
  572TMC3    C7 8543   4.441   1.722   0.538 -0.1265 -0.5893  0.4628
  572TMC3    C8 8544   4.234   1.984   0.878 -0.3250  0.6113 -0.4109
  572TMC3    O1 8545   4.407   1.826   0.480  0.2216 -0.2189 -0.2876
  572TMC3    O2 8546   4.303   2.075   0.837 -0.7663 -0.5014 -0.8640
  573MPD2     C 8547   0.083   1.875   0.878  0.3451  1.3830 -0.4787
  573MPD2    C1 8548   0.208   1.927   0.883 -0.4615 -0.4579  0.3767
  573MPD2    C2 8549   0.295   1.905   0.773 -0.3096 -0.0645  0.5293
  573MPD2    C3 8550   0.259   1.835   0.663 -0.7146 -0.2789  0.0685
  573MPD2    C4 8551   0.129   1.790   0.658  0.0467 -0.1386  0.3665
  573MPD2    C5 8552   0.037   1.808   0.766  0.7734  0.0057  0.1867
  573MPD2     H 8553   0.395   1.948   0.777  0.3601 -1.6871  1.1720
  573MPD2    H1 8554   0.093   1.730   0.575  0.8019  1.1862 -0.9146
  573MPD2    H2 8555   0.021   1.877   0.967 -0.8109 -1.3209 -1.2272
  573MPD2    H3 8556   4.673   1.763   0.760  0.0509  1.4707  1.1696
  573MPD2     N 8557   0.339   1.813   0.552  0.1867 -0.6498 -0.8454
  573MPD2    H5 8558   0.299   1.769   0.470  0.1224  1.6834 -2.0739
  573MPD2    N1 8559   0.247   1.988   1.007  0.0513 -0.5061 -0.6286
  573MPD2    H7 8560   0.175   2.022   1.070  0.2060  0.2594 -0.8674
  574TMC3    C1 8561   0.534   1.805   0.419 -0.1007 -0.4672  0.3165
  574TMC3    C2 8562   0.459   1.784   0.311  0.1097  0.4999 -0.3944
  574TMC3    C3 8563   0.519   1.722   0.197  0.1119  0.2681  1.1392
  574TMC3    C4 8564   0.669   1.776   0.419  0.0452  0.4822  0.2321
  574TMC3    C5 8565   0.728   1.735   0.300 -0.2268  0.0772  0.4494
  574TMC3    C6 8566   0.653   1.685   0.200  0.4139  0.2623 -0.0570
  574TMC3     C 8567   0.476   1.841   0.544  0.1425 -0.7424 -0.3966
  574TMC3     O 8568   0.554   1.868   0.635  0.3161  0.1238 -0.3512
  574TMC3     H 8569   0.353   1.803   0.312 -0.2951 -1.7101 -1.8172
  574TMC3    H1 8570   0.732   1.791   0.506  0.3312  0.6603 -0.0088
  574TMC3    H2 8571   0.694   1.638   0.111  0.1457 -0.2716  0.1009
  574TMC3    C7 8572   0.875   1.737   0.293  0.0916  0.3416 -0.5197
  574TMC3    C8 8573   0.437   1.696   0.086  0.0189  0.0900 -0.4032
  574TMC3    O1 8574   0.925   1.791   0.391  0.0105  0.1180  0.3527
  574TMC3    O2 8575   0.492   1.628   0.000 -0.5720 -0.2460  0.2266
  575TMC3    C1 8576   2.741   3.243  11.241 -0.2906 -0.2831 -0.5485
  575TMC3    C2 8577   2.741   3.113  11.295  0.2689  0.6334  0.1507
  575TMC3    C3 8578   2.693   3.005  11.222  0.1345 -0.6110 -0.9030
  575TMC3    C4 8579   2.691   3.273  11.118  0.2617 -0.3948  0.5075
  575TMC3    C5 8580   2.646   3.165  11.048  0.3147  0.2690  0.0083
  575TMC3    C6 8581   2.654   3.035  11.096  0.7988  0.3717 -0.1581
  575TMC3     C 8582   2.810   3.355  11.306  0.0498 -0.2957  0.6642
  575TMC3     O 8583   2.892   3.420  11.240  0.2889  0.2830  0.4197
  575TMC3     H 8584   2.787   3.101  11.392  2.3136  1.5087 -0.6936
  575TMC3    H1 8585   2.709   3.375  11.087 -3.4639 -0.1287 -0.7704
  575TMC3    H2 8586   2.617   2.956  11.031  2.9416 -1.8971  1.4165
  575TMC3    C7 8587   2.589   3.201  10.918 -0.6458 -0.4887 -0.1659
  575TMC3    C8 8588   2.705   2.870  11.272  0.3515  0.6688 -0.3501
  575TMC3    O1 8589   2.635   3.297  10.859 -0.0134  0.3332 -0.2447
  575TMC3    O2 8590   2.745   2.856  11.388  0.2003  0.3811 -0.4275
  576MPD2     C 8591   3.211   4.065  12.473 -0.6937  0.3309  0.0150
  576MPD2    C1 8592   3.161   4.187  12.435 -0.0469  0.6221  0.0957
  576MPD2    C2 8593   3.083   4.246  12.534  0.4555 -0.0122 -0.8107
  576MPD2    C3 8594   3.032   4.185  12.652  0.0504  0.3660 -0.1636
  576MPD2    C4 8595   3.069   4.060  12.679  0.2450  0.2614  0.1058
  576MPD2    C5 8596   3.156   4.002  12.584 -0.1265  1.5886  0.1853
  576MPD2     H 8597   3.061   4.350  12.513  2.0158  0.1523 -1.6565
  576MPD2    H1 8598   3.035   4.014  12.771  2.1168 -1.7854 -0.2359
  576MPD2    H2 8599   3.281   4.013  12.408 -1.5903 -0.3162 -0.4233
  576MPD2    H3 8600   3.192   3.903  12.611 -0.1773  0.4772 -3.9217
  576MPD2     N 8601   2.952   4.266  12.742  0.2047 -0.3416  0.2488
  576MPD2    H5 8602   2.935   4.365  12.727  1.7036  0.0365  1.1402
  576MPD2    N1 8603   3.191   4.250  12.307  0.0169  0.0570  0.2720
  576MPD2    H7 8604   3.171   4.348  12.290  1.4133  0.5976  1.7004
  577TMC3    C1 8605   3.234   4.245  12.065  0.3277 -0.5896 -0.3173
  577TMC3    C2 8606   3.217   4.176  11.945  0.1968  0.1901 -0.4305
  577TMC3    C3 8607   3.232   4.248  11.830 -0.1976 -0.4452 -0.1661
  577TMC3    C4 8608   3.271   4.375  12.066  0.1466  0.0457 -0.2269
  577TMC3    C5 8609   3.273   4.444  11.948 -0.0002  0.0605 -0.5783
  577TMC3    C6 8610   3.256   4.382  11.831  0.1436 -0.4205  0.0223
  577TMC3     C 8611   3.204   4.175  12.193  0.2878 -0.3944 -0.3043
  577TMC3     O 8612   3.201   4.052  12.185 -0.0593 -0.1289 -0.0576
  577TMC3     H 8613   3.177   4.076  11.955  0.7812 -0.1757 -1.8001
  577TMC3    H1 8614   3.295   4.428  12.158  2.2021  0.7034 -1.1430
  577TMC3    H2 8615   3.274   4.438  11.740  0.8483 -1.0024 -0.1987
  577TMC3    C7 8616   3.308   4.586  11.948 -0.1176 -1.0313 -0.5978
  577TMC3    C8 8617   3.210   4.175  11.707  0.4546 -0.2579  0.5012
  577TMC3    O1 8618   3.398   4.618  12.026 -0.6075  0.0425 -0.4579
  577TMC3    O2 8619   3.155   4.066  11.715 -0.7562  0.0024 -0.6241
  578MPD2     C 8620   1.217   4.148   1.343  0.8651 -0.6355 -0.1204
  578MPD2    C1 8621   1.308   4.138   1.244 -0.7327  0.4582  0.1717
  578MPD2    C2 8622   1.422   4.062   1.260 -0.1293 -0.0759 -0.0365
  578MPD2    C3 8623   1.455   4.009   1.384 -0.1738  0.3378  0.3756
  578MPD2    C4 8624   1.366   4.032   1.488 -0.6115  0.1877 -0.7905
  578MPD2    C5 8625   1.248   4.101   1.468 -0.1074  0.6579 -0.0032
  578MPD2     H 8626   1.494   4.047   1.180  0.9935  0.7333  0.8086
  578MPD2    H1 8627   1.383   3.992   1.587  0.5939  0.8447 -0.7244
  578MPD2    H2 8628   1.125   4.203   1.326  0.4316 -0.2386  3.4477
  578MPD2    H3 8629   1.177   4.109   1.550 -1.6024 -0.4828 -1.1695
  578MPD2     N 8630   1.569   3.925   1.383  0.3523  0.1400  0.1222
  578MPD2    H5 8631   1.617   3.906   1.296  0.2624  0.3905  0.0160
  578MPD2    N1 8632   1.296   4.200   1.117 -0.3961  0.1180  0.3158
  578MPD2    H7 8633   1.367   4.177   1.049 -1.5448  0.4513 -0.9953
  579TMC3    C1 8634   1.766   3.839   1.459  0.8349 -1.0615 -0.7845
  579TMC3    C2 8635   1.879   3.893   1.525 -0.7924 -0.0057 -0.1861
  579TMC3    C3 8636   1.994   3.902   1.452 -0.2060 -0.2469 -0.3480
  579TMC3    C4 8637   1.767   3.782   1.341 -0.6890  0.5721  0.0565
  579TMC3    C5 8638   1.884   3.794   1.272  0.0544 -0.1810 -0.0752
  579TMC3    C6 8639   1.996   3.843   1.328 -0.1631 -0.4617 -0.5104
  579TMC3     C 8640   1.637   3.899   1.497  0.6873  0.2707  0.9644
  579TMC3     O 8641   1.620   3.948   1.605  0.0799  0.5201 -0.2591
  579TMC3     H 8642   1.866   3.936   1.624 -3.8211 -0.1158 -0.5526
  579TMC3    H1 8643   1.686   3.721   1.303  0.1265  0.1865 -1.0724
  579TMC3    H2 8644   2.086   3.843   1.268 -0.8116  1.2176 -1.4923
  579TMC3    C7 8645   1.897   3.662   1.200  0.7231 -0.1782  0.5605
  579TMC3    C8 8646   2.114   3.959   1.509 -0.5181  0.4121  0.3110
  579TMC3    O1 8647   2.011   3.615   1.215  1.0365  0.0492 -0.7773
  579TMC3    O2 8648   2.105   3.983   1.629  0.6205 -0.4337  1.0042
  580TMC3    C1 8649   1.240   3.183  12.266 -0.1360 -0.5264 -0.5966
  580TMC3    C2 8650   1.362   3.210  12.213 -0.4543 -0.0467 -0.7010
  580TMC3    C3 8651   1.445   3.106  12.173  0.5101 -0.6604 -0.4039
  580TMC3    C4 8652   1.200   3.048  12.279 -0.7266 -0.5778  0.0564
  580TMC3    C5 8653   1.282   2.951  12.227  0.5385  0.3184 -0.4321
  580TMC3    C6 8654   1.409   2.976  12.191  0.2888 -0.2651  0.3472
  580TMC3     C 8655   1.147   3.287  12.251  0.7897  0.1749  0.0789
  580TMC3     O 8656   1.184   3.406  12.242  0.1526 -0.0915 -0.5786
  580TMC3     H 8657   1.384   3.313  12.187  2.6506 -0.5452 -0.0326
  580TMC3    H1 8658   1.109   3.011  12.325 -1.1956 -0.0480 -0.4601
  580TMC3    H2 8659   1.476   2.894  12.166  0.0557 -0.7857  1.4508
  580TMC3    C7 8660   1.227   2.823  12.198  0.1572 -0.7475  0.0874
  580TMC3    C8 8661   1.534   3.151  12.062  0.1961  0.1036 -0.7360
  580TMC3    O1 8662   1.152   2.779  12.281 -0.1056 -0.6397  0.2512
  580TMC3    O2 8663   1.538   3.088  11.960  0.1222 -0.4376 -0.2729
  581MPD2     C 8664   4.108   2.728  14.896  0.2782  0.5624  0.5864
  581MPD2    C1 8665   3.985   2.700  14.929  0.0153  0.0711  0.2964
  581MPD2    C2 8666   3.881   2.720  14.838 -0.0604  0.1007 -0.1160
  581MPD2    C3 8667   3.912   2.775  14.717 -0.7232 -0.4476  0.2278
  581MPD2    C4 8668   4.044   2.803  14.679 -0.2581  0.4848 -0.5675
  581MPD2    C5 8669   4.137   2.778  14.771 -0.0077  0.0316  0.0508
  581MPD2     H 8670   3.778   2.713  14.872 -0.0485 -0.6928 -0.2328
  581MPD2    H1 8671   4.082   2.842  14.585 -0.1236  0.5398 -0.4895
  581MPD2    H2 8672   4.192   2.707  14.962  0.6374  0.5118  0.1132
  581MPD2    H3 8673   4.238   2.805  14.742  0.4470  0.2112  1.8059
  581MPD2     N 8674   3.803   2.813  14.637 -0.0317 -0.4897  0.6010
  581MPD2    H5 8675   3.709   2.794  14.670  0.3800 -0.8017  1.5747
  581MPD2    N1 8676   3.968   2.656  15.059 -0.1948  0.2017 -0.0369
  581MPD2    H7 8677   4.046   2.647  15.123  0.8014 -1.3192 -1.4660
  582TMC3    C1 8678   3.839   2.597  15.254  0.4055 -0.3331 -0.1093
  582TMC3    C2 8679   3.932   2.665  15.327  0.0592 -0.2457 -0.0451
  582TMC3    C3 8680   3.901   2.671  15.460  0.2739 -0.3073 -0.3540
  582TMC3    C4 8681   3.736   2.527  15.305  0.4126 -0.5028 -0.6765
  582TMC3    C5 8682   3.705   2.537  15.437 -0.4357 -0.5020  0.4293
  582TMC3    C6 8683   3.797   2.604  15.520  0.2093 -0.2472  0.1230
  582TMC3     C 8684   3.847   2.596  15.108  0.1651 -0.1906 -0.5407
  582TMC3     O 8685   3.748   2.556  15.047  0.2680  0.2484 -0.2307
  582TMC3     H 8686   4.011   2.730  15.292 -0.2709 -1.3285 -2.8144
  582TMC3    H1 8687   3.669   2.478  15.235 -1.2551  0.6701  0.0972
  582TMC3    H2 8688   3.770   2.606  15.625  2.3075 -1.3597  0.6812
  582TMC3    C7 8689   3.569   2.590  15.456  0.0498 -0.4006  0.4923
  582TMC3    C8 8690   3.979   2.751  15.555 -0.4546 -0.4998  0.5691
  582TMC3    O1 8691   3.553   2.664  15.552  0.1214  0.6257 -0.7223
  582TMC3    O2 8692   4.101   2.757  15.530  0.8090 -0.2451 -0.5174
  583MPD2     C 8693   3.814   4.464  16.935  0.4083 -0.2592 -0.5504
  583MPD2    C1 8694   3.778   4.570  16.859 -0.7063 -0.0522 -0.0819
  583MPD2    C2 8695   3.714   4.676  16.913 -0.0500 -0.5917  0.2192
  583MPD2    C3 8696   3.673   4.684  17.046 -0.0608 -0.0828 -0.0735
  583MPD2    C4 8697   3.717   4.574  17.126  0.2858 -0.2874 -0.2210
  583MPD2    C5 8698   3.781   4.469  17.070 -0.0408 -0.0889  0.7544
  583MPD2     H 8699   3.706   0.029  16.849 -2.1222 -1.0090 -0.1131
  583MPD2    H1 8700   3.700   4.576  17.233  0.2067 -0.0784 -0.2374
  583MPD2    H2 8701   3.859   4.377  16.889 -3.4986 -0.9141 -3.1093
  583MPD2    H3 8702   3.810   4.389  17.137  1.7648  0.6775  0.8975
  583MPD2     N 8703   3.591   0.056  17.089  0.0857 -0.5317  0.9223
  583MPD2    H5 8704   3.567   0.129  17.023 -1.7160 -0.2641  1.8932
  583MPD2    N1 8705   3.810   4.590  16.722  0.2306 -0.0787  0.2926
  583MPD2    H7 8706   3.790   4.675  16.671  1.3199  0.8150  1.3536
  584TMC3    C1 8707   3.434   0.162  17.230 -0.2035  0.4167 -0.1592
  584TMC3    C2 8708   3.450   0.275  17.144 -0.0023  0.1384  0.6460
  584TMC3    C3 8709   3.426   0.401  17.197 -0.3568  0.2710 -0.8092
  584TMC3    C4 8710   3.384   0.173  17.348  0.0471  0.6943 -0.1083
  584TMC3    C5 8711   3.356   0.300  17.398  0.4391  0.2148 -0.1701
  584TMC3    C6 8712   3.373   0.416  17.328 -0.0749  1.1136 -0.4824
  584TMC3     C 8713   3.529   0.053  17.211  0.3628  0.0615 -0.1180
  584TMC3     O 8714   3.522   4.694  17.288  0.2294 -0.3162 -0.2038
  584TMC3     H 8715   3.516   0.266  17.058 -0.3417  1.4531  0.2433
  584TMC3    H1 8716   3.377   0.087  17.413  0.4636 -0.0695 -1.0876
  584TMC3    H2 8717   3.339   0.510  17.367 -0.4835  1.6986 -2.2305
  584TMC3    C7 8718   3.314   0.310  17.534 -0.0349  0.9424  0.4497
  584TMC3    C8 8719   3.466   0.521  17.127  0.3176 -0.3779  0.0905
  584TMC3    O1 8720   3.334   0.419  17.588  0.2772 -0.3080  0.2983
  584TMC3    O2 8721   3.474   0.516  17.002  0.0268  0.0495  0.4162
  585MPD2     C 8722   3.093   3.374   0.240 -0.1474  0.5584 -0.4907
  585MPD2    C1 8723   3.027   3.342   0.123 -0.0777  0.4722 -0.0428
  585MPD2    C2 8724   3.037   3.210   0.077 -0.0506  0.3889 -0.2005
  585MPD2    C3 8725   3.107   3.110   0.146  0.0520 -0.2127  0.2352
  585MPD2    C4 8726   3.167   3.148   0.262  0.6668 -0.3002 -0.4704
  585MPD2    C5 8727   3.164   3.275   0.306 -0.1583 -0.3145  0.0840
  585MPD2     H 8728   3.000   3.179  17.716  0.5147  0.1044 -0.3271
  585MPD2    H1 8729   3.213   3.071   0.323  0.1305  1.4999  2.1999
  585MPD2    H2 8730   3.086   3.474   0.282 -0.8624  0.1012  0.4736
  585MPD2    H3 8731   3.203   3.313   0.399  1.1600  0.9991 -1.0140
  585MPD2     N 8732   3.118   2.976   0.102 -0.1828 -0.3886  0.3489
  585MPD2    H5 8733   3.063   2.953   0.020  1.6005  1.4376 -1.3451
  585MPD2    N1 8734   2.950   3.441   0.062 -0.5376 -0.1598  0.4107
  585MPD2    H7 8735   2.939   3.529   0.110 -2.6693  1.4192 -3.0121
  586TMC3    C1 8736   3.166   2.754   0.082  0.2376  0.9653  0.1933
  586TMC3    C2 8737   3.279   2.686   0.028  0.6245 -0.2020  0.2129
  586TMC3    C3 8738   3.262   2.568  17.696 -0.2475  0.2972  1.1359
  586TMC3    C4 8739   3.040   2.719   0.044 -0.0085  0.0698 -0.0507
  586TMC3    C5 8740   3.033   2.607  17.701  0.4515  0.2335 -0.1472
  586TMC3    C6 8741   3.132   2.520  17.676 -0.0748 -0.7008  0.2388
  586TMC3     C 8742   3.184   2.879   0.158  0.3234  0.4459 -0.5065
  586TMC3     O 8743   3.261   2.866   0.252 -0.6015  0.4041  0.2823
  586TMC3     H 8744   3.377   2.705   0.070  1.3709  0.0338 -1.6346
  586TMC3    H1 8745   2.950   2.760   0.088 -0.3010 -0.2953 -0.3046
  586TMC3    H2 8746   3.125   2.427  17.622  0.6669 -0.8007  0.3157
  586TMC3    C7 8747   2.911   2.587  17.630 -0.8048 -0.7604  0.4248
  586TMC3    C8 8748   3.360   2.533  17.593  0.3675 -0.0212  0.5027
  586TMC3    O1 8749   2.889   2.475  17.585 -0.3333 -0.5534 -0.3218
  586TMC3    O2 8750   3.316   2.457  17.504 -0.0991  0.1615  0.3522
  587TMC3    C1 8751   0.260   2.247  16.261 -0.1826 -0.1385  0.1116
  587TMC3    C2 8752   0.371   2.327  16.289  0.1670  0.5190 -0.0183
  587TMC3    C3 8753   0.459   2.283  16.383 -0.0135  0.4839 -0.2210
  587TMC3    C4 8754   0.235   2.125  16.329  0.1333  0.6065 -0.0910
  587TMC3    C5 8755   0.336   2.080  16.411 -0.1717 -0.1516  0.6953
  587TMC3    C6 8756   0.450   2.158  16.435  0.1731  0.3651 -0.1395
  587TMC3     C 8757   0.169   2.294  16.159 -0.7239 -0.1917 -0.0186
  587TMC3     O 8758   0.210   2.377  16.079 -0.2018  0.5245  0.0729
  587TMC3     H 8759   0.378   2.422  16.239 -2.5097  1.5606  1.5689
  587TMC3    H1 8760   0.153   2.066  16.290 -0.4948  1.7243 -0.4804
  587TMC3    H2 8761   0.520   2.139  16.515 -1.8192  1.2485  1.8298
  587TMC3    C7 8762   0.307   1.971  16.505  0.0465 -0.4790 -0.0897
  587TMC3    C8 8763   0.526   2.373  16.462 -0.3962 -1.0458  0.6516
  587TMC3    O1 8764   0.195   1.929  16.502  0.2256  0.2133 -0.1329
  587TMC3    O2 8765   0.625   2.333  16.523 -0.2423 -0.1140  0.0975
  588TMC3    C1 8766   2.715   0.596  10.099  0.0973  0.0902 -0.2325
  588TMC3    C2 8767   2.629   0.505  10.142 -0.8079 -0.5484  0.3383
  588TMC3    C3 8768   2.667   0.414  10.244  0.1936  0.3890 -0.8308
  588TMC3    C4 8769   2.824   0.628  10.168 -0.1781 -0.0193  0.5419
  588TMC3    C5 8770   2.836   0.561  10.290  0.3254  0.2308  0.5735
  588TMC3    C6 8771   2.773   0.445  10.325 -0.6473 -0.0657 -0.4464
  588TMC3     C 8772   2.656   0.691  10.002 -0.2380 -0.5120  0.2803
  588TMC3     O 8773   2.543   0.676   9.958  0.0848  0.1428  0.4035
  588TMC3     H 8774   2.540   0.492  10.081 -0.0789 -0.2671 -0.7718
  588TMC3    H1 8775   2.893   0.694  10.118 -0.3715 -1.6657 -1.8806
  588TMC3    H2 8776   2.792   0.398  10.420  1.9023  1.6152 -0.1488
  588TMC3    C7 8777   2.944   0.612  10.365  0.0302 -0.0730 -0.6602
  588TMC3    C8 8778   2.586   0.297  10.264  1.0544 -0.6348 -0.3742
  588TMC3    O1 8779   3.025   0.543  10.427 -0.0586  0.5005 -0.4993
  588TMC3    O2 8780   2.530   0.256  10.160 -0.3892 -0.6858 -0.2630
  589TMC3    C1 8781   1.922   2.070   1.147  0.7912  0.1099  0.6970
  589TMC3    C2 8782   2.012   2.083   1.247  0.5503 -0.0181  0.2221
  589TMC3    C3 8783   2.104   1.981   1.258 -0.4302 -0.4274 -0.3483
  589TMC3    C4 8784   1.932   1.970   1.058 -0.5663 -0.0128  0.3056
  589TMC3    C5 8785   2.029   1.879   1.074  0.4673 -0.0458  0.4539
  589TMC3    C6 8786   2.120   1.884   1.167 -0.5788  0.1402  0.1002
  589TMC3     C 8787   1.837   2.182   1.112  0.2170  0.1767 -0.1708
  589TMC3     O 8788   1.793   2.182   0.999  0.5989  0.0492  0.0666
  589TMC3     H 8789   2.012   2.173   1.308 -0.0487  0.8423 -1.0503
  589TMC3    H1 8790   1.875   1.978   0.966  0.2744  1.9520 -0.0278
  589TMC3    H2 8791   2.178   1.794   1.183  0.4116  0.3802 -2.0700
  589TMC3    C7 8792   2.024   1.768   0.981  0.7159  0.0847 -0.5415
  589TMC3    C8 8793   2.199   1.993   1.364  0.2552  0.9675 -0.4817
  589TMC3    O1 8794   1.912   1.749   0.933  0.4898 -0.1052  0.3785
  589TMC3    O2 8795   2.163   2.039   1.471  0.2775 -0.0336 -0.0564
  590MPD2     C 8796   1.225   0.657  16.468 -0.4022  0.2175 -0.3708
  590MPD2    C1 8797   1.171   0.719  16.358 -0.3973 -0.3818  0.0998
  590MPD2    C2 8798   1.257   0.756  16.260 -0.0977 -0.0899 -0.3838
  590MPD2    C3 8799   1.395   0.744  16.272  0.2943 -0.1539 -0.5012
  590MPD2    C4 8800   1.446   0.684  16.385 -0.0470 -0.0251 -0.8768
  590MPD2    C5 8801   1.360   0.650  16.481  0.3156 -0.2098  0.0829
  590MPD2     H 8802   1.228   0.791  16.162  0.0295  1.5166  0.1366
  590MPD2    H1 8803   1.553   0.676  16.398  0.0172  1.1597 -0.6497
  590MPD2    H2 8804   1.173   0.627  16.559 -1.2759  0.4257 -0.8091
  590MPD2    H3 8805   1.403   0.604  16.569  0.9040 -1.4472 -0.8476
  590MPD2     N 8806   1.469   0.787  16.154  0.1769 -0.0878  0.1940
  590MPD2    H5 8807   1.421   0.814  16.069 -2.6085  0.5395  1.9876
  590MPD2    N1 8808   1.026   0.732  16.358 -0.2970 -0.8632  0.4201
  590MPD2    H7 8809   0.973   0.711  16.441 -1.2723  0.2324  0.0675
  591TMC3    C1 8810   1.628   0.855  16.021 -0.2704  0.2257 -0.1578
  591TMC3    C2 8811   1.733   0.811  15.956 -0.2532 -0.2327 -0.7272
  591TMC3    C3 8812   1.771   0.884  15.848  0.4739  0.0001  0.7018
  591TMC3    C4 8813   1.567   0.974  15.988 -0.6084  0.5346 -0.6501
  591TMC3    C5 8814   1.603   1.044  15.873  0.4081 -0.7981 -0.7537
  591TMC3    C6 8815   1.700   0.991  15.799  0.4828  0.6890  0.8677
  591TMC3     C 8816   1.601   0.791  16.143  0.2308 -0.4592  0.1878
  591TMC3     O 8817   1.690   0.734  16.203 -0.1026 -0.6964 -0.5502
  591TMC3     H 8818   1.760   0.708  15.977  0.1744  0.1385  0.5099
  591TMC3    H1 8819   1.483   1.011  16.046 -0.6887  0.0175 -0.4319
  591TMC3    H2 8820   1.737   1.034  15.707 -1.0680 -1.4074 -0.7173
  591TMC3    C7 8821   1.542   1.167  15.841 -0.1841  0.6943  0.3586
  591TMC3    C8 8822   1.836   0.804  15.747 -0.3380 -0.3958 -0.0057
  591TMC3    O1 8823   1.463   1.201  15.927  0.0094  0.1121 -0.6539
  591TMC3    O2 8824   1.817   0.686  15.758 -0.0477 -0.3352  0.7084
  592MPD2     C 8825   1.798   2.751  11.544 -0.1800 -0.1337 -0.4898
  592MPD2    C1 8826   1.759   2.752  11.675 -0.6131 -0.4348 -0.1980
  592MPD2    C2 8827   1.674   2.651  11.726 -0.0093  0.0926  0.2242
  592MPD2    C3 8828   1.634   2.553  11.637  0.4239  0.0335 -0.4002
  592MPD2    C4 8829   1.677   2.554  11.502  0.0915  0.3008 -0.0431
  592MPD2    C5 8830   1.754   2.654  11.459  0.0400 -0.2883  0.0731
  592MPD2     H 8831   1.630   2.636  11.823  2.0184  0.1886  1.1642
  592MPD2    H1 8832   1.658   2.479  11.426  1.4957 -0.1325  0.0320
  592MPD2    H2 8833   1.858   2.833  11.504  0.9040 -0.7710 -0.1710
  592MPD2    H3 8834   1.791   2.657  11.356  2.7742  2.0293  1.1078
  592MPD2     N 8835   1.535   2.458  11.688  0.5794 -0.1345 -0.0459
  592MPD2    H5 8836   1.506   2.466  11.785 -1.7771  2.8919 -0.9781
  592MPD2    N1 8837   1.800   2.864  11.749 -0.1336  0.1736  0.0380
  592MPD2    H7 8838   1.856   2.932  11.699 -0.6999  1.2365  0.8544
  593TMC3    C1 8839   1.833   3.002  11.938  0.4770  0.4227  0.0803
  593TMC3    C2 8840   1.872   3.004  12.065  0.1294 -0.6910 -0.1260
  593TMC3    C3 8841   1.940   3.116  12.099 -0.9529 -0.6380 -0.0049
  593TMC3    C4 8842   1.864   3.096  11.843 -0.4111  0.1495  1.1483
  593TMC3    C5 8843   1.922   3.213  11.884 -0.3969  0.2793  0.2136
  593TMC3    C6 8844   1.968   3.223  12.012 -0.0432  0.0655  0.4808
  593TMC3     C 8845   1.791   2.873  11.888  0.7770  0.3711  1.2153
  593TMC3     O 8846   1.765   2.786  11.972  0.0262  0.1431  0.7438
  593TMC3     H 8847   1.839   2.933  12.140 -2.8475  1.9318  1.0363
  593TMC3    H1 8848   1.799   3.089  11.756  0.5947  2.1338  0.2335
  593TMC3    H2 8849   2.021   3.310  12.049  0.7289 -0.9593  1.7741
  593TMC3    C7 8850   1.912   3.342  11.812  0.3546  0.6320  0.1276
  593TMC3    C8 8851   1.930   3.162  12.239  0.4752  0.1019 -0.2219
  593TMC3    O1 8852   1.959   3.432  11.876  0.1598  0.2257  0.5020
  593TMC3    O2 8853   1.824   3.136  12.295 -0.2117  0.2482  0.0961
  594MPD2     C 8854   0.904   1.428  13.843 -0.3286  0.2332  0.3532
  594MPD2    C1 8855   0.885   1.481  13.970  0.2957  0.0587  0.0937
  594MPD2    C2 8856   0.970   1.578  14.015  0.7518  0.0816 -0.3510
  594MPD2    C3 8857   1.060   1.636  13.924 -0.3344  0.5734  0.5408
  594MPD2    C4 8858   1.081   1.583  13.802 -0.1731  0.7956 -0.2834
  594MPD2    C5 8859   1.006   1.473  13.763  0.4225  0.5578  0.1934
  594MPD2     H 8860   0.956   1.623  14.113 -1.6231 -1.7567  0.1507
  594MPD2    H1 8861   1.161   1.606  13.733 -0.2512 -1.2386 -1.0547
  594MPD2    H2 8862   0.871   1.327  13.819  1.0825 -0.6171  2.0368
  594MPD2    H3 8863   1.024   1.428  13.666  0.3872  0.4111  0.2548
  594MPD2     N 8864   1.145   1.730  13.982 -0.1372 -0.7075  0.0251
  594MPD2    H5 8865   1.111   1.778  14.065  3.7192 -1.5571  2.0993
  594MPD2    N1 8866   0.781   1.414  14.047 -0.3301  0.1604 -0.3487
  594MPD2    H7 8867   0.732   1.341  13.998 -0.1848  1.1647 -1.9813
  595TMC3    C1 8868   1.523   1.942  14.096  0.5660 -0.2927  0.2009
  595TMC3    C2 8869   1.453   1.905  13.982  0.1275  0.0193 -0.0690
  595TMC3    C3 8870   1.318   1.897  13.992  0.0183  0.0003 -0.7610
  595TMC3    C4 8871   1.456   1.984  14.209  0.5905 -1.1043  0.4340
  595TMC3    C5 8872   1.321   1.972  14.205 -0.5043 -0.2216  0.8375
  595TMC3    C6 8873   1.246   1.929  14.105  1.1200 -1.0880 -0.2144
  595TMC3     C 8874   1.666   1.972  14.093  0.7971  0.0078 -0.0533
  595TMC3     O 8875   1.705   2.036  14.190  0.3159 -0.2804 -0.6099
  595TMC3     H 8876   1.508   1.880  13.892 -0.2870  1.0609 -0.6076
  595TMC3    H1 8877   1.496   2.027  14.300 -0.3252  1.8235 -0.5362
  595TMC3    H2 8878   1.139   1.945  14.105  1.1136 -1.1484  0.4156
  595TMC3    C7 8879   1.247   2.021  14.319 -0.3649  0.2100 -0.6160
  595TMC3    C8 8880   1.256   1.785  13.918 -0.4665 -0.1033 -0.3514
  595TMC3    O1 8881   1.146   2.090  14.306 -0.2014 -0.1037  0.1574
  595TMC3    O2 8882   1.324   1.745  13.825  0.0327  0.1125 -0.6683
  596MPD2     C 8883   4.669   4.351  16.939  0.3032  0.3426  0.2344
  596MPD2    C1 8884   4.607   4.449  16.864 -0.1815 -0.3358  0.1051
  596MPD2    C2 8885   4.580   4.427  16.738  0.5831 -0.6145  0.2424
  596MPD2    C3 8886   4.610   4.310  16.676 -0.2386 -0.2940  0.6373
  596MPD2    C4 8887   4.663   4.209  16.755  0.1532 -0.1839  0.0065
  596MPD2    C5 8888   4.688   4.230  16.881 -0.4650 -0.1119 -0.3269
  596MPD2     H 8889   4.538   4.511  16.684  3.1142  0.0300 -0.7210
  596MPD2    H1 8890   4.674   4.108  16.715 -0.8587  0.1402 -1.0806
  596MPD2    H2 8891   4.698   4.370  17.042 -1.5796  1.3001  0.5867
  596MPD2    H3 8892   4.720   4.150  16.947  3.4947  1.9453  0.2376
  596MPD2     N 8893   4.582   4.284  16.536  0.1760 -0.0515 -0.1281
  596MPD2    H5 8894   4.564   4.188  16.507 -1.2315  0.7551 -1.9099
  596MPD2    N1 8895   4.583   4.584  16.902 -0.8740 -0.1817 -0.0887
  596MPD2    H7 8896   4.548   4.652  16.835 -0.3875 -0.2570 -0.4185
  597TMC3    C1 8897   4.544   0.032  17.040 -0.7866  0.0538 -0.4819
  597TMC3    C2 8898   4.588   0.119  16.951  0.5417 -0.2177 -0.1164
  597TMC3    C3 8899   4.533   0.247  16.962  0.4696 -0.0604  0.0315
  597TMC3    C4 8900   4.449   0.048  17.129 -0.4190  0.2606  0.2062
  597TMC3    C5 8901   4.394   0.175  17.137 -0.1739  0.1018 -0.3535
  597TMC3    C6 8902   4.434   0.277  17.054 -0.5566  0.8968  0.0355
  597TMC3     C 8903   4.591   4.630  17.036 -0.6385 -0.2470  0.9525
  597TMC3     O 8904   4.616   4.568  17.141  0.1685  0.0651  0.5791
  597TMC3     H 8905   4.673   0.111  16.884  1.2363  0.0245  0.7398
  597TMC3    H1 8906   4.422   4.693  17.184 -1.5740 -0.5800 -1.7407
  597TMC3    H2 8907   4.406   0.380  17.074 -1.6632  1.1695 -3.0549
  597TMC3    C7 8908   4.270   0.180  17.213  0.2798 -0.7457 -0.3668
  597TMC3    C8 8909   4.545   0.343  16.849  0.0293 -0.4086 -0.0723
  597TMC3    O1 8910   4.242   0.099  17.299 -0.3747  0.1007  0.2946
  597TMC3    O2 8911   4.446   0.415  16.825 -0.4884 -0.5024  0.7023
  598TMC3    C1 8912   2.620   1.167  15.054  0.1434  0.1325  0.0971
  598TMC3    C2 8913   2.622   1.032  15.034  0.0486  0.4770 -0.1125
  598TMC3    C3 8914   2.644   0.983  14.901  0.2456  0.3171  0.6938
  598TMC3    C4 8915   2.657   1.250  14.952  0.4666  1.2538 -0.4952
  598TMC3    C5 8916   2.699   1.201  14.829 -0.9378 -0.1032 -0.1304
  598TMC3    C6 8917   2.677   1.073  14.797 -0.1156  0.2097  0.5214
  598TMC3     C 8918   2.611   1.220  15.187 -0.2384 -0.9175  0.5289
  598TMC3     O 8919   2.678   1.319  15.216  0.5574  0.5353 -0.0825
  598TMC3     H 8920   2.594   0.960  15.110  4.1617 -0.5455  0.4713
  598TMC3    H1 8921   2.681   1.351  14.985  0.4695  0.8920  0.6354
  598TMC3    H2 8922   2.712   1.032  14.703 -0.5099  0.5864  0.2139
  598TMC3    C7 8923   2.748   1.289  14.727 -0.3197 -0.1898 -0.4796
  598TMC3    C8 8924   2.576   0.861  14.856  0.4602  0.3174 -0.5191
  598TMC3    O1 8925   2.725   1.250  14.614  0.1935  0.2915 -0.7509
  598TMC3    O2 8926   2.529   0.793  14.945  0.4566  0.2546 -0.0136
  599MPD2     C 8927   2.560   3.384  15.485  0.0121 -0.2823 -0.1513
  599MPD2    C1 8928   2.561   3.248  15.523 -0.0501  0.1868 -0.3084
  599MPD2    C2 8929   2.470   3.208  15.625 -0.1757  0.1377 -0.5280
  599MPD2    C3 8930   2.386   3.296  15.691 -0.9635  0.3465  0.0709
  599MPD2    C4 8931   2.388   3.430  15.644  1.0053  0.1911 -0.3979
  599MPD2    C5 8932   2.467   3.473  15.539 -0.6059  0.4901  0.9338
  599MPD2     H 8933   2.485   3.112  15.672  1.8199  1.6338  1.9166
  599MPD2    H1 8934   2.315   3.492  15.695  1.9703  0.8980  0.1315
  599MPD2    H2 8935   2.632   3.411  15.409  0.3853 -2.1632 -0.4667
  599MPD2    H3 8936   2.453   3.569  15.492  1.1435 -0.2623 -1.1322
  599MPD2     N 8937   2.300   3.260  15.793 -0.3450 -0.1755 -0.2766
  599MPD2    H5 8938   2.240   3.336  15.825  0.0147 -0.4784  1.1092
  599MPD2    N1 8939   2.660   3.163  15.469 -0.0928  0.4374  0.1079
  599MPD2    H7 8940   2.732   3.209  15.414  2.3094 -3.4847 -0.0141
  600TMC3    C1 8941   2.200   3.141  15.976  0.4658  0.2198  0.2275
  600TMC3    C2 8942   2.136   3.021  15.995 -0.7678  0.1809  0.2258
  600TMC3    C3 8943   2.022   3.027  16.064  0.0744 -0.0412 -0.3613
  600TMC3    C4 8944   2.155   3.257  16.033  0.3344 -0.1566  0.0195
  600TMC3    C5 8945   2.055   3.245  16.124  0.2011  0.3022 -0.3246
  600TMC3    C6 8946   1.983   3.132  16.141  0.6518 -0.3894  0.7811
  600TMC3     C 8947   2.295   3.142  15.862  0.3848  0.7527  0.2672
  600TMC3     O 8948   2.341   3.032  15.838  0.3927  0.9232  0.4543
  600TMC3     H 8949   2.165   2.925  15.954  1.5200  1.7507 -1.8581
  600TMC3    H1 8950   2.215   3.347  16.034 -0.2028  0.1900  0.7654
  600TMC3    H2 8951   1.906   3.129  16.217 -0.2856  0.5759 -0.1397
  600TMC3    C7 8952   2.031   3.346  16.231  0.9060 -0.6688 -0.3119
  600TMC3    C8 8953   1.937   2.919  16.062  0.2104 -0.8070  0.0492
  600TMC3    O1 8954   1.980   3.310  16.334  0.1425 -0.3213  0.4742
  600TMC3    O2 8955   1.983   2.808  16.076  0.1859 -0.0788  0.7770
  601MPD2     C 8956   4.631   1.503   0.103  0.1946 -0.4444  0.2355
  601MPD2    C1 8957   4.573   1.628   0.127 -0.2338 -0.1100 -0.2636
  601MPD2    C2 8958   4.537   1.670   0.258 -0.2958 -0.2544  0.1904
  601MPD2    C3 8959   4.551   1.585   0.360  0.5469  0.5172  0.7328
  601MPD2    C4 8960   4.593   1.453   0.329 -0.1720  0.0256 -0.1177
  601MPD2    C5 8961   4.650   1.417   0.211  0.4037  0.3207  0.7733
  601MPD2     H 8962   4.491   1.768   0.269 -3.2441 -1.4450 -1.7463
  601MPD2    H1 8963   4.605   1.383   0.411  0.7550  0.7655  0.3888
  601MPD2    H2 8964   4.655   1.477   0.001 -0.8278 -0.6989  0.0615
  601MPD2    H3 8965   4.689   1.316   0.204 -2.2359 -0.6420 -0.0800
  601MPD2     N 8966   4.495   1.601   0.490  0.3840 -0.2159 -0.9605
  601MPD2    H5 8967   4.505   1.524   0.554 -0.2647  0.1448 -0.4259
  601MPD2    N1 8968   4.539   1.718   0.021  0.0365  0.5702  0.3434
  601MPD2    H7 8969   4.520   1.815   0.042 -1.6846 -0.1437  2.0567
  602TMC3    C1 8970   4.460   1.790  17.538 -0.3545 -0.7171 -1.0372
  602TMC3    C2 8971   4.467   1.917  17.582  0.1182 -0.3031 -0.3573
  602TMC3    C3 8972   4.373   2.007  17.532  0.5898 -0.1704  0.5806
  602TMC3    C4 8973   4.366   1.752  17.444  0.4625 -0.4930  0.3046
  602TMC3    C5 8974   4.268   1.840  17.411  0.1236  0.2463 -0.1751
  602TMC3    C6 8975   4.270   1.973  17.453 -0.1017 -0.0590  0.6179
  602TMC3     C 8976   4.514   1.682  17.619  0.5416  0.6270  0.6955
  602TMC3     O 8977   4.500   1.570  17.575 -0.6869  0.6576  0.0508
  602TMC3     H 8978   4.551   1.943  17.645 -0.2161 -2.0134  0.8029
  602TMC3    H1 8979   4.351   1.647  17.420 -0.0408 -0.8647  2.2276
  602TMC3    H2 8980   4.184   2.039  17.443 -2.1785 -2.7560  0.3888
  602TMC3    C7 8981   4.176   1.803  17.315  0.4820  0.5361  0.1564
  602TMC3    C8 8982   4.401   2.153  17.527 -1.3122  0.1841  0.5911
  602TMC3    O1 8983   4.126   1.688  17.321  0.2688  0.5099 -0.0320
  602TMC3    O2 8984   4.480   2.211  17.594 -0.5463  0.0701 -0.3425
  603TMC3    C1 8985   2.307   2.833  11.438 -0.6265 -0.5599  0.0659
  603TMC3    C2 8986   2.397   2.762  11.505 -0.0851  0.6372  0.9589
  603TMC3    C3 8987   2.487   2.825  11.586  0.0468  0.3443  0.2546
  603TMC3    C4 8988   2.305   2.968  11.442 -0.0053 -0.3685  0.3646
  603TMC3    C5 8989   2.406   3.026  11.514 -0.3048 -0.1309 -0.6867
  603TMC3    C6 8990   2.493   2.965  11.594 -0.1885  0.1232  0.0816
  603TMC3     C 8991   2.221   2.770  11.339  0.5253 -0.1582 -0.5956
  603TMC3     O 8992   2.128   2.839  11.297  0.1943 -0.1442 -0.1591
  603TMC3     H 8993   2.407   2.654  11.493  2.0564  1.0232 -0.7972
  603TMC3    H1 8994   2.234   3.026  11.383  0.1476  0.4143  0.9409
  603TMC3    H2 8995   2.585   3.009  11.629 -0.5045  1.4878 -0.8372
  603TMC3    C7 8996   2.463   3.150  11.467 -0.6705 -0.7575  0.5174
  603TMC3    C8 8997   2.563   2.750  11.683  0.1642  0.2440 -0.1864
  603TMC3    O1 8998   2.559   3.206  11.520 -0.1855 -0.5897  0.4877
  603TMC3    O2 8999   2.595   2.637  11.653  0.2156  0.0844  0.4964
  604MPD2     C 9000   3.461   1.236  16.265  0.2584  0.0147 -0.5151
  604MPD2    C1 9001   3.471   1.104  16.305 -0.6756 -0.1450  0.2154
  604MPD2    C2 9002   3.515   1.006  16.217  0.1404  0.8809  0.1090
  604MPD2    C3 9003   3.552   1.032  16.087 -0.1923  0.4901 -0.5707
  604MPD2    C4 9004   3.555   1.171  16.050 -0.5669  0.1983  0.4070
  604MPD2    C5 9005   3.511   1.268  16.139  0.4161  0.1185  0.2962
  604MPD2     H 9006   3.527   0.903  16.247 -2.9659  1.0270  1.7699
  604MPD2    H1 9007   3.589   1.206  15.953 -0.1352 -0.3063  0.3783
  604MPD2    H2 9008   3.447   1.315  16.338 -0.4456  0.4023 -1.0781
  604MPD2    H3 9009   3.531   1.371  16.113  2.3388 -0.4058 -0.3492
  604MPD2     N 9010   3.616   0.930  16.011  0.2375  0.1388 -0.1099
  604MPD2    H5 9011   3.624   0.834  16.043  1.0517  0.0415 -0.6028
  604MPD2    N1 9012   3.445   1.080  16.441 -0.3529 -0.4364  0.3169
  604MPD2    H7 9013   3.410   1.156  16.499 -0.7290  2.5974 -3.8841
  605TMC3    C1 9014   3.472   0.978  16.652  0.1716 -0.1209  0.5534
  605TMC3    C2 9015   3.472   1.109  16.704 -0.7301 -0.6737 -0.0816
  605TMC3    C3 9016   3.440   1.117  16.835  0.0943 -0.3204 -0.3598
  605TMC3    C4 9017   3.451   0.865  16.726  1.1319 -0.4845 -0.5120
  605TMC3    C5 9018   3.409   0.876  16.855  0.2239  0.1395 -0.1697
  605TMC3    C6 9019   3.402   1.002  16.911  0.0199  0.2964 -0.8133
  605TMC3     C 9020   3.469   0.962  16.509  0.2655  0.3568  0.5901
  605TMC3     O 9021   3.500   0.855  16.461 -0.4814  0.1156  0.5573
  605TMC3     H 9022   3.511   1.200  16.659  0.9605 -1.5557 -0.3835
  605TMC3    H1 9023   3.446   0.770  16.675 -2.5715  0.4115 -1.8058
  605TMC3    H2 9024   3.351   1.014  17.006  1.0852 -0.9545 -0.0908
  605TMC3    C7 9025   3.278   0.823  16.864  0.1922 -0.2261  0.0880
  605TMC3    C8 9026   3.494   1.239  16.893 -0.6588 -0.1123  0.1853
  605TMC3    O1 9027   3.181   0.896  16.860  0.3108  0.1289  0.3548
  605TMC3    O2 9028   3.604   1.220  16.944  0.2446 -0.9385 -0.1974
  606TMC3    C1 9029   0.396   4.346  16.888 -0.6136  0.0283  0.1128
  606TMC3    C2 9030   0.518   4.292  16.864 -0.1955 -0.4380  0.2924
  606TMC3    C3 9031   0.542   4.165  16.902 -0.2997  0.0598  0.0302
  606TMC3    C4 9032   0.283   4.272  16.931 -0.2625 -0.1735 -0.5327
  606TMC3    C5 9033   0.312   4.148  16.967 -1.0602  0.5716 -0.1284
  606TMC3    C6 9034   0.438   4.094  16.954 -0.8556  0.2381  0.0988
  606TMC3     C 9035   0.389   4.488  16.837  0.1187 -0.2862 -0.5304
  606TMC3     O 9036   0.497   4.548  16.838 -0.4516 -0.6912  0.4244
  606TMC3     H 9037   0.598   4.359  16.836  0.4550 -2.0032 -1.5140
  606TMC3    H1 9038   0.185   4.316  16.946 -0.3880 -0.2818 -1.0170
  606TMC3    H2 9039   0.438   3.997  17.003 -2.1756 -0.8772 -2.0864
  606TMC3    C7 9040   0.228   4.089  17.070  0.6340  0.3639  0.1483
  606TMC3    C8 9041   0.675   4.130  16.931  0.5541  0.2852  0.5066
  606TMC3    O1 9042   0.231   3.968  17.086 -0.2545  0.1418 -0.2302
  606TMC3    O2 9043   0.748   4.230  16.934  0.4058  0.4391 -0.0016
  607MPD2     C 9044   1.786   2.230  11.690  0.1710  0.3511  0.3430
  607MPD2    C1 9045   1.811   2.290  11.810  0.1004  0.4076  0.0506
  607MPD2    C2 9046   1.756   2.245  11.927 -0.2568 -0.5182 -0.1662
  607MPD2    C3 9047   1.691   2.125  11.923 -0.6594  0.6229  0.2132
  607MPD2    C4 9048   1.665   2.057  11.806 -1.1709  0.3731 -0.8841
  607MPD2    C5 9049   1.705   2.120  11.688 -0.1365  0.1638  0.1807
  607MPD2     H 9050   1.773   2.288  12.025 -1.1554 -0.1544 -0.1679
  607MPD2    H1 9051   1.613   1.963  11.796 -0.2092 -0.2325 -0.1389
  607MPD2    H2 9052   1.832   2.272  11.601  3.4795 -0.6712  1.5493
  607MPD2    H3 9053   1.679   2.081  11.590  0.2430  0.3054  0.0229
  607MPD2     N 9054   1.659   2.070  12.053 -0.3090  0.1953 -0.0757
  607MPD2    H5 9055   1.692   2.123  12.133  0.8239  1.8623 -1.6386
  607MPD2    N1 9056   1.908   2.394  11.825  0.0635 -0.1791  0.3830
  607MPD2    H7 9057   1.932   2.428  11.918 -0.6080  0.2634  0.3961
  608TMC3    C1 9058   2.086   2.525  11.780  0.2000  0.8377 -0.7626
  608TMC3    C2 9059   2.121   2.502  11.911  0.2216 -0.4688 -0.2473
  608TMC3    C3 9060   2.202   2.594  11.973  0.7470  0.2271 -0.6701
  608TMC3    C4 9061   2.101   2.657  11.732  0.2474  0.5742  0.5582
  608TMC3    C5 9062   2.167   2.746  11.809  1.0690  0.4995  0.0980
  608TMC3    C6 9063   2.235   2.720  11.924 -0.7054  0.2368 -0.2595
  608TMC3     C 9064   1.976   2.460  11.721  0.8574  0.3308 -0.4109
  608TMC3     O 9065   1.981   2.443  11.597  0.3102  0.0351 -0.0043
  608TMC3     H 9066   2.118   2.401  11.953 -0.3950 -0.2935  0.1337
  608TMC3    H1 9067   2.080   2.688  11.630 -3.0352  0.6113  1.2605
  608TMC3    H2 9068   2.299   2.786  11.981  0.6390 -1.0242 -0.3143
  608TMC3    C7 9069   2.156   2.877  11.767 -0.2213 -0.4201  0.2313
  608TMC3    C8 9070   2.232   2.574  12.115 -0.1363  0.0258 -0.7399
  608TMC3    O1 9071   2.116   2.902  11.651 -0.1372 -0.5643 -0.0536
  608TMC3    O2 9072   2.317   2.646  12.175  0.4611 -0.2876  0.0421
  609TMC3    C1 9073   0.306   2.621   9.058  1.3967  0.0684  0.0261
  609TMC3    C2 9074   0.397   2.723   9.045 -0.4760  0.2865  0.1807
  609TMC3    C3 9075   0.513   2.700   8.968  0.3023  0.1232 -0.8146
  609TMC3    C4 9076   0.330   2.504   8.997  0.2668  0.3853 -0.7855
  609TMC3    C5 9077   0.434   2.491   8.903 -0.0004  0.0574 -0.1798
  609TMC3    C6 9078   0.522   2.594   8.881 -0.4477 -0.2196  0.0025
  609TMC3     C 9079   0.221   2.608   9.177  0.0254 -0.1711 -0.2407
  609TMC3     O 9080   0.145   2.513   9.174  0.8181 -0.2453  0.0824
  609TMC3     H 9081   0.386   2.820   9.092 -0.2282  0.1766  0.4647
  609TMC3    H1 9082   0.273   2.413   9.016 -0.0141  0.3696 -1.6813
  609TMC3    H2 9083   0.614   2.586   8.824  0.8830 -0.1040  2.1555
  609TMC3    C7 9084   0.480   2.360   8.884 -0.2017 -0.3133  0.0712
  609TMC3    C8 9085   0.601   2.815   8.936  0.2021  0.2414  0.4057
  609TMC3    O1 9086   0.444   2.286   8.975 -0.4982  0.0829 -0.5772
  609TMC3    O2 9087   0.635   2.832   8.818  0.3082 -0.2737 -0.5017
  610TMC3    C1 9088   2.187   1.812  12.679  0.0304  0.1447  0.7467
  610TMC3    C2 9089   2.124   1.910  12.753 -0.7932  0.0646  0.1408
  610TMC3    C3 9090   2.194   2.002  12.821 -0.1171 -0.4868 -0.1971
  610TMC3    C4 9091   2.324   1.834  12.651  0.4936 -0.4681  0.6376
  610TMC3    C5 9092   2.398   1.933  12.715 -0.2238 -0.6766 -0.0796
  610TMC3    C6 9093   2.326   2.008  12.811 -0.0730 -0.1045  0.4274
  610TMC3     C 9094   2.113   1.689  12.655 -1.1432  0.3792  0.3857
  610TMC3     O 9095   1.992   1.691  12.650 -0.1040  0.1037  0.0794
  610TMC3     H 9096   2.024   1.884  12.786 -0.6751  2.4066  2.2862
  610TMC3    H1 9097   2.380   1.774  12.580 -1.8411 -1.9244  0.0144
  610TMC3    H2 9098   2.374   2.092  12.860  0.2493 -0.2808  0.4182
  610TMC3    C7 9099   2.536   1.899  12.752  0.9078 -0.0064  0.0074
  610TMC3    C8 9100   2.131   2.106  12.898  0.1608  0.3302  0.3891
  610TMC3    O1 9101   2.578   1.790  12.716 -0.0014  0.3550  0.0719
  610TMC3    O2 9102   2.205   2.170  12.971  0.9627  0.1656 -0.3069
  611MPD2     C 9103   1.752   2.784  10.898  0.9294 -0.0069  0.2099
  611MPD2    C1 9104   1.712   2.852  10.783  0.1418 -0.2494  0.1159
  611MPD2    C2 9105   1.783   2.953  10.736 -0.0867 -0.1984 -0.3770
  611MPD2    C3 9106   1.899   2.994  10.793  0.9954  0.1586  0.4164
  611MPD2    C4 9107   1.937   2.931  10.913 -0.0635 -0.2949  0.8264
  611MPD2    C5 9108   1.863   2.826  10.962 -0.2717 -0.8827 -0.8298
  611MPD2     H 9109   1.742   3.002  10.648  0.7994 -0.5362 -0.9829
  611MPD2    H1 9110   2.029   2.966  10.958 -0.3321 -0.1985  1.2962
  611MPD2    H2 9111   1.678   2.713  10.934 -0.0986  0.7219 -0.4910
  611MPD2    H3 9112   1.881   2.783  11.060  0.9947 -0.2817 -0.8005
  611MPD2     N 9113   1.972   3.108  10.764  0.1145 -0.0066 -0.1268
  611MPD2    H5 9114   2.044   3.143  10.827 -0.7139  1.5799 -0.0506
  611MPD2    N1 9115   1.581   2.832  10.741  0.2306 -0.1220  0.0866
  611MPD2    H7 9116   1.521   2.791  10.811 -0.6269  0.1380 -0.4883
  612TMC3    C1 9117   2.057   3.291  10.640 -0.5921 -0.0271  0.8119
  612TMC3    C2 9118   2.126   3.333  10.747  0.3662 -0.3624  0.1097
  612TMC3    C3 9119   2.205   3.449  10.745  0.3469 -0.2576  0.6846
  612TMC3    C4 9120   2.067   3.356  10.516  0.7261  0.2590  0.0604
  612TMC3    C5 9121   2.131   3.478  10.518 -1.0538  0.5195 -0.3261
  612TMC3    C6 9122   2.206   3.523  10.629  0.1881  0.5613 -0.0908
  612TMC3     C 9123   1.952   3.185  10.650 -0.8091  0.5437 -0.3196
  612TMC3     O 9124   1.866   3.182  10.561 -0.3884  0.6218  0.3721
  612TMC3     H 9125   2.110   3.292  10.846  3.2267  0.0019  0.7158
  612TMC3    H1 9126   2.034   3.313  10.422  3.0853 -2.7632  0.5819
  612TMC3    H2 9127   2.261   3.616  10.630  1.7176 -0.3274 -0.3890
  612TMC3    C7 9128   2.135   3.557  10.396 -0.0159  0.1302  1.1912
  612TMC3    C8 9129   2.280   3.505  10.860 -0.1133  0.4539 -0.1548
  612TMC3    O1 9130   2.065   3.511  10.308 -0.0889  0.1200  0.5742
  612TMC3    O2 9131   2.327   3.617  10.851  0.7345  0.1494 -0.4660
  613MPD2     C 9132   1.377   0.326  16.153 -0.8738  0.1363 -0.5521
  613MPD2    C1 9133   1.361   0.202  16.099  0.1805 -0.3071  0.0294
  613MPD2    C2 9134   1.412   0.091  16.170 -1.4595 -0.7861 -0.0959
  613MPD2    C3 9135   1.471   0.108  16.290  0.5496  0.4939 -0.8833
  613MPD2    C4 9136   1.501   0.232  16.344 -0.3956  0.9677 -0.1086
  613MPD2    C5 9137   1.455   0.338  16.264 -0.0410  0.0140 -0.1197
  613MPD2     H 9138   1.393   4.724  16.136  0.4258 -0.9044 -0.8086
  613MPD2    H1 9139   1.558   0.247  16.434  2.1676  1.4359 -1.8011
  613MPD2    H2 9140   1.347   0.412  16.095 -0.5894  0.9383  0.4876
  613MPD2    H3 9141   1.493   0.438  16.282 -1.4956  0.6789 -0.7403
  613MPD2     N 9142   1.511   4.722  16.351 -0.5976  0.4917  0.1392
  613MPD2    H5 9143   1.482   4.635  16.308  0.2435 -0.8541  2.2722
  613MPD2    N1 9144   1.275   0.194  15.994 -0.1742  0.5423 -0.4995
  613MPD2    H7 9145   1.226   0.280  15.969  1.0159  1.7733  1.4093
  614TMC3    C1 9146   1.196   0.106  15.779  0.6514 -0.2287  0.7254
  614TMC3    C2 9147   1.159   4.715  15.736 -0.0992  0.2335  0.5369
  614TMC3    C3 9148   1.026   4.688  15.719 -0.2914 -0.2271  0.4536
  614TMC3    C4 9149   1.106   0.207  15.774 -0.5673  0.3475 -0.1857
  614TMC3    C5 9150   0.978   0.180  15.729 -0.2946  0.4142  0.1000
  614TMC3    C6 9151   0.932   0.053  15.717  0.3081  0.0422  0.7043
  614TMC3     C 9152   1.270   0.086  15.904 -0.4994 -0.0779 -0.0509
  614TMC3     O 9153   1.308   4.702  15.915  0.0975 -0.2220  0.1422
  614TMC3     H 9154   1.236   4.639  15.721 -0.1242  0.2912  0.1428
  614TMC3    H1 9155   1.140   0.310  15.787 -0.7756  0.1842  1.6721
  614TMC3    H2 9156   0.828   0.028  15.704  0.8090 -1.6455  0.0263
  614TMC3    C7 9157   0.901   0.286  15.668 -0.6727  0.1848  0.5452
  614TMC3    C8 9158   0.987   4.568  15.792  0.0369  0.4921 -0.6208
  614TMC3    O1 9159   0.929   0.401  15.691 -0.0774  0.0308  1.1908
  614TMC3    O2 9160   0.875   4.519  15.773  0.1049  0.1612  0.6836
  615MPD2     C 9161   0.100   1.286  16.948 -0.0866 -0.1915 -0.3266
  615MPD2    C1 9162   0.180   1.244  16.840  0.0477 -0.1337 -0.0744
  615MPD2    C2 9163   0.169   1.310  16.718 -0.2767  0.2882 -0.6301
  615MPD2    C3 9164   0.085   1.419  16.705  0.2244  0.7422  0.0535
  615MPD2    C4 9165   0.017   1.467  16.807 -0.0718  0.5682 -0.4299
  615MPD2    C5 9166   0.019   1.393  16.932 -0.6224  0.8545  0.0348
  615MPD2     H 9167   0.231   1.272  16.637  0.3142 -1.4015  0.6261
  615MPD2    H1 9168   4.669   1.538  16.805  0.1990  1.0696  4.2502
  615MPD2    H2 9169   0.101   1.242  17.047 -1.0566 -0.4732 -0.4446
  615MPD2    H3 9170   4.691   1.424  17.015 -0.6859 -0.6275  0.5509
  615MPD2     N 9171   0.076   1.488  16.581  0.1700  0.9667 -0.1718
  615MPD2    H5 9172   0.026   1.577  16.583 -1.1811  0.2472 -1.8868
  615MPD2    N1 9173   0.285   1.150  16.849 -0.8744 -0.1075 -0.6570
  615MPD2    H7 9174   0.329   1.120  16.763 -1.2958  1.1502 -1.3214
  616TMC3    C1 9175   0.481   1.054  16.929 -0.2507 -0.7073 -0.2469
  616TMC3    C2 9176   0.523   1.065  16.800 -0.4083  1.2780 -0.1521
  616TMC3    C3 9177   0.631   0.989  16.767 -0.3837  0.5417  0.5215
  616TMC3    C4 9178   0.548   0.983  17.025  0.4053  0.0070 -0.3186
  616TMC3    C5 9179   0.659   0.918  16.991  0.3122 -0.0131 -0.2063
  616TMC3    C6 9180   0.707   0.921  16.864 -0.0745  0.1695  0.3127
  616TMC3     C 9181   0.345   1.105  16.959 -0.1560  0.3165 -0.3273
  616TMC3     O 9182   0.312   1.126  17.073 -0.2665 -0.2576  0.6519
  616TMC3     H 9183   0.483   1.134  16.726  1.8710 -0.0684 -2.6185
  616TMC3    H1 9184   0.510   0.987  17.127 -2.1276 -2.2992 -1.1576
  616TMC3    H2 9185   0.780   0.848  16.833 -1.8955 -1.2600 -0.5519
  616TMC3    C7 9186   0.730   0.848  17.099  1.0473 -0.3495  0.1554
  616TMC3    C8 9187   0.687   1.011  16.633 -0.0549  0.3738  0.1520
  616TMC3    O1 9188   0.665   0.815  17.196 -0.0937 -0.0721 -0.1933
  616TMC3    O2 9189   0.608   1.042  16.548  0.2862  0.1577 -0.5255
  617MPD2     C 9190   3.068   4.156  13.973 -0.4937  0.2748  0.1084
  617MPD2    C1 9191   3.134   4.061  14.046  0.3300 -0.1845 -0.3526
  617MPD2    C2 9192   3.071   3.947  14.094  0.0303  0.6340  0.2365
  617MPD2    C3 9193   2.939   3.931  14.062  0.1651  0.6666 -0.2670
  617MPD2    C4 9194   2.868   4.027  13.994 -0.4400 -0.5135  0.3745
  617MPD2    C5 9195   2.934   4.136  13.951 -0.3177 -0.0070 -0.4117
  617MPD2     H 9196   3.125   3.879  14.159 -0.5280  1.5176  1.6209
  617MPD2    H1 9197   2.764   4.008  13.968 -0.3789  1.6775 -1.4987
  617MPD2    H2 9198   3.127   4.235  13.928 -1.7737  0.6762 -0.8885
  617MPD2    H3 9199   2.887   4.215  13.894  1.2520  0.8482 -0.5161
  617MPD2     N 9200   2.866   3.811  14.088  0.0899 -0.5851  0.7503
  617MPD2    H5 9201   2.773   3.794  14.052  1.3845 -0.5207 -2.5996
  617MPD2    N1 9202   3.271   4.088  14.078 -0.0291  0.4739  0.1341
  617MPD2    H7 9203   3.314   4.172  14.042 -1.3060  1.8680  1.8866
  618TMC3    C1 9204   3.496   4.053  14.148  0.5797 -0.0246  0.5659
  618TMC3    C2 9205   3.592   3.963  14.185 -0.5879 -0.4581 -0.8319
  618TMC3    C3 9206   3.713   4.011  14.229  0.1737 -0.3914 -0.2200
  618TMC3    C4 9207   3.518   4.193  14.172 -0.1660  0.0975  0.8890
  618TMC3    C5 9208   3.644   4.231  14.214  0.1505  0.4643  0.1038
  618TMC3    C6 9209   3.741   4.139  14.247  0.8169  0.7082  0.4635
  618TMC3     C 9210   3.361   4.000  14.134  0.1568  0.3468 -0.5321
  618TMC3     O 9211   3.346   3.891  14.194 -0.3908  0.4270  0.6687
  618TMC3     H 9212   3.557   3.861  14.175 -0.9284 -0.4164 -0.1403
  618TMC3    H1 9213   3.443   4.267  14.145 -0.6722  0.2010  2.5653
  618TMC3    H2 9214   3.839   4.174  14.277  1.7544  0.0641 -1.7777
  618TMC3    C7 9215   3.690   4.365  14.180  0.1597 -0.0412  0.2511
  618TMC3    C8 9216   3.825   3.930  14.191  0.9874 -0.1376 -0.3680
  618TMC3    O1 9217   3.640   4.434  14.091  0.0093 -0.0830  0.2439
  618TMC3    O2 9218   3.801   3.836  14.114  0.3867  0.1126  0.4112
  619MPD2     C 9219   0.058   0.213  13.489 -0.4168  0.5115  0.3807
  619MPD2    C1 9220   0.013   0.301  13.391 -0.5532 -0.6769 -0.7798
  619MPD2    C2 9221   4.628   0.275  13.325 -0.4990 -0.5961 -0.3832
  619MPD2    C3 9222   4.557   0.159  13.345 -0.1832 -0.1655  0.1189
  619MPD2    C4 9223   4.588   0.077  13.449 -0.1438 -0.7205  0.4464
  619MPD2    C5 9224   4.707   0.108  13.521  0.3881  1.1046 -0.2592
  619MPD2     H 9225   4.587   0.344  13.252  1.4874 -0.9647 -1.8454
  619MPD2    H1 9226   4.530   4.720  13.456 -0.1618 -0.5972  1.8608
  619MPD2    H2 9227   0.147   0.237  13.546  0.6834 -0.1661 -1.0639
  619MPD2    H3 9228   0.011   0.040  13.596  0.5359  0.1103 -1.2362
  619MPD2     N 9229   4.436   0.136  13.277  0.0853  0.0367 -0.4658
  619MPD2    H5 9230   4.360   0.079  13.312  2.4528 -1.2128  2.7138
  619MPD2    N1 9231   0.065   0.424  13.369  0.4732  0.0929  0.0205
  619MPD2    H7 9232   0.007   0.484  13.312  0.2593 -0.2077 -0.0753
  620TMC3    C1 9233   0.210   0.610  13.376 -0.1732 -0.2906  0.0532
  620TMC3    C2 9234   0.138   0.652  13.263  0.2950 -0.7122  0.0191
  620TMC3    C3 9235   0.132   0.790  13.237 -0.3179 -0.5344 -0.3096
  620TMC3    C4 9236   0.264   0.706  13.460  0.5125  0.3653  0.5150
  620TMC3    C5 9237   0.267   0.839  13.425  0.4011  0.4921 -0.1563
  620TMC3    C6 9238   0.205   0.884  13.310 -0.7692 -0.3390  0.4305
  620TMC3     C 9239   0.185   0.478  13.422  0.3005  0.3209 -0.4773
  620TMC3     O 9240   0.248   0.433  13.514  0.1354 -0.0241 -0.3187
  620TMC3     H 9241   0.090   0.585  13.193 -3.1507  1.8109 -0.0557
  620TMC3    H1 9242   0.316   0.670  13.549 -0.7420  1.6051  1.7420
  620TMC3    H2 9243   0.176   0.987  13.296 -2.4855 -0.7308  1.0574
  620TMC3    C7 9244   0.236   0.914  13.541 -0.4973 -0.2037 -0.0571
  620TMC3    C8 9245   4.728   0.839  13.230  0.5875 -0.3523 -0.5849
  620TMC3    O1 9246   0.332   0.943  13.613  0.3260 -0.1866 -0.1744
  620TMC3    O2 9247   4.698   0.932  13.302 -0.2745  0.2092  0.9734
  621MPD2     C 9248   4.650   1.054  10.102  0.4677  0.0497  0.3389
  621MPD2    C1 9249   0.018   1.063  10.005 -0.2145 -0.1663  0.0585
  621MPD2    C2 9250   0.048   1.190   9.947  0.6818 -0.4209  0.0077
  621MPD2    C3 9251   4.707   1.303   9.992  0.3705  0.4322 -0.8565
  621MPD2    C4 9252   4.615   1.290  10.090  0.1882 -0.0093  0.0430
  621MPD2    C5 9253   4.579   1.161  10.139  0.8537  0.2684  0.7924
  621MPD2     H 9254   0.107   1.207   9.858 -1.2686  2.3087 -0.7590
  621MPD2    H1 9255   4.570   1.375  10.139  2.0171 -0.0122  1.7318
  621MPD2    H2 9256   4.624   0.961  10.150  0.4454 -0.2775 -0.3076
  621MPD2    H3 9257   4.511   1.147  10.222 -0.6126 -1.1168 -0.6487
  621MPD2     N 9258   0.014   1.427   9.935  0.1541  0.5539 -0.0006
  621MPD2    H5 9259   0.093   1.413   9.872 -0.6451 -0.3233 -0.8029
  621MPD2    N1 9260   0.094   0.950   9.953  0.5056  0.5425 -0.8348
  621MPD2    H7 9261   0.156   0.963   9.874  1.7252  1.8266  0.3585
  622TMC3    C1 9262   0.112   0.730   9.881 -0.5050  0.6820 -0.8406
  622TMC3    C2 9263   0.089   0.595   9.910 -0.2470  0.2090  0.6452
  622TMC3    C3 9264   0.121   0.508   9.801 -0.3195 -0.0920  0.5746
  622TMC3    C4 9265   0.139   0.779   9.754 -0.4051 -0.5260 -0.5683
  622TMC3    C5 9266   0.159   0.681   9.658  0.2323 -0.8905 -0.2703
  622TMC3    C6 9267   0.160   0.547   9.677 -0.6826  1.0562 -0.3600
  622TMC3     C 9268   0.063   0.826   9.983 -0.5905  0.0259 -0.7269
  622TMC3     O 9269   4.720   0.772  10.069 -0.1729 -0.6213 -0.7203
  622TMC3     H 9270   0.068   0.553  10.008 -2.8395  1.3401  0.5897
  622TMC3    H1 9271   0.119   0.881   9.723  0.8478 -0.7923 -2.2056
  622TMC3    H2 9272   0.155   0.482   9.591 -1.0005 -0.9543  1.1767
  622TMC3    C7 9273   0.197   0.719   9.527 -0.4962 -0.0981  0.2472
  622TMC3    C8 9274   0.058   0.369   9.795  0.5870  0.1740  0.4849
  622TMC3    O1 9275   0.301   0.669   9.482  0.2797  0.1680 -0.1520
  622TMC3    O2 9276   0.126   0.277   9.745  0.0893 -0.2066 -0.0024
  623MPD2     C 9277   3.944   1.836  16.012 -0.2696  0.0234 -0.0068
  623MPD2    C1 9278   3.863   1.776  16.104 -0.3807  0.5516 -0.5065
  623MPD2    C2 9279   3.900   1.772  16.232 -0.8340  0.5746 -0.5704
  623MPD2    C3 9280   4.026   1.807  16.283  0.5747 -0.6958 -0.0737
  623MPD2    C4 9281   4.117   1.852  16.190 -0.8369 -0.3876  0.7672
  623MPD2    C5 9282   4.071   1.879  16.061 -0.1770 -1.0884  0.0545
  623MPD2     H 9283   3.829   1.725  16.299 -0.6868  0.8332 -0.2338
  623MPD2    H1 9284   4.210   1.898  16.223 -0.7003 -0.2341  0.1551
  623MPD2    H2 9285   3.925   1.849  15.906  0.8295  1.2690 -0.0560
  623MPD2    H3 9286   4.147   1.917  15.995  2.4248 -4.1952  1.2659
  623MPD2     N 9287   4.049   1.781  16.419  0.4156 -0.3590 -0.3190
  623MPD2    H5 9288   3.962   1.745  16.457  0.1775 -0.4809 -0.9836
  623MPD2    N1 9289   3.741   1.715  16.067  0.1991 -0.4348 -0.3058
  623MPD2    H7 9290   3.678   1.676  16.136  0.2068 -2.3719 -1.3886
  624TMC3    C1 9291   4.242   1.543  16.749  1.1338  0.5199  0.5818
  624TMC3    C2 9292   4.125   1.533  16.811  0.3121  1.0007  0.3525
  624TMC3    C3 9293   4.028   1.624  16.776 -0.4270 -0.8723 -0.1193
  624TMC3    C4 9294   4.262   1.631  16.646 -0.0692 -0.8551 -0.3103
  624TMC3    C5 9295   4.160   1.712  16.613  1.3994  0.3092 -0.3848
  624TMC3    C6 9296   4.046   1.724  16.684 -0.2795  0.0217 -0.0254
  624TMC3     C 9297   4.334   1.436  16.775 -0.4967 -0.3129 -0.1735
  624TMC3     O 9298   4.331   1.401  16.896 -0.0804  0.2461 -0.3010
  624TMC3     H 9299   4.107   1.459  16.888  0.4924  1.4983  0.8702
  624TMC3    H1 9300   4.345   1.619  16.578 -0.4045 -1.1641 -0.6570
  624TMC3    H2 9301   3.975   1.805  16.675 -0.0403  0.1867 -0.4495
  624TMC3    C7 9302   4.170   1.773  16.481 -0.4879 -0.2350 -0.4906
  624TMC3    C8 9303   3.899   1.591  16.837  0.2467  0.0545  1.0065
  624TMC3    O1 9304   4.283   1.793  16.439  0.4988  0.0259  0.0683
  624TMC3    O2 9305   3.897   1.510  16.934 -0.3865  0.2868 -0.2176
  625MPD2     C 9306   0.186   2.493   0.802  0.1842 -0.4822 -0.5322
  625MPD2    C1 9307   0.165   2.632   0.791 -0.4321 -0.2678  0.4595
  625MPD2    C2 9308   0.271   2.717   0.810  0.5358 -0.3702  0.4632
  625MPD2    C3 9309   0.397   2.672   0.821  0.1844  0.0085 -0.3576
  625MPD2    C4 9310   0.417   2.535   0.826 -0.3339  0.8378  0.1556
  625MPD2    C5 9311   0.310   2.447   0.823 -0.7276 -0.8705 -0.3968
  625MPD2     H 9312   0.268   2.824   0.822  2.8964 -0.2714  0.0834
  625MPD2    H1 9313   0.521   2.504   0.825  0.1193  2.3685  0.3083
  625MPD2    H2 9314   0.104   2.422   0.805 -1.3367  1.2891  0.0457
  625MPD2    H3 9315   0.324   2.340   0.839  1.2124 -1.1559 -3.9925
  625MPD2     N 9316   0.492   2.772   0.829  0.1369  0.2635  0.1960
  625MPD2    H5 9317   0.463   2.869   0.822 -0.2778  0.0671 -0.9031
  625MPD2    N1 9318   0.041   2.689   0.756  0.0318 -0.1298 -0.0028
  625MPD2    H7 9319   0.049   2.790   0.744  1.7537 -0.2748 -0.2045
  626TMC3    C1 9320   4.565   2.743   0.706  0.2963  0.0949 -0.0524
  626TMC3    C2 9321   4.463   2.742   0.612 -0.5470 -0.3760 -0.2494
  626TMC3    C3 9322   4.418   2.862   0.580  0.2483  0.0569  0.0346
  626TMC3    C4 9323   4.590   2.856   0.784  0.0559 -0.3234 -0.6723
  626TMC3    C5 9324   4.529   2.969   0.746 -0.4869 -0.0537 -0.3178
  626TMC3    C6 9325   4.444   2.978   0.641  0.4422 -0.9083  0.3136
  626TMC3     C 9326   4.656   2.633   0.725 -1.0009 -0.9631  0.0602
  626TMC3     O 9327   4.622   2.517   0.699 -0.3189  0.3292  0.1270
  626TMC3     H 9328   4.437   2.654   0.555  0.5217 -1.0104  0.2297
  626TMC3    H1 9329   4.641   2.848   0.879 -2.0722  0.9731  0.5678
  626TMC3    H2 9330   4.384   3.065   0.619  1.4966  0.2216  1.8699
  626TMC3    C7 9331   4.537   3.084   0.838 -0.0985  0.4384 -0.0744
  626TMC3    C8 9332   4.295   2.874   0.501 -0.1715 -0.0917  0.0842
  626TMC3    O1 9333   4.642   3.106   0.899  0.0368  0.0922 -0.0716
  626TMC3    O2 9334   4.263   2.983   0.461  0.4271 -0.2131 -0.5957
  627MPD2     C 9335   3.403   2.867  13.889  0.2869  0.2434 -0.6341
  627MPD2    C1 9336   3.334   2.853  14.001  0.5203 -0.6333  0.8982
  627MPD2    C2 9337   3.218   2.771  14.009  0.1147  0.2341  0.7946
  627MPD2    C3 9338   3.184   2.688  13.902 -0.7220  0.1946  0.2886
  627MPD2    C4 9339   3.256   2.712  13.786 -0.4106 -0.6420 -0.4787
  627MPD2    C5 9340   3.355   2.808  13.775  0.1431 -0.1823  0.1400
  627MPD2     H 9341   3.164   2.769  14.103  0.0060 -1.5846  0.6853
  627MPD2    H1 9342   3.235   2.656  13.695 -0.9870  0.3455 -0.9476
  627MPD2    H2 9343   3.496   2.920  13.874  0.4481  0.4689  1.2309
  627MPD2    H3 9344   3.390   2.827  13.674  0.1457 -2.7171 -0.3251
  627MPD2     N 9345   3.083   2.596  13.928  0.0622 -0.1212  0.1538
  627MPD2    H5 9346   3.035   2.590  14.017 -0.8141  1.4597 -0.2156
  627MPD2    N1 9347   3.381   2.915  14.116  0.0842  0.6039  0.0392
  627MPD2    H7 9348   3.314   2.914  14.192 -0.3764 -0.8796 -0.3783
  628TMC3    C1 9349   3.532   2.978  14.282  0.3489  0.0724 -0.6891
  628TMC3    C2 9350   3.654   2.924  14.320  0.1071  0.1852 -0.8939
  628TMC3    C3 9351   3.670   2.907  14.457 -0.5980 -0.2381  0.2440
  628TMC3    C4 9352   3.432   3.010  14.366  0.5392  0.1437 -0.0828
  628TMC3    C5 9353   3.457   3.002  14.499 -0.3244  0.2734  0.1855
  628TMC3    C6 9354   3.570   2.944  14.545  0.1678 -0.4834 -0.6876
  628TMC3     C 9355   3.513   2.953  14.143  0.1811 -0.0327  0.0251
  628TMC3     O 9356   3.614   2.942  14.074  0.3105  0.0523 -0.2224
  628TMC3     H 9357   3.735   2.900  14.252  0.7740 -1.8120  0.6094
  628TMC3    H1 9358   3.331   3.038  14.336  0.3505  0.6496  1.0052
  628TMC3    H2 9359   3.596   2.963  14.649  0.8336  0.7298 -1.0780
  628TMC3    C7 9360   3.349   3.010  14.592  0.1533  0.4755 -0.8716
  628TMC3    C8 9361   3.801   2.861  14.508 -0.0158  0.1150  0.6428
  628TMC3    O1 9362   3.351   2.952  14.697  0.2226  0.5365 -0.2746
  628TMC3    O2 9363   3.893   2.865  14.426  0.0296  0.1310 -0.7218
  629MPD2     C 9364   1.056   1.154  16.304 -0.0378 -0.6216  0.1237
  629MPD2    C1 9365   1.121   1.106  16.418  0.0890 -0.6053 -0.5032
  629MPD2    C2 9366   1.045   1.070  16.537 -0.5747 -0.2114  0.5086
  629MPD2    C3 9367   0.901   1.069  16.527 -0.0081  1.1414 -0.4079
  629MPD2    C4 9368   0.847   1.114  16.408  0.2385 -0.6745 -0.2803
  629MPD2    C5 9369   0.920   1.145  16.306  0.6088 -0.1156  0.4835
  629MPD2     H 9370   1.092   1.022  16.622  0.9015 -1.3821 -1.0072
  629MPD2    H1 9371   0.741   1.127  16.389  0.9806  0.9945 -3.3660
  629MPD2    H2 9372   1.108   1.189  16.216 -1.6821 -0.8661 -0.9482
  629MPD2    H3 9373   0.876   1.185  16.214 -0.1638 -1.7615  0.1456
  629MPD2     N 9374   0.824   1.020  16.634 -0.1258 -0.0544  0.1672
  629MPD2    H5 9375   0.868   0.982  16.717  1.4476  0.4555 -0.4390
  629MPD2    N1 9376   1.261   1.103  16.418  0.7712 -0.4684 -0.0728
  629MPD2    H7 9377   1.311   1.153  16.345 -2.3242  0.9589 -1.1899
  630TMC3    C1 9378   1.483   1.062  16.491 -0.6774 -0.4836 -0.7589
  630TMC3    C2 9379   1.533   1.161  16.406 -0.1832  0.6948 -0.2279
  630TMC3    C3 9380   1.666   1.157  16.382  0.2505 -0.1864  0.5321
  630TMC3    C4 9381   1.571   0.985  16.557 -0.5354 -0.7979 -1.0508
  630TMC3    C5 9382   1.699   0.984  16.533 -0.0988  0.2228  0.1752
  630TMC3    C6 9383   1.750   1.060  16.431  0.4862 -0.1176  0.3134
  630TMC3     C 9384   1.339   1.034  16.510 -0.3508 -0.0112  0.0297
  630TMC3     O 9385   1.314   0.962  16.607  0.1667 -0.2144  0.0117
  630TMC3     H 9386   1.473   1.245  16.371  0.6506  0.8283 -1.3580
  630TMC3    H1 9387   1.527   0.913  16.626 -0.7096 -1.8601 -2.2788
  630TMC3    H2 9388   1.857   1.064  16.412  0.4717 -0.4622  0.1630
  630TMC3    C7 9389   1.784   0.981  16.651 -0.2676 -0.2216 -0.0021
  630TMC3    C8 9390   1.737   1.274  16.340 -0.3758  0.3381  0.3166
  630TMC3    O1 9391   1.748   0.898  16.735 -0.3387  0.1560 -0.3389
  630TMC3    O2 9392   1.847   1.291  16.389 -0.5047  0.3159  0.0930
  631MPD2     C 9393   4.461   1.512  15.575  0.4039  0.2094 -0.3118
  631MPD2    C1 9394   4.568   1.599  15.573 -0.2071  0.4605  0.9549
  631MPD2    C2 9395   4.658   1.600  15.677  0.7869 -0.1821 -0.9384
  631MPD2    C3 9396   4.633   1.510  15.786 -0.5340  0.4386  0.1785
  631MPD2    C4 9397   4.517   1.440  15.783 -0.4487 -0.3904  0.9622
  631MPD2    C5 9398   4.431   1.430  15.682 -0.2567  0.1359 -0.3558
  631MPD2     H 9399   0.009   1.667  15.678  1.2703 -0.7990 -0.0930
  631MPD2    H1 9400   4.486   1.383  15.870 -0.7583 -1.3088  0.2453
  631MPD2    H2 9401   4.398   1.511  15.487 -0.9371 -2.8132  0.6847
  631MPD2    H3 9402   4.347   1.362  15.683  0.8305 -1.2473 -3.1916
  631MPD2     N 9403   4.702   1.534  15.905 -0.0300 -0.4606  0.2310
  631MPD2    H5 9404   0.020   1.621  15.906 -2.9484  1.2793  1.4536
  631MPD2    N1 9405   4.574   1.673  15.450  0.3903  0.2048  0.4035
  631MPD2    H7 9406   4.503   1.668  15.378  0.6619 -2.0311  0.2838
  632TMC3    C1 9407   4.652   1.819  15.292 -0.3384  0.2623 -0.5172
  632TMC3    C2 9408   4.538   1.902  15.303  0.0142 -0.2428  0.8305
  632TMC3    C3 9409   4.483   1.933  15.181  0.4088  0.1905 -0.6890
  632TMC3    C4 9410   4.705   1.779  15.174 -0.8399 -0.5301  0.0596
  632TMC3    C5 9411   4.656   1.834  15.057  0.1109 -0.0720 -0.3780
  632TMC3    C6 9412   4.537   1.903  15.054 -0.0599  0.5439  0.1932
  632TMC3     C 9413   4.686   1.740  15.410 -0.1381 -0.2888  0.3619
  632TMC3     O 9414   0.069   1.732  15.445  0.3906 -0.2368  0.2441
  632TMC3     H 9415   4.483   1.907  15.396 -0.3318 -2.0542  0.7185
  632TMC3    H1 9416   0.070   1.736  15.167 -0.4579  0.3246  0.2099
  632TMC3    H2 9417   4.497   1.933  14.958  1.2458 -2.6371 -1.3349
  632TMC3    C7 9418   4.710   1.798  14.926  0.6582  0.0199  0.4055
  632TMC3    C8 9419   4.353   2.000  15.184  0.8285 -0.2835  0.3143
  632TMC3    O1 9420   4.705   1.877  14.835 -0.1762 -0.1038 -0.2483
  632TMC3    O2 9421   4.275   1.988  15.094  0.4123 -0.0340 -0.1300
  633MPD2     C 9422   4.161   4.359  17.517 -0.2907  0.0902  0.5407
  633MPD2    C1 9423   4.158   4.267  17.409 -0.5409  0.2368 -0.4029
  633MPD2    C2 9424   4.185   4.132  17.427  0.1070  0.4411 -0.1720
  633MPD2    C3 9425   4.220   4.089  17.554  0.0047  0.1670 -0.2475
  633MPD2    C4 9426   4.218   4.173  17.665 -0.2763 -0.0225 -0.2005
  633MPD2    C5 9427   4.190   4.302  17.639  0.1884 -0.8389 -0.2569
  633MPD2     H 9428   4.183   4.059  17.347  1.5682 -0.5541  0.6983
  633MPD2    H1 9429   4.244   4.149   0.032 -1.0177 -3.5147 -0.8224
  633MPD2    H2 9430   4.145   4.466  17.509 -0.8266 -0.0868 -0.8958
  633MPD2    H3 9431   4.192   4.372  17.722 -1.0343  1.0565 -1.8332
  633MPD2     N 9432   4.257   3.954  17.568  0.0619 -0.0932 -0.0994
  633MPD2    H5 9433   4.302   3.936  17.657 -0.3711 -2.6532 -0.3969
  633MPD2    N1 9434   4.146   4.315  17.278  0.1989 -0.3647 -0.1129
  633MPD2    H7 9435   4.146   4.245  17.205  0.9375 -0.8540  0.3572
  634TMC3    C1 9436   4.142   4.459  17.089 -0.4974  0.4654 -0.1124
  634TMC3    C2 9437   4.200   4.357  17.015  0.5332  0.0789  0.4691
  634TMC3    C3 9438   4.239   4.393  16.889 -0.0376 -0.1268 -0.4466
  634TMC3    C4 9439   4.124   4.585  17.036  0.2427  0.1656 -0.4169
  634TMC3    C5 9440   4.156   4.601  16.906 -0.2962  0.2542  0.7775
  634TMC3    C6 9441   4.214   4.514  16.827 -0.6112 -0.8232  0.6146
  634TMC3     C 9442   4.131   4.445  17.234  0.3255  0.2985 -0.5952
  634TMC3     O 9443   4.110   4.545  17.300  0.7664  0.0364 -0.0214
  634TMC3     H 9444   4.214   4.254  17.046  0.5085 -0.2949 -0.7616
  634TMC3    H1 9445   4.079   4.660  17.100 -0.9591 -0.7654 -0.1720
  634TMC3    H2 9446   4.249   4.540  16.727 -4.0856 -1.8423 -0.8909
  634TMC3    C7 9447   4.098   4.718  16.838  0.1058 -0.0484 -0.0054
  634TMC3    C8 9448   4.256   4.278  16.798 -0.2638  0.1008  0.1648
  634TMC3    O1 9449   4.146   0.008  16.728 -0.6586 -0.5853  0.2781
  634TMC3    O2 9450   4.303   4.172  16.843 -0.3854  0.0676 -0.0411
  635TMC3    C1 9451   4.059   0.974   1.265  0.2907  0.2382 -0.7673
  635TMC3    C2 9452   3.973   0.871   1.256  0.0889  0.0726 -0.7515
  635TMC3    C3 9453   3.959   0.785   1.358  0.1033  0.9608 -0.3891
  635TMC3    C4 9454   4.128   1.001   1.381  0.8794 -0.7915  0.2340
  635TMC3    C5 9455   4.123   0.898   1.475  0.2109 -0.3165 -0.5971
  635TMC3    C6 9456   4.034   0.794   1.472 -0.3431 -0.3273  0.3996
  635TMC3     C 9457   4.075   1.068   1.153 -0.1693 -0.1803 -0.6395
  635TMC3     O 9458   4.130   1.168   1.192 -0.0302 -0.2299 -0.2756
  635TMC3     H 9459   3.906   0.865   1.171 -0.4300 -1.2122 -0.2552
  635TMC3    H1 9460   4.192   1.088   1.385  1.7313 -1.4114  0.3392
  635TMC3    H2 9461   4.029   0.726   1.556  2.5674  1.1036  1.7284
  635TMC3    C7 9462   4.196   0.926   1.599  1.2095 -0.0462 -0.5815
  635TMC3    C8 9463   3.844   0.700   1.353  0.0958 -0.4228 -0.9003
  635TMC3    O1 9464   4.270   1.023   1.592 -0.1580 -0.0025  0.4238
  635TMC3    O2 9465   3.750   0.754   1.294 -0.0218  0.1070  0.2882
  636MPD2     C 9466   0.912   0.288  16.570  0.2735  0.5549  0.9111
  636MPD2    C1 9467   0.958   0.239  16.453 -0.0391  0.5819  0.3887
  636MPD2    C2 9468   1.045   0.132  16.455 -0.3596 -0.4048  0.0444
  636MPD2    C3 9469   1.089   0.083  16.578  0.1211  0.3227 -0.0156
  636MPD2    C4 9470   1.052   0.144  16.694  0.3636 -0.1966 -0.0615
  636MPD2    C5 9471   0.969   0.252  16.689  0.4994 -1.0470  0.5107
  636MPD2     H 9472   1.080   0.075  16.370  1.8219 -0.2108  0.8041
  636MPD2    H1 9473   1.078   0.101  16.790 -1.9087 -1.9692 -0.2342
  636MPD2    H2 9474   0.861   0.382  16.588 -1.5380 -0.1391 -0.6498
  636MPD2    H3 9475   0.965   0.324  16.770 -0.5915 -2.2264  1.4969
  636MPD2     N 9476   1.170   4.698  16.569 -0.3950 -0.0172  0.1488
  636MPD2    H5 9477   1.182   4.649  16.481 -0.0739 -0.4745  0.4486
  636MPD2    N1 9478   0.917   0.295  16.332  0.1893  0.4024  0.2051
  636MPD2    H7 9479   0.953   0.267  16.241  0.0275  0.2775  0.1791
  637TMC3    C1 9480   1.341   4.548  16.641 -0.1858 -0.8006 -0.3198
  637TMC3    C2 9481   1.465   4.594  16.656 -0.3947 -0.0246 -0.2269
  637TMC3    C3 9482   1.548   4.581  16.545 -0.7759  0.2208  0.4172
  637TMC3    C4 9483   1.290   4.481  16.535 -0.1577 -0.0327 -0.4955
  637TMC3    C5 9484   1.385   4.440  16.448  0.0410 -0.0232 -0.3769
  637TMC3    C6 9485   1.509   4.488  16.451 -0.1624 -0.2015 -0.1906
  637TMC3     C 9486   1.251   4.653  16.674  0.0570 -0.8546  0.0140
  637TMC3     O 9487   1.272   4.700  16.783  0.2480  0.0782 -0.5427
  637TMC3     H 9488   1.492   4.655  16.742  3.0206  0.0964 -1.4096
  637TMC3    H1 9489   1.189   4.444  16.520 -0.5060  0.3363  0.9364
  637TMC3    H2 9490   1.572   4.460  16.367  0.1707 -0.1683  0.0450
  637TMC3    C7 9491   1.348   4.423  16.310 -0.1027  0.4762  0.1051
  637TMC3    C8 9492   1.560   4.711  16.484  0.3527  0.0936  0.3510
  637TMC3    O1 9493   1.402   4.492  16.227 -0.0687  0.2916  0.1612
  637TMC3    O2 9494   1.588   0.059  16.569  0.6349 -0.4678 -0.2658
  638MPD2     C 9495   4.651   3.288  14.617 -0.1359  0.0864  0.2903
  638MPD2    C1 9496   4.645   3.176  14.539  0.3613 -0.4682  0.2368
  638MPD2    C2 9497   4.689   3.057  14.590 -0.4244  0.2188  0.6104
  638MPD2    C3 9498   0.010   3.046  14.713  0.2235  0.7649 -0.2954
  638MPD2    C4 9499   0.024   3.158  14.788 -0.4814  0.1950  0.4435
  638MPD2    C5 9500   4.711   3.275  14.740 -0.0458 -0.2459  0.3755
  638MPD2     H 9501   4.684   2.964  14.533  0.8247  0.8542 -0.5276
  638MPD2    H1 9502   0.067   3.150  14.887 -0.9309 -0.7915  0.5601
  638MPD2    H2 9503   4.617   3.386  14.587 -0.2625 -0.1984 -0.4940
  638MPD2    H3 9504   4.708   3.360  14.808 -1.7596  0.0462 -0.0744
  638MPD2     N 9505   0.058   2.918  14.754 -0.1277 -0.7825  0.1287
  638MPD2    H5 9506   0.047   2.846  14.683  0.2997 -1.9428  1.2225
  638MPD2    N1 9507   4.565   3.185  14.423  0.4022 -0.0144  0.0349
  638MPD2    H7 9508   4.508   3.268  14.411  1.1451  0.6938  1.4953
  639TMC3    C1 9509   0.170   2.749  14.864 -0.2100  0.6628  0.8227
  639TMC3    C2 9510   0.130   2.679  14.755 -0.1219 -0.1935  0.2033
  639TMC3    C3 9511   0.211   2.582  14.712  0.1540  0.4038  0.2368
  639TMC3    C4 9512   0.292   2.730  14.923 -1.0734 -0.4677 -0.0162
  639TMC3    C5 9513   0.378   2.633  14.868  0.5466  0.0308  0.0746
  639TMC3    C6 9514   0.341   2.560  14.757 -0.3710  0.1704  0.2844
  639TMC3     C 9515   0.121   2.886  14.869  0.0068  0.4209  0.1509
  639TMC3     O 9516   0.156   2.962  14.958  0.7119 -0.8318 -0.0451
  639TMC3     H 9517   0.028   2.687  14.720 -0.2827 -1.5120  0.3754
  639TMC3    H1 9518   0.316   2.781  15.015  0.5011 -0.5487 -0.3784
  639TMC3    H2 9519   0.397   2.482  14.707 -0.9104  1.0115 -1.6345
  639TMC3    C7 9520   0.497   2.597  14.940  0.2637 -0.1910  0.2995
  639TMC3    C8 9521   0.146   2.483  14.620 -0.3242 -0.6978  0.7468
  639TMC3    O1 9522   0.498   2.613  15.061 -0.2260  0.1893  0.1512
  639TMC3    O2 9523   0.219   2.403  14.556  0.3034 -0.1971  0.0659
  640MPD2     C 9524   0.880   2.217   9.388 -0.1951  0.7028 -0.2633
  640MPD2    C1 9525   0.965   2.326   9.414  0.0649  0.1854 -0.2472
  640MPD2    C2 9526   0.930   2.406   9.523  0.6804 -0.6245  0.4047
  640MPD2    C3 9527   0.831   2.376   9.610  0.4440  0.5585 -0.5808
  640MPD2    C4 9528   0.756   2.260   9.584  0.5019 -0.1355  0.1881
  640MPD2    C5 9529   0.776   2.187   9.475 -1.2566 -0.7599 -0.7022
  640MPD2     H 9530   0.989   2.496   9.537  0.3221 -0.5867  1.6495
  640MPD2    H1 9531   0.670   2.229   9.643 -0.5183 -2.3911 -2.4720
  640MPD2    H2 9532   0.893   2.172   9.290  0.1886 -0.5020  0.3390
  640MPD2    H3 9533   0.706   2.107   9.452  1.3075 -3.2612  0.1832
  640MPD2     N 9534   0.804   2.454   9.728  0.1860 -0.9434  0.8334
  640MPD2    H5 9535   0.721   2.422   9.777 -0.9710  1.5220  0.4811
  640MPD2    N1 9536   1.073   2.342   9.327 -1.0166  0.7547  0.4471
  640MPD2    H7 9537   1.089   2.267   9.261 -0.7796  0.0609  1.2984
  641TMC3    C1 9538   1.275   2.420   9.245 -0.1366  0.7368 -0.0585
  641TMC3    C2 9539   1.253   2.335   9.148  0.1321  0.5448 -0.1128
  641TMC3    C3 9540   1.338   2.224   9.136  0.2440  0.1338 -0.2491
  641TMC3    C4 9541   1.397   2.425   9.307  1.3494 -0.9404 -0.4486
  641TMC3    C5 9542   1.485   2.325   9.285 -0.1545  0.7362 -0.0281
  641TMC3    C6 9543   1.451   2.215   9.208  0.2250 -0.3644 -0.8455
  641TMC3     C 9544   1.163   2.446   9.336 -0.2800  0.4391  0.3097
  641TMC3     O 9545   1.182   2.533   9.414  0.0118  0.3865  0.0251
  641TMC3     H 9546   1.161   2.335   9.090  0.1898 -0.9489 -0.2077
  641TMC3    H1 9547   1.413   2.482   9.398 -0.9575  0.2419 -0.7666
  641TMC3    H2 9548   1.517   2.130   9.192  0.8803  0.0360 -0.2689
  641TMC3    C7 9549   1.617   2.329   9.339 -0.0209  0.2290 -0.0695
  641TMC3    C8 9550   1.274   2.095   9.122 -0.4026 -0.0399  0.1226
  641TMC3    O1 9551   1.692   2.230   9.331  0.7055 -0.0179 -0.4859
  641TMC3    O2 9552   1.156   2.098   9.165  0.2846 -0.1815  0.3595
  642TMC3    C1 9553   1.604   2.910  12.553  0.5370 -0.3839 -0.0339
  642TMC3    C2 9554   1.741   2.941  12.547  0.4509 -0.2249  0.3173
  642TMC3    C3 9555   1.814   2.862  12.465  0.4405 -0.2470 -1.0971
  642TMC3    C4 9556   1.540   2.813  12.471 -0.3379 -0.1155  0.1269
  642TMC3    C5 9557   1.620   2.757  12.382  0.7560 -0.0780 -0.3421
  642TMC3    C6 9558   1.756   2.773  12.380 -0.2585  0.6310  0.4915
  642TMC3     C 9559   1.523   3.024  12.599  0.1520  0.6102  0.1081
  642TMC3     O 9560   1.582   3.130  12.626  0.0517 -0.0760  0.2837
  642TMC3     H 9561   1.783   3.023  12.604 -0.9370  0.3046  0.5599
  642TMC3    H1 9562   1.433   2.805  12.455 -0.6839  1.7739  1.4743
  642TMC3    H2 9563   1.821   2.706  12.324  0.0919  2.2715 -1.0704
  642TMC3    C7 9564   1.568   2.633  12.318  0.1544 -0.1724 -0.1357
  642TMC3    C8 9565   1.958   2.883  12.442  0.1466  0.0048 -0.0240
  642TMC3    O1 9566   1.629   2.597  12.219  0.1225  0.3324 -0.1428
  642TMC3    O2 9567   2.013   2.838  12.340 -0.1264 -0.2118 -0.1173
  643TMC3    C1 9568   1.037   2.102   0.281 -0.1708  0.3283  0.2748
  643TMC3    C2 9569   0.906   2.122   0.240  0.6177  0.0162  0.1121
  643TMC3    C3 9570   0.860   2.068   0.123  0.9275  0.1562  0.0250
  643TMC3    C4 9571   1.122   2.029   0.205 -0.3366  1.3486 -0.5588
  643TMC3    C5 9572   1.072   1.979   0.090 -0.0800  0.1879 -0.5714
  643TMC3    C6 9573   0.942   2.002   0.045  0.6398  0.9793 -0.0820
  643TMC3     C 9574   1.078   2.177   0.401  0.3805  0.2350  0.3475
  643TMC3     O 9575   0.989   2.236   0.462 -0.4105 -0.1006 -0.1804
  643TMC3     H 9576   0.832   2.178   0.296 -0.0901 -1.7797  0.9874
  643TMC3    H1 9577   1.227   2.020   0.234 -0.0993 -1.3918 -2.3530
  643TMC3    H2 9578   0.913   1.983  17.677  1.2482 -0.9561  0.1016
  643TMC3    C7 9579   1.166   1.945  17.720 -0.3494 -0.6137 -0.3064
  643TMC3    C8 9580   0.757   2.143   0.049  0.0646  0.4089 -0.5654
  643TMC3    O1 9581   1.279   1.986  17.733  0.4002  0.2182 -0.0560
  643TMC3    O2 9582   0.657   2.089  17.735 -0.2698 -0.2146 -0.0443
  644MPD2     C 9583   1.291   3.134   9.327 -0.1782  0.3210  0.4704
  644MPD2    C1 9584   1.221   3.054   9.418  0.0865 -0.0625 -0.0669
  644MPD2    C2 9585   1.115   2.975   9.379  0.5985  0.6730 -0.0401
  644MPD2    C3 9586   1.099   2.944   9.240  0.0691  0.1416 -0.0181
  644MPD2    C4 9587   1.169   3.027   9.151 -0.0651  0.2249 -0.4899
  644MPD2    C5 9588   1.257   3.123   9.197 -0.2573 -0.2945 -0.3393
  644MPD2     H 9589   1.065   2.930   9.463  0.6201  1.6092  0.4714
  644MPD2    H1 9590   1.153   3.020   9.044 -0.5329 -2.1659 -0.2683
  644MPD2    H2 9591   1.366   3.206   9.356  0.6193 -0.4102  0.2260
  644MPD2    H3 9592   1.307   3.189   9.126 -0.6563  0.1155 -0.2342
  644MPD2     N 9593   1.009   2.842   9.201 -0.4660  0.2342  0.0695
  644MPD2    H5 9594   0.952   2.793   9.268 -0.2805 -1.4684 -1.0279
  644MPD2    N1 9595   1.261   3.075   9.551  0.4375  0.4525 -0.6020
  644MPD2    H7 9596   1.353   3.110   9.574  0.3375  0.5127 -0.2907
  645TMC3    C1 9597   0.903   2.682   9.077  0.2664  0.1658  0.2432
  645TMC3    C2 9598   0.830   2.665   9.189 -0.8810 -0.3264 -0.3749
  645TMC3    C3 9599   0.773   2.538   9.207 -0.2097  0.0649  0.4077
  645TMC3    C4 9600   0.935   2.579   8.989 -0.4038  0.3441 -0.2599
  645TMC3    C5 9601   0.873   2.456   9.007  0.3845  0.2976 -0.0258
  645TMC3    C6 9602   0.796   2.439   9.118  0.5116  0.0997  0.1954
  645TMC3     C 9603   0.999   2.794   9.078 -0.2225 -0.2317  0.3168
  645TMC3     O 9604   1.076   2.806   8.981 -0.0382 -0.0036 -0.2434
  645TMC3     H 9605   0.785   2.753   9.234  0.6956 -0.4340  1.4271
  645TMC3    H1 9606   1.012   2.599   8.916 -0.3907 -1.2729 -0.6776
  645TMC3    H2 9607   0.756   2.341   9.142 -0.8266  0.9221  1.3338
  645TMC3    C7 9608   0.932   2.339   8.958  0.6593  0.1224  0.6969
  645TMC3    C8 9609   0.661   2.536   9.303  0.1836 -0.0644 -0.9809
  645TMC3    O1 9610   0.932   2.245   9.036 -0.3085 -0.1522 -0.1989
  645TMC3    O2 9611   0.660   2.634   9.378 -0.5429 -0.2073  0.7525
  646MPD2     C 9612   0.645   1.748  14.111 -0.1774  0.2466 -0.1401
  646MPD2    C1 9613   0.570   1.779  14.221 -0.5366 -0.0739 -0.5211
  646MPD2    C2 9614   0.443   1.841  14.201 -0.4477 -0.4197 -0.2669
  646MPD2    C3 9615   0.394   1.875  14.073  0.1287  0.0973  0.9389
  646MPD2    C4 9616   0.477   1.837  13.968  0.6334  0.6892 -0.1255
  646MPD2    C5 9617   0.594   1.775  13.985 -0.2923 -0.0618 -0.1973
  646MPD2     H 9618   0.384   1.853  14.292 -1.3165  0.7949 -0.9982
  646MPD2    H1 9619   0.449   1.868  13.868  0.4239  0.5579 -0.1061
  646MPD2    H2 9620   0.740   1.696  14.120 -0.0091  0.0329 -3.1848
  646MPD2    H3 9621   0.647   1.749  13.894  1.2299 -0.2114  0.7431
  646MPD2     N 9622   0.271   1.939  14.062 -0.7208  0.4223 -0.0421
  646MPD2    H5 9623   0.231   1.979  14.147  1.7115 -0.8250  1.6774
  646MPD2    N1 9624   0.609   1.716  14.342 -0.2243  0.0193  0.6421
  646MPD2    H7 9625   0.683   1.647  14.336 -0.8581 -0.7161  1.2751
  647TMC3    C1 9626   0.634   1.662  14.569  0.2660  0.0603  1.1362
  647TMC3    C2 9627   0.570   1.647  14.689 -0.3382 -0.2268  0.4572
  647TMC3    C3 9628   0.638   1.603  14.793 -0.2971  0.0783  0.0303
  647TMC3    C4 9629   0.769   1.636  14.549  0.2269 -0.0027 -0.0982
  647TMC3    C5 9630   0.836   1.590  14.655 -0.2133  0.8968 -0.1415
  647TMC3    C6 9631   0.769   1.574  14.781 -0.0149  0.2909 -0.8548
  647TMC3     C 9632   0.556   1.729  14.470  0.4816  0.4033  0.3986
  647TMC3     O 9633   0.459   1.795  14.506  0.1942  0.2482 -0.2522
  647TMC3     H 9634   0.462   1.662  14.686 -0.4002 -0.8087 -0.2682
  647TMC3    H1 9635   0.814   1.668  14.456 -2.1220  2.5014 -0.3867
  647TMC3    H2 9636   0.827   1.544  14.868 -2.5251 -1.9758  0.0068
  647TMC3    C7 9637   0.979   1.571  14.643  0.8527  0.0193 -0.4408
  647TMC3    C8 9638   0.577   1.612  14.925 -0.2396  0.0288  0.3174
  647TMC3    O1 9639   1.037   1.531  14.744 -0.1223  0.5756 -0.1210
  647TMC3    O2 9640   0.651   1.580  15.019 -0.4828 -0.3788 -0.8848
  648TMC3    C1 9641   4.526   4.328  16.307  0.5109 -0.3773  0.3421
  648TMC3    C2 9642   4.548   4.199  16.268  0.1452 -0.5241  0.2901
  648TMC3    C3 9643   4.548   4.177  16.136 -1.1921  0.0516  0.6356
  648TMC3    C4 9644   4.498   4.435  16.224 -0.5652 -0.0894  0.1344
  648TMC3    C5 9645   4.523   4.407  16.093 -0.2415  0.8129  0.3798
  648TMC3    C6 9646   4.541   4.280  16.048  0.4378 -0.5437 -0.2954
  648TMC3     C 9647   4.563   4.381  16.443  0.6566  0.4591  0.3913
  648TMC3     O 9648   4.584   4.502  16.459 -0.1602 -0.2820  0.5897
  648TMC3     H 9649   4.551   4.112  16.333  1.0305 -0.4288  0.3795
  648TMC3    H1 9650   4.488   4.536  16.262 -0.0775  0.2473 -0.6324
  648TMC3    H2 9651   4.519   4.256  15.944 -3.0363 -0.1070  0.3331
  648TMC3    C7 9652   4.499   4.515  16.000  0.1830 -0.0667 -0.6459
  648TMC3    C8 9653   4.575   4.045  16.088  0.1239 -0.1716 -0.2983
  648TMC3    O1 9654   4.568   4.513  15.901 -0.2366 -0.2069 -0.3786
  648TMC3    O2 9655   4.586   3.958  16.177 -0.1137  0.2526  0.3433
  649TMC3    C1 9656   3.620   0.497  12.707  0.7840 -0.2141 -0.1405
  649TMC3    C2 9657   3.718   0.403  12.669 -0.1123  0.5699 -0.6879
  649TMC3    C3 9658   3.734   0.285  12.742 -0.9920 -0.0763 -0.3072
  649TMC3    C4 9659   3.530   0.454  12.802  0.1377 -0.2558  0.2025
  649TMC3    C5 9660   3.546   0.337  12.873  0.0278  0.2245 -0.0275
  649TMC3    C6 9661   3.644   0.250  12.842  0.1196 -0.0135 -0.1798
  649TMC3     C 9662   3.575   0.603  12.616  0.1255 -0.3396  0.3353
  649TMC3     O 9663   3.461   0.642  12.625 -1.0200 -0.3122  0.5193
  649TMC3     H 9664   3.782   0.423  12.584  0.2516 -0.1162 -0.5741
  649TMC3    H1 9665   3.447   0.518  12.831  0.8484  0.0641  1.5416
  649TMC3    H2 9666   3.673   0.172  12.911  0.6661  1.5536  1.3619
  649TMC3    C7 9667   3.454   0.314  12.978 -0.3807 -0.3739 -0.9131
  649TMC3    C8 9668   3.820   0.179  12.699 -0.9634 -0.0458 -0.0832
  649TMC3    O1 9669   3.450   0.395  13.076  0.1862 -0.0893  0.6231
  649TMC3    O2 9670   3.783   0.064  12.710 -0.5586 -0.0055  0.3279
  650TMC3    C1 9671   0.922   2.021  12.274 -0.1769 -0.2322  0.2655
  650TMC3    C2 9672   0.861   2.090  12.378  0.2469  0.3754 -0.7341
  650TMC3    C3 9673   0.803   2.208  12.344  0.3897 -0.2554  0.8679
  650TMC3    C4 9674   0.925   2.064  12.145  0.2146 -0.3590 -0.3996
  650TMC3    C5 9675   0.868   2.183  12.122  0.4934  0.5330 -0.5287
  650TMC3    C6 9676   0.814   2.262  12.219 -0.1446 -0.1984 -0.2666
  650TMC3     C 9677   0.993   1.898  12.319 -0.3617  0.6357 -0.3749
  650TMC3     O 9678   0.949   1.852  12.424 -0.4531  0.1606  0.3240
  650TMC3     H 9679   0.844   2.053  12.479 -0.1566  0.6648 -0.6948
  650TMC3    H1 9680   0.970   2.003  12.067 -0.0546  0.6197 -1.3328
  650TMC3    H2 9681   0.769   2.359  12.198  1.6968  0.8784  0.7679
  650TMC3    C7 9682   0.933   2.253  12.023 -0.7209  0.5041 -0.9785
  650TMC3    C8 9683   0.746   2.295  12.448 -0.6161 -0.1118  0.7219
  650TMC3    O1 9684   0.940   2.211  11.906 -0.3792 -0.2080  0.3537
  650TMC3    O2 9685   0.712   2.408  12.411 -0.3833  0.3343 -0.2273
  651MPD2     C 9686   0.240   4.685  10.390 -0.2621 -0.2823 -0.0420
  651MPD2    C1 9687   0.209   0.078  10.430 -0.2836 -0.4038  0.4583
  651MPD2    C2 9688   0.306   0.177  10.407  0.3499 -0.1627  0.0915
  651MPD2    C3 9689   0.425   0.152  10.343 -0.1340  0.2289  0.0165
  651MPD2    C4 9690   0.441   0.026  10.292 -0.1523 -0.1100  0.9304
  651MPD2    C5 9691   0.353   4.659  10.321  0.5771  0.3782  0.2817
  651MPD2     H 9692   0.291   0.276  10.448 -0.6767  0.3713 -1.5361
  651MPD2    H1 9693   0.528   4.723  10.238 -1.2845 -1.8828  0.3312
  651MPD2    H2 9694   0.159   4.615  10.401 -1.3863  1.0574  0.2622
  651MPD2    H3 9695   0.370   4.558  10.284 -0.0123  0.6178 -0.6444
  651MPD2     N 9696   0.518   0.255  10.319  0.2640 -0.2954  0.0298
  651MPD2    H5 9697   0.481   0.349  10.336 -0.2144 -1.1199  3.6375
  651MPD2    N1 9698   0.095   0.119  10.506 -0.4825  0.0770 -0.2529
  651MPD2    H7 9699   0.097   0.216  10.533 -0.2704 -0.3454  1.2508
  652TMC3    C1 9700   0.901   0.472  10.168 -0.1708  0.0201 -0.3104
  652TMC3    C2 9701   0.832   0.357  10.191  0.0123  0.1148  0.0515
  652TMC3    C3 9702   0.732   0.358  10.284 -0.3669 -0.1201  0.1455
  652TMC3    C4 9703   0.874   0.592  10.231  0.4776  0.1420 -0.3648
  652TMC3    C5 9704   0.773   0.595  10.325 -0.3601  0.3802 -0.1096
  652TMC3    C6 9705   0.704   0.478  10.349 -0.4123  0.2787  0.0603
  652TMC3     C 9706   1.038   0.459  10.134 -0.0379  0.3496  0.0384
  652TMC3     O 9707   1.060   0.414  10.020  0.4134  0.3599  0.5979
  652TMC3     H 9708   0.858   0.258  10.156 -1.1263  0.4461 -1.7047
  652TMC3    H1 9709   0.934   0.677  10.203 -0.8105  0.8300 -1.0311
  652TMC3    H2 9710   0.620   0.483  10.417 -1.2030 -2.2606 -0.7610
  652TMC3    C7 9711   0.757   0.700  10.419  0.3114  0.1043  0.1417
  652TMC3    C8 9712   0.650   0.237  10.294 -0.0150 -0.0063 -0.8918
  652TMC3    O1 9713   0.697   0.666  10.522  0.1658 -0.0592 -0.0963
  652TMC3    O2 9714   0.716   0.132  10.289 -0.8743  0.0762  0.1210
  653MPD2     C 9715   3.796   4.322  17.563  0.0549 -0.2098  0.2408
  653MPD2    C1 9716   3.698   4.388  17.502  0.2810  0.2712  0.0104
  653MPD2    C2 9717   3.648   4.341  17.381 -0.1679 -0.0014 -0.7619
  653MPD2    C3 9718   3.695   4.220  17.324  0.6542 -0.6082  0.7637
  653MPD2    C4 9719   3.798   4.163  17.392 -0.2869  0.6544 -0.5370
  653MPD2    C5 9720   3.846   4.207  17.510 -0.6899 -0.4705  0.2090
  653MPD2     H 9721   3.573   4.396  17.324  0.7989  1.6636 -0.4318
  653MPD2    H1 9722   3.852   4.076  17.356 -0.2875  1.1463 -1.7326
  653MPD2    H2 9723   3.849   4.358  17.650  0.7938 -1.5741  0.3637
  653MPD2    H3 9724   3.929   4.159  17.561 -1.8129 -0.7063  1.7937
  653MPD2     N 9725   3.642   4.158  17.207 -0.4582 -0.0606  0.8638
  653MPD2    H5 9726   3.549   4.192  17.183 -0.4502 -0.7149 -0.0986
  653MPD2    N1 9727   3.645   4.510  17.552  0.8142  0.3968 -0.0042
  653MPD2    H7 9728   3.587   4.569  17.494 -0.0445 -1.1179 -0.6743
  654TMC3    C1 9729   3.589   4.010  17.038  0.4901 -0.3774 -0.1743
  654TMC3    C2 9730   3.502   4.106  16.984 -0.0321 -0.2748  0.0337
  654TMC3    C3 9731   3.398   4.067  16.905 -0.6195  0.1519 -0.7363
  654TMC3    C4 9732   3.574   3.878  17.012  0.1238 -0.2693  0.3114
  654TMC3    C5 9733   3.466   3.840  16.938  0.4131 -0.5904  0.7838
  654TMC3    C6 9734   3.376   3.929  16.887  0.4324 -0.9385  0.2046
  654TMC3     C 9735   3.679   4.043  17.145  0.4047 -0.5366  0.1630
  654TMC3     O 9736   3.770   3.963  17.167 -0.1038 -0.0984  0.0898
  654TMC3     H 9737   3.530   4.211  16.992 -3.1500  0.7735 -2.6720
  654TMC3    H1 9738   3.657   3.814  17.041 -0.0342 -0.1271  1.0743
  654TMC3    H2 9739   3.292   3.895  16.828 -0.1545 -0.2144  0.6194
  654TMC3    C7 9740   3.424   3.705  16.953 -0.1671 -0.9294 -0.6087
  654TMC3    C8 9741   3.330   4.170  16.821  0.5759 -0.0695 -0.3934
  654TMC3    O1 9742   3.306   3.678  16.920 -0.2873 -0.5496 -0.0763
  654TMC3    O2 9743   3.386   4.276  16.834 -0.2231 -0.3226 -0.1763
  655MPD2     C 9744   0.327   4.523  15.595 -0.8697 -0.5388 -0.2599
  655MPD2    C1 9745   0.199   4.570  15.584  0.6684  0.6287  0.6450
  655MPD2    C2 9746   0.129   4.546  15.462 -0.8825  0.0312  0.3431
  655MPD2    C3 9747   0.180   4.473  15.357 -0.0834  0.4076  0.2875
  655MPD2    C4 9748   0.313   4.430  15.373  1.3015 -0.2540 -0.2338
  655MPD2    C5 9749   0.384   4.460  15.485  0.2211  0.2620  0.1929
  655MPD2     H 9750   0.038   4.601  15.441  0.9793  2.9817  0.1770
  655MPD2    H1 9751   0.361   4.376  15.292  1.7367  0.8197 -0.6933
  655MPD2    H2 9752   0.384   4.531  15.686 -1.0155  0.5216 -0.2567
  655MPD2    H3 9753   0.486   4.424  15.490 -0.2104 -0.5058  3.3112
  655MPD2     N 9754   0.107   4.431  15.247 -0.5176 -0.1720 -0.4072
  655MPD2    H5 9755   0.146   4.356  15.190  1.3199  0.2472  0.2863
  655MPD2    N1 9756   0.143   4.655  15.685  0.4517 -0.0692 -0.5098
  655MPD2    H7 9757   0.052   4.693  15.661  0.4931 -1.0828 -2.2782
  656TMC3    C1 9758   0.099   0.043  15.880  0.0275 -0.2026  0.5069
  656TMC3    C2 9759   0.053   0.021  16.000  0.0798  0.8082 -0.4139
  656TMC3    C3 9760   4.724   0.131  16.056  0.0612 -0.3745 -0.1737
  656TMC3    C4 9761   0.078   0.164  15.805  0.2596  0.2414  0.2200
  656TMC3    C5 9762   0.004   0.263  15.863  0.2940 -0.4904  0.2773
  656TMC3    C6 9763   4.692   0.244  15.985 -0.4524  0.2504  0.3684
  656TMC3     C 9764   0.183   4.673  15.813  0.7702  0.1524  0.1426
  656TMC3     O 9765   0.245   4.592  15.876  0.3059 -0.4676  0.3625
  656TMC3     H 9766   0.059   4.660  16.051  0.5523  0.9442 -0.2091
  656TMC3    H1 9767   0.114   0.175  15.703  0.0922 -1.7955 -0.0626
  656TMC3    H2 9768   4.613   0.309  16.020  0.9729  2.8877 -1.3261
  656TMC3    C7 9769   4.701   0.374  15.770  0.2010 -0.8850 -0.2853
  656TMC3    C8 9770   4.648   0.107  16.174 -0.3456  0.1180  0.4439
  656TMC3    O1 9771   0.030   0.387  15.667 -0.3741  0.3812 -0.5896
  656TMC3    O2 9772   4.645   4.730  16.216  0.0806 -0.2008 -0.2613
  657TMC3    C1 9773   3.579   3.733  15.312 -0.3587  0.0784  0.1974
  657TMC3    C2 9774   3.628   3.790  15.424 -0.1344  0.3243 -0.0363
  657TMC3    C3 9775   3.565   3.900  15.469 -0.3124 -0.2961  0.2025
  657TMC3    C4 9776   3.472   3.773  15.243  0.5088 -0.1236  0.0901
  657TMC3    C5 9777   3.413   3.890  15.286 -0.5165  0.4510  0.1318
  657TMC3    C6 9778   3.458   3.959  15.394 -0.1448 -0.7470 -0.0252
  657TMC3     C 9779   3.662   3.625  15.244 -0.1700 -0.1039 -0.1260
  657TMC3     O 9780   3.608   3.520  15.212  0.1261 -0.4044  0.0201
  657TMC3     H 9781   3.712   3.750  15.481 -1.7788 -1.7712  0.9385
  657TMC3    H1 9782   3.441   3.724  15.151  1.8472 -0.7105 -0.0413
  657TMC3    H2 9783   3.412   4.050  15.428  0.7020 -0.6001  0.7237
  657TMC3    C7 9784   3.348   3.970  15.187 -0.6127 -0.2616  0.2446
  657TMC3    C8 9785   3.599   3.950  15.603 -0.6644 -0.5192 -0.4324
  657TMC3    O1 9786   3.390   4.082  15.171 -0.1736 -0.0137  0.4327
  657TMC3    O2 9787   3.703   3.909  15.655 -0.2594  0.1039  0.2002
  658MPD2     C 9788   0.371   4.292  14.700  0.4552  0.5365 -0.7267
  658MPD2    C1 9789   0.233   4.306  14.685 -0.4080  0.1753 -0.9665
  658MPD2    C2 9790   0.174   4.379  14.581  0.3498 -0.4741  0.2137
  658MPD2    C3 9791   0.263   4.451  14.500  0.0306 -0.0430  0.1905
  658MPD2    C4 9792   0.402   4.435  14.506 -0.6332  0.5104  0.4314
  658MPD2    C5 9793   0.452   4.353  14.602  0.3364  0.0592 -0.1430
  658MPD2     H 9794   0.067   4.397  14.588  0.0552 -2.0387 -0.2451
  658MPD2    H1 9795   0.458   4.484  14.428 -1.0239 -0.8245 -0.7017
  658MPD2    H2 9796   0.419   4.247  14.785 -2.1872  2.7062  1.9051
  658MPD2    H3 9797   0.556   4.327  14.585 -0.0696 -1.4967 -0.2990
  658MPD2     N 9798   0.195   4.552  14.428  0.0441 -0.5050 -0.4352
  658MPD2    H5 9799   0.095   4.544  14.445 -0.0460 -0.2199 -0.8411
  658MPD2    N1 9800   0.149   4.257  14.788  0.2296 -0.1878 -0.1993
  658MPD2    H7 9801   0.187   4.215  14.872  0.0926  0.0281 -0.0292
  659TMC3    C1 9802   4.677   4.258  14.900 -1.0311  0.3298  0.1558
  659TMC3    C2 9803   0.010   4.328  15.004 -0.4877 -0.7013  0.2386
  659TMC3    C3 9804   4.662   4.410  15.088  0.3501  0.2606 -0.3549
  659TMC3    C4 9805   4.542   4.269  14.882 -0.0024 -0.0870 -0.3859
  659TMC3    C5 9806   4.471   4.346  14.966  0.3334  0.0607  0.7913
  659TMC3    C6 9807   4.530   4.428  15.059 -0.2811 -1.1937  0.3919
  659TMC3     C 9808   0.015   4.226  14.776  0.1012 -0.1923 -0.0508
  659TMC3     O 9809   4.669   4.215  14.681  1.1825  0.7863 -0.2846
  659TMC3     H 9810   0.118   4.338  15.012 -0.4524 -2.3741  1.7536
  659TMC3    H1 9811   4.484   4.207  14.815  1.9148 -1.8758 -0.3926
  659TMC3    H2 9812   4.478   4.500  15.121  1.3984 -0.4069  0.8955
  659TMC3    C7 9813   4.326   4.339  14.960  0.1316  0.6420 -0.0186
  659TMC3    C8 9814   4.717   4.467  15.214  0.0944  0.6790  0.7566
  659TMC3    O1 9815   4.282   4.230  14.928  0.3476 -0.1200  0.3212
  659TMC3    O2 9816   4.644   4.533  15.284  0.4204 -0.7181  0.1114
  660MPD2     C 9817   3.020   3.698  12.560 -0.0082 -0.4338 -0.0708
  660MPD2    C1 9818   2.900   3.675  12.619  0.0594  0.8879  0.4851
  660MPD2    C2 9819   2.882   3.567  12.703 -0.1691 -0.0295 -0.0240
  660MPD2    C3 9820   2.987   3.488  12.728  0.0888  0.4676  0.6183
  660MPD2    C4 9821   3.111   3.521  12.685 -0.1848 -0.4087  0.1578
  660MPD2    C5 9822   3.136   3.629  12.599 -0.3310  0.1914 -0.2093
  660MPD2     H 9823   2.789   3.551  12.756  0.3741  0.8133  1.1958
  660MPD2    H1 9824   3.201   3.476  12.724 -0.0015 -1.9756 -2.0850
  660MPD2    H2 9825   3.026   3.785  12.495  1.0339 -0.7632 -0.4140
  660MPD2    H3 9826   3.237   3.663  12.577 -0.6625  0.4437 -1.3249
  660MPD2     N 9827   2.958   3.372  12.808 -0.3176  0.0775  0.1740
  660MPD2    H5 9828   2.864   3.359  12.844 -0.7154  0.8103 -0.5992
  660MPD2    N1 9829   2.792   3.765  12.590 -0.0944 -0.5899 -0.0234
  660MPD2    H7 9830   2.815   3.836  12.522  1.3689 -0.0169  1.0670
  661TMC3    C1 9831   2.560   3.831  12.588 -0.0678  0.5529 -0.3891
  661TMC3    C2 9832   2.589   3.875  12.465 -0.2396  0.3603 -0.1133
  661TMC3    C3 9833   2.483   3.892  12.385 -0.4504 -0.8000  0.0870
  661TMC3    C4 9834   2.430   3.799  12.632  0.1996  0.1254  0.9732
  661TMC3    C5 9835   2.331   3.813  12.550 -0.3247 -0.4107  0.2937
  661TMC3    C6 9836   2.356   3.852  12.418 -0.4285  0.4106 -0.2007
  661TMC3     C 9837   2.664   3.754  12.647  0.3351  0.4175 -0.4420
  661TMC3     O 9838   2.632   3.689  12.745 -0.1949 -0.2188 -0.2157
  661TMC3     H 9839   2.690   3.907  12.441  0.7300 -1.4572  1.5503
  661TMC3    H1 9840   2.407   3.746  12.724  1.2856  0.4718  1.4452
  661TMC3    H2 9841   2.267   3.875  12.358  0.2108  2.5093 -0.3649
  661TMC3    C7 9842   2.211   3.730  12.572 -0.5116  0.6442  0.3337
  661TMC3    C8 9843   2.513   3.963  12.266 -0.2802 -0.3162 -0.4993
  661TMC3    O1 9844   2.157   3.738  12.683 -0.1400  0.1188  0.2771
  661TMC3    O2 9845   2.629   3.956  12.221 -0.4001 -0.0203 -0.3726
  662MPD2     C 9846   3.745   2.604  17.291 -0.3342  0.2361  0.3428
  662MPD2    C1 9847   3.669   2.497  17.313  0.1153  1.1086  0.7095
  662MPD2    C2 9848   3.571   2.501  17.404 -0.0641  0.1437 -0.3137
  662MPD2    C3 9849   3.567   2.605  17.491 -0.1866  0.5192  0.2234
  662MPD2    C4 9850   3.663   2.704  17.481 -0.5577 -0.0254  0.6724
  662MPD2    C5 9851   3.755   2.705  17.378  0.2375  0.0763  0.1958
  662MPD2     H 9852   3.500   2.419  17.405  0.3314 -0.1965 -0.0732
  662MPD2    H1 9853   3.670   2.789  17.548 -1.0163  0.7942 -0.3015
  662MPD2    H2 9854   3.811   2.604  17.205 -0.8586  2.2821 -0.0615
  662MPD2    H3 9855   3.841   2.771  17.373 -0.8708  1.7424  2.7802
  662MPD2     N 9856   3.470   2.614  17.587 -0.4843 -0.2620  0.0078
  662MPD2    H5 9857   3.481   2.679  17.664  0.5226  0.0012 -0.3542
  662MPD2    N1 9858   3.663   2.377  17.233 -0.2601 -0.2348  0.3067
  662MPD2    H7 9859   3.591   2.313  17.266 -0.6287 -0.8632 -1.7062
  663TMC3    C1 9860   3.741   2.190  17.131  0.3708  0.0389 -0.3585
  663TMC3    C2 9861   3.798   2.112  17.226  0.0346 -0.3395  0.3130
  663TMC3    C3 9862   3.722   2.030  17.308  0.3436 -0.3791 -0.0740
  663TMC3    C4 9863   3.619   2.157  17.080  0.4864 -0.3914 -1.4941
  663TMC3    C5 9864   3.551   2.054  17.149 -0.4210  0.0504  0.4501
  663TMC3    C6 9865   3.600   1.992  17.263 -0.4465  0.5777  0.4207
  663TMC3     C 9866   3.770   2.329  17.164 -0.5544  0.5107  0.5330
  663TMC3     O 9867   3.889   2.364  17.169  0.6702  0.3736 -0.4052
  663TMC3     H 9868   3.884   2.150  17.280 -0.1701  1.2616 -0.4777
  663TMC3    H1 9869   3.567   2.207  16.999  0.8626  0.7663 -1.0140
  663TMC3    H2 9870   3.531   1.948  17.334 -0.7997 -2.3587 -1.7573
  663TMC3    C7 9871   3.433   1.993  17.086  0.0394  0.3755  0.2505
  663TMC3    C8 9872   3.729   2.094  17.438  0.8127  0.0264  0.1995
  663TMC3    O1 9873   3.380   2.060  17.000  0.4823  0.2106  0.5716
  663TMC3    O2 9874   3.839   2.101  17.492  0.2229  0.5409  0.7340
  664MPD2     C 9875   1.218   0.939  17.418  0.7759  0.3633  0.5579
  664MPD2    C1 9876   1.289   1.058  17.437 -0.4413 -0.0255  0.1063
  664MPD2    C2 9877   1.264   1.131  17.549  0.5134 -0.6753  0.3254
  664MPD2    C3 9878   1.165   1.095  17.640  0.3342  0.4993 -0.1231
  664MPD2    C4 9879   1.090   0.986  17.612 -0.0915  0.0976  1.3394
  664MPD2    C5 9880   1.121   0.903  17.509 -0.6672  0.8026  0.1865
  664MPD2     H 9881   1.322   1.220  17.569 -1.1977 -0.1704  2.9902
  664MPD2    H1 9882   1.013   0.961  17.684 -1.4938  2.6756  0.7219
  664MPD2    H2 9883   1.221   0.884  17.325  3.5563  0.9599  0.2860
  664MPD2    H3 9884   1.050   0.822  17.502 -0.3389  0.2771  3.0816
  664MPD2     N 9885   1.155   1.169   0.021  0.6695  0.0502 -0.1110
  664MPD2    H5 9886   1.222   1.245   0.022 -0.0814  0.7539 -2.3946
  664MPD2    N1 9887   1.394   1.091  17.348 -0.0376 -0.3037 -0.4628
  664MPD2    H7 9888   1.433   1.184  17.353  0.5316 -0.5034 -1.1736
  665TMC3    C1 9889   1.081   1.254   0.222  0.1320 -0.2265 -0.6430
  665TMC3    C2 9890   0.972   1.297   0.285 -0.7340  0.6780  0.0673
  665TMC3    C3 9891   0.996   1.361   0.409 -0.7653 -0.4615 -0.3897
  665TMC3    C4 9892   1.209   1.259   0.275 -0.4717  0.5282  0.0345
  665TMC3    C5 9893   1.229   1.331   0.394 -0.4502 -0.5546 -0.1767
  665TMC3    C6 9894   1.118   1.390   0.457  0.6569  0.2971 -0.4521
  665TMC3     C 9895   1.057   1.160   0.116 -0.1757 -0.1113  0.3322
  665TMC3     O 9896   0.978   1.069   0.139  0.2036 -0.9471  0.5479
  665TMC3     H 9897   0.876   1.267   0.245  0.5702 -2.4047 -0.7604
  665TMC3    H1 9898   1.292   1.212   0.224  0.0843  0.6732  0.8020
  665TMC3    H2 9899   1.130   1.463   0.535 -2.5642 -0.0308  0.3556
  665TMC3    C7 9900   1.364   1.384   0.411 -0.2082 -0.1069 -0.6289
  665TMC3    C8 9901   0.881   1.424   0.476  0.1771  0.1260  0.0735
  665TMC3    O1 9902   1.441   1.375   0.314  0.2045 -0.4649 -0.3098
  665TMC3    O2 9903   0.902   1.487   0.580 -0.4682 -0.4695 -0.1910
  666TMC3    C1 9904   0.042   1.660   9.915  0.0133 -0.1108  0.4404
  666TMC3    C2 9905   0.164   1.639   9.865  0.0080  0.2330 -0.3340
  666TMC3    C3 9906   0.242   1.748   9.829  0.6376 -0.0472 -0.0761
  666TMC3    C4 9907   4.729   1.785   9.919 -0.4032 -0.2352  0.5297
  666TMC3    C5 9908   0.073   1.892   9.882 -0.0319  0.0850  0.2224
  666TMC3    C6 9909   0.200   1.880   9.847 -0.0325  0.4524  0.3129
  666TMC3     C 9910   4.694   1.549   9.956 -0.1715 -0.2585 -0.4504
  666TMC3     O 9911   4.599   1.576  10.025  0.6544  0.2222 -0.0870
  666TMC3     H 9912   0.212   1.541   9.869 -0.9600 -0.1505  2.3002
  666TMC3    H1 9913   4.625   1.795   9.950 -0.6512  1.7707 -0.9409
  666TMC3    H2 9914   0.280   1.954   9.840  1.6283 -1.4488 -0.5817
  666TMC3    C7 9915   4.731   2.018   9.899  0.2888 -0.4005  0.0030
  666TMC3    C8 9916   0.385   1.725   9.851 -0.2964 -0.5191  0.3729
  666TMC3    O1 9917   4.609   2.005   9.910  0.2903  0.8049  0.4009
  666TMC3    O2 9918   0.428   1.636   9.925 -0.2626  0.4371  0.0569
  667MPD2     C 9919   2.504   1.280  14.191  0.4561 -0.6604 -0.2819
  667MPD2    C1 9920   2.437   1.288  14.309 -0.2155  0.7123  0.4719
  667MPD2    C2 9921   2.350   1.184  14.350  0.6739 -0.7919 -0.0673
  667MPD2    C3 9922   2.329   1.082  14.264  0.0620  0.3700  0.9658
  667MPD2    C4 9923   2.400   1.073  14.144  1.2361  0.1405 -0.6204
  667MPD2    C5 9924   2.492   1.170  14.108 -0.3158  0.0832 -0.2672
  667MPD2     H 9925   2.294   1.198  14.441 -0.2059  2.3145 -1.0838
  667MPD2    H1 9926   2.370   0.998  14.072 -0.6331  0.0055  0.2988
  667MPD2    H2 9927   2.579   1.354  14.164 -0.9488  0.6898 -0.4884
  667MPD2    H3 9928   2.559   1.164  14.023 -1.8735  0.8367 -1.5680
  667MPD2     N 9929   2.231   0.979  14.298  0.5683  0.0957 -0.3423
  667MPD2    H5 9930   2.220   0.901  14.233  1.2413  0.1886 -0.5753
  667MPD2    N1 9931   2.447   1.398  14.394 -0.5085  0.8136  0.4588
  667MPD2    H7 9932   2.392   1.396  14.480 -0.0109  0.3521  0.7663
  668TMC3    C1 9933   2.540   1.592  14.484 -0.0000  0.2422  0.4554
  668TMC3    C2 9934   2.577   1.721  14.466 -0.1074 -0.0049 -0.1155
  668TMC3    C3 9935   2.581   1.798  14.577  0.0996  0.7076 -0.2382
  668TMC3    C4 9936   2.525   1.530  14.608 -0.5738 -0.5026  0.2099
  668TMC3    C5 9937   2.537   1.610  14.718 -0.0560 -0.4008  0.5052
  668TMC3    C6 9938   2.566   1.745  14.705 -0.9830  0.4505  0.6950
  668TMC3     C 9939   2.519   1.513  14.366  0.5099 -0.4780 -0.0330
  668TMC3     O 9940   2.568   1.551  14.258  0.1769 -0.2229  0.0922
  668TMC3     H 9941   2.581   1.776  14.373 -1.0205  2.1363  1.1100
  668TMC3    H1 9942   2.527   1.422  14.623 -1.2702 -0.2862  1.8559
  668TMC3    H2 9943   2.571   1.811  14.791 -0.6069  3.6373 -1.7695
  668TMC3    C7 9944   2.493   1.571  14.851 -0.1491  0.1475  0.7270
  668TMC3    C8 9945   2.605   1.938  14.570 -0.6961 -1.0162 -0.1438
  668TMC3    O1 9946   2.553   1.616  14.944 -0.2379  0.1586 -0.3270
  668TMC3    O2 9947   2.544   2.019  14.641  0.0532 -0.2714  0.0201
  669TMC3    C1 9948   0.547   1.264  14.434  0.0774  0.4436 -0.1278
  669TMC3    C2 9949   0.430   1.231  14.373  0.3366 -0.2884  0.0647
  669TMC3    C3 9950   0.419   1.261  14.244  0.2406  0.1314  0.0652
  669TMC3    C4 9951   0.645   1.347  14.374 -0.3394 -0.4644 -0.1743
  669TMC3    C5 9952   0.640   1.356  14.237  0.9896  0.2591 -0.4131
  669TMC3    C6 9953   0.532   1.312  14.168 -0.2406  0.4713  0.0533
  669TMC3     C 9954   0.545   1.258  14.579 -0.4461  0.1486  0.1405
  669TMC3     O 9955   0.434   1.254  14.633 -0.0096 -0.0342 -0.0977
  669TMC3     H 9956   0.350   1.180  14.424 -0.4648  0.7579 -0.1399
  669TMC3    H1 9957   0.734   1.380  14.425 -0.3292 -0.9853  0.1552
  669TMC3    H2 9958   0.514   1.338  14.064 -0.1866  1.3753  0.2707
  669TMC3    C7 9959   0.753   1.428  14.185 -0.8096  0.5960  0.3056
  669TMC3    C8 9960   0.294   1.223  14.185 -0.8589  0.7274  0.5013
  669TMC3    O1 9961   0.811   1.501  14.267  0.2804  0.2541  0.1233
  669TMC3    O2 9962   0.301   1.161  14.079 -0.3723 -0.0669 -0.1629
  670MPD2     C 9963   3.913   3.801  13.326  0.2334 -0.7694 -0.1248
  670MPD2    C1 9964   3.917   3.854  13.453  0.3325  0.1213  0.2927
  670MPD2    C2 9965   3.850   3.781  13.553 -0.6419  0.7443  0.4660
  670MPD2    C3 9966   3.757   3.683  13.518 -0.7743  0.0353  0.4068
  670MPD2    C4 9967   3.756   3.630  13.388 -0.5603 -0.2181 -0.1392
  670MPD2    C5 9968   3.847   3.683  13.296 -0.8594 -0.0981 -0.2898
  670MPD2     H 9969   3.860   3.811  13.657 -2.3677  0.4770  0.7113
  670MPD2    H1 9970   3.695   3.549  13.350  2.1956 -2.7408  0.8706
  670MPD2    H2 9971   3.956   3.855  13.243 -0.3277 -0.6947 -0.3644
  670MPD2    H3 9972   3.867   3.631  13.203  0.7192  0.6491 -0.3588
  670MPD2     N 9973   3.662   3.634  13.615  0.5290 -0.5238  0.2710
  670MPD2    H5 9974   3.670   3.677  13.707 -3.6247  0.7974  0.0327
  670MPD2    N1 9975   3.995   3.968  13.495 -0.6530  0.4543  0.3161
  670MPD2    H7 9976   3.998   3.988  13.595  1.2042 -0.5243  0.4508
  671TMC3    C1 9977   3.506   3.504  13.728  0.1339 -0.5463 -0.5805
  671TMC3    C2 9978   3.579   3.464  13.841 -0.4716  0.6945 -0.1831
  671TMC3    C3 9979   3.529   3.351  13.904  0.3600  0.3988 -0.6318
  671TMC3    C4 9980   3.379   3.461  13.716 -0.1000  0.3877 -0.7993
  671TMC3    C5 9981   3.334   3.359  13.791  0.9009 -0.5904  0.6769
  671TMC3    C6 9982   3.403   3.306  13.884  0.2544  0.2229  0.6249
  671TMC3     C 9983   3.569   3.531  13.603 -0.1673  0.1183 -0.9522
  671TMC3     O 9984   3.532   3.473  13.501 -0.1467 -0.1290 -0.0135
  671TMC3     H 9985   3.685   3.487  13.849 -0.2483  0.1114 -1.5261
  671TMC3    H1 9986   3.320   3.490  13.629 -0.1899  1.6241 -0.3311
  671TMC3    H2 9987   3.380   3.214  13.936 -2.4223  0.8343  0.4909
  671TMC3    C7 9988   3.253   3.267  13.718  0.3850  0.2078 -0.2998
  671TMC3    C8 9989   3.611   3.289  14.004  1.1660  0.0327 -0.2231
  671TMC3    O1 9990   3.258   3.273  13.597  0.3146 -0.4112 -0.3452
  671TMC3    O2 9991   3.551   3.257  14.107 -0.2940  0.1404 -0.1564
  672MPD2     C 9992   3.471   3.700   1.002 -0.1436  0.6930 -0.4638
  672MPD2    C1 9993   3.565   3.777   0.933 -0.1147  0.1773 -0.1812
  672MPD2    C2 9994   3.650   3.863   0.998  0.9577  0.2238 -0.4684
  672MPD2    C3 9995   3.637   3.872   1.134  0.2033 -0.6504  0.7017
  672MPD2    C4 9996   3.533   3.808   1.201 -0.0286 -0.0371 -0.3152
  672MPD2    C5 9997   3.455   3.722   1.133 -0.7054 -0.5189 -0.2456
  672MPD2     H 9998   3.738   3.894   0.942  1.6607 -2.0464 -0.5917
  672MPD2    H1 9999   3.524   3.812   1.309 -1.5928 -2.2595 -0.3533
  672MPD2    H210000   3.404   3.634   0.948  1.3483 -1.9329  0.9480
  672MPD2    H310001   3.373   3.668   1.180 -0.5759  0.0018  0.5829
  672MPD2     N10002   3.724   3.954   1.213  0.2869  0.1645 -0.3341
  672MPD2    H510003   3.705   3.959   1.313  2.0330  0.1804 -0.0130
  672MPD2    N110004   3.601   3.745   0.795  0.1598  0.3950 -0.3909
  672MPD2    H710005   3.684   3.789   0.754  0.3660  1.1436  0.8245
  673TMC3    C110006   3.584   3.659   0.572  0.2089 -0.6068  0.2084
  673TMC3    C210007   3.719   3.644   0.561 -0.1148  0.0577 -0.7064
  673TMC3    C310008   3.762   3.601   0.439 -0.4513  0.5512 -0.3891
  673TMC3    C410009   3.496   3.639   0.475 -0.6584 -1.3996  0.3840
  673TMC3    C510010   3.543   3.603   0.352  0.2804  1.2132  0.4223
  673TMC3    C610011   3.677   3.584   0.333 -0.6942 -0.5321 -0.5070
  673TMC3     C10012   3.525   3.669   0.704  0.2294 -0.1759 -0.2229
  673TMC3     O10013   3.415   3.626   0.723  0.0244  0.2009 -0.3209
  673TMC3     H10014   3.778   3.653   0.652 -0.5955 -1.1254 -0.2693
  673TMC3    H110015   3.390   3.641   0.500 -0.3792 -2.4653  1.6270
  673TMC3    H210016   3.718   3.558   0.237  1.0964 -1.3472  0.4805
  673TMC3    C710017   3.455   3.614   0.233  0.4912  0.4347 -0.3280
  673TMC3    C810018   3.877   3.510   0.431 -0.2499 -0.9655  0.0760
  673TMC3    O110019   3.519   3.592   0.129  0.4424 -0.2148 -0.2215
  673TMC3    O210020   3.856   3.416   0.358 -0.3033  0.3909  0.0908
  674MPD2     C10021   3.461   3.777  17.356 -0.2413 -0.3204  0.0778
  674MPD2    C110022   3.421   3.660  17.407  0.6551 -0.2487 -0.2081
  674MPD2    C210023   3.288   3.624  17.406 -0.4775  0.2111 -0.6437
  674MPD2    C310024   3.195   3.709  17.346  0.6480 -0.4598 -0.9706
  674MPD2    C410025   3.237   3.832  17.295  0.0715  0.0901  0.2880
  674MPD2    C510026   3.371   3.868  17.305 -0.2204 -0.3936 -0.4825
  674MPD2     H10027   3.246   3.537  17.454  3.1912 -0.7322  0.8873
  674MPD2    H110028   3.168   3.893  17.238  1.3486 -0.0476 -1.4261
  674MPD2    H210029   3.565   3.806  17.344 -0.9782  0.2955 -4.6508
  674MPD2    H310030   3.408   3.962  17.268  0.9007 -0.4358  0.5377
  674MPD2     N10031   3.057   3.672  17.370 -0.2521  0.2354  0.5306
  674MPD2    H510032   3.044   3.578  17.406 -1.0284 -0.2250 -0.9400
  674MPD2    N110033   3.516   3.574  17.469  0.1021  0.2264 -0.0809
  674MPD2    H710034   3.607   3.617  17.478  1.0206 -1.5212 -0.9344
  675TMC3    C110035   3.601   3.394  17.597  0.0236 -0.6900  0.0784
  675TMC3    C210036   3.556   3.299  17.686 -0.2673  0.3458  0.5141
  675TMC3    C310037   3.646   3.258   0.046 -0.6328  0.2038  0.4110
  675TMC3    C410038   3.716   3.461  17.614  0.4011  0.0055  0.1157
  675TMC3    C510039   3.805   3.414  17.706 -0.5030  0.7257  0.1670
  675TMC3    C610040   3.767   3.316   0.066  1.6212 -0.3044  0.3864
  675TMC3     C10041   3.493   3.451  17.516 -0.4448 -0.2239  0.2305
  675TMC3     O10042   3.386   3.387  17.519 -0.2542  0.1847 -0.2351
  675TMC3     H10043   3.463   3.244  17.674  0.5808 -0.7570 -1.1569
  675TMC3    H110044   3.751   3.531  17.539  0.3388  0.7254  0.7588
  675TMC3    H210045   3.836   3.294   0.147 -0.5886  0.8204  2.5777
  675TMC3    C710046   3.921   3.482   0.010 -0.1793  0.6397  0.1262
  675TMC3    C810047   3.595   3.182   0.155 -0.1177  0.6970 -0.1920
  675TMC3    O110048   4.023   3.415   0.026  0.5375 -0.0627  1.0374
  675TMC3    O210049   3.524   3.089   0.120 -0.5889  0.4759  0.0205
  676MPD2     C10050   1.248   2.430  10.584 -0.4886  0.3518 -0.3075
  676MPD2    C110051   1.138   2.354  10.620  0.0157 -0.3243  0.1253
  676MPD2    C210052   1.085   2.268  10.527  0.5660  0.3299 -0.1230
  676MPD2    C310053   1.148   2.248  10.404 -0.2696  0.8751  0.5838
  676MPD2    C410054   1.261   2.327  10.375  0.3213  0.5112  0.0842
  676MPD2    C510055   1.302   2.418  10.461  0.0617  0.3878  0.5336
  676MPD2     H10056   0.999   2.205  10.548 -2.0091  3.1205 -2.3989
  676MPD2    H110057   1.314   2.329  10.280 -1.9631 -0.5765 -1.2069
  676MPD2    H210058   1.293   2.512  10.638 -0.1677  0.4083 -0.6571
  676MPD2    H310059   1.387   2.478  10.431 -0.9586  1.0426 -0.9951
  676MPD2     N10060   1.090   2.163  10.307  0.4353 -0.4425  0.1526
  676MPD2    H510061   1.142   2.147  10.221 -1.5617 -0.1672 -1.0877
  676MPD2    N110062   1.067   2.368  10.742  0.0327 -0.3279  0.0759
  676MPD2    H710063   0.990   2.303  10.757 -0.5625  0.2861 -0.3076
  677TMC3    C110064   1.022   2.476  10.956  0.1253 -0.3671  0.2495
  677TMC3    C210065   0.925   2.382  10.983  0.0664 -0.9446 -0.0498
  677TMC3    C310066   0.830   2.416  11.081  0.2873  0.8523  0.4412
  677TMC3    C410067   1.046   2.585  11.032 -0.3590 -0.6699  0.6933
  677TMC3    C510068   0.945   2.615  11.119  0.4451 -0.6560  0.3982
  677TMC3    C610069   0.830   2.540  11.132 -0.6467  0.3911  0.2033
  677TMC3     C10070   1.102   2.467  10.837  0.0564  0.3525 -0.6412
  677TMC3     O10071   1.186   2.559  10.825  0.3949 -0.1974 -0.2019
  677TMC3     H10072   0.910   2.290  10.929  2.6737 -1.6612  0.4755
  677TMC3    H110073   1.137   2.644  11.024  0.1134 -1.1344  2.5808
  677TMC3    H210074   0.749   2.576  11.194  0.1770 -0.7305  1.9550
  677TMC3    C710075   0.983   2.666  11.250 -0.0361  0.0986 -0.1014
  677TMC3    C810076   0.810   2.301  11.166 -0.0889  0.0406  0.5221
  677TMC3    O110077   0.910   2.633  11.342 -0.1331  0.0760  0.6508
  677TMC3    O210078   0.880   2.203  11.147  0.5182 -1.1013  0.0336
  678MPD2     C10079   2.676   2.058   1.528  0.0377 -0.3831 -0.7452
  678MPD2    C110080   2.686   2.011   1.403  0.4349 -0.2686 -0.0868
  678MPD2    C210081   2.568   1.967   1.339  0.7202 -0.8034  0.2726
  678MPD2    C310082   2.443   1.983   1.401  0.1393 -0.3094 -0.5101
  678MPD2    C410083   2.441   2.011   1.535  0.6295 -0.4847 -0.3594
  678MPD2    C510084   2.562   2.052   1.595  0.5366 -0.0758  0.5027
  678MPD2     H10085   2.584   1.929   1.238 -0.8518 -2.7142  0.7366
  678MPD2    H110086   2.346   2.005   1.588  2.2174 -0.4509  2.4521
  678MPD2    H210087   2.761   2.092   1.586 -0.0888  1.5763 -1.7114
  678MPD2    H310088   2.568   2.087   1.697 -0.4061  0.1024  0.4926
  678MPD2     N10089   2.327   1.971   1.318  0.0725  0.1514 -0.4818
  678MPD2    H510090   2.340   1.953   1.219  1.5833  0.8628 -0.4117
  678MPD2    N110091   2.805   2.003   1.337 -0.4734 -0.7819  0.7278
  678MPD2    H710092   2.803   1.994   1.236  0.2891 -0.4496  0.6806
  679TMC3    C110093   3.210   1.833   1.223 -0.0617 -0.1582 -0.3788
  679TMC3    C210094   3.112   1.836   1.314  0.3152  0.3081 -0.3684
  679TMC3    C310095   3.021   1.936   1.292 -0.7114  0.0538 -0.0453
  679TMC3    C410096   3.221   1.922   1.117 -0.0449 -0.0296  0.1890
  679TMC3    C510097   3.132   2.031   1.114 -0.4933 -0.0779 -0.0544
  679TMC3    C610098   3.028   2.030   1.195  0.4908 -1.1962  0.4052
  679TMC3     C10099   3.292   1.710   1.206 -0.1046 -1.0715 -0.1509
  679TMC3     O10100   3.384   1.713   1.126 -0.5072  0.0848  0.3474
  679TMC3     H10101   3.122   1.786   1.410 -3.1337 -1.5609 -0.9753
  679TMC3    H110102   3.311   1.918   1.057  0.0961  0.0904  0.3925
  679TMC3    H210103   2.940   2.091   1.178 -0.1245 -2.0055  0.6981
  679TMC3    C710104   3.127   2.109   0.994  0.4053  0.2707  0.3579
  679TMC3    C810105   2.923   1.958   1.393 -0.3479  0.7863 -0.5202
  679TMC3    O110106   3.207   2.085   0.904  0.2332 -0.4147  0.2435
  679TMC3    O210107   2.932   1.910   1.508 -0.3041  1.0302  0.0176
  680MPD2     C10108   2.949   0.928  13.468 -0.5177  0.1075  0.2351
  680MPD2    C110109   3.000   0.872  13.587  0.6586 -0.1588  0.4356
  680MPD2    C210110   3.052   0.948  13.688 -0.1192  0.2698 -0.8796
  680MPD2    C310111   3.070   1.086  13.668  0.0210 -0.6081 -0.7691
  680MPD2    C410112   3.024   1.143  13.547 -0.1130 -0.3864  0.0013
  680MPD2    C510113   2.958   1.067  13.456  0.9699  0.0160 -0.0945
  680MPD2     H10114   3.078   0.903  13.783  0.6546  3.1307  0.2700
  680MPD2    H110115   3.030   1.249  13.524  0.9837 -0.5858 -0.6481
  680MPD2    H210116   2.894   0.876  13.390 -2.3920 -0.0888  1.6754
  680MPD2    H310117   2.924   1.119  13.368  1.0212  0.3587  0.0881
  680MPD2     N10118   3.124   1.171  13.765 -0.4880 -0.4028  0.3695
  680MPD2    H510119   3.140   1.266  13.732  1.2755 -0.4061  1.2218
  680MPD2    N110120   2.997   0.737  13.611  0.6328  0.2037  0.0476
  680MPD2    H710121   3.034   0.705  13.701  0.6978  1.8655  0.5988
  681TMC3    C110122   2.945   0.513  13.585 -0.0884  0.1419  0.5894
  681TMC3    C210123   2.951   0.506  13.724 -0.3255  0.8102 -0.5071
  681TMC3    C310124   2.973   0.379  13.763 -0.2204 -0.4261 -0.5526
  681TMC3    C410125   2.973   0.414  13.495 -0.4922  0.1490 -0.3174
  681TMC3    C510126   3.000   0.295  13.551  0.5915 -0.3222 -0.8293
  681TMC3    C610127   2.987   0.269  13.684  0.3069  0.0532 -0.4053
  681TMC3     C10128   2.936   0.644  13.531 -0.4861  0.2126 -0.4562
  681TMC3     O10129   2.918   0.654  13.412 -0.7525 -0.3702 -0.7957
  681TMC3     H10130   2.916   0.580  13.795  0.5133 -0.6237  1.3707
  681TMC3    H110131   2.965   0.429  13.388  0.7066  1.4445 -0.2218
  681TMC3    H210132   2.998   0.174  13.735  1.5208  0.7302  0.5792
  681TMC3    C710133   3.040   0.186  13.461  0.2424 -0.2664 -0.1213
  681TMC3    C810134   2.960   0.361  13.910  0.3766 -0.2300 -0.1465
  681TMC3    O110135   3.016   0.075  13.496 -0.2116  0.4132  0.0749
  681TMC3    O210136   2.910   0.254  13.947 -0.5409  0.3231 -0.0495
  682MPD2     C10137   4.309   2.642  10.836 -0.3484 -0.4456 -0.5413
  682MPD2    C110138   4.381   2.565  10.744  1.2468  0.0902  0.3035
  682MPD2    C210139   4.478   2.479  10.804 -0.0847  1.0134 -0.1468
  682MPD2    C310140   4.483   2.464  10.939  0.7536  0.1862 -0.2325
  682MPD2    C410141   4.402   2.537  11.027 -0.2911  0.1092 -0.2616
  682MPD2    C510142   4.317   2.630  10.974  0.5544 -0.4590  0.2276
  682MPD2     H10143   4.553   2.442  10.734  1.3763  0.5051  1.6979
  682MPD2    H110144   4.416   2.528  11.134 -0.6094  0.8419 -0.1616
  682MPD2    H210145   4.237   2.710  10.792  0.3222 -0.0806 -1.0791
  682MPD2    H310146   4.252   2.696  11.030 -1.3999 -0.0335 -2.5606
  682MPD2     N10147   4.567   2.373  10.994  0.1446  0.5760 -0.1620
  682MPD2    H510148   4.550   2.361  11.094 -1.3960 -1.1657 -0.6332
  682MPD2    N110149   4.367   2.564  10.603 -0.3535  0.2104 -1.0514
  682MPD2    H710150   4.428   2.501  10.551  0.3909 -0.8121  1.0941
  683TMC3    C110151   0.004   2.087  11.226  0.1663 -0.7269  0.4827
  683TMC3    C210152   0.090   1.996  11.179  0.2487 -0.5034 -0.5896
  683TMC3    C310153   0.127   2.002  11.045  0.3204  0.7950 -0.0583
  683TMC3    C410154   4.692   2.199  11.158  0.2901  0.3639  0.1641
  683TMC3    C510155   4.721   2.199  11.026 -0.2902  0.4295 -0.5346
  683TMC3    C610156   0.072   2.103  10.968 -0.0552  0.1066 -0.5019
  683TMC3     C10157   4.697   2.074  11.367 -0.1824 -0.8408  0.1374
  683TMC3     O10158   0.018   1.990  11.436 -0.7808  0.4926 -0.4227
  683TMC3     H10159   0.119   1.912  11.242  2.0217 -1.5597 -2.7900
  683TMC3    H110160   4.654   2.289  11.205 -3.1986 -1.5705  1.0859
  683TMC3    H210161   0.097   2.114  10.863  0.3693  1.8026 -0.2299
  683TMC3    C710162   4.667   2.303  10.937 -0.6416  0.2142  0.6825
  683TMC3    C810163   0.229   1.921  10.980 -0.2991 -0.9975 -0.7098
  683TMC3    O110164   4.725   2.309  10.828 -0.4032  0.3372 -0.3346
  683TMC3    O210165   0.248   1.944  10.861  0.1625 -0.8184  0.1108
  684MPD2     C10166   2.911   1.555  16.201  0.1987  0.2427 -0.2941
  684MPD2    C110167   3.032   1.625  16.214  0.3303  0.4823 -0.4471
  684MPD2    C210168   3.037   1.746  16.279  0.2033  0.3433 -0.3882
  684MPD2    C310169   2.919   1.807  16.317 -0.4850  0.8451 -0.3300
  684MPD2    C410170   2.799   1.739  16.293 -0.4399 -0.2092  0.3634
  684MPD2    C510171   2.801   1.611  16.248  0.2030 -0.3001  0.1343
  684MPD2     H10172   3.132   1.796  16.289  0.9622 -0.7907 -1.9241
  684MPD2    H110173   2.700   1.775  16.322 -1.1071 -1.2489 -0.6219
  684MPD2    H210174   2.907   1.460  16.148  0.7128  0.4933 -0.7781
  684MPD2    H310175   2.700   1.572  16.238 -0.1498  0.7078 -0.2159
  684MPD2     N10176   2.917   1.941  16.351 -0.1748 -0.3479  0.5003
  684MPD2    H510177   2.832   1.990  16.325  0.5180 -0.0895 -1.2541
  684MPD2    N110178   3.155   1.584  16.154 -0.7414  0.0700  0.9548
  684MPD2    H710179   3.149   1.498  16.100 -0.3359  0.4245  0.3453
  685TMC3    C110180   3.357   1.596  16.035 -0.1451 -0.3297 -0.0771
  685TMC3    C210181   3.312   1.523  15.934  0.1408 -0.1768  0.2021
  685TMC3    C310182   3.413   1.486  15.842 -0.1416  0.7219 -0.5017
  685TMC3    C410183   3.492   1.646  16.046  0.3545 -0.1611 -0.7585
  685TMC3    C510184   3.580   1.620  15.943  0.9099 -0.1806 -0.5336
  685TMC3    C610185   3.545   1.522  15.853  0.4122 -0.4025  0.5060
  685TMC3     C10186   3.269   1.651  16.135  0.3762  0.4181  0.0347
  685TMC3     O10187   3.327   1.732  16.208  0.6737  0.5571 -0.0821
  685TMC3     H10188   3.207   1.500  15.914  0.6207 -1.3086 -1.0392
  685TMC3    H110189   3.519   1.730  16.109  0.8884  0.6230 -2.0402
  685TMC3    H210190   3.624   1.479  15.792 -0.3753  0.4538 -1.1139
  685TMC3    C710191   3.712   1.675  15.942  0.0993 -0.0387  0.4428
  685TMC3    C810192   3.400   1.360  15.775  0.7636 -0.1528  0.3144
  685TMC3    O110193   3.785   1.668  15.845  0.0467 -0.9084 -0.4125
  685TMC3    O210194   3.482   1.336  15.684 -0.4463  0.2300  0.5014
  686MPD2     C10195   4.664   1.987  15.838  0.7668  0.1296 -0.8521
  686MPD2    C110196   4.644   1.895  15.941 -0.8237  0.1411 -0.0416
  686MPD2    C210197   0.002   1.869  16.036  0.9622 -0.4115  0.3246
  686MPD2    C310198   0.130   1.924  16.026 -0.2286 -0.3289  0.3949
  686MPD2    C410199   0.145   2.025  15.935 -0.0149 -0.1027  0.4517
  686MPD2    C510200   0.049   2.052  15.841  0.8773  0.1717  0.5210
  686MPD2     H10201   4.717   1.800  16.118 -1.0529 -0.0601  0.1292
  686MPD2    H110202   0.242   2.071  15.926  0.6756 -1.8576 -1.1009
  686MPD2    H210203   4.592   2.012  15.762 -0.2565  1.6583  0.6314
  686MPD2    H310204   0.076   2.127  15.768 -1.3651 -0.8409 -1.3628
  686MPD2     N10205   0.251   1.888  16.100 -0.1532 -0.4175 -0.3420
  686MPD2    H510206   0.334   1.944  16.084  1.3039 -2.2161  0.8305
  686MPD2    N110207   4.515   1.827  15.933 -0.1796  0.0965 -0.4377
  686MPD2    H710208   4.460   1.863  15.856 -0.8646  0.1064  0.0525
  687TMC3    C110209   0.165   1.678  16.205  0.0653  0.0347  0.3014
  687TMC3    C210210   0.138   1.597  16.098 -0.0314 -0.8237  0.1907
  687TMC3    C310211   0.071   1.474  16.110  0.2665  0.2695  0.0844
  687TMC3    C410212   0.124   1.634  16.329 -0.4236 -0.0010  0.9351
  687TMC3    C510213   0.063   1.513  16.344 -0.2167 -0.5868 -0.2058
  687TMC3    C610214   0.036   1.437  16.239  0.6501 -0.0968  0.6225
  687TMC3     C10215   0.267   1.783  16.191  0.0838  0.2990 -0.2806
  687TMC3     O10216   0.351   1.760  16.272  0.5945 -0.5449 -0.4296
  687TMC3     H10217   0.179   1.625  16.002 -2.1030  1.0957 -0.1368
  687TMC3    H110218   0.168   1.685  16.414 -0.6343  1.0699  0.4004
  687TMC3    H210219   4.730   1.337  16.251 -1.4322  0.5886 -0.4849
  687TMC3    C710220   0.105   1.438  16.457  0.2451 -0.4282 -0.1201
  687TMC3    C810221   4.703   1.448  16.006 -0.4928  0.2029  0.7826
  687TMC3    O110222   0.157   1.330  16.426 -0.1378 -0.1442 -0.1812
  687TMC3    O210223   4.634   1.349  16.026 -0.1822 -0.2186  0.2824
  688MPD2     C10224   3.829   0.428  17.302  0.4035  0.7261 -0.7028
  688MPD2    C110225   3.869   0.309  17.350  0.6860 -0.6701  0.0233
  688MPD2    C210226   3.984   0.258  17.296  0.3676  0.3360 -0.2259
  688MPD2    C310227   4.061   0.326  17.208  0.0560 -0.9712  0.4227
  688MPD2    C410228   4.022   0.451  17.160  0.5302 -0.1381 -0.1137
  688MPD2    C510229   3.897   0.492  17.200  0.2878  0.8571  0.5591
  688MPD2     H10230   4.013   0.163  17.340  1.8291  0.9538  0.1715
  688MPD2    H110231   4.079   0.518  17.097  0.8459  1.1284  1.5155
  688MPD2    H210232   3.735   0.463  17.343  0.0296 -0.5358 -0.4693
  688MPD2    H310233   3.869   0.588  17.158 -2.0697 -0.3596 -0.6034
  688MPD2     N10234   4.180   0.271  17.159  0.0307  0.4433 -0.2227
  688MPD2    H510235   4.220   0.315  17.077 -0.3373  1.0759 -0.0641
  688MPD2    N110236   3.796   0.224  17.439  0.0124  0.6720 -0.0969
  688MPD2    H710237   3.822   0.129  17.463 -3.3084 -0.2039  0.0050
  689TMC3    C110238   3.657   0.184  17.616 -0.0179  0.2301 -0.2688
  689TMC3    C210239   3.638   0.230   0.013 -0.4014  0.1024  0.3946
  689TMC3    C310240   3.618   0.134   0.113  0.4294  0.6721  0.1360
  689TMC3    C410241   3.664   0.049  17.590 -0.7413  0.1725  0.1047
  689TMC3    C510242   3.628   4.691  17.692  0.6441 -0.1524 -0.7336
  689TMC3    C610243   3.613   0.001   0.086 -0.2775 -0.6790 -0.4947
  689TMC3     C10244   3.714   0.282  17.530  0.6345 -0.1119  0.1944
  689TMC3     O10245   3.691   0.401  17.550 -0.7182  0.2608 -0.1199
  689TMC3     H10246   3.648   0.337   0.028  0.7334 -0.0956  1.1158
  689TMC3    H110247   3.664   0.019  17.486  1.0369  2.5884 -0.6117
  689TMC3    H210248   3.583   4.673   0.170 -0.5592  0.8979  0.5731
  689TMC3    C710249   3.656   4.551  17.680 -0.6344  0.1182 -0.2727
  689TMC3    C810250   3.565   0.178   0.245 -0.3807 -0.2536 -0.0835
  689TMC3    O110251   3.672   4.491   0.049  0.0903 -0.1554  0.6513
  689TMC3    O210252   3.519   0.097   0.323  0.6747  1.1317  0.0064
  690MPD2     C10253   1.925   2.119  15.474 -0.0501 -0.1308  0.5161
  690MPD2    C110254   1.822   2.207  15.430  0.4728  0.7682 -0.3488
  690MPD2    C210255   1.860   2.336  15.392 -0.2502  0.1702  0.3062
  690MPD2    C310256   1.991   2.382  15.410 -0.3725  0.7917 -1.2247
  690MPD2    C410257   2.090   2.289  15.443  0.3696  0.1273  0.0421
  690MPD2    C510258   2.053   2.163  15.480  0.5518 -0.7144 -0.5827
  690MPD2     H10259   1.776   2.397  15.361  0.1736 -0.0189 -1.2162
  690MPD2    H110260   2.193   2.320  15.459  0.5201 -0.2503 -0.2040
  690MPD2    H210261   1.912   2.014  15.498  2.7582 -0.7903 -0.9598
  690MPD2    H310262   2.125   2.094  15.522  0.7270 -2.3885 -3.6537
  690MPD2     N10263   2.024   2.519  15.380 -0.5742  0.3208 -1.4775
  690MPD2    H510264   2.122   2.543  15.370 -1.2176  3.7936  0.5794
  690MPD2    N110265   1.688   2.168  15.428 -0.7913  0.5088 -0.0497
  690MPD2    H710266   1.628   2.238  15.385 -0.0566  0.5496 -0.9917
  691TMC3    C110267   1.473   2.083  15.468  0.4813  0.0519  0.2147
  691TMC3    C210268   1.418   2.177  15.383 -0.4838 -0.3195  0.1723
  691TMC3    C310269   1.285   2.205  15.408  0.4378  0.4191 -0.6583
  691TMC3    C410270   1.406   2.032  15.577 -0.7962  1.1253  0.1547
  691TMC3    C510271   1.274   2.067  15.599 -0.3954  0.3622  0.0455
  691TMC3    C610272   1.215   2.158  15.519  0.4212 -0.0306  0.4020
  691TMC3     C10273   1.619   2.053  15.466 -0.3763 -0.0787  0.7951
  691TMC3     O10274   1.663   1.954  15.523  0.2626  0.6437  0.5448
  691TMC3     H10275   1.468   2.208  15.291 -0.5181  0.8835  0.5611
  691TMC3    H110276   1.449   1.950  15.632 -0.0822  0.0359 -2.0085
  691TMC3    H210277   1.121   2.197  15.558  1.0035  0.3000  1.4736
  691TMC3    C710278   1.220   2.008  15.721 -0.2020 -0.4331  0.3786
  691TMC3    C810279   1.220   2.290  15.309  0.0059  0.5198 -0.0018
  691TMC3    O110280   1.293   1.951  15.801 -0.2428  0.0412 -0.5940
  691TMC3    O210281   1.268   2.294  15.200 -0.7602 -0.1961  0.1511
  692TMC3    C110282   2.787   2.972  15.439 -0.2118  0.8696 -0.2445
  692TMC3    C210283   2.897   3.043  15.477  0.2644 -0.1265  0.1345
  692TMC3    C310284   3.012   2.975  15.501  1.0988  0.5351  0.0903
  692TMC3    C410285   2.796   2.838  15.427 -0.8158 -0.2975  0.8089
  692TMC3    C510286   2.906   2.772  15.473 -0.8273  0.1453 -0.7557
  692TMC3    C610287   3.007   2.839  15.531 -0.1644 -0.6349  0.5315
  692TMC3     C10288   2.659   3.026  15.473 -0.0434  0.1708 -0.0578
  692TMC3     O10289   2.570   2.951  15.510  0.2250  0.2591  0.2621
  692TMC3     H10290   2.905   3.138  15.426 -0.0112  0.8740  1.9742
  692TMC3    H110291   2.707   2.787  15.392 -0.0632 -1.2280  0.2488
  692TMC3    H210292   3.105   2.792  15.537  1.5075  2.9614  1.8474
  692TMC3    C710293   2.882   2.629  15.498  0.1484 -0.1869  0.5047
  692TMC3    C810294   3.094   3.052  15.601  0.5969  0.4942  0.5650
  692TMC3    O110295   2.788   2.574  15.443 -0.1346 -0.1377  0.0269
  692TMC3    O210296   3.191   2.994  15.656 -0.1953  0.1397 -0.0212
  693MPD2     C10297   2.255   1.682  11.361 -0.0926  0.2363 -0.6639
  693MPD2    C110298   2.280   1.617  11.247  0.1484 -0.6854 -0.4587
  693MPD2    C210299   2.390   1.530  11.229 -0.0865  0.1220 -0.5209
  693MPD2    C310300   2.486   1.525  11.332 -0.0031  0.0180 -0.4631
  693MPD2    C410301   2.458   1.592  11.451 -0.0343 -0.2004 -0.0348
  693MPD2    C510302   2.350   1.679  11.459 -0.6521  0.2383  0.5724
  693MPD2     H10303   2.401   1.462  11.145 -2.4491 -0.6861 -0.1858
  693MPD2    H110304   2.530   1.591  11.532  0.5178 -0.1377 -0.5215
  693MPD2    H210305   2.169   1.748  11.369 -1.1656 -1.1771 -0.4112
  693MPD2    H310306   2.343   1.747  11.543  0.4411  0.4891  0.4610
  693MPD2     N10307   2.599   1.446  11.336  0.0994  0.5580  0.3163
  693MPD2    H510308   2.650   1.450  11.423 -1.1680  2.5628  0.9624
  693MPD2    N110309   2.187   1.642  11.142  0.1538 -0.0524  0.5369
  693MPD2    H710310   2.140   1.732  11.149  0.3617 -0.0098  1.4265
  694TMC3    C110311   2.070   1.615  10.937 -0.7861 -0.1615 -0.3126
  694TMC3    C210312   2.072   1.554  10.814 -0.1845 -0.0920 -0.1493
  694TMC3    C310313   1.958   1.579  10.736  0.2184  0.0402 -0.6574
  694TMC3    C410314   1.964   1.685  10.987 -0.0820 -0.2468 -0.4418
  694TMC3    C510315   1.857   1.703  10.905  0.1173  0.9613 -0.0749
  694TMC3    C610316   1.859   1.662  10.777  0.0141 -0.0871  0.4997
  694TMC3     C10317   2.176   1.570  11.026  0.2462 -0.7618  0.2260
  694TMC3     O10318   2.217   1.458  11.003  0.6176  0.1265 -0.2481
  694TMC3     H10319   2.169   1.518  10.782 -1.2830 -3.9687  0.8603
  694TMC3    H110320   1.965   1.722  11.089 -1.1138 -3.4024  0.7275
  694TMC3    H210321   1.772   1.675  10.714 -0.6294  0.1985  1.4388
  694TMC3    C710322   1.729   1.744  10.952 -1.0136  0.2652 -0.1304
  694TMC3    C810323   1.924   1.494  10.628  0.7536  0.2514 -0.5333
  694TMC3    O110324   1.651   1.804  10.879  0.3345 -0.6978 -0.1972
  694TMC3    O210325   1.823   1.504  10.556 -0.2931  0.0227  0.2386
  695MPD2     C10326   3.981   3.263  13.202 -0.4622  0.1408 -0.7853
  695MPD2    C110327   3.943   3.173  13.295 -0.7958 -0.0948 -0.3628
  695MPD2    C210328   3.809   3.135  13.301  0.8288 -0.0569 -0.7220
  695MPD2    C310329   3.720   3.195  13.213  0.7531  0.6947  0.3829
  695MPD2    C410330   3.767   3.288  13.120 -0.2086 -0.2074 -0.1708
  695MPD2    C510331   3.893   3.320  13.110  0.5717 -0.2597 -0.0640
  695MPD2     H10332   3.771   3.070  13.378  0.3010 -0.9904 -1.7682
  695MPD2    H110333   3.700   3.328  13.045 -1.6907 -0.9172  0.7841
  695MPD2    H210334   4.085   3.292  13.188 -0.4601  0.2671 -0.4916
  695MPD2    H310335   3.931   3.382  13.029  0.1897 -1.0108 -0.8192
  695MPD2     N10336   3.584   3.158  13.221  0.4363 -0.1539  0.0715
  695MPD2    H510337   3.571   3.094  13.299 -1.8349 -1.2258 -1.1961
  695MPD2    N110338   4.045   3.116  13.384  0.3964 -0.3445  0.4396
  695MPD2    H710339   4.142   3.140  13.365  0.1944  0.9755  1.0314
  696TMC3    C110340   3.344   3.157  13.186  0.6661 -0.0112  0.1321
  696TMC3    C210341   3.338   3.038  13.253 -0.0023 -0.7198 -1.2902
  696TMC3    C310342   3.228   3.008  13.334 -0.5092  0.2933  0.5848
  696TMC3    C410343   3.239   3.246  13.188 -0.8465  0.8144  0.5620
  696TMC3    C510344   3.135   3.211  13.261 -0.0232 -0.0576 -0.3732
  696TMC3    C610345   3.120   3.091  13.324  0.0084 -0.1000  0.1654
  696TMC3     C10346   3.479   3.211  13.153 -0.3959 -0.3656  0.3769
  696TMC3     O10347   3.478   3.303  13.073  0.0466  0.4138 -0.5641
  696TMC3     H10348   3.422   2.970  13.259  1.4262  1.0478 -1.2975
  696TMC3    H110349   3.247   3.342  13.138  1.4769 -0.4797 -1.5736
  696TMC3    H210350   3.026   3.071  13.373  0.2426 -1.2419  0.1451
  696TMC3    C710351   3.059   3.327  13.302  0.2725  0.4047  0.0574
  696TMC3    C810352   3.209   2.874  13.356 -0.0665  0.1108  1.1385
  696TMC3    O110353   3.086   3.435  13.254  0.1877  0.1998 -0.2731
  696TMC3    O210354   3.264   2.805  13.275  0.1588  0.1629 -0.0507
  697MPD2     C10355   2.185   0.237  15.792  0.1930  0.4461  0.3248
  697MPD2    C110356   2.282   0.192  15.710  0.4142 -0.7738 -0.7743
  697MPD2    C210357   2.349   0.270  15.616 -0.0688 -0.8052 -0.8071
  697MPD2    C310358   2.307   0.398  15.596 -0.2177  0.7346 -0.1285
  697MPD2    C410359   2.216   0.450  15.683  0.5991  0.0256  0.1499
  697MPD2    C510360   2.153   0.370  15.775  0.2308  0.2138 -0.2216
  697MPD2     H10361   2.440   0.229  15.574  0.9751  1.1561 -0.4803
  697MPD2    H110362   2.198   0.557  15.685 -1.2176 -0.3004  0.9038
  697MPD2    H210363   2.137   0.177  15.869  0.5376 -1.6335 -1.0751
  697MPD2    H310364   2.078   0.414  15.840 -1.1641 -1.5862 -0.6146
  697MPD2     N10365   2.374   0.476  15.504  0.4917  0.1174  0.3216
  697MPD2    H510366   2.427   0.429  15.431 -0.1945  1.0549 -0.7838
  697MPD2    N110367   2.328   0.054  15.719  0.6743 -0.0389 -0.2976
  697MPD2    H710368   2.395   0.014  15.656  2.6131  1.8725  0.5528
  698TMC3    C110369   2.445   0.664  15.384  0.3052  0.6072  0.1009
  698TMC3    C210370   2.532   0.765  15.407 -0.4261 -0.9048 -0.1258
  698TMC3    C310371   2.638   0.790  15.325  0.1084 -0.4293 -0.6477
  698TMC3    C410372   2.473   0.591  15.276 -0.2384 -0.0861  0.2759
  698TMC3    C510373   2.582   0.612  15.193 -0.2154  0.3867  0.3196
  698TMC3    C610374   2.670   0.713  15.215 -0.4205 -0.5029 -1.2268
  698TMC3     C10375   2.382   0.609  15.500 -0.4874  0.4085  0.4012
  698TMC3     O10376   2.371   0.693  15.590  0.2239  0.5349 -0.8015
  698TMC3     H10377   2.531   0.816  15.503 -0.3771  4.7085 -3.1331
  698TMC3    H110378   2.402   0.511  15.255 -0.2459 -0.2258  0.8501
  698TMC3    H210379   2.748   0.749  15.149  1.4858 -0.0451  1.2453
  698TMC3    C710380   2.602   0.516  15.086 -0.5768 -0.3215  0.1531
  698TMC3    C810381   2.742   0.873  15.380  0.1466  0.4849 -0.3341
  698TMC3    O110382   2.503   0.451  15.059 -0.0895  0.3290 -0.7882
  698TMC3    O210383   2.708   0.941  15.474 -0.3823 -0.4497 -0.6627
  699TMC3    C110384   2.981   3.208  12.969 -0.1242  0.0528  0.0213
  699TMC3    C210385   3.016   3.078  12.983 -0.0312 -0.4803 -0.0622
  699TMC3    C310386   2.933   2.988  13.053  0.7681 -0.3607 -0.0545
  699TMC3    C410387   2.876   3.263  13.033  0.9663  0.6853  0.5563
  699TMC3    C510388   2.795   3.173  13.098 -0.0286  0.3989 -0.5070
  699TMC3    C610389   2.822   3.042  13.106 -0.1680 -0.3898 -0.7424
  699TMC3     C10390   3.048   3.288  12.871  0.9724 -0.1047  0.4156
  699TMC3     O10391   3.163   3.261  12.856  0.2581 -0.5597  0.0095
  699TMC3     H10392   3.095   3.040  12.919 -0.5354  0.7329 -1.3777
  699TMC3    H110393   2.863   3.370  13.041 -0.6522  0.2690  3.7578
  699TMC3    H210394   2.750   2.974  13.150  0.2704 -0.2611  0.1731
  699TMC3    C710395   2.689   3.232  13.179  0.2244 -0.0629  0.1074
  699TMC3    C810396   2.970   2.846  13.076 -0.0644  0.6869 -0.2167
  699TMC3    O110397   2.693   3.353  13.188  0.4493  0.4810 -1.1594
  699TMC3    O210398   2.908   2.789  13.163 -0.3929  0.0481 -0.1552
  700TMC3    C110399   1.726   0.059  17.103 -0.1980  0.2663 -1.2782
  700TMC3    C210400   1.806   4.687  17.110  0.5007 -0.1305  0.5104
  700TMC3    C310401   1.845   4.651  17.237  0.6057 -0.5836  0.0121
  700TMC3    C410402   1.686   0.131  17.212  0.3809  0.4361 -0.2738
  700TMC3    C510403   1.730   0.089  17.337  0.7074 -0.6146  0.0957
  700TMC3    C610404   1.805   4.707  17.349 -0.1587 -0.1105 -0.2018
  700TMC3     C10405   1.733   0.132  16.979  0.3614 -0.2415  0.2111
  700TMC3     O10406   1.704   0.075  16.874  0.8575 -0.2760 -0.3001
  700TMC3     H10407   1.836   4.637  17.019 -1.0434 -0.2800  0.0822
  700TMC3    H110408   1.632   0.225  17.204 -2.0346 -0.9427 -0.4361
  700TMC3    H210409   1.828   4.672  17.449  0.2165 -0.4170 -0.3945
  700TMC3    C710410   1.717   0.184  17.445 -0.4798 -0.7854  0.5830
  700TMC3    C810411   1.911   4.517  17.252 -0.4019 -0.1075 -0.2927
  700TMC3    O110412   1.807   0.195  17.525  0.0735 -0.2742  0.1829
  700TMC3    O210413   1.893   4.448  17.350 -0.1135  0.2335  0.1514
  701TMC3    C110414   1.561   3.845  15.345 -0.1913 -0.2527 -0.4905
  701TMC3    C210415   1.556   3.807  15.207  0.5428 -0.1055  0.2800
  701TMC3    C310416   1.608   3.903  15.121  0.2381  1.0130  0.0960
  701TMC3    C410417   1.627   3.954  15.392  0.7746  0.4747  0.5403
  701TMC3    C510418   1.681   4.036  15.298  0.9297 -0.2618 -0.0412
  701TMC3    C610419   1.684   4.005  15.163  0.5247  0.2446 -0.4868
  701TMC3     C10420   1.478   3.768  15.440 -0.7025 -0.5296 -0.7250
  701TMC3     O10421   1.517   3.778  15.557  0.2334  0.4541  0.3213
  701TMC3     H10422   1.519   3.711  15.172  0.3647 -0.2753  0.9337
  701TMC3    H110423   1.649   3.975  15.496  0.9430  1.7247  0.2519
  701TMC3    H210424   1.734   4.074  15.096  0.7813  0.7682  0.2392
  701TMC3    C710425   1.762   4.150  15.345  0.8776 -0.4661 -0.1081
  701TMC3    C810426   1.607   3.892  14.972  0.6666 -0.2831  0.3235
  701TMC3    O110427   1.853   4.189  15.274 -0.1872  0.1966  0.3804
  701TMC3    O210428   1.679   3.971  14.910  0.2485 -0.3079 -0.3146
  702MPD2     C10429   1.226   2.493   9.943  0.1125  0.0766  0.0872
  702MPD2    C110430   1.142   2.459  10.040 -0.0765 -0.5048  0.5394
  702MPD2    C210431   1.139   2.531  10.153 -0.4298 -0.2963 -0.0827
  702MPD2    C310432   1.213   2.653  10.170 -0.1347 -0.3087 -0.4575
  702MPD2    C410433   1.291   2.695  10.064  0.0423  0.1473  0.5376
  702MPD2    C510434   1.289   2.614   9.952 -0.0803 -0.3212  0.3710
  702MPD2     H10435   1.096   2.485  10.241 -1.8493 -0.7603 -1.0235
  702MPD2    H110436   1.351   2.785  10.073  0.0095  0.4137 -1.9161
  702MPD2    H210437   1.229   2.444   9.846  0.5773  1.0635 -0.3975
  702MPD2    H310438   1.357   2.638   9.872  0.0745  1.5763  1.0859
  702MPD2     N10439   1.224   2.719  10.291  0.1663 -0.5130 -0.4045
  702MPD2    H510440   1.288   2.798  10.293 -1.4701  0.8173 -0.1098
  702MPD2    N110441   1.079   2.338  10.034 -0.3163 -0.0342 -0.6231
  702MPD2    H710442   1.018   2.316  10.113  0.7685  0.0251  0.2273
  703TMC3    C110443   1.193   2.794  10.500 -0.0320  0.5381 -0.1706
  703TMC3    C210444   1.107   2.828  10.602  0.2684 -0.2866  0.2338
  703TMC3    C310445   1.173   2.862  10.716  0.3790 -0.3218  0.2375
  703TMC3    C410446   1.328   2.811  10.505 -0.2486 -0.1531  0.2574
  703TMC3    C510447   1.384   2.855  10.622 -0.1045 -0.4480 -0.4378
  703TMC3    C610448   1.310   2.881  10.734  0.2798  0.6187 -0.4566
  703TMC3     C10449   1.135   2.717  10.396 -0.5236  0.3017  0.4706
  703TMC3     O10450   1.026   2.659  10.406 -0.3505  0.1555 -0.3150
  703TMC3     H10451   1.001   2.817  10.588  0.2756  0.5146 -0.4554
  703TMC3    H110452   1.404   2.772  10.439 -0.1083  2.3193 -1.0435
  703TMC3    H210453   1.346   2.931  10.824 -0.3431 -0.4031  0.3637
  703TMC3    C710454   1.525   2.883  10.627 -0.5392 -0.3915 -0.0367
  703TMC3    C810455   1.097   2.867  10.837  0.2910 -0.6455  0.1589
  703TMC3    O110456   1.585   2.919  10.520  0.2381  0.0784 -0.3182
  703TMC3    O210457   1.161   2.878  10.940 -0.2042 -0.8329 -0.6372
  704TMC3    C110458   4.028   4.506  11.517 -0.4720 -0.7808  0.3154
  704TMC3    C210459   3.978   4.479  11.391 -0.0485 -0.2487  0.0063
  704TMC3    C310460   4.020   4.368  11.323 -1.0739  0.6168 -0.7579
  704TMC3    C410461   4.105   4.414  11.583 -0.6535  0.4038 -0.7938
  704TMC3    C510462   4.159   4.317  11.503 -0.1769  0.3224 -0.1861
  704TMC3    C610463   4.118   4.294  11.377 -0.4299 -0.6034  0.7262
  704TMC3     C10464   3.931   4.584  11.598  0.8601 -0.2365 -0.2075
  704TMC3     O10465   3.895   4.540  11.709 -0.2262  0.2606 -0.3443
  704TMC3     H10466   3.901   4.539  11.343  0.4608 -0.7090 -1.3788
  704TMC3    H110467   4.139   4.434  11.684  1.1083  0.9276 -1.4887
  704TMC3    H210468   4.145   4.197  11.338  0.7966 -1.0022  2.5530
  704TMC3    C710469   4.204   4.201  11.578 -0.6659  0.0244  0.0516
  704TMC3    C810470   3.919   4.303  11.252  0.4364 -0.6229 -0.3849
  704TMC3    O110471   4.142   4.098  11.562  0.0396  0.6862  0.4598
  704TMC3    O210472   3.808   4.328  11.292  0.0922  0.0658  0.2132
  705MPD2     C10473   3.091   2.900  16.162 -0.2324  0.7601  0.1826
  705MPD2    C110474   3.085   3.040  16.192  0.4817 -0.4116  1.2998
  705MPD2    C210475   2.962   3.092  16.232 -0.9890 -0.1576  0.3846
  705MPD2    C310476   2.852   3.008  16.251 -0.2641 -0.0901 -0.5465
  705MPD2    C410477   2.855   2.880  16.202  0.5740 -0.0153 -0.1036
  705MPD2    C510478   2.977   2.829  16.163 -0.4454 -0.3848 -0.0537
  705MPD2     H10479   2.966   3.193  16.270 -0.8105  0.0370 -0.1576
  705MPD2    H110480   2.763   2.824  16.189  0.9342 -0.2534 -1.5780
  705MPD2    H210481   3.172   2.840  16.123 -0.5896  1.7800 -2.1745
  705MPD2    H310482   2.975   2.725  16.133  1.0873  0.0274 -1.5779
  705MPD2     N10483   2.727   3.065  16.290 -0.0774 -0.0084  0.4464
  705MPD2    H510484   2.646   3.005  16.284 -1.5976  1.8638  2.3906
  705MPD2    N110485   3.202   3.126  16.183 -0.0279  0.5472  0.3240
  705MPD2    H710486   3.181   3.220  16.213  0.3435  0.6824  0.1584
  706TMC3    C110487   3.649   3.253  16.132 -1.1205 -0.5898  0.3069
  706TMC3    C210488   3.620   3.385  16.159  0.3401 -0.1714 -0.4637
  706TMC3    C310489   3.491   3.429  16.172 -0.6832 -0.5670  0.7077
  706TMC3    C410490   3.552   3.162  16.115  0.4927  0.3971 -0.8819
  706TMC3    C510491   3.428   3.202  16.144  0.1951  0.4180  0.1501
  706TMC3    C610492   3.393   3.336  16.147  0.0393  0.5277 -0.1845
  706TMC3     C10493   3.778   3.213  16.089  0.2281 -0.7913 -0.2052
  706TMC3     O10494   3.874   3.254  16.150  0.5834  0.4010 -0.4422
  706TMC3     H10495   3.704   3.453  16.164  1.0306 -1.0785  0.2811
  706TMC3    H110496   3.577   3.057  16.113 -0.1045  0.2527 -0.7227
  706TMC3    H210497   3.291   3.371  16.160 -0.0223  0.2056  0.2318
  706TMC3    C710498   3.330   3.094  16.141  0.1568  0.0117 -0.3099
  706TMC3    C810499   3.452   3.560  16.216 -0.4097 -0.0676 -0.6154
  706TMC3    O110500   3.374   2.979  16.125 -0.2354  0.1818  0.1483
  706TMC3    O210501   3.342   3.593  16.175  0.2872 -0.5126 -0.2204
  707TMC3    C110502   4.268   2.167   1.353 -0.2985 -0.1423  0.0205
  707TMC3    C210503   4.278   2.050   1.285  0.0210  0.4414 -0.1063
  707TMC3    C310504   4.204   1.944   1.318 -0.3665 -0.4814  0.6520
  707TMC3    C410505   4.190   2.185   1.459  0.9356  0.0897  0.2981
  707TMC3    C510506   4.102   2.080   1.482  0.0858 -0.0881 -0.6343
  707TMC3    C610507   4.110   1.957   1.415 -0.6863  0.9717 -0.2599
  707TMC3     C10508   4.401   2.234   1.354  0.0449  0.3793  0.3546
  707TMC3     O10509   4.492   2.173   1.300  0.1193  0.3373  0.2133
  707TMC3     H10510   4.323   2.057   1.187 -0.8208 -1.5460 -0.6339
  707TMC3    H110511   4.209   2.249   1.545  1.0588  2.5260 -1.5528
  707TMC3    H210512   4.041   1.877   1.441  0.0370  0.0333 -1.2415
  707TMC3    C710513   3.988   2.099   1.579 -0.3804  0.8357 -0.1614
  707TMC3    C810514   4.243   1.814   1.263 -0.2916 -0.9607  0.6635
  707TMC3    O110515   3.936   1.994   1.616 -0.8157  0.0614 -0.1592
  707TMC3    O210516   4.153   1.730   1.267 -0.1442 -0.2354  0.1074
  708MPD2     C10517   2.081   1.105  13.336 -0.3364  0.2202 -0.2406
  708MPD2    C110518   1.981   1.134  13.429 -0.6811  0.5343 -0.2473
  708MPD2    C210519   2.012   1.141  13.564  0.0627  0.2447  0.8588
  708MPD2    C310520   2.144   1.125  13.605 -0.0325  0.1592  0.0080
  708MPD2    C410521   2.240   1.107  13.509  0.1210  1.2589 -0.0666
  708MPD2    C510522   2.210   1.089  13.377  0.2715 -0.7870 -0.0280
  708MPD2     H10523   1.936   1.169  13.637 -0.9287  2.5348 -1.0609
  708MPD2    H110524   2.344   1.094  13.537  0.1649 -2.0906 -1.7597
  708MPD2    H210525   2.070   1.118  13.229 -0.9598  0.8531 -0.0989
  708MPD2    H310526   2.291   1.067  13.308 -1.0739 -3.1203 -0.8464
  708MPD2     N10527   2.168   1.138  13.745 -0.0540 -0.2743  0.1267
  708MPD2    H510528   2.091   1.133  13.810  0.5357 -2.8375  0.6305
  708MPD2    N110529   1.857   1.169  13.381 -0.1959  0.3427  0.1414
  708MPD2    H710530   1.843   1.153  13.282 -1.6707  1.7083  0.1389
  709TMC3    C110531   1.635   1.241  13.398  0.2112  0.3908 -0.7455
  709TMC3    C210532   1.588   1.143  13.318  0.3414  0.3062 -0.1180
  709TMC3    C310533   1.460   1.108  13.330  0.4244 -0.1265 -0.0783
  709TMC3    C410534   1.551   1.317  13.469  0.1816 -0.3040 -0.1025
  709TMC3    C510535   1.419   1.280  13.485 -0.2132 -0.5003 -0.3935
  709TMC3    C610536   1.373   1.169  13.419 -0.0973  0.4596 -0.7315
  709TMC3     C10537   1.764   1.237  13.455  0.1423 -0.1279  0.3213
  709TMC3     O10538   1.773   1.303  13.556  0.7808  0.8272 -0.2036
  709TMC3     H10539   1.662   1.081  13.267 -0.1696  0.6434 -1.2647
  709TMC3    H110540   1.584   1.406  13.521 -0.6010 -0.6382  0.9661
  709TMC3    H210541   1.268   1.146  13.429  0.2878 -1.2867 -0.6914
  709TMC3    C710542   1.376   1.295  13.618  0.2753  0.8768 -0.8167
  709TMC3    C810543   1.412   1.050  13.202  0.2433  0.3494  0.7116
  709TMC3    O110544   1.256   1.279  13.645  0.1008  0.2173  0.7450
  709TMC3    O210545   1.474   1.088  13.104 -0.1702 -0.2569 -0.0546
  710TMC3    C110546   2.847   2.299   0.185  0.3517 -0.1979 -0.7782
  710TMC3    C210547   2.943   2.258   0.099 -0.3852  0.0552 -0.0885
  710TMC3    C310548   3.066   2.226   0.149 -0.0946 -0.2441 -0.2525
  710TMC3    C410549   2.856   2.291   0.319 -0.2314 -0.2987 -0.3214
  710TMC3    C510550   2.975   2.235   0.364 -0.2400  0.1306 -0.3825
  710TMC3    C610551   3.084   2.199   0.284 -0.0239 -0.2273 -0.3295
  710TMC3     C10552   2.723   2.360   0.128  0.4252  0.1902 -0.2942
  710TMC3     O10553   2.668   2.306   0.034  0.5145  0.5806  0.2818
  710TMC3     H10554   2.928   2.261  17.727  0.7928 -0.0173 -0.2524
  710TMC3    H110555   2.775   2.317   0.386 -0.4849 -1.4337 -0.1819
  710TMC3    H210556   3.181   2.162   0.315  0.4631  2.4100  1.3209
  710TMC3    C710557   3.014   2.246   0.508  0.3606  0.6055 -0.1307
  710TMC3    C810558   3.176   2.203   0.062  0.1312 -0.2827  0.3421
  710TMC3    O110559   3.100   2.172   0.546 -0.2067 -0.2206 -0.0662
  710TMC3    O210560   3.146   2.164  17.682 -0.2205 -0.0127  0.1255
  711TMC3    C110561   2.430   4.045  15.209 -0.4856  0.1441 -0.5729
  711TMC3    C210562   2.389   4.007  15.328 -0.0925  0.0958  0.6208
  711TMC3    C310563   2.480   3.973  15.423 -0.0831 -0.0648 -0.3046
  711TMC3    C410564   2.558   4.021  15.175  0.5095  1.1546 -0.3625
  711TMC3    C510565   2.647   3.983  15.270  0.0434  0.4241  0.9268
  711TMC3    C610566   2.614   3.950  15.396 -0.2709 -0.5688  0.1779
  711TMC3     C10567   2.348   4.021  15.094 -0.5791  0.3569  0.0782
  711TMC3     O10568   2.408   3.960  15.004 -0.4164 -0.3781  0.2702
  711TMC3     H10569   2.283   4.014  15.352  0.1131  1.7486  1.0848
  711TMC3    H110570   2.591   4.045  15.074  2.2409  0.1667 -0.0304
  711TMC3    H210571   2.682   3.921  15.475 -0.0129  1.3783  0.6741
  711TMC3    C710572   2.761   3.900  15.226  0.5370  0.2385  0.3868
  711TMC3    C810573   2.444   3.962  15.565  0.6620 -0.1702  0.2364
  711TMC3    O110574   2.846   3.870  15.309 -0.0242 -0.1350 -0.7899
  711TMC3    O210575   2.326   3.940  15.589 -0.2993 -0.6326 -0.3974
  712MPD2     C10576   3.820   4.415  13.549 -0.4752 -0.3431  0.0796
  712MPD2    C110577   3.809   4.403  13.413  0.4720  0.6912  0.6462
  712MPD2    C210578   3.861   4.509  13.335 -0.2421  0.4245 -0.0844
  712MPD2    C310579   3.928   4.615  13.394 -0.5667  0.4511 -1.0219
  712MPD2    C410580   3.944   4.616  13.529  0.4728  0.4085  0.1491
  712MPD2    C510581   3.886   4.520  13.608  1.0177 -0.0865  1.1419
  712MPD2     H10582   3.848   4.513  13.228 -1.8178 -1.1463  0.0532
  712MPD2    H110583   3.990   4.702  13.576 -0.4758  0.6535  0.6337
  712MPD2    H210584   3.771   4.348  13.619 -1.0306  0.6118  0.5939
  712MPD2    H310585   3.890   4.523  13.716  0.2314 -1.6696  1.2151
  712MPD2     N10586   3.982   4.712  13.318 -0.0174  0.1244 -0.0151
  712MPD2    H510587   4.045   0.040  13.369 -0.8721  1.1793 -0.2539
  712MPD2    N110588   3.749   4.294  13.348  0.3933  0.1200  0.1354
  712MPD2    H710589   3.765   4.293  13.247 -1.4573  1.0567 -0.1636
  713TMC3    C110590   4.059   0.107  13.133 -0.5935  0.8331  0.7956
  713TMC3    C210591   4.189   0.086  13.167 -0.7154 -0.0403  0.4598
  713TMC3    C310592   4.283   0.164  13.098  0.8479 -0.4816 -0.1650
  713TMC3    C410593   4.016   0.192  13.034  0.9410 -0.2673 -0.1963
  713TMC3    C510594   4.119   0.263  12.975 -0.3532  0.1984 -0.3168
  713TMC3    C610595   4.247   0.252  13.003  0.3807  0.5265  0.3999
  713TMC3     C10596   3.958   0.016  13.189  0.8313 -0.0115  0.7172
  713TMC3     O10597   3.872   4.711  13.112 -0.0661 -0.6220  0.1429
  713TMC3     H10598   4.225   0.008  13.233 -0.3673 -1.4167 -1.3709
  713TMC3    H110599   3.912   0.190  13.003  1.4105 -1.5554 -1.6991
  713TMC3    H210600   4.319   0.308  12.945  1.4538 -0.8173  0.4539
  713TMC3    C710601   4.087   0.394  12.928  0.0060  0.3063 -0.0076
  713TMC3    C810602   4.415   0.196  13.156 -0.7855  0.3620  0.0130
  713TMC3    O110603   4.175   0.451  12.871  0.2559  0.6028  0.1142
  713TMC3    O210604   4.490   0.248  13.075  0.4014 -0.0377 -0.0959
  714MPD2     C10605   1.343   3.672   1.259  0.4935  0.1979  0.1320
  714MPD2    C110606   1.380   3.577   1.168 -0.2153 -0.3174  0.2806
  714MPD2    C210607   1.356   3.604   1.038  0.0194 -0.4068 -0.2155
  714MPD2    C310608   1.290   3.722   0.997 -0.4127 -0.3146 -0.3092
  714MPD2    C410609   1.245   3.805   1.096  0.2706 -0.6399  0.2814
  714MPD2    C510610   1.260   3.770   1.225 -0.5016 -0.3629 -0.1914
  714MPD2     H10611   1.377   3.529   0.962 -0.7971  1.9373 -2.7819
  714MPD2    H110612   1.183   3.894   1.085 -0.3167 -0.7573  2.6196
  714MPD2    H210613   1.372   3.670   1.364 -0.7003  0.4991  0.4724
  714MPD2    H310614   1.229   3.849   1.292  1.5006 -0.2216  0.5605
  714MPD2     N10615   1.276   3.757   0.858 -0.3984  0.4305  0.0345
  714MPD2    H510616   1.330   3.704   0.790  2.0257  1.6758  0.9893
  714MPD2    N110617   1.452   3.464   1.208  0.1802 -0.0665  0.6109
  714MPD2    H710618   1.476   3.458   1.306 -1.1702 -0.5744  0.9167
  715TMC3    C110619   1.580   3.275   1.205  0.1509  0.3120  0.1531
  715TMC3    C210620   1.611   3.148   1.157 -0.1573  0.1915 -0.5674
  715TMC3    C310621   1.730   3.092   1.196 -0.1123  0.3098  0.2753
  715TMC3    C410622   1.657   3.341   1.294 -0.4784 -0.5434 -0.2113
  715TMC3    C510623   1.772   3.273   1.346 -0.0503  0.5127 -0.0245
  715TMC3    C610624   1.805   3.155   1.292  0.3218 -0.4887 -0.1974
  715TMC3     C10625   1.490   3.360   1.132  0.4755 -0.2955  0.3155
  715TMC3     O10626   1.444   3.325   1.026  0.8448 -0.4030 -0.7328
  715TMC3     H10627   1.546   3.100   1.085 -1.8799 -1.6948  2.2756
  715TMC3    H110628   1.657   3.448   1.308 -1.3891 -0.4915 -0.5985
  715TMC3    H210629   1.896   3.115   1.334  0.5875 -0.7132 -1.0020
  715TMC3    C710630   1.877   3.353   1.392  0.2216  0.2110  0.3749
  715TMC3    C810631   1.777   2.976   1.122 -0.0721 -0.5716  0.2645
  715TMC3    O110632   1.989   3.329   1.355 -0.1858 -0.1490  0.0967
  715TMC3    O210633   1.706   2.941   1.028  0.7094  0.3323  0.3339
  716MPD2     C10634   1.415   1.769   9.027  0.0798  0.6195 -0.4851
  716MPD2    C110635   1.321   1.860   9.059 -0.1240  0.0067 -0.1863
  716MPD2    C210636   1.193   1.810   9.068  0.1234 -0.0044  0.0934
  716MPD2    C310637   1.154   1.677   9.046 -0.8186 -0.1072  0.0984
  716MPD2    C410638   1.253   1.590   9.015 -0.4224  0.5438  0.2296
  716MPD2    C510639   1.382   1.637   9.002  0.0050 -0.8083 -0.6080
  716MPD2     H10640   1.111   1.868   9.111 -0.4590 -0.0109 -1.0228
  716MPD2    H110641   1.232   1.483   9.012 -1.1955  0.6484  2.2698
  716MPD2    H210642   1.517   1.803   9.014 -0.3242  2.0291  0.0004
  716MPD2    H310643   1.455   1.561   8.978  0.6060  0.2864 -2.2288
  716MPD2     N10644   1.017   1.653   9.048  0.2128 -0.1943  0.8642
  716MPD2    H510645   0.960   1.736   9.057 -1.3461 -1.1432 -0.3231
  716MPD2    N110646   1.357   1.995   9.075 -0.6574  0.5244  0.2681
  716MPD2    H710647   1.453   2.025   9.060 -0.3006 -0.8542 -0.2627
  717TMC3    C110648   0.818   1.537   8.993  0.1319  0.2600 -0.1358
  717TMC3    C210649   0.765   1.656   8.964  0.4718  0.0203  0.2114
  717TMC3    C310650   0.634   1.665   8.931 -0.5950  0.4894 -0.7117
  717TMC3    C410651   0.734   1.424   8.989  0.3874  0.3948 -0.2755
  717TMC3    C510652   0.604   1.437   8.948 -0.0950  0.0239  0.5292
  717TMC3    C610653   0.549   1.558   8.926  0.3408  0.1557  0.0901
  717TMC3     C10654   0.960   1.528   9.018  0.5136  0.2776  0.3242
  717TMC3     O10655   1.002   1.416   8.990 -0.9473  0.1219 -0.1786
  717TMC3     H10656   0.825   1.747   8.962  2.1985 -1.1251  0.2565
  717TMC3    H110657   0.777   1.326   9.008  0.0365  0.6043  1.5814
  717TMC3    H210658   0.444   1.572   8.904  0.0041 -0.0784  1.5491
  717TMC3    C710659   0.536   1.313   8.918  0.1707 -0.3213  0.4496
  717TMC3    C810660   0.583   1.794   8.893  0.1615 -0.0227  0.4434
  717TMC3    O110661   0.581   1.210   8.966 -0.0943  0.3786  0.4747
  717TMC3    O210662   0.480   1.847   8.922 -0.0922  0.1892 -0.0356
  718MPD2     C10663   1.047   0.356  13.240  0.4091  0.1278 -0.2730
  718MPD2    C110664   1.037   0.361  13.102  0.0665 -0.7174  0.0508
  718MPD2    C210665   0.961   0.268  13.036  0.2744  0.6929  0.0222
  718MPD2    C310666   0.910   0.159  13.100 -0.4927  0.4633 -0.1216
  718MPD2    C410667   0.921   0.153  13.237 -0.2971 -0.0127 -0.1610
  718MPD2    C510668   0.988   0.250  13.305  0.2078  0.1468 -0.1302
  718MPD2     H10669   0.945   0.274  12.929  1.3251  1.0272 -0.1170
  718MPD2    H110670   0.880   0.063  13.281 -0.2810 -0.4798 -1.0903
  718MPD2    H210671   1.107   0.415  13.308  3.0195 -2.5532 -0.2710
  718MPD2    H310672   1.022   0.236  13.407 -2.2502  1.5675  0.8673
  718MPD2     N10673   0.835   0.064  13.027  0.0982 -0.5296 -0.2084
  718MPD2    H510674   0.848   0.070  12.927  0.3319 -0.5878 -0.1812
  718MPD2    N110675   1.103   0.461  13.030  0.6633  0.9698 -0.4047
  718MPD2    H710676   1.181   0.508  13.077  1.3305  1.9587 -2.5047
  719TMC3    C110677   1.194   0.527  12.822 -0.2478  0.1931 -0.4330
  719TMC3    C210678   1.281   0.421  12.831  0.1553  0.0658 -0.3995
  719TMC3    C310679   1.350   0.378  12.720 -0.7289 -0.1114 -0.3204
  719TMC3    C410680   1.164   0.579  12.698 -0.1842 -0.0227 -0.3745
  719TMC3    C510681   1.233   0.540  12.589 -0.0183 -0.5574 -0.3896
  719TMC3    C610682   1.324   0.441  12.600 -0.4201  0.0308  0.1012
  719TMC3     C10683   1.077   0.502  12.899 -0.3541 -0.3390  0.3785
  719TMC3     O10684   0.979   0.487  12.830 -0.1467 -0.5346 -0.3921
  719TMC3     H10685   1.311   0.383  12.928  0.7268 -2.5111 -1.5579
  719TMC3    H110686   1.085   0.653  12.690 -0.1095  0.1647  0.6046
  719TMC3    H210687   1.393   0.429  12.517  1.9057  1.4804  1.8184
  719TMC3    C710688   1.182   0.577  12.459  0.0648  0.9532 -0.1158
  719TMC3    C810689   1.368   0.237  12.724 -0.2475  0.0555 -0.7645
  719TMC3    O110690   1.253   0.573  12.362 -0.0118  0.6718 -0.0811
  719TMC3    O210691   1.327   0.186  12.827 -0.4348 -0.4810 -0.1007
  720MPD2     C10692   4.062   1.928  13.961  0.2665  0.2458 -0.6025
  720MPD2    C110693   4.122   1.883  13.850  0.0145 -1.0524  0.3085
  720MPD2    C210694   4.251   1.825  13.852 -0.2595  0.3378 -0.1246
  720MPD2    C310695   4.319   1.812  13.973  0.2045 -0.4105  0.3392
  720MPD2    C410696   4.248   1.853  14.088  0.1567 -0.1870  0.2838
  720MPD2    C510697   4.122   1.911  14.080 -0.3303  0.3473  0.0347
  720MPD2     H10698   4.292   1.773  13.766  2.2759 -0.2268  1.4283
  720MPD2    H110699   4.291   1.849  14.188  0.0208 -0.0014  0.3505
  720MPD2    H210700   3.963   1.974  13.968  0.2563  0.3714 -1.6392
  720MPD2    H310701   4.063   1.950  14.162 -0.9776  0.8803 -0.6750
  720MPD2     N10702   4.445   1.750  13.982  0.0109  0.2730 -0.1448
  720MPD2    H510703   4.492   1.728  13.896  1.1545 -1.3178  0.8963
  720MPD2    N110704   4.050   1.887  13.735  0.2135  0.5843 -0.3977
  720MPD2    H710705   4.103   1.858  13.654  2.9963  0.2733  1.5467
  721TMC3    C110706   4.655   1.689  14.092  0.0828 -0.3450  0.3963
  721TMC3    C210707   4.724   1.678  14.211  0.2128  0.2163  0.6959
  721TMC3    C310708   0.128   1.654  14.219  0.0497 -1.0732 -0.3218
  721TMC3    C410709   4.717   1.642  13.977 -0.0894 -0.8879 -0.4798
  721TMC3    C510710   0.114   1.601  13.992 -0.5183 -0.4871 -0.0900
  721TMC3    C610711   0.186   1.605  14.109  0.2045  0.1823 -0.3539
  721TMC3     C10712   4.510   1.720  14.099 -0.9950 -0.4454  0.3862
  721TMC3     O10713   4.464   1.710  14.215 -0.5369  0.4308  0.1689
  721TMC3     H10714   4.671   1.700  14.303  1.0445 -0.5018  1.3441
  721TMC3    H110715   4.665   1.639  13.881 -1.2102  3.6765 -0.0249
  721TMC3    H210716   0.289   1.573  14.108 -0.0560 -0.6680 -0.3883
  721TMC3    C710717   0.174   1.560  13.866  0.1195 -0.1199 -0.7555
  721TMC3    C810718   0.200   1.615  14.341 -0.0877 -0.3848 -0.1617
  721TMC3    O110719   0.106   1.474  13.814 -0.0981  0.0565  0.0799
  721TMC3    O210720   0.300   1.551  14.327 -0.3540 -0.7248  0.5092
  722MPD2     C10721   2.906   0.563  12.913  0.1057  0.3829 -0.4782
  722MPD2    C110722   2.905   0.586  13.052 -0.2325  0.3902 -0.1576
  722MPD2    C210723   2.781   0.590  13.109  0.3538 -0.1539 -0.1241
  722MPD2    C310724   2.667   0.581  13.036  0.0665  0.0828 -0.1750
  722MPD2    C410725   2.677   0.556  12.901  0.1062  0.6149 -0.8949
  722MPD2    C510726   2.794   0.547  12.844 -0.6124 -1.0627  0.2485
  722MPD2     H10727   2.784   0.615  13.214  0.2848  0.5860 -0.2997
  722MPD2    H110728   2.595   0.552  12.830  1.0531  0.6114 -1.9890
  722MPD2    H210729   2.991   0.582  12.849  1.6421  1.7869  1.9785
  722MPD2    H310730   2.804   0.528  12.738  0.8800  2.3934 -0.2374
  722MPD2     N10731   2.534   0.580  13.093 -0.2695 -0.4483 -0.1816
  722MPD2    H510732   2.522   0.583  13.194 -1.5983  1.7754 -0.4088
  722MPD2    N110733   3.018   0.624  13.127 -0.2250 -0.4410  0.2546
  722MPD2    H710734   3.001   0.654  13.222  3.3307 -2.0645  1.3988
  723TMC3    C110735   2.304   0.611  13.097 -0.3409 -0.1739 -0.0353
  723TMC3    C210736   2.280   0.507  13.184  0.4763 -0.2342 -0.2654
  723TMC3    C310737   2.152   0.505  13.247 -0.5087  0.2527  0.3184
  723TMC3    C410738   2.222   0.718  13.094  0.5512 -0.2204  0.4643
  723TMC3    C510739   2.108   0.716  13.166  0.0686 -0.4191  0.3278
  723TMC3    C610740   2.069   0.612  13.237 -0.2074  0.4127 -1.1469
  723TMC3     C10741   2.424   0.615  13.018  0.4518 -0.1404  0.8623
  723TMC3     O10742   2.410   0.676  12.911  0.5842 -0.0449 -0.4186
  723TMC3     H10743   2.351   0.426  13.176 -0.8795 -1.1802 -2.9038
  723TMC3    H110744   2.242   0.800  13.026  2.4182  0.1711  1.4855
  723TMC3    H210745   1.973   0.604  13.286  0.1769 -2.0694 -0.7976
  723TMC3    C710746   1.980   0.779  13.113  0.0498  0.5009  0.4633
  723TMC3    C810747   2.087   0.370  13.261 -0.3950  0.0338 -0.0506
  723TMC3    O110748   1.872   0.722  13.126  0.5319  0.0587 -0.4095
  723TMC3    O210749   1.982   0.376  13.327 -0.3430 -0.3884 -0.0911
  724TMC3    C110750   2.701   4.438  10.537  0.0994  0.5230 -0.0904
  724TMC3    C210751   2.670   4.400  10.410  0.2808  0.1342  0.5574
  724TMC3    C310752   2.730   4.477  10.310  0.0828  0.2152 -0.9531
  724TMC3    C410753   2.766   4.553  10.571 -0.4393  0.0649  0.3651
  724TMC3    C510754   2.817   4.631  10.470  0.1918 -0.4373  0.2793
  724TMC3    C610755   2.811   4.585  10.341  0.4324  0.2072 -0.8893
  724TMC3     C10756   2.672   4.356  10.652 -0.1831 -0.5203 -0.1923
  724TMC3     O10757   2.726   4.381  10.763 -0.7182  0.1597  0.1959
  724TMC3     H10758   2.657   4.293  10.400 -1.6938  0.3838  0.6003
  724TMC3    H110759   2.770   4.584  10.675 -2.3518  0.9963  0.1507
  724TMC3    H210760   2.836   4.660  10.267 -0.5220 -0.2633 -1.6869
  724TMC3    C710761   2.923   4.723  10.509  0.0519 -0.2773  0.0913
  724TMC3    C810762   2.735   4.427  10.171 -0.0412 -0.0107 -0.5433
  724TMC3    O110763   3.012   0.015  10.430 -0.3237  0.3287 -0.2338
  724TMC3    O210764   2.634   4.381  10.121  0.2644 -0.2034 -0.4614
  725TMC3    C110765   0.062   1.975  13.263  0.2984 -0.3940 -0.4065
  725TMC3    C210766   4.673   1.979  13.316  0.4259  0.2833  0.2016
  725TMC3    C310767   4.592   1.871  13.294 -0.2879  0.2155  0.9766
  725TMC3    C410768   0.117   1.854  13.222 -0.8472 -0.5769  0.2598
  725TMC3    C510769   0.033   1.750  13.207 -0.1597 -0.8017  0.0721
  725TMC3    C610770   4.635   1.760  13.232 -0.0640  0.4257 -0.3384
  725TMC3     C10771   0.132   2.099  13.254 -0.1286 -0.3837  0.4102
  725TMC3     O10772   0.063   2.198  13.269 -0.2554 -0.2063 -0.0645
  725TMC3     H10773   4.625   2.067  13.356  1.2433  1.0671 -0.5443
  725TMC3    H110774   0.215   1.840  13.178 -0.5411 -1.2142  1.1419
  725TMC3    H210775   4.569   1.674  13.241  0.4022  0.0828 -0.2436
  725TMC3    C710776   0.055   1.672  13.084 -0.0809  0.2707 -0.3738
  725TMC3    C810777   4.457   1.919  13.279 -0.2901 -0.1490 -0.5416
  725TMC3    O110778   0.145   1.699  13.007  0.1490 -0.4262  0.2611
  725TMC3    O210779   4.400   1.974  13.375 -0.4048 -0.4473 -0.1748
  726MPD2     C10780   1.982   4.414  10.680 -0.0616 -0.2095 -0.1198
  726MPD2    C110781   1.925   4.439  10.555 -0.0983 -0.2806  0.8267
  726MPD2    C210782   1.838   4.342  10.498 -0.1006  0.1299 -0.1668
  726MPD2    C310783   1.800   4.232  10.573  0.0340  0.0843 -0.0524
  726MPD2    C410784   1.855   4.207  10.692 -0.4221  0.0637 -0.5294
  726MPD2    C510785   1.950   4.297  10.742  0.1791 -0.1677  0.1997
  726MPD2     H10786   1.785   4.369  10.407  0.9773  1.4971 -0.3944
  726MPD2    H110787   1.823   4.121  10.751  0.1619 -1.0547 -1.8563
  726MPD2    H210788   2.067   4.472  10.716  2.0358 -0.5184 -4.4834
  726MPD2    H310789   1.993   4.271  10.838 -1.4701  0.0791  1.0013
  726MPD2     N10790   1.687   4.160  10.531  0.3465  0.0514  0.1741
  726MPD2    H510791   1.649   4.109  10.610 -2.5120 -0.8267 -1.7526
  726MPD2    N110792   1.957   4.554  10.478  0.0035  0.0674 -0.0510
  726MPD2    H710793   1.936   4.544  10.379 -1.9957 -1.8591  0.5620
  727TMC3    C110794   2.071   0.025  10.416 -0.2611  0.1984 -0.9943
  727TMC3    C210795   2.141   0.138  10.458 -0.1288 -0.4905 -0.4688
  727TMC3    C310796   2.180   0.222  10.356  0.3113  0.3882  0.3896
  727TMC3    C410797   2.035   0.008  10.284  0.0103 -0.0401 -0.3378
  727TMC3    C510798   2.083   0.090  10.184  0.4479 -0.4036 -0.5401
  727TMC3    C610799   2.157   0.203  10.217 -0.7894  0.2605 -0.4333
  727TMC3     C10800   2.019   4.667  10.522  0.0529 -0.6120 -0.2239
  727TMC3     O10801   2.057   4.695  10.634  0.2927  0.2205 -0.0115
  727TMC3     H10802   2.166   0.147  10.563 -0.3736 -0.7138 -0.3920
  727TMC3    H110803   1.960   4.666  10.268  0.2201 -0.2696 -0.2227
  727TMC3    H210804   2.203   0.272  10.147  2.4266 -0.6877  0.7030
  727TMC3    C710805   2.002   0.102  10.058  0.2686 -0.4456 -0.7176
  727TMC3    C810806   2.255   0.341  10.403  0.2986  0.3833 -0.7561
  727TMC3    O110807   1.900   0.034  10.054 -0.3464  0.0835  0.0159
  727TMC3    O210808   2.294   0.331  10.521  0.2275 -0.1277  0.2851
  728TMC3    C110809   2.002   2.757  15.352  0.6942  0.8997 -0.0687
  728TMC3    C210810   2.106   2.758  15.267 -0.0962 -0.2377  1.0321
  728TMC3    C310811   2.151   2.881  15.219 -0.0549 -0.1908 -0.0978
  728TMC3    C410812   1.921   2.875  15.360  0.0507  0.3216 -0.0972
  728TMC3    C510813   1.962   2.992  15.304 -0.8825 -0.2305  0.5435
  728TMC3    C610814   2.086   3.000  15.236  0.3259 -0.3566  0.0609
  728TMC3     C10815   1.935   2.627  15.385  0.5358  0.2672  0.0130
  728TMC3     O10816   1.819   2.633  15.427 -0.1492 -0.1690 -0.3708
  728TMC3     H10817   2.156   2.669  15.232  0.1556  1.2767 -2.4117
  728TMC3    H110818   1.827   2.876  15.414  0.3745 -0.9232  0.4875
  728TMC3    H210819   2.125   3.088  15.188 -0.5082  0.0213  0.0751
  728TMC3    C710820   1.857   3.083  15.272  0.2644 -0.3156  0.5529
  728TMC3    C810821   2.290   2.887  15.183 -0.3842  0.0352 -0.3428
  728TMC3    O110822   1.753   3.075  15.333 -0.0454  0.6141  0.0409
  728TMC3    O210823   2.328   2.783  15.136 -0.1564  0.3287 -0.1337
  729MPD2     C10824   4.108   3.415  16.789 -0.0716  0.0838  0.3656
  729MPD2    C110825   4.231   3.482  16.800  0.5685 -0.4913 -0.4878
  729MPD2    C210826   4.286   3.526  16.923  0.2453 -0.6605 -0.0781
  729MPD2    C310827   4.225   3.476  17.039  0.0338 -0.3689  0.2059
  729MPD2    C410828   4.105   3.416  17.030  0.1669  0.5799 -0.4559
  729MPD2    C510829   4.056   3.379  16.912  0.2995  0.7347 -0.3989
  729MPD2     H10830   4.380   3.580  16.926  1.9785 -3.5720 -1.4784
  729MPD2    H110831   4.060   3.393  17.126 -1.2639  0.3256 -1.1961
  729MPD2    H210832   4.068   3.392  16.691 -0.1923 -1.9351  0.8892
  729MPD2    H310833   3.967   3.317  16.918  1.6033 -1.1685 -0.8753
  729MPD2     N10834   4.272   3.499  17.169  0.1512  0.3362  0.1806
  729MPD2    H510835   4.216   3.468  17.248 -0.6096 -0.4959 -0.6762
  729MPD2    N110836   4.310   3.495  16.685  0.2570  0.8608  0.5359
  729MPD2    H710837   4.269   3.493  16.592  0.0740  0.9341  0.6148
  730TMC3    C110838   4.408   3.566  17.351 -0.5041 -0.1905 -0.6385
  730TMC3    C210839   4.533   3.598  17.390 -0.0486 -0.2837 -1.1820
  730TMC3    C310840   4.554   3.693  17.486 -0.4708  0.2148  0.1137
  730TMC3    C410841   4.302   3.639  17.401 -0.0217  0.6203  0.2948
  730TMC3    C510842   4.319   3.736  17.496  0.2743  0.0271 -0.1996
  730TMC3    C610843   4.448   3.755  17.547  0.4795  0.6306 -0.1838
  730TMC3     C10844   4.397   3.544  17.205  0.6480  0.4391  0.5739
  730TMC3     O10845   4.494   3.563  17.133 -0.0287 -0.0684  0.1476
  730TMC3     H10846   4.618   3.552  17.340  1.4607 -1.0818  2.0589
  730TMC3    H110847   4.206   3.616  17.358 -0.7923 -1.8041  3.3508
  730TMC3    H210848   4.454   3.822  17.632  0.2788  2.1281 -1.3406
  730TMC3    C710849   4.223   3.853  17.486  0.0646  0.2701  0.1350
  730TMC3    C810850   4.652   3.784  17.431  0.0145  0.9494  0.0811
  730TMC3    O110851   4.141   3.854  17.398  0.6336 -0.0698  0.1270
  730TMC3    O210852   0.017   3.741  17.363  0.3391  0.0574 -0.4236
  731MPD2     C10853   3.851   1.663  12.023  0.1458  0.1122 -0.0266
  731MPD2    C110854   3.951   1.569  12.050  0.3603 -0.2816  0.3902
  731MPD2    C210855   3.953   1.510  12.173 -0.3196 -0.1899  0.0644
  731MPD2    C310856   3.859   1.531  12.266 -0.2440  0.1943  0.0026
  731MPD2    C410857   3.766   1.618  12.237  0.0013 -0.4853  0.7263
  731MPD2    C510858   3.748   1.684  12.115  0.2532 -0.2097 -0.3796
  731MPD2     H10859   4.046   1.458  12.192 -0.9181 -1.3907 -0.2817
  731MPD2    H110860   3.702   1.646  12.320 -1.3223 -0.3999 -0.3182
  731MPD2    H210861   3.841   1.722  11.933  1.3983 -0.3854 -0.4897
  731MPD2    H310862   3.670   1.756  12.093  0.0467 -1.0643 -2.5218
  731MPD2     N10863   3.877   1.481  12.400  0.1348  0.4964  0.3129
  731MPD2    H510864   3.961   1.424  12.410  0.9072  1.3774 -1.1794
  731MPD2    N110865   4.044   1.549  11.949 -0.1798 -0.2642 -0.0845
  731MPD2    H710866   4.027   1.604  11.865 -0.6380  1.4693  1.1628
  732TMC3    C110867   4.174   1.426  11.803  0.4753 -0.5279 -0.0851
  732TMC3    C210868   4.103   1.490  11.706 -0.6428  0.4659  0.2088
  732TMC3    C310869   4.155   1.496  11.581  0.6870 -0.0316 -0.5625
  732TMC3    C410870   4.303   1.375  11.774  0.1404  0.4745  0.4641
  732TMC3    C510871   4.357   1.403  11.650  0.5359 -0.4154  0.6682
  732TMC3    C610872   4.278   1.455  11.546  0.2530  0.1730  0.2427
  732TMC3     C10873   4.135   1.448  11.945  0.9247  0.1557 -0.4884
  732TMC3     O10874   4.183   1.367  12.027  0.6113 -0.1234  0.0300
  732TMC3     H10875   4.003   1.529  11.724 -0.9848 -0.0846 -0.5252
  732TMC3    H110876   4.356   1.325  11.854 -0.2756 -0.9023 -0.1293
  732TMC3    H210877   4.314   1.490  11.450  0.9826 -0.1747  0.3872
  732TMC3    C710878   4.490   1.369  11.614  0.1057  0.1710 -0.9148
  732TMC3    C810879   4.096   1.594  11.496 -0.0157  0.3119  0.1237
  732TMC3    O110880   4.523   1.378  11.495 -0.1362 -0.0916 -0.1284
  732TMC3    O210881   4.173   1.660  11.429 -0.6386 -0.5844  0.0124
  733TMC3    C110882   0.589   4.479  12.832 -0.1830 -0.2615  0.3145
  733TMC3    C210883   0.611   4.553  12.944 -0.4608 -0.2644  0.4078
  733TMC3    C310884   0.735   4.594  12.967 -1.0906  0.4043 -0.1658
  733TMC3    C410885   0.678   4.462  12.731 -0.1179  0.1802 -0.0530
  733TMC3    C510886   0.801   4.523  12.751 -0.6719  0.3430 -0.6620
  733TMC3    C610887   0.829   4.588  12.867 -0.4861 -0.2536 -0.5069
  733TMC3     C10888   0.462   4.405  12.821  0.4154  0.2401 -0.2654
  733TMC3     O10889   0.414   4.375  12.712 -0.0723  0.0872  0.3568
  733TMC3     H10890   0.543   4.572  13.026  0.1426  1.1139  0.5935
  733TMC3    H110891   0.664   4.390  12.651 -0.8532  0.7159 -0.4079
  733TMC3    H210892   0.926   4.633  12.884 -1.0982  0.5110  1.0858
  733TMC3    C710893   0.881   4.549  12.634 -0.7904  0.6643  0.5847
  733TMC3    C810894   0.756   4.689  13.077  0.4502 -0.3238  0.2712
  733TMC3    O110895   0.839   4.507  12.523  0.3049  0.2301 -0.4622
  733TMC3    O210896   0.718   4.655  13.189  0.6052 -0.1743  0.5088
  734MPD2     C10897   2.089   2.288  12.533 -0.1104 -0.3903 -0.4620
  734MPD2    C110898   2.002   2.275  12.428 -0.2383  0.8478  0.0142
  734MPD2    C210899   2.032   2.335  12.307  0.3801  0.2300  0.2491
  734MPD2    C310900   2.131   2.420  12.293 -0.2539  0.6353 -1.2618
  734MPD2    C410901   2.216   2.438  12.400 -0.1807  0.5404  0.1079
  734MPD2    C510902   2.192   2.375  12.519 -0.0262  0.3881 -0.2707
  734MPD2     H10903   1.970   2.326  12.218  0.4978 -1.1494  0.3131
  734MPD2    H110904   2.290   2.517  12.394 -0.7886  1.0837 -0.2145
  734MPD2    H210905   2.078   2.242  12.630  2.5080 -0.6684 -0.2997
  734MPD2    H310906   2.256   2.403  12.603  0.6346  4.0424 -1.9995
  734MPD2     N10907   2.139   2.487  12.168  0.1569  0.2128  0.9647
  734MPD2    H510908   2.055   2.480  12.111  1.7743  0.2681 -1.4226
  734MPD2    N110909   1.899   2.182  12.447 -0.2015  0.2018  0.2599
  734MPD2    H710910   1.912   2.117  12.524  0.9457 -0.9813 -0.9158
  735TMC3    C110911   1.737   2.037  12.363 -0.1059  0.0150  0.5225
  735TMC3    C210912   1.629   2.029  12.285  0.1990  0.2898 -0.4088
  735TMC3    C310913   1.603   1.923  12.208 -0.1617 -0.0451  0.0719
  735TMC3    C410914   1.824   1.935  12.368 -0.2049 -0.6335  0.8684
  735TMC3    C510915   1.793   1.819  12.303 -0.1312 -0.0119 -0.8440
  735TMC3    C610916   1.675   1.806  12.231  0.1523  0.5065 -0.1151
  735TMC3     C10917   1.795   2.171  12.359 -0.8214 -0.1028  0.0054
  735TMC3     O10918   1.754   2.243  12.269  0.3738 -0.6119 -0.4496
  735TMC3     H10919   1.559   2.110  12.279  1.4024  1.4018  0.5675
  735TMC3    H110920   1.907   1.937  12.437  0.2795  1.3775  0.2295
  735TMC3    H210921   1.677   1.720  12.165 -0.1969 -0.0747  0.6272
  735TMC3    C710922   1.901   1.725  12.278  0.8891  0.1065  0.0527
  735TMC3    C810923   1.601   1.952  12.071  0.3640 -0.0966  0.6527
  735TMC3    O110924   1.872   1.611  12.248  0.7484 -0.2378 -0.2428
  735TMC3    O210925   1.556   1.865  11.995  0.4624 -0.5670  0.2121
  736MPD2     C10926   2.178   1.593  12.288 -0.6358 -0.3847 -0.2893
  736MPD2    C110927   2.152   1.730  12.287  0.5455  0.0680 -0.2378
  736MPD2    C210928   2.263   1.811  12.307 -0.5120  0.2116  0.3972
  736MPD2    C310929   2.391   1.768  12.299 -0.0285  0.3197  0.0671
  736MPD2    C410930   2.414   1.627  12.285  0.3199 -0.5967  0.6284
  736MPD2    C510931   2.310   1.546  12.300 -0.3112  0.1367 -0.4023
  736MPD2     H10932   2.253   1.919  12.312  1.2358  0.4046 -0.2060
  736MPD2    H110933   2.512   1.585  12.265  0.0625  0.4290 -2.7622
  736MPD2    H210934   2.098   1.520  12.285  1.0115 -2.2360  1.6226
  736MPD2    H310935   2.326   1.438  12.301  0.2484  0.2405  1.1666
  736MPD2     N10936   2.503   1.850  12.299  0.3666  0.3512 -0.0680
  736MPD2    H510937   2.591   1.799  12.293  1.1027  1.4864  1.0755
  736MPD2    N110938   2.020   1.786  12.289  0.2917 -0.2420 -0.6384
  736MPD2    H710939   2.025   1.887  12.297  1.6303 -0.3187 -0.4955
  737TMC3    C110940   2.643   2.035  12.265  0.6779 -0.1072  0.9846
  737TMC3    C210941   2.675   2.164  12.297 -0.5828 -0.1981 -0.5946
  737TMC3    C310942   2.744   2.238  12.202 -0.1973 -0.5610 -0.5365
  737TMC3    C410943   2.690   1.975  12.153 -0.0795 -0.0167  0.0383
  737TMC3    C510944   2.786   2.044  12.082 -0.2543 -0.4793 -1.0020
  737TMC3    C610945   2.805   2.175  12.096  0.3508 -0.8311  0.1040
  737TMC3     C10946   2.513   1.984  12.315 -0.1787  0.0501  0.0772
  737TMC3     O10947   2.428   2.059  12.359 -0.3268  0.1454  0.4978
  737TMC3     H10948   2.610   2.204  12.374  1.3940  2.7303 -0.4452
  737TMC3    H110949   2.652   1.878  12.124 -1.8512  1.0399 -1.1883
  737TMC3    H210950   2.879   2.226  12.036  0.3321  0.4807  1.2034
  737TMC3    C710951   2.867   1.971  11.983  0.6535  0.3625 -0.6504
  737TMC3    C810952   2.726   2.376  12.210 -0.4307 -0.4248 -0.2233
  737TMC3    O110953   2.870   1.846  11.985 -0.3912 -0.0151  0.1324
  737TMC3    O210954   2.682   2.422  12.314 -0.3558 -0.0908 -0.1053
  738MPD2     C10955   2.977   1.045  15.453  0.0509  0.4558  0.2630
  738MPD2    C110956   2.975   0.960  15.350  0.3657  0.5776 -0.5899
  738MPD2    C210957   3.091   0.943  15.276 -0.9815 -0.0282  0.3007
  738MPD2    C310958   3.201   1.029  15.306  0.2124  0.1111 -0.1565
  738MPD2    C410959   3.206   1.112  15.412 -0.4618  0.1390 -0.0428
  738MPD2    C510960   3.090   1.117  15.483 -0.4827 -0.3929  0.4798
  738MPD2     H10961   3.092   0.867  15.198  1.1165  1.1810 -0.8185
  738MPD2    H110962   3.299   1.160  15.439  0.8718 -2.0790 -0.6097
  738MPD2    H210963   2.886   1.052  15.512  0.4654 -0.0094  0.9627
  738MPD2    H310964   3.090   1.184  15.569 -1.6068  0.1988  0.0093
  738MPD2     N10965   3.314   1.038  15.218  0.5603  0.1596 -0.0623
  738MPD2    H510966   3.383   1.108  15.243  0.1052  0.0768  1.4003
  738MPD2    N110967   2.866   0.877  15.312  0.6512  0.0258  0.1377
  738MPD2    H710968   2.889   0.803  15.246 -0.5802  1.1424 -1.5422
  739TMC3    C110969   3.467   1.002  15.056 -0.8211 -0.2660  0.2970
  739TMC3    C210970   3.485   1.017  14.917 -0.3778  0.0445  0.1432
  739TMC3    C310971   3.611   1.045  14.872  0.1885  0.2358 -0.8137
  739TMC3    C410972   3.577   1.033  15.137  0.3213  0.6887 -0.4947
  739TMC3    C510973   3.697   1.072  15.084  0.0432  1.1445 -0.6725
  739TMC3    C610974   3.723   1.074  14.949  0.4081  0.0454  0.5765
  739TMC3     C10975   3.332   0.967  15.107 -0.6688  0.2346  0.4425
  739TMC3     O10976   3.252   0.909  15.031  0.1778  0.5497  0.8441
  739TMC3     H10977   3.410   0.972  14.853 -0.3571 -1.0550  0.9052
  739TMC3    H110978   3.562   1.017  15.244  0.5327 -2.4900 -0.9530
  739TMC3    H210979   3.821   1.096  14.908  1.1124  0.1539  2.3175
  739TMC3    C710980   3.807   1.086  15.181 -0.4948 -0.0377 -0.2266
  739TMC3    C810981   3.603   1.086  14.729 -0.0833  0.3349  0.0729
  739TMC3    O110982   3.790   1.032  15.288 -0.2664 -0.0175 -0.4363
  739TMC3    O210983   3.492   1.093  14.679  0.2299  0.5163  0.2346
  740TMC3    C110984   3.825   2.571  14.345  0.5214  0.3854  0.5611
  740TMC3    C210985   3.884   2.529  14.461  0.2700 -0.5281  0.6190
  740TMC3    C310986   4.023   2.518  14.452  0.0018 -0.1969 -0.1683
  740TMC3    C410987   3.896   2.568  14.228  0.2148  0.2753 -0.3040
  740TMC3    C510988   4.026   2.546  14.221  0.3733  0.0921 -0.5360
  740TMC3    C610989   4.093   2.528  14.341 -0.0899 -0.8572 -0.2568
  740TMC3     C10990   3.683   2.571  14.318  0.1682 -0.0523 -0.3280
  740TMC3     O10991   3.635   2.595  14.210 -0.2241  0.2285 -0.3157
  740TMC3     H10992   3.832   2.526  14.556  0.6832 -0.8087  0.8360
  740TMC3    H110993   3.858   2.587  14.128 -0.9547 -1.9789 -0.3087
  740TMC3    H210994   4.201   2.531  14.346 -0.1677  0.4681  0.6419
  740TMC3    C710995   4.087   2.473  14.105  0.3270  0.6598 -0.0001
  740TMC3    C810996   4.097   2.495  14.574 -0.2739  0.4384 -0.5667
  740TMC3    O110997   4.194   2.416  14.122  0.2588 -0.9051 -0.8325
  740TMC3    O210998   4.216   2.526  14.558  0.8947  0.9395  0.1628
  741TMC3    C110999   3.671   1.543  14.554  0.2881 -0.0754  0.1868
  741TMC3    C211000   3.547   1.506  14.509 -0.0942 -0.3066  0.5831
  741TMC3    C311001   3.464   1.442  14.595  0.2231  0.1322 -0.2377
  741TMC3    C411002   3.706   1.529  14.686  0.6568 -0.3851  0.2466
  741TMC3    C511003   3.614   1.470  14.768  0.1901 -0.1901 -0.9155
  741TMC3    C611004   3.489   1.428  14.727  0.4370  0.0279  0.6333
  741TMC3     C11005   3.783   1.549  14.458  0.1124 -0.6550 -0.2584
  741TMC3     O11006   3.898   1.528  14.494 -0.2907  0.9303 -0.0453
  741TMC3     H11007   3.522   1.505  14.403  0.6877 -1.1386  0.4073
  741TMC3    H111008   3.809   1.537  14.719 -0.0258  0.7172  2.0676
  741TMC3    H211009   3.427   1.360  14.784 -0.9125  0.9201  0.2257
  741TMC3    C711010   3.645   1.449  14.904  0.2282  0.4152 -0.6458
  741TMC3    C811011   3.349   1.385  14.533  0.2874 -0.2905  0.5949
  741TMC3    O111012   3.598   1.356  14.969 -0.0816 -0.4831  0.2435
  741TMC3    O211013   3.295   1.455  14.445 -0.0558 -0.6602  0.0865
  742TMC3    C111014   2.762   0.212  15.301 -0.7583 -0.2398 -0.2334
  742TMC3    C211015   2.687   0.152  15.202 -0.7270  0.1538 -0.6218
  742TMC3    C311016   2.726   0.028  15.152  0.4194 -0.3478 -0.4578
  742TMC3    C411017   2.861   0.148  15.361  0.0176 -0.1269  0.3063
  742TMC3    C511018   2.889   0.023  15.326  0.1400 -0.1755 -0.1739
  742TMC3    C611019   2.823   4.699  15.220  0.1609  0.1486 -0.1887
  742TMC3     C11020   2.722   0.337  15.357  0.0152 -0.5896 -0.1057
  742TMC3     O11021   2.606   0.345  15.385  0.1996 -0.0153 -0.3823
  742TMC3     H11022   2.617   0.221  15.156  1.2375  0.8387 -2.5760
  742TMC3    H111023   2.920   0.189  15.442  0.7360  0.6820 -0.6358
  742TMC3    H211024   2.858   4.604  15.182  0.9412 -0.1432  1.2788
  742TMC3    C711025   2.975   4.664  15.397 -0.1581 -0.1747  0.1501
  742TMC3    C811026   2.701   4.730  15.012 -0.4125  0.1098  0.5431
  742TMC3    O111027   3.002   4.559  15.343 -0.1228  0.1115 -0.6816
  742TMC3    O211028   2.791   4.668  14.959 -0.1712  0.4389 -0.1915
  743MPD2     C11029   0.556   1.924   1.606  0.6028  0.1077  0.1843
  743MPD2    C111030   0.623   1.879   1.492 -0.1199  0.5653 -0.0555
  743MPD2    C211031   0.757   1.887   1.493 -0.1272  0.0423  1.0372
  743MPD2    C311032   0.835   1.931   1.597  0.1458  0.5155 -0.9788
  743MPD2    C411033   0.773   1.972   1.713 -0.5317 -0.0738  0.2188
  743MPD2    C511034   0.636   1.961   1.713 -0.4082 -0.2225  0.7622
  743MPD2     H11035   0.817   1.860   1.407  0.4463  0.9826  1.1449
  743MPD2    H111036   0.829   2.006   1.799  0.1346  0.5172 -0.4606
  743MPD2    H211037   0.450   1.908   1.623  0.5586  1.8378  1.4554
  743MPD2    H311038   0.589   1.999   1.803 -1.3469 -0.7504  0.4954
  743MPD2     N11039   0.970   1.921   1.576  0.0951 -0.1695  0.4624
  743MPD2    H511040   0.996   1.905   1.480  0.1790  0.5121  0.3749
  743MPD2    N111041   0.545   1.823   1.384  0.0179  0.4440 -0.1780
  743MPD2    H711042   0.443   1.826   1.387  0.0761  1.6533  0.7063
  744TMC3    C111043   0.510   1.698   1.191 -0.7620  0.0310 -0.0211
  744TMC3    C211044   0.378   1.670   1.223  0.3975  0.5202  0.0802
  744TMC3    C311045   0.289   1.621   1.125  0.2375 -0.2534  0.3729
  744TMC3    C411046   0.553   1.672   1.060 -0.3389 -0.5351  1.1070
  744TMC3    C511047   0.463   1.623   0.964  0.6015  0.2727  0.4265
  744TMC3    C611048   0.333   1.606   1.000 -0.6884 -1.0695 -0.3834
  744TMC3     C11049   0.599   1.768   1.275 -0.0761  0.0732 -0.4370
  744TMC3     O11050   0.713   1.759   1.231  0.4474 -0.2349 -0.1259
  744TMC3     H11051   0.349   1.671   1.327 -2.2416  0.5773 -0.6589
  744TMC3    H111052   0.658   1.684   1.038 -0.1956 -0.6084  1.7537
  744TMC3    H211053   0.264   1.584   0.919 -0.3994 -1.3041 -0.5660
  744TMC3    C711054   0.516   1.592   0.837 -0.7480 -0.4080 -0.1174
  744TMC3    C811055   0.154   1.673   1.136 -0.7468  0.2518  0.0477
  744TMC3    O111056   0.634   1.614   0.828  0.2320  0.4758 -0.2711
  744TMC3    O211057   0.143   1.751   1.233  0.7670 -0.3671  0.3206
  745TMC3    C111058   3.650   4.075  13.332 -0.3168  0.2703 -0.5637
  745TMC3    C211059   3.545   4.006  13.386  0.1757 -0.3297  0.2607
  745TMC3    C311060   3.468   3.937  13.298  0.4354  0.4523 -0.4240
  745TMC3    C411061   3.697   4.060  13.201 -0.0744 -0.1340  0.4197
  745TMC3    C511062   3.622   3.971  13.126 -0.1496  0.1301 -0.1059
  745TMC3    C611063   3.511   3.909  13.173  0.2573 -1.1821 -0.1301
  745TMC3     C11064   3.702   4.178  13.416 -0.2310 -0.5471  0.1310
  745TMC3     O11065   3.691   4.160  13.538 -0.5708 -0.1587 -0.4780
  745TMC3     H11066   3.519   4.024  13.490  1.9936 -1.9982  1.0032
  745TMC3    H111067   3.793   4.101  13.172 -0.1719 -0.5313 -0.4557
  745TMC3    H211068   3.441   3.851  13.115 -0.5863 -1.6199  1.3236
  745TMC3    C711069   3.679   3.922  13.002  0.7538  0.3378  0.2565
  745TMC3    C811070   3.325   3.956  13.328 -0.7565  0.2310 -0.4755
  745TMC3    O111071   3.656   3.804  12.980 -0.1517 -0.1588 -0.2084
  745TMC3    O211072   3.257   3.857  13.323  0.5956 -0.2333  0.0629
  746TMC3    C111073   0.952   2.044  10.179 -0.2401 -0.2818  0.0768
  746TMC3    C211074   1.045   2.068  10.082  0.0587  0.2670  0.3177
  746TMC3    C311075   1.010   2.121   9.962  0.5691 -0.1808 -0.3150
  746TMC3    C411076   0.818   2.062  10.157 -0.1033 -0.1461 -0.6038
  746TMC3    C511077   0.785   2.119  10.035 -1.2348 -0.7274  0.7497
  746TMC3    C611078   0.880   2.153   9.942  0.0077 -1.2874  0.0467
  746TMC3     C11079   0.976   2.091  10.310 -0.3508 -0.3304 -0.2487
  746TMC3     O11080   0.910   2.050  10.401  0.0746  0.2619  0.1045
  746TMC3     H11081   1.149   2.041  10.095 -0.7564 -3.4159 -0.7147
  746TMC3    H111082   0.752   2.048  10.242  0.6946  0.3306  0.0966
  746TMC3    H211083   0.847   2.202   9.851 -0.4303 -0.4175  0.6768
  746TMC3    C711084   0.654   2.180  10.028  0.5027 -0.5432 -0.5373
  746TMC3    C811085   1.093   2.240   9.933  0.2622 -0.2051  0.0183
  746TMC3    O111086   0.637   2.274   9.950 -0.2994 -0.3789  0.1472
  746TMC3    O211087   1.161   2.237   9.832 -0.1174 -0.8623 -0.1203
  747TMC3    C111088   3.046   2.421  11.034  0.1212  0.5856  0.4237
  747TMC3    C211089   3.063   2.298  11.105 -0.5404 -0.2962  0.2263
  747TMC3    C311090   3.073   2.315  11.237  0.2213 -0.1556 -0.7367
  747TMC3    C411091   3.030   2.545  11.092 -0.7942 -0.2741 -0.7425
  747TMC3    C511092   3.053   2.557  11.229 -0.3667  0.0333  0.8821
  747TMC3    C611093   3.076   2.442  11.302 -1.0426 -0.1789 -0.3800
  747TMC3     C11094   3.061   2.415  10.895 -0.2568  0.5963 -0.8155
  747TMC3     O11095   3.004   2.498  10.830 -0.1730  0.0519  0.1677
  747TMC3     H11096   3.059   2.202  11.056  0.1285 -0.2866  0.1530
  747TMC3    H111097   3.021   2.627  11.022  0.0736 -0.2169 -0.7889
  747TMC3    H211098   3.082   2.442  11.411  1.5709 -0.5540 -0.5199
  747TMC3    C711099   3.070   2.686  11.296  0.0931  0.4998 -0.0340
  747TMC3    C811100   3.072   2.184  11.301 -0.6118 -0.0290  0.2544
  747TMC3    O111101   3.109   2.686  11.413  0.6946  0.2620 -0.1367
  747TMC3    O211102   3.117   2.085  11.244  1.0459  0.0009  0.0598
  748MPD2     C11103   0.356   2.916   1.253  0.2564 -0.7896  0.1610
  748MPD2    C111104   0.378   2.776   1.228 -0.4099 -0.3338 -0.3333
  748MPD2    C211105   0.517   2.734   1.223  0.5069  0.6533  0.0479
  748MPD2    C311106   0.619   2.820   1.238  0.4767 -0.0265  0.0458
  748MPD2    C411107   0.599   2.952   1.273 -0.0592  0.2909  0.1176
  748MPD2    C511108   0.469   3.000   1.270  0.1047  0.2837  0.2141
  748MPD2     H11109   0.536   2.627   1.212  1.1860  0.5455  2.1676
  748MPD2    H111110   0.680   3.022   1.290 -0.8335  0.9696  1.0193
  748MPD2    H211111   0.257   2.958   1.262  1.2028  1.0143  2.1440
  748MPD2    H311112   0.461   3.104   1.297 -3.4232 -0.2670  1.2834
  748MPD2     N11113   0.749   2.768   1.216 -0.8510  0.2877  0.0003
  748MPD2    H511114   0.763   2.692   1.151 -1.7768  0.2164 -0.1126
  748MPD2    N111115   0.264   2.697   1.220 -0.2010  0.6003 -0.6719
  748MPD2    H711116   0.173   2.739   1.235  0.5187  1.2204  2.0050
  749TMC3    C111117   0.987   2.765   1.239  0.3390 -0.0210 -0.5763
  749TMC3    C211118   1.078   2.748   1.338  0.3761  0.1535  0.7166
  749TMC3    C311119   1.212   2.740   1.318  0.0174 -0.8911  0.4309
  749TMC3    C411120   1.029   2.774   1.108 -0.1241 -0.3977 -0.7011
  749TMC3    C511121   1.160   2.746   1.090 -1.0515 -0.4652 -0.1226
  749TMC3    C611122   1.253   2.736   1.191 -0.4051 -0.6212  0.1142
  749TMC3     C11123   0.859   2.822   1.278 -0.3457  0.3018 -0.3562
  749TMC3     O11124   0.861   2.901   1.371  0.6573 -0.0944  0.1755
  749TMC3     H11125   1.042   2.724   1.437 -1.2757 -1.8175 -0.3538
  749TMC3    H111126   0.960   2.792   1.027 -0.6457 -0.1422 -0.2067
  749TMC3    H211127   1.359   2.742   1.171 -0.4848 -0.2231 -0.1791
  749TMC3    C711128   1.206   2.781   0.965  1.0673 -1.0713 -0.1444
  749TMC3    C811129   1.279   2.656   1.422  0.0820  0.0275 -0.1237
  749TMC3    O111130   1.312   2.834   0.961  0.1884  0.7930  0.3001
  749TMC3    O211131   1.249   2.681   1.539  0.1700  0.4990 -0.0885
  750MPD2     C11132   0.951   3.912  11.355  0.0618 -0.7123  0.0625
  750MPD2    C111133   0.894   3.805  11.423 -0.0403  0.7052 -0.5060
  750MPD2    C211134   0.875   3.684  11.362  0.5156  0.3799  0.1955
  750MPD2    C311135   0.915   3.667  11.226 -0.7260 -0.0946 -0.1833
  750MPD2    C411136   0.969   3.776  11.160  0.4291  0.1867 -0.0387
  750MPD2    C511137   0.978   3.899  11.219  0.4765  0.1088  0.4895
  750MPD2     H11138   0.830   3.607  11.424  0.5301 -0.4505 -0.8200
  750MPD2    H111139   0.975   3.764  11.052  1.1295  0.8184 -0.0671
  750MPD2    H211140   0.963   4.009  11.400 -3.2232  0.0356 -0.6789
  750MPD2    H311141   1.005   3.994  11.173 -1.6957 -0.2167 -1.4165
  750MPD2     N11142   0.895   3.546  11.151 -0.0062  0.6178  0.0013
  750MPD2    H511143   0.922   3.544  11.053 -0.5489  0.4131 -0.1410
  750MPD2    N111144   0.860   3.825  11.561 -0.1571 -0.0970  0.2471
  750MPD2    H711145   0.876   3.919  11.595 -2.0950  0.6862 -0.9821
  751TMC3    C111146   0.830   3.337  11.101  0.5149 -0.0982 -0.0777
  751TMC3    C211147   0.704   3.294  11.093  0.2842 -0.1197  0.3091
  751TMC3    C311148   0.664   3.249  10.972  0.0064 -0.2676  0.2438
  751TMC3    C411149   0.919   3.347  10.999  0.3648  0.1417  0.1591
  751TMC3    C511150   0.868   3.319  10.878  0.5473 -0.1598 -0.5333
  751TMC3    C611151   0.746   3.260  10.865 -0.2741  0.1163  0.7130
  751TMC3     C11152   0.851   3.431  11.202 -0.1169  0.1706  0.3877
  751TMC3     O11153   0.806   3.409  11.314  0.9390 -0.4739  0.4843
  751TMC3     H11154   0.650   3.266  11.182  0.6185 -0.1146  0.5167
  751TMC3    H111155   1.024   3.368  11.018  0.1374  1.2125  0.2099
  751TMC3    H211156   0.712   3.224  10.769 -2.3854 -0.4156  1.6637
  751TMC3    C711157   0.973   3.306  10.779  0.0626  0.5199  0.3411
  751TMC3    C811158   0.537   3.176  10.954  0.8671  0.6794  0.0175
  751TMC3    O111159   1.072   3.382  10.793  0.2934 -0.6762  0.1102
  751TMC3    O211160   0.509   3.113  10.854 -0.3604  0.3033 -0.2496
  752TMC3    C111161   0.386   3.771  17.375 -0.0429  0.0306 -0.0962
  752TMC3    C211162   0.382   3.699  17.488 -0.6514  0.2130 -0.7879
  752TMC3    C311163   0.343   3.762  17.598  0.1330  0.1032 -0.1875
  752TMC3    C411164   0.364   3.906  17.363 -0.0560  0.2480 -0.2160
  752TMC3    C511165   0.319   3.970  17.475 -0.1740  0.1381 -0.0117
  752TMC3    C611166   0.320   3.899  17.596  0.0091 -0.4793 -0.0072
  752TMC3     C11167   0.439   3.705  17.255 -0.2777 -0.1291 -0.3031
  752TMC3     O11168   0.490   3.592  17.266  0.3123 -0.3141  0.1293
  752TMC3     H11169   0.404   3.593  17.482  0.0821  0.3663 -0.7759
  752TMC3    H111170   0.371   3.960  17.269  0.5679 -0.6099 -0.6553
  752TMC3    H211171   0.305   3.946  17.692 -0.5014  0.7541 -0.6927
  752TMC3    C711172   0.346   4.112  17.479  0.1684  0.1282  0.2408
  752TMC3    C811173   0.286   3.701  17.713 -0.5376 -0.0598 -0.1548
  752TMC3    O111174   0.304   4.168  17.579 -0.6566 -0.4836  0.3625
  752TMC3    O211175   0.259   3.761   0.080  0.1519  0.6262  0.5036
  753TMC3    C111176   1.833   4.381  13.608 -0.2422  0.8485  0.0079
  753TMC3    C211177   1.820   4.450  13.727  0.2683 -0.1822 -0.6750
  753TMC3    C311178   1.754   4.390  13.828  0.5168 -0.4253 -0.6730
  753TMC3    C411179   1.785   4.254  13.592 -0.3910 -0.2169  0.7604
  753TMC3    C511180   1.725   4.196  13.699 -0.0246  1.0786  0.1562
  753TMC3    C611181   1.709   4.263  13.814 -0.3285  0.7967 -0.2826
  753TMC3     C11182   1.933   4.435  13.514  0.3959  0.7192  0.6645
  753TMC3     O11183   2.005   4.525  13.553 -0.0275 -0.1919  0.2697
  753TMC3     H11184   1.849   4.554  13.729 -1.9213  0.4464 -2.1330
  753TMC3    H111185   1.795   4.197  13.501  0.8970  0.4118  0.5151
  753TMC3    H211186   1.668   4.206  13.897  1.5700 -0.5334 -0.2630
  753TMC3    C711187   1.671   4.061  13.688  0.4745 -0.0076 -0.7076
  753TMC3    C811188   1.747   4.448  13.965 -0.6695  0.7993 -0.0115
  753TMC3    O111189   1.665   4.003  13.794  0.0022 -0.2565  0.3377
  753TMC3    O211190   1.656   4.424  14.041  0.0957  0.2835 -0.2725
  754MPD2     C11191   1.108   3.200  13.085 -0.3424  0.9319  0.5727
  754MPD2    C111192   1.066   3.073  13.047  0.3507  0.7213  0.5442
  754MPD2    C211193   0.932   3.045  13.059 -0.6851 -0.2330  0.3208
  754MPD2    C311194   0.839   3.126  13.123 -1.0772  1.2796 -0.5383
  754MPD2    C411195   0.881   3.251  13.159 -0.0103 -0.0489  0.3319
  754MPD2    C511196   1.014   3.286  13.143 -0.1469 -0.1909 -0.2788
  754MPD2     H11197   0.896   2.959  13.004 -1.1877  2.5212 -3.6298
  754MPD2    H111198   0.807   3.315  13.205  0.0999 -0.1831  0.6947
  754MPD2    H211199   1.207   3.239  13.065 -0.1365  1.3192  2.3455
  754MPD2    H311200   1.043   3.384  13.178 -0.5935  0.2175 -1.0600
  754MPD2     N11201   0.708   3.090  13.152 -1.1320  0.6085  0.1269
  754MPD2    H511202   0.661   3.155  13.213  0.7952  2.2750 -0.1898
  754MPD2    N111203   1.166   2.988  12.992  0.7023  0.3813  0.5786
  754MPD2    H711204   1.255   3.035  12.979  1.3343 -0.2800  2.5252
  755MPD2     C11205   0.190   3.425  13.731  0.5277 -0.3005 -0.0460
  755MPD2    C111206   0.101   3.369  13.641 -0.2837 -0.3488  0.0070
  755MPD2    C211207   0.144   3.275  13.549 -0.3171  0.4282  0.1093
  755MPD2    C311208   0.280   3.244  13.537 -0.6354  0.5457  0.5533
  755MPD2    C411209   0.367   3.304  13.625  0.3407  0.1847  0.0333
  755MPD2    C511210   0.323   3.394  13.726 -0.4045  0.4887 -0.3392
  755MPD2     H11211   0.074   3.233  13.478 -0.6976  1.5808 -0.1975
  755MPD2    H111212   0.470   3.271  13.613 -0.2303 -1.9569  1.0108
  755MPD2    H211213   0.155   3.493  13.808  0.3540 -0.6818  0.2133
  755MPD2    H311214   0.392   3.446  13.791 -1.8651  1.4560  0.4187
  755MPD2     N11215   0.325   3.154  13.437 -0.5494  1.0369  0.4600
  755MPD2    H511216   0.426   3.143  13.428 -0.4128  0.8524  2.0497
  755MPD2    N111217   4.696   3.402  13.643  0.2633 -0.0675 -0.0635
  755MPD2    H711218   4.634   3.347  13.584  1.5952 -2.1120  0.4453
  756MPD2     C11219   1.010   4.451   9.370 -0.0729  0.1826  0.3603
  756MPD2    C111220   0.961   4.486   9.494  0.7690 -0.4239  0.3656
  756MPD2    C211221   0.824   4.474   9.518  0.1572  0.2251 -0.5549
  756MPD2    C311222   0.734   4.437   9.419  0.5558 -1.0820 -0.6429
  756MPD2    C411223   0.793   4.410   9.294  0.5824 -0.2890  0.0751
  756MPD2    C511224   0.925   4.423   9.271 -0.3928  0.4242  0.5309
  756MPD2     H11225   0.779   4.496   9.614 -1.2385 -1.2283 -0.8681
  756MPD2    H111226   0.738   4.377   9.207  0.3239  0.2798  0.0269
  756MPD2    H211227   1.114   4.458   9.340  0.5396 -0.1744  2.3676
  756MPD2    H311228   0.968   4.405   9.173  0.3626  1.5772  0.6560
  756MPD2     N11229   0.597   4.434   9.445  0.4220  0.3024  0.4311
  756MPD2    H511230   0.573   4.447   9.543 -0.8747  3.1962 -0.2478
  756MPD2    N111231   1.040   4.543   9.603  0.0716  0.3313 -0.3683
  756MPD2    H711232   0.991   4.590   9.678 -1.7103 -1.6611 -0.2978
  757MPD2     C11233   0.252   4.255  10.198  0.2311 -0.2464  0.3529
  757MPD2    C111234   0.280   4.171  10.087  0.1942 -0.1629 -0.7145
  757MPD2    C211235   0.291   4.232   9.964 -0.5225  0.4094  0.4418
  757MPD2    C311236   0.282   4.371   9.946  0.6727 -0.0419  0.0463
  757MPD2    C411237   0.250   4.448  10.064  0.5891  0.0975  0.4287
  757MPD2    C511238   0.218   4.388  10.182 -0.3492 -0.7696  0.0675
  757MPD2     H11239   0.312   4.179   9.872  1.1196 -2.5170  2.5251
  757MPD2    H111240   0.254   4.556  10.062 -0.1645  0.1104 -0.9586
  757MPD2    H211241   0.237   4.222  10.300  1.4966 -1.0139  0.2957
  757MPD2    H311242   0.188   4.448  10.268 -0.6685 -0.6753 -0.1112
  757MPD2     N11243   0.306   4.425   9.817 -0.4210 -0.1743  0.5594
  757MPD2    H511244   0.335   4.355   9.749 -0.9361 -0.2609  0.4258
  757MPD2    N111245   0.302   4.038  10.116 -0.2322  0.2524 -0.1616
  757MPD2    H711246   0.312   4.015  10.215  1.6031  1.6336 -0.0306
  758MPD2     C11247   0.849   2.758  15.624  0.2096  0.0080  0.4164
  758MPD2    C111248   0.956   2.724  15.704  0.1747  0.0746 -0.0696
  758MPD2    C211249   0.940   2.726  15.840  0.4364 -0.2611 -0.1326
  758MPD2    C311250   0.819   2.766  15.896  0.1139  0.2350 -0.0401
  758MPD2    C411251   0.710   2.801  15.811  0.3333  0.9005  0.8788
  758MPD2    C511252   0.733   2.808  15.679  0.4531  0.9702 -0.3230
  758MPD2     H11253   1.030   2.709  15.898  1.5354  1.3379 -1.3571
  758MPD2    H111254   0.611   2.819  15.853 -1.0866 -0.1213 -2.0496
  758MPD2    H211255   0.859   2.754  15.516  1.0100  3.4553  0.3491
  758MPD2    H311256   0.655   2.840  15.610  1.0436  0.7825 -1.0831
  758MPD2     N11257   0.806   2.767  16.033  0.4785 -0.2244 -0.3325
  758MPD2    H511258   0.712   2.794  16.062 -0.2335 -1.0990 -1.7846
  758MPD2    N111259   1.075   2.680  15.636 -0.0235  0.7253 -0.3278
  758MPD2    H711260   1.070   2.667  15.535  0.7214  1.4928 -0.4654
  759MPD2     C11261   0.020   1.561   9.500 -0.0434  0.1542 -0.7428
  759MPD2    C111262   4.638   1.567   9.577 -0.3672  0.2013  0.6212
  759MPD2    C211263   4.579   1.691   9.598  0.0637 -0.3135  0.0154
  759MPD2    C311264   4.637   1.809   9.560 -0.6180  0.3178  0.2721
  759MPD2    C411265   0.024   1.809   9.497  0.2907  0.5383  0.1709
  759MPD2    C511266   0.077   1.684   9.472  0.5020 -1.0014 -0.1268
  759MPD2     H11267   4.489   1.693   9.658 -1.6234  1.8489 -2.5839
  759MPD2    H111268   0.088   1.890   9.466  2.1096 -0.4307  1.4455
  759MPD2    H211269   0.062   1.465   9.472  0.3295  0.5422 -1.4776
  759MPD2    H311270   0.177   1.678   9.430  0.1689  0.3250 -1.1138
  759MPD2     N11271   4.569   1.930   9.592 -0.1264  0.2982  0.5884
  759MPD2    H511272   4.487   1.925   9.652 -0.1824  3.0260  0.7151
  759MPD2    N111273   4.563   1.453   9.620 -0.1054 -0.5576 -0.2731
  759MPD2    H711274   4.476   1.470   9.670  0.2451 -1.4154  0.6312
  760MPD2     C11275   3.549   2.263  12.071 -0.4855  0.3577 -0.0259
  760MPD2    C111276   3.684   2.264  12.042 -0.0217 -0.5498  0.0112
  760MPD2    C211277   3.773   2.173  12.101 -0.6262 -0.0950  0.1083
  760MPD2    C311278   3.722   2.090  12.197  0.2056 -0.0754  0.0058
  760MPD2    C411279   3.591   2.099  12.239 -0.4259  0.3823  0.1989
  760MPD2    C511280   3.503   2.182  12.174 -0.6892  0.0531 -0.4645
  760MPD2     H11281   3.871   2.157  12.058 -2.0746 -2.2458 -2.4020
  760MPD2    H111282   3.549   2.046  12.324 -1.1066 -0.3429 -0.5843
  760MPD2    H211283   3.473   2.302  12.004  0.0288  1.2893 -0.0628
  760MPD2    H311284   3.395   2.176  12.186 -0.6959  0.3543 -0.3584
  760MPD2     N11285   3.797   1.990  12.261 -0.4281 -0.7268  0.4854
  760MPD2    H511286   3.760   1.947  12.345 -2.2029 -0.3515 -0.0987
  760MPD2    N111287   3.727   2.332  11.925  0.1309 -0.0217 -0.2641
  760MPD2    H711288   3.826   2.324  11.904 -0.1760 -1.8402 -1.0277
  761MPD2     C11289   0.107   3.004  11.189 -0.8513 -0.2746  0.7195
  761MPD2    C111290   0.155   2.979  11.063  0.3564  0.1544 -0.1179
  761MPD2    C211291   0.274   3.040  11.013 -0.4570 -0.2764 -0.4778
  761MPD2    C311292   0.334   3.134  11.095  0.1411  0.3195  0.7082
  761MPD2    C411293   0.277   3.164  11.218  0.4167  0.7346  0.3773
  761MPD2    C511294   0.165   3.103  11.266  0.1535 -0.5408 -0.4303
  761MPD2     H11295   0.314   3.023  10.913  2.4544  0.1041  0.6214
  761MPD2    H111296   0.331   3.228  11.287  1.1457 -1.7190  2.0582
  761MPD2    H211297   0.015   2.963  11.228 -1.7150 -0.3537 -1.3777
  761MPD2    H311298   0.132   3.126  11.366 -0.8828  0.0693 -0.9157
  761MPD2     N11299   0.453   3.204  11.062  0.1806  0.1007  0.0939
  761MPD2    H511300   0.480   3.273  11.131 -2.7329 -0.7692  2.1526
  761MPD2    N111301   0.086   2.883  10.987  0.5023 -0.1136  0.5422
  761MPD2    H711302   0.015   2.832  11.040  1.4226 -1.5403  0.4065
  762MPD2     C11303   0.677   2.854  11.118  0.4227 -0.0689 -0.6893
  762MPD2    C111304   0.641   2.802  10.993 -0.1746  0.0741 -0.8086
  762MPD2    C211305   0.732   2.807  10.897 -0.1227 -0.2284  0.7184
  762MPD2    C311306   0.865   2.858  10.919 -0.2400 -0.5662  0.1259
  762MPD2    C411307   0.890   2.930  11.032 -0.0374  0.0975 -0.0500
  762MPD2    C511308   0.800   2.922  11.134  0.2639  0.3845  0.6703
  762MPD2     H11309   0.715   2.745  10.810 -1.0143  1.4664 -0.3244
  762MPD2    H111310   0.978   2.986  11.062 -0.9008  0.0028  2.6598
  762MPD2    H211311   0.610   2.848  11.203  0.6645  1.4238 -0.3966
  762MPD2    H311312   0.817   2.970  11.230  0.3225 -1.7137  1.7000
  762MPD2     N11313   0.957   2.846  10.819 -0.3034 -0.2825 -0.1965
  762MPD2    H511314   0.919   2.817  10.730 -1.1713  2.0732 -0.5777
  762MPD2    N111315   0.520   2.741  10.979  0.2459  0.2903  0.1321
  762MPD2    H711316   0.471   2.721  11.065  0.0652 -2.2720 -0.5666
  763MPD2     C11317   2.824   2.924  15.859  0.3458 -0.4733  0.0704
  763MPD2    C111318   2.694   2.957  15.866 -0.2247 -0.1784  0.0489
  763MPD2    C211319   2.652   3.080  15.906 -0.5228  0.0830 -0.1833
  763MPD2    C311320   2.741   3.185  15.909  0.8639  0.0601 -0.3626
  763MPD2    C411321   2.873   3.150  15.895  0.4320 -0.4801  0.0285
  763MPD2    C511322   2.915   3.019  15.889 -0.2390 -0.2925  0.3580
  763MPD2     H11323   2.547   3.097  15.924 -0.9256  0.0736 -2.6253
  763MPD2    H111324   2.955   3.219  15.909  0.4695 -0.4117 -0.5260
  763MPD2    H211325   2.861   2.823  15.844  1.8513  0.2186 -0.8302
  763MPD2    H311326   3.020   2.995  15.880 -0.1244 -0.6624  2.7223
  763MPD2     N11327   2.701   3.315  15.949  0.0321 -0.0081 -0.0379
  763MPD2    H511328   2.772   3.386  15.934 -1.2147  0.8952 -1.7064
  763MPD2    N111329   2.593   2.865  15.833 -0.4580 -0.7350  0.3329
  763MPD2    H711330   2.498   2.903  15.835 -0.5281 -0.9867  1.3401
  764MPD2     C11331   0.817   0.167  16.994  0.2452  0.2523 -0.1416
  764MPD2    C111332   0.837   0.040  16.957  0.0101 -0.6007 -0.1948
  764MPD2    C211333   0.920   4.683  17.017  0.3983  0.6155  0.1652
  764MPD2    C311334   0.984   4.715  17.133  0.2891 -0.3639 -0.0375
  764MPD2    C411335   0.972   0.112  17.176 -0.0017  0.1064  0.1107
  764MPD2    C511336   0.892   0.201  17.105  0.0043  0.5707  0.0390
  764MPD2     H11337   0.932   4.583  16.977 -1.3254  0.5770 -0.2810
  764MPD2    H111338   1.037   0.158  17.249  1.4857 -0.7464 -0.6837
  764MPD2    H211339   0.754   0.246  16.955  0.1940 -0.9695 -2.5550
  764MPD2    H311340   0.890   0.307  17.128 -1.9755  0.9994 -2.1011
  764MPD2     N11341   1.056   4.614  17.202  0.1553  0.0771 -0.4969
  764MPD2    H511342   1.066   4.521  17.162  2.4182  0.6169 -1.2127
  764MPD2    N111343   0.788   4.729  16.831 -0.1971  0.2594 -0.6938
  764MPD2    H711344   0.801   4.630  16.813  3.4818  0.8440 -1.3160
  765MPD2     C11345   0.951   2.706  15.167  0.5059  0.3211  0.1993
  765MPD2    C111346   0.885   2.636  15.269 -0.7180 -0.3800 -0.4606
  765MPD2    C211347   0.947   2.532  15.341 -0.0831  0.0394 -0.1678
  765MPD2    C311348   1.062   2.481  15.297 -0.8185  0.8236  0.2818
  765MPD2    C411349   1.131   2.545  15.192  0.2194 -0.3459 -0.3380
  765MPD2    C511350   1.080   2.664  15.138 -0.5420 -0.4927 -0.1040
  765MPD2     H11351   0.891   2.474  15.413  0.4671 -0.0113  0.2203
  765MPD2    H111352   1.234   2.522  15.165  1.0083  0.6026  1.8156
  765MPD2    H211353   0.916   2.797  15.120  0.4355  0.6667  0.9124
  765MPD2    H311354   1.145   2.705  15.061  0.1691  3.4609  2.5767
  765MPD2     N11355   1.110   2.359  15.357 -0.4887  0.3215  0.3386
  765MPD2    H511356   1.064   2.335  15.445  0.4343 -0.8358  0.5077
  765MPD2    N111357   0.752   2.675  15.293  0.4188 -0.1519  0.7422
  765MPD2    H711358   0.721   2.753  15.236  0.5456  1.0705  2.3487
  766MPD2     C11359   0.051   2.390  15.069 -0.4790  0.0050 -1.1212
  766MPD2    C111360   0.189   2.387  15.096  0.0541  0.0899 -0.4002
  766MPD2    C211361   0.264   2.306  15.011  0.1831  0.1642  0.3658
  766MPD2    C311362   0.205   2.236  14.908  0.1122  0.5145 -0.5814
  766MPD2    C411363   0.066   2.236  14.888 -0.3958 -0.0166 -0.1406
  766MPD2    C511364   4.726   2.312  14.973  0.5127 -1.1158 -0.4559
  766MPD2     H11365   0.371   2.322  15.009  0.1352  0.3654 -0.6393
  766MPD2    H111366   0.014   2.185  14.807  0.9937 -0.7428 -0.5713
  766MPD2    H211367   4.713   2.452  15.122 -0.6530  0.2081 -1.5966
  766MPD2    H311368   4.623   2.315  14.940 -0.0947 -0.7358  1.4761
  766MPD2     N11369   0.273   2.166  14.804  0.0437  0.2529 -0.1633
  766MPD2    H511370   0.223   2.114  14.732 -0.4814  1.3119 -0.5640
  766MPD2    N111371   0.250   2.474  15.197  0.6880 -0.1528 -0.0627
  766MPD2    H711372   0.351   2.468  15.199  0.6678 -0.1181  0.9971
  767MPD2     C11373   4.524   2.371  14.625 -0.7047  0.7888 -0.0752
  767MPD2    C111374   4.658   2.372  14.583  0.0161  0.7603  0.1827
  767MPD2    C211375   4.691   2.305  14.475 -0.1317 -0.1944  0.1113
  767MPD2    C311376   4.599   2.229  14.402 -1.1147 -0.3715  0.1551
  767MPD2    C411377   4.477   2.204  14.459  0.4708  0.8097 -0.5733
  767MPD2    C511378   4.430   2.283  14.569  0.3589  0.3062  0.0728
  767MPD2     H11379   0.055   2.316  14.430 -0.3694  0.3345 -0.2866
  767MPD2    H111380   4.404   2.134  14.418  0.5801  0.0540  0.5093
  767MPD2    H211381   4.489   2.447  14.693 -2.3185 -0.3302  0.3168
  767MPD2    H311382   4.328   2.281  14.606 -0.1524 -0.0438 -1.3538
  767MPD2     N11383   4.645   2.170  14.284 -0.2025 -0.0975  0.3240
  767MPD2    H511384   0.004   2.201  14.257  1.1187 -3.1046  1.4094
  767MPD2    N111385   0.011   2.466  14.649  0.1600 -0.3048 -0.1716
  767MPD2    H711386   4.711   2.513  14.732  0.2217  0.1154 -0.3833
  768MPD2     C11387   0.044   1.195  10.448 -0.2189  0.0607 -0.3669
  768MPD2    C111388   0.110   1.317  10.467 -0.1374  0.3751  0.2419
  768MPD2    C211389   0.237   1.316  10.507 -0.6619  0.5253  0.3227
  768MPD2    C311390   0.309   1.207  10.540 -0.1102 -0.1755  0.3569
  768MPD2    C411391   0.243   1.086  10.521  0.1569  0.2577 -0.3350
  768MPD2    C511392   0.113   1.080  10.465  0.1958  0.3281 -0.1268
  768MPD2     H11393   0.292   1.409  10.494 -0.1708  0.0222 -1.2069
  768MPD2    H111394   0.296   0.993  10.536  1.5275  1.1821  0.5828
  768MPD2    H211395   4.675   1.195  10.415 -0.3883 -0.7412  0.1498
  768MPD2    H311396   0.063   0.985  10.452  0.0776  0.1479  1.6695
  768MPD2     N11397   0.441   1.208  10.591 -0.2434  0.4878 -0.1526
  768MPD2    H511398   0.494   1.123  10.603 -1.5096 -0.3314 -0.3881
  768MPD2    N111399   0.049   1.449  10.454  0.1758  0.0600  0.1303
  768MPD2    H711400   0.096   1.538  10.467  1.0062 -0.7843  2.8732
  769MPD2     C11401   1.527   3.616  14.554 -0.1769 -0.0323  0.6230
  769MPD2    C111402   1.458   3.562  14.655 -0.0147  0.2211  0.3474
  769MPD2    C211403   1.468   3.618  14.780 -0.2354 -0.5684 -1.1685
  769MPD2    C311404   1.531   3.740  14.791  0.1277 -0.2318  0.3948
  769MPD2    C411405   1.612   3.789  14.689 -0.0130  0.8214 -0.2567
  769MPD2    C511406   1.602   3.724  14.570 -0.3039  0.5997  0.0698
  769MPD2     H11407   1.414   3.576  14.864  1.7137 -3.4235 -1.3582
  769MPD2    H111408   1.674   3.878  14.696  0.5328  0.3620  0.6636
  769MPD2    H211409   1.520   3.568  14.457 -0.4912  2.3078 -0.5007
  769MPD2    H311410   1.653   3.769  14.485  1.6838  0.9942  1.4550
  769MPD2     N11411   1.534   3.789  14.920  0.0584 -0.1438  0.1101
  769MPD2    H511412   1.477   3.742  14.989 -2.3504 -0.5027 -2.1508
  769MPD2    N111413   1.374   3.452  14.618  0.1560 -0.0027 -0.4608
  769MPD2    H711414   1.374   3.427  14.519  1.1886  1.5989 -0.8502
  770MPD2     C11415   1.293   2.639  14.129  0.4431 -0.1014  0.2561
  770MPD2    C111416   1.213   2.624  14.241 -0.0635  1.0391  0.4153
  770MPD2    C211417   1.170   2.735  14.302  0.6761  0.3231 -0.0886
  770MPD2    C311418   1.182   2.864  14.250 -0.1325 -0.2505 -0.6620
  770MPD2    C411419   1.235   2.872  14.120 -0.1276  0.1957  0.0719
  770MPD2    C511420   1.297   2.760  14.067 -0.1549  0.4029  0.0746
  770MPD2     H11421   1.122   2.723  14.398  1.0230 -2.6425 -0.2658
  770MPD2    H111422   1.240   2.962  14.061  1.3434 -0.8686 -1.4082
  770MPD2    H211423   1.316   2.545  14.080 -1.5101 -0.2907 -0.2740
  770MPD2    H311424   1.347   2.768  13.971  1.0062  1.9138  0.8021
  770MPD2     N11425   1.145   2.979  14.332 -0.5730 -0.6374  0.5696
  770MPD2    H511426   1.095   2.958  14.418 -2.0822 -2.4382 -0.7405
  770MPD2    N111427   1.217   2.500  14.308  0.3311  0.4176  0.1124
  770MPD2    H711428   1.272   2.427  14.265  1.6903  1.0745  0.7454
  771MPD2     C11429   2.794   1.615  13.160  0.4541  0.2364 -0.1283
  771MPD2    C111430   2.735   1.728  13.211  0.1817 -0.3199 -0.0882
  771MPD2    C211431   2.598   1.747  13.187  0.0597  0.1109 -0.1463
  771MPD2    C311432   2.521   1.663  13.110 -0.1458 -0.1978  0.3878
  771MPD2    C411433   2.583   1.555  13.055  0.3448 -0.6166 -0.5094
  771MPD2    C511434   2.718   1.528  13.085  0.2905  0.5201 -0.5365
  771MPD2     H11435   2.549   1.831  13.234  1.6653  0.3768  1.0472
  771MPD2    H111436   2.534   1.483  12.991 -0.0348  1.4496 -2.5640
  771MPD2    H211437   2.902   1.609  13.160  0.4084 -0.7108  0.6641
  771MPD2    H311438   2.754   1.435  13.045  1.6383 -0.0583  2.0145
  771MPD2     N11439   2.388   1.701  13.083  0.8629 -0.1178  0.1221
  771MPD2    H511440   2.348   1.775  13.140 -1.9173  0.3869 -2.5004
  771MPD2    N111441   2.799   1.827  13.291 -0.0758  0.2510 -0.3986
  771MPD2    H711442   2.745   1.903  13.330  0.1277  0.6785 -0.9485
  772MPD2     C11443   2.581   2.296  13.748  0.6508  0.1028 -0.3579
  772MPD2    C111444   2.568   2.212  13.642 -0.2404  0.0876 -0.1425
  772MPD2    C211445   2.444   2.153  13.619 -0.0444 -0.4266  0.7378
  772MPD2    C311446   2.333   2.183  13.701 -0.0482  0.7046 -0.1310
  772MPD2    C411447   2.353   2.278  13.792  0.4139 -0.6048  0.1907
  772MPD2    C511448   2.474   2.329  13.814  0.2586  0.2106 -0.0066
  772MPD2     H11449   2.443   2.090  13.531  2.1397  1.8531 -0.8971
  772MPD2    H111450   2.270   2.301  13.858  2.3165  2.5530  1.4445
  772MPD2    H211451   2.672   2.352  13.768  1.5204 -1.9247  1.3371
  772MPD2    H311452   2.472   2.400  13.896 -0.2559  0.3175 -0.1078
  772MPD2     N11453   2.198   2.136  13.686  0.1706  0.4592  0.2406
  772MPD2    H511454   2.134   2.178  13.752 -1.2022  0.1872 -0.9103
  772MPD2    N111455   2.677   2.173  13.569 -0.4515 -0.6631  0.6189
  772MPD2    H711456   2.647   2.109  13.495 -0.1650  1.7132 -1.5597
  773MPD2     C11457   1.530   2.881  17.619  0.3934 -0.3918 -0.2400
  773MPD2    C111458   1.454   2.778  17.564  0.0247  0.1262  0.0287
  773MPD2    C211459   1.494   2.650  17.602 -0.8942 -0.8720 -0.0594
  773MPD2    C311460   1.600   2.625  17.681  0.1488 -1.2029 -0.1947
  773MPD2    C411461   1.672   2.724  17.732 -0.2027  0.3134 -0.4152
  773MPD2    C511462   1.636   2.859  17.703  0.0530 -0.2388 -0.1102
  773MPD2     H11463   1.446   2.561  17.563  1.6361 -2.2566  0.0248
  773MPD2    H111464   1.752   2.708   0.068 -0.8329 -1.3041 -0.0760
  773MPD2    H211465   1.507   2.982  17.588  0.9143 -0.0415  0.5337
  773MPD2    H311466   1.681   2.945   0.016 -0.2839 -0.4647  0.6040
  773MPD2     N11467   1.633   2.491  17.692 -0.1635  0.4587  0.7518
  773MPD2    H511468   1.576   2.431  17.633  2.7330 -2.4581  0.9355
  773MPD2    N111469   1.347   2.781  17.479  0.5766  0.2729  0.0246
  773MPD2    H711470   1.295   2.694  17.467 -0.5094  0.7212  1.4124
  774MPD2     C11471   1.000   1.939  12.776  0.7440 -0.3459 -0.3187
  774MPD2    C111472   0.946   1.960  12.906  0.2084  0.3769  0.4719
  774MPD2    C211473   0.921   2.084  12.947  0.1713 -0.6684  0.4967
  774MPD2    C311474   0.930   2.197  12.862 -0.5848 -0.4306  0.5505
  774MPD2    C411475   0.967   2.171  12.732  0.8692 -0.2544 -0.3150
  774MPD2    C511476   1.008   2.046  12.696 -0.9230 -0.1672  0.0289
  774MPD2     H11477   0.897   2.109  13.050  1.4836  1.1532  0.3763
  774MPD2    H111478   0.980   2.246  12.655 -2.8410  0.7580  0.0106
  774MPD2    H211479   1.037   1.845  12.736  1.8210  0.6708 -1.7134
  774MPD2    H311480   1.044   2.027  12.596  2.3287 -0.1883  1.1910
  774MPD2     N11481   0.917   2.324  12.922  0.2131 -0.4608 -0.3174
  774MPD2    H511482   0.905   2.332  13.022  1.3530  0.0615 -0.2165
  774MPD2    N111483   0.945   1.853  13.000 -0.0752 -0.2383 -0.6551
  774MPD2    H711484   1.008   1.776  12.979 -0.2510 -0.7833  0.8440
  775MPD2     C11485   1.852   3.810  15.699 -0.2441  0.0410 -0.2884
  775MPD2    C111486   1.895   3.866  15.814 -0.8250  0.4199  0.1080
  775MPD2    C211487   1.971   3.985  15.801 -0.5463  0.6532 -0.1647
  775MPD2    C311488   2.013   4.036  15.680 -0.2505 -0.5388 -0.0308
  775MPD2    C411489   1.964   3.977  15.567  0.0816 -0.4843 -0.5333
  775MPD2    C511490   1.881   3.865  15.578 -0.0240 -0.1796 -0.4574
  775MPD2     H11491   1.988   4.042  15.891  2.4847 -0.8508  0.2251
  775MPD2    H111492   1.983   4.014  15.467 -0.1070  0.0400 -0.3750
  775MPD2    H211493   1.795   3.718  15.694  1.1727 -1.0044  2.4594
  775MPD2    H311494   1.844   3.807  15.494 -3.0083  0.8740  0.1392
  775MPD2     N11495   2.088   4.154  15.663  0.3791  1.0224  0.2563
  775MPD2    H511496   2.112   4.177  15.567 -0.3874 -0.7261 -0.3656
  775MPD2    N111497   1.857   3.809  15.934  0.1161  0.2039  0.3166
  775MPD2    H711498   1.797   3.727  15.929 -0.5198  0.6634  0.3896
  776MPD2     C11499   0.252   4.238  11.861 -0.4369  0.3556 -0.5794
  776MPD2    C111500   0.378   4.243  11.816  0.4294  0.0516  0.8012
  776MPD2    C211501   0.422   4.347  11.746 -0.5125  1.0136  0.2693
  776MPD2    C311502   0.335   4.443  11.701 -0.6853  0.1626  0.3818
  776MPD2    C411503   0.198   4.440  11.736  0.0371 -0.2791  0.1028
  776MPD2    C511504   0.159   4.330  11.815  0.1838  0.2503  0.1761
  776MPD2     H11505   0.527   4.365  11.725 -0.3629  0.2887  0.3939
  776MPD2    H111506   0.126   4.496  11.676 -2.0170 -2.5507  0.4357
  776MPD2    H211507   0.224   4.155  11.925 -3.4667  0.0280 -2.3212
  776MPD2    H311508   0.055   4.314  11.837  0.1764 -0.7612 -0.5786
  776MPD2     N11509   0.371   4.543  11.601 -0.7963 -0.1043  0.5368
  776MPD2    H511510   0.304   4.617  11.583 -1.6087 -1.1793 -0.8490
  776MPD2    N111511   0.460   4.134  11.861  0.1877 -0.0867 -0.2170
  776MPD2    H711512   0.416   4.063  11.918 -0.2190  0.4044  0.0780
  777MPD2     C11513   1.754   1.581   0.676 -1.0667  0.4406 -0.3768
  777MPD2    C111514   1.633   1.607   0.741 -0.3579  0.4804  0.2909
  777MPD2    C211515   1.509   1.565   0.691 -0.2790 -0.2020  0.5779
  777MPD2    C311516   1.506   1.486   0.575 -0.3813  0.0857 -0.5134
  777MPD2    C411517   1.630   1.468   0.511  0.1269  0.0461 -0.2041
  777MPD2    C511518   1.751   1.510   0.563 -0.0787  0.8194 -0.6444
  777MPD2     H11519   1.413   1.584   0.737 -0.9880 -1.6465 -0.3272
  777MPD2    H111520   1.641   1.418   0.416 -2.6095  0.5185 -0.7922
  777MPD2    H211521   1.851   1.620   0.707 -2.0325  2.1866  0.4565
  777MPD2    H311522   1.843   1.481   0.514 -0.4762  0.3305 -1.1136
  777MPD2     N11523   1.382   1.431   0.532  0.2235  0.0680  0.3923
  777MPD2    H511524   1.299   1.440   0.590 -0.0578 -2.6877  0.4479
  777MPD2    N111525   1.650   1.674   0.863 -0.7278 -0.9874 -0.0884
  777MPD2    H711526   1.745   1.693   0.892 -1.2868  0.9403  0.4996
  778MPD2     C11527   2.699   2.210  14.506 -0.4105 -0.9904 -0.3391
  778MPD2    C111528   2.772   2.096  14.470 -0.2894 -0.4455  0.0259
  778MPD2    C211529   2.898   2.101  14.408  0.2888 -0.2155 -0.5577
  778MPD2    C311530   2.956   2.223  14.380 -0.1336  0.0872  0.2023
  778MPD2    C411531   2.887   2.340  14.417 -0.1643 -0.1728 -0.2432
  778MPD2    C511532   2.759   2.332  14.479 -0.4868 -0.3621 -0.9155
  778MPD2     H11533   2.953   2.011  14.383  1.7312  0.7054 -0.6645
  778MPD2    H111534   2.919   2.438  14.383  1.3733 -0.1028  1.3884
  778MPD2    H211535   2.599   2.204  14.547  0.6172 -2.8332  1.9230
  778MPD2    H311536   2.699   2.419  14.501 -0.4154 -0.2964 -0.9841
  778MPD2     N11537   3.088   2.232  14.320  0.3232  0.3016 -0.0056
  778MPD2    H511538   3.142   2.146  14.313 -0.2777 -0.0191 -0.7623
  778MPD2    N111539   2.716   1.965  14.493 -0.6875 -0.2156  0.4839
  778MPD2    H711540   2.769   1.885  14.460 -0.5464 -1.2040  3.1087
  779MPD2     C11541   2.590   0.491  13.848 -0.2807 -0.3921 -0.1583
  779MPD2    C111542   2.635   0.512  13.975  0.5123 -0.5576 -0.2910
  779MPD2    C211543   2.699   0.637  14.004 -0.1149  0.5779 -0.0636
  779MPD2    C311544   2.723   0.728  13.897  0.4304  0.8799  0.1605
  779MPD2    C411545   2.680   0.697  13.770 -0.2196 -0.0082 -0.0909
  779MPD2    C511546   2.612   0.580  13.742 -0.5802  0.3778 -0.8868
  779MPD2     H11547   2.719   0.662  14.107 -0.9994  1.6760 -0.1503
  779MPD2    H111548   2.702   0.770  13.693 -0.4153 -0.5858 -0.7008
  779MPD2    H211549   2.537   0.402  13.817 -1.8097  0.1217  0.9577
  779MPD2    H311550   2.571   0.563  13.643 -0.3394 -2.7403 -0.4256
  779MPD2     N11551   2.765   0.860  13.930 -0.0858  0.2603 -0.3214
  779MPD2    H511552   2.798   0.872  14.025  0.3169  1.5433 -0.6292
  779MPD2    N111553   2.613   0.422  14.082  0.1291 -0.1153  0.2419
  779MPD2    H711554   2.647   0.436  14.176  0.0009 -0.2271  0.3056
  780MPD2     C11555   1.793   0.828   0.318  0.0936  0.2752  0.8403
  780MPD2    C111556   1.797   0.700   0.261  0.0920  0.3003  0.1613
  780MPD2    C211557   1.919   0.634   0.281 -0.5086  0.6085  0.0305
  780MPD2    C311558   2.031   0.686   0.334  0.2245 -0.1262  0.5857
  780MPD2    C411559   2.031   0.819   0.370  0.1918 -0.0490 -0.5516
  780MPD2    C511560   1.911   0.891   0.366 -0.4444 -0.0293 -0.0860
  780MPD2     H11561   1.927   0.532   0.246  3.2796  1.1700 -0.8014
  780MPD2    H111562   2.119   0.866   0.413 -0.2969  1.2850 -1.0232
  780MPD2    H211563   1.711   0.899   0.308  0.6266  1.1288  2.4811
  780MPD2    H311564   1.904   0.993   0.402  1.3481 -0.3636  1.2247
  780MPD2     N11565   2.146   0.602   0.336 -0.8970  0.3792 -0.1373
  780MPD2    H511566   2.132   0.502   0.327  2.0169  0.0131 -0.6664
  780MPD2    N111567   1.676   0.645   0.205  0.4138  0.0163 -0.0395
  780MPD2    H711568   1.597   0.709   0.192  0.0618 -0.3708  0.1968
  781MPD2     C11569   2.943   3.022  12.185 -0.2849 -0.3993  0.2657
  781MPD2    C111570   3.072   2.979  12.201 -0.1872  0.8008 -0.3720
  781MPD2    C211571   3.168   3.027  12.118  0.2473  1.2823  0.4438
  781MPD2    C311572   3.145   3.118  12.016  0.8065 -0.2176 -0.4256
  781MPD2    C411573   3.017   3.167  12.003  0.1757 -0.3397  0.6358
  781MPD2    C511574   2.923   3.120  12.090  0.4363 -0.3630 -0.0536
  781MPD2     H11575   3.272   3.001  12.131 -0.5563 -3.0949 -1.7798
  781MPD2    H111576   3.010   3.240  11.923 -0.5409 -0.4688  0.5783
  781MPD2    H211577   2.871   2.985  12.256 -1.1682  1.7983  0.5326
  781MPD2    H311578   2.823   3.161  12.079 -0.0724 -0.2235  5.2674
  781MPD2     N11579   3.238   3.157  11.921  0.5512 -0.1822 -0.0044
  781MPD2    H511580   3.194   3.221  11.856  3.0710  0.0959 -1.4480
  781MPD2    N111581   3.120   2.893  12.306 -0.0106  0.4377 -1.0072
  781MPD2    H711582   3.218   2.869  12.295 -0.4451 -1.2543 -1.1494
  782MPD2     C11583   1.476   3.532   9.928 -0.2857 -0.1537 -0.0968
  782MPD2    C111584   1.568   3.564  10.025  1.0244 -0.1691 -0.4902
  782MPD2    C211585   1.526   3.649  10.125  0.7488 -0.0589  0.6343
  782MPD2    C311586   1.406   3.716  10.115  0.1814  0.6873 -0.3703
  782MPD2    C411587   1.315   3.675  10.022 -0.2605 -0.0756  0.1572
  782MPD2    C511588   1.346   3.577   9.932 -0.4367  0.5028 -1.1023
  782MPD2     H11589   1.591   3.666  10.210  3.7017 -1.7892 -1.2913
  782MPD2    H111590   1.216   3.721  10.015  1.3815  3.2954 -0.9000
  782MPD2    H211591   1.498   3.454   9.856 -2.0156 -1.8463  1.2121
  782MPD2    H311592   1.273   3.543   9.858  1.0730 -0.6819 -2.0449
  782MPD2     N11593   1.390   3.822  10.203  0.0629  0.0210  0.4366
  782MPD2    H511594   1.458   3.827  10.277  1.1609 -3.1451 -0.3741
  782MPD2    N111595   1.677   3.470  10.056 -0.5193 -0.4081 -0.1395
  782MPD2    H711596   1.666   3.376  10.018 -1.2949 -1.1010  1.7729
  783MPD2     C11597   0.987   3.101  10.479  0.2717  0.2896  0.0765
  783MPD2    C111598   1.037   3.167  10.588 -0.5637 -0.0401 -0.8847
  783MPD2    C211599   1.180   3.183  10.597  0.1282 -0.0553  0.3923
  783MPD2    C311600   1.259   3.151  10.490 -0.1939  0.4407  0.0581
  783MPD2    C411601   1.202   3.093  10.381  0.5122  0.6384  0.5737
  783MPD2    C511602   1.068   3.064  10.378  0.7843  0.1078 -0.2654
  783MPD2     H11603   1.210   3.221  10.694 -1.4838 -0.0064  0.8806
  783MPD2    H111604   1.250   3.077  10.285 -3.7183 -1.1195 -1.2135
  783MPD2    H211605   0.881   3.077  10.477  0.1500  0.7462  1.3279
  783MPD2    H311606   1.018   3.017  10.294 -1.7624  1.1070  0.7192
  783MPD2     N11607   1.397   3.198  10.496 -0.5785 -0.7046 -0.0469
  783MPD2    H511608   1.429   3.229  10.587  0.0394  0.2478 -0.5753
  783MPD2    N111609   0.952   3.203  10.693  0.2111 -0.2941 -0.2657
  783MPD2    H711610   0.860   3.162  10.686 -1.0044  2.7662 -2.0433
  784MPD2     C11611   4.366   3.375   0.539  0.0457 -0.3881 -0.6584
  784MPD2    C111612   4.335   3.493   0.604 -0.4287 -0.0813 -0.0204
  784MPD2    C211613   4.209   3.549   0.582 -0.2308 -0.7017 -0.1361
  784MPD2    C311614   4.113   3.484   0.517 -0.3942  0.5302  0.4403
  784MPD2    C411615   4.145   3.372   0.448  0.0762  0.5221  0.4496
  784MPD2    C511616   4.274   3.317   0.463 -0.1474  0.2405  0.7142
  784MPD2     H11617   4.185   3.635   0.644 -1.4971 -1.7223  0.7926
  784MPD2    H111618   4.077   3.339   0.369  2.9264 -2.3902 -0.7893
  784MPD2    H211619   4.462   3.327   0.548  1.1725  1.9085 -0.4810
  784MPD2    H311620   4.300   3.226   0.411 -0.3627  0.2948  0.5140
  784MPD2     N11621   3.990   3.555   0.498  0.3678  0.3966  0.0447
  784MPD2    H511622   3.988   3.637   0.558  0.4342  1.0578 -0.8540
  784MPD2    N111623   4.425   3.562   0.686  0.2884  0.3295  0.2799
  784MPD2    H711624   4.396   3.646   0.735 -2.3765 -0.1897 -0.3912
  785MPD2     C11625   3.883   2.462  11.054 -0.0018  0.0811  0.3677
  785MPD2    C111626   3.827   2.583  11.024  0.2645 -0.1767  0.2511
  785MPD2    C211627   3.730   2.588  10.927  0.3913  0.7105  1.3034
  785MPD2    C311628   3.702   2.475  10.855 -0.2746  0.3363  0.1991
  785MPD2    C411629   3.766   2.352  10.878  0.3347  0.2345  0.3844
  785MPD2    C511630   3.857   2.346  10.980  0.3881  0.6531 -0.5080
  785MPD2     H11631   3.680   2.681  10.900  0.2283  0.7402  1.7065
  785MPD2    H111632   3.730   2.263  10.828  1.4076  1.7577 -3.0792
  785MPD2    H211633   3.964   2.461  11.127  0.1442  0.5839  0.2151
  785MPD2    H311634   3.905   2.251  10.996 -3.6750 -1.3108 -0.0487
  785MPD2     N11635   3.596   2.495  10.762  0.2289  0.6886  0.0488
  785MPD2    H511636   3.553   2.587  10.763 -0.7288  0.2377  0.6914
  785MPD2    N111637   3.862   2.702  11.091 -0.8387  0.3349 -0.4967
  785MPD2    H711638   3.814   2.787  11.065 -0.5131  0.5434 -0.4159
  786MPD2     C11639   2.375   4.664  14.607 -0.1474  0.3182 -0.1016
  786MPD2    C111640   2.518   4.633  14.623 -0.6174  1.0766 -0.0077
  786MPD2    C211641   2.584   4.662  14.738 -0.6102  0.0583  0.4971
  786MPD2    C311642   2.518   4.731  14.837 -0.2845 -0.1594 -0.2760
  786MPD2    C411643   2.385   0.045  14.813 -0.8254  0.0259 -0.1211
  786MPD2    C511644   2.311   0.002  14.705 -0.8459  0.4345  0.4627
  786MPD2     H11645   2.690   4.642  14.741 -0.7802 -1.1533 -1.5714
  786MPD2    H111646   2.328   0.111  14.877  0.3957  1.3220 -0.3954
  786MPD2    H211647   2.315   4.641  14.520  2.4224  0.5780 -1.9504
  786MPD2    H311648   2.213   0.040  14.680 -1.2534 -0.1855  1.1256
  786MPD2     N11649   2.581   0.038  14.962 -0.7105 -0.0757 -0.2017
  786MPD2    H511650   2.519   0.079  15.031 -2.0752 -0.9347 -0.9151
  786MPD2    N111651   2.586   4.547  14.531  0.3716 -0.1015  0.5716
  786MPD2    H711652   2.684   4.524  14.548 -0.1998 -1.8826  1.4806
  787MPD2     C11653   2.677   3.737  14.474  0.0251  0.3190 -0.2276
  787MPD2    C111654   2.756   3.850  14.464 -0.3538  0.1238 -0.4471
  787MPD2    C211655   2.888   3.835  14.505 -0.0891 -0.5405 -1.1704
  787MPD2    C311656   2.948   3.709  14.550 -0.3809 -0.4509  0.0442
  787MPD2    C411657   2.860   3.602  14.558  1.1799 -0.4355  0.0896
  787MPD2    C511658   2.729   3.621  14.527  0.5185  0.4129  0.1775
  787MPD2     H11659   2.949   3.924  14.492 -0.6387 -0.2423 -1.7089
  787MPD2    H111660   2.888   3.505  14.596 -0.3502 -0.2508  1.6940
  787MPD2    H211661   2.579   3.742  14.428  0.4614 -1.0063 -1.2837
  787MPD2    H311662   2.663   3.535  14.534  0.3317  0.2734 -3.2054
  787MPD2     N11663   3.087   3.701  14.567  0.1818 -0.0006 -0.2945
  787MPD2    H511664   3.144   3.783  14.548  0.6903  0.1523  1.8112
  787MPD2    N111665   2.701   3.972  14.426  0.0570  0.0663 -0.2533
  787MPD2    H711666   2.600   3.971  14.414 -0.0636  0.3489  0.7244
  788MPD2     C11667   0.609   3.519   0.873  0.5001  0.0203 -0.1486
  788MPD2    C111668   0.538   3.453   0.780 -0.0338 -0.6298 -0.2143
  788MPD2    C211669   0.462   3.521   0.690 -0.4768  0.2679  0.1125
  788MPD2    C311670   0.452   3.661   0.690  0.0624  0.3489 -0.2263
  788MPD2    C411671   0.513   3.725   0.791 -0.6356  0.2095 -0.3044
  788MPD2    C511672   0.598   3.657   0.875  0.1741 -0.0527  0.3938
  788MPD2     H11673   0.417   3.465   0.609  2.2260  0.4657 -1.5354
  788MPD2    H111674   0.505   3.831   0.808 -1.2772 -0.1295  1.4656
  788MPD2    H211675   0.670   3.459   0.938 -1.6675 -2.2082 -0.1679
  788MPD2    H311676   0.638   3.711   0.960  0.8267 -1.1150  0.7560
  788MPD2     N11677   0.379   3.730   0.592  0.0405 -0.1596  0.1066
  788MPD2    H511678   0.395   3.830   0.604 -0.8786 -0.3062  2.6662
  788MPD2    N111679   0.547   3.316   0.755  0.3052  0.4773 -0.9373
  788MPD2    H711680   0.514   3.286   0.664 -1.4658 -1.0019  0.2155
  789MPD2     C11681   0.593   2.577  16.671 -0.3860 -0.2128  0.2432
  789MPD2    C111682   0.478   2.585  16.592 -0.2799  0.0250  1.0346
  789MPD2    C211683   0.376   2.676  16.620 -0.4038 -0.1753 -0.3958
  789MPD2    C311684   0.387   2.759  16.734 -0.8105  0.2340 -0.5179
  789MPD2    C411685   0.494   2.740  16.822  0.1020  0.0441 -0.4398
  789MPD2    C511686   0.598   2.659  16.784  0.1008 -0.0009 -0.3416
  789MPD2     H11687   0.285   2.668  16.562  0.9401 -0.2158 -2.4685
  789MPD2    H111688   0.500   2.798  16.913 -0.4797 -0.5000 -0.0490
  789MPD2    H211689   0.675   2.516  16.635  0.0630 -0.0032  0.9123
  789MPD2    H311690   0.686   2.663  16.847  0.5725 -0.3237 -0.9917
  789MPD2     N11691   0.284   2.850  16.769 -0.5979  0.0080  0.3913
  789MPD2    H511692   0.290   2.891  16.862 -0.2848 -0.3161  0.5128
  789MPD2    N111693   0.455   2.489  16.483 -0.4658  0.2818 -0.2217
  789MPD2    H711694   0.376   2.511  16.423  0.6527 -0.0528 -1.8476
  790MPD2     C11695   1.341   4.332  13.731  0.8770  0.4492 -0.6393
  790MPD2    C111696   1.302   4.202  13.733  0.2152  0.2237 -0.3954
  790MPD2    C211697   1.254   4.138  13.619  0.0194 -0.5575 -0.4508
  790MPD2    C311698   1.263   4.200  13.496  0.4966 -0.4527  0.4159
  790MPD2    C411699   1.291   4.334  13.499 -0.2575  0.0124  0.8306
  790MPD2    C511700   1.334   4.398  13.615  0.3428 -0.1443  0.3083
  790MPD2     H11701   1.228   4.033  13.620  0.6952 -0.7206  0.1799
  790MPD2    H111702   1.270   4.393  13.410 -0.2660  0.5568  1.1920
  790MPD2    H211703   1.381   4.365  13.826 -0.3387  0.4234 -0.1160
  790MPD2    H311704   1.360   4.503  13.602 -1.2272 -0.0216 -1.8385
  790MPD2     N11705   1.227   4.124  13.387 -0.7147 -0.2667  0.3743
  790MPD2    H511706   1.180   4.038  13.416  1.6646 -1.7703 -0.2655
  790MPD2    N111707   1.310   4.138  13.860  0.1850  0.1026  0.1212
  790MPD2    H711708   1.362   4.178  13.937 -1.0208  1.7355  0.1097
  791MPD2     C11709   0.566   4.014  13.250 -0.6471 -0.0324  0.0820
  791MPD2    C111710   0.651   3.927  13.178  0.0115  0.2282  0.6122
  791MPD2    C211711   0.593   3.823  13.099  0.1500 -0.0173  0.1926
  791MPD2    C311712   0.455   3.819  13.092  0.2221 -0.2305 -0.4968
  791MPD2    C411713   0.377   3.901  13.174 -1.3762  0.8931  0.2072
  791MPD2    C511714   0.430   4.006  13.245  0.5427  0.3955 -0.3463
  791MPD2     H11715   0.650   3.753  13.039 -1.3721 -0.6944 -0.4651
  791MPD2    H111716   0.269   3.900  13.185 -1.2175  0.7949  1.8181
  791MPD2    H211717   0.604   4.094  13.312 -3.7277  1.7965 -0.4102
  791MPD2    H311718   0.368   4.083  13.289  2.5035  0.0051  3.1231
  791MPD2     N11719   0.396   3.726  12.999  0.2670 -0.1119 -0.3496
  791MPD2    H511720   0.456   3.676  12.934  2.5973 -0.7915  2.3310
  791MPD2    N111721   0.792   3.947  13.188 -0.0220 -0.1597  0.3109
  791MPD2    H711722   0.821   4.034  13.233  1.0245 -0.7907  0.8509
  792MPD2     C11723   1.573   4.728  11.173 -0.1675 -0.3836  0.3597
  792MPD2    C111724   1.506   0.049  11.069  0.4821 -0.5424  0.7409
  792MPD2    C211725   1.392   4.726  11.019  0.4499  0.0237 -1.1271
  792MPD2    C311726   1.343   4.608  11.085  0.6305  0.2604 -0.0940
  792MPD2    C411727   1.416   4.558  11.194 -0.4279  0.5221 -0.6326
  792MPD2    C511728   1.538   4.612  11.236  0.6477  0.7767  0.1241
  792MPD2     H11729   1.326   0.044  10.951 -0.4984 -2.0484 -1.7902
  792MPD2    H111730   1.361   4.485  11.252  0.6472 -0.3591 -0.7324
  792MPD2    H211731   1.661   0.046  11.208 -0.3204  0.4172 -0.4297
  792MPD2    H311732   1.603   4.572  11.313  0.9322 -0.3791 -0.7165
  792MPD2     N11733   1.221   4.544  11.042 -0.2737 -0.2267 -0.0461
  792MPD2    H511734   1.186   4.473  11.106 -0.8779 -0.8244 -1.0321
  792MPD2    N111735   1.561   0.172  11.024 -0.7928 -0.2715 -0.6008
  792MPD2    H711736   1.655   0.185  11.058 -0.5725  0.6334 -1.5418
  793MPD2     C11737   0.782   4.564  10.135 -0.1539  0.3022 -0.7090
  793MPD2    C111738   0.891   4.626  10.186 -0.4027  0.2949 -0.6446
  793MPD2    C211739   0.925   4.596  10.319  0.3012 -0.4532 -0.4156
  793MPD2    C311740   0.842   4.513  10.398  1.1243  1.0395  0.2034
  793MPD2    C411741   0.725   4.458  10.341  0.0352  0.1864 -0.1224
  793MPD2    C511742   0.688   4.493  10.208 -0.0294 -0.3527  0.1438
  793MPD2     H11743   1.019   4.631  10.360 -0.5653  1.9705 -0.5235
  793MPD2    H111744   0.660   4.393  10.399  0.8496  0.7500  1.4259
  793MPD2    H211745   0.753   4.594  10.035 -0.2016  0.1591 -0.7372
  793MPD2    H311746   0.591   4.468  10.167  0.1714 -1.0476  0.1075
  793MPD2     N11747   0.885   4.484  10.529 -0.2840  0.0940 -0.0791
  793MPD2    H511748   0.954   4.543  10.576  1.8762 -0.6924 -2.2966
  793MPD2    N111749   0.977   4.699  10.105  0.3471  0.6004  0.2781
  793MPD2    H711750   1.054   0.015  10.149  0.2939 -0.1079  1.1667
  794MPD2     C11751   1.115   3.054  16.693  0.4935 -0.2031 -0.6665
  794MPD2    C111752   1.058   3.123  16.793  0.4348 -0.1854 -0.3769
  794MPD2    C211753   0.984   3.238  16.766 -0.5869  0.3318 -0.0384
  794MPD2    C311754   0.978   3.288  16.640  0.0004  0.1528  1.0761
  794MPD2    C411755   1.038   3.219  16.536 -0.8833  0.0129  0.2555
  794MPD2    C511756   1.108   3.103  16.569  0.4416 -0.0307  0.2868
  794MPD2     H11757   0.930   3.290  16.844  1.5832  2.5244 -0.0087
  794MPD2    H111758   1.037   3.255  16.434 -0.4069 -1.0569 -0.1196
  794MPD2    H211759   1.166   2.960  16.712  1.1392  0.2485 -0.1564
  794MPD2    H311760   1.156   3.051  16.487 -2.0503 -0.8887 -0.6402
  794MPD2     N11761   0.904   3.398  16.602 -0.0513 -0.3470 -0.0806
  794MPD2    H511762   0.888   3.414  16.503 -1.6640 -0.3343  0.1815
  794MPD2    N111763   1.062   3.071  16.924 -0.5176 -0.3680  0.1781
  794MPD2    H711764   0.999   3.118  16.988 -0.6712  1.2694 -1.1710
  795MPD2     C11765   3.784   0.789  12.838 -0.1600 -0.2933 -1.0743
  795MPD2    C111766   3.730   0.711  12.941 -0.7325  0.3140  0.5790
  795MPD2    C211767   3.788   0.594  12.982  0.1523  0.1152 -0.5841
  795MPD2    C311768   3.899   0.549  12.920  0.4635  0.1825 -0.0087
  795MPD2    C411769   3.957   0.620  12.814 -0.9962 -0.1470 -0.8853
  795MPD2    C511770   3.905   0.743  12.780  0.1032  0.5651 -0.6546
  795MPD2     H11771   3.735   0.537  13.057  1.3615 -0.3546 -0.0835
  795MPD2    H111772   4.035   0.579  12.752  0.1806 -0.5982  0.8975
  795MPD2    H211773   3.744   0.887  12.815  0.8102  0.1074 -1.0884
  795MPD2    H311774   3.945   0.801  12.698  2.1772  0.1093  0.0167
  795MPD2     N11775   3.959   0.431  12.960 -0.1416 -0.0085 -0.7317
  795MPD2    H511776   3.913   0.371  13.029  0.4143  1.4221  0.8793
  795MPD2    N111777   3.612   0.747  13.015  0.1281  0.0002 -0.4714
  795MPD2    H711778   3.581   0.687  13.091  1.1284  0.6283  0.4211
  796MPD2     C11779   2.931   2.201  15.770 -0.0723  0.3391 -0.3449
  796MPD2    C111780   2.973   2.304  15.849 -0.1539 -0.2195  0.3167
  796MPD2    C211781   2.990   2.428  15.795 -0.2695 -0.5408  0.7064
  796MPD2    C311782   2.939   2.450  15.666  0.2131  0.2719 -0.0649
  796MPD2    C411783   2.877   2.348  15.592 -0.4241 -0.2900  0.4229
  796MPD2    C511784   2.888   2.223  15.643 -0.7395 -0.0101 -0.5871
  796MPD2     H11785   3.022   2.513  15.854 -0.4990 -0.1102  0.2100
  796MPD2    H111786   2.830   2.369  15.496 -0.6224 -1.2016  0.3255
  796MPD2    H211787   2.923   2.097  15.798  1.7188 -0.4058 -2.7150
  796MPD2    H311788   2.861   2.138  15.583 -0.5905 -0.0360 -0.6178
  796MPD2     N11789   2.954   2.583  15.607 -0.3883  0.0968 -0.3194
  796MPD2    H511790   3.006   2.649  15.664  0.6403 -2.2038  1.4319
  796MPD2    N111791   3.008   2.271  15.981 -0.3676  0.2963 -0.0881
  796MPD2    H711792   3.003   2.175  16.013 -0.0849  0.6563  1.0535
  797MPD2     C11793   3.948   1.840  17.117 -0.2158 -0.0691 -0.4100
  797MPD2    C111794   4.074   1.903  17.111  0.2721  0.3975 -0.3029
  797MPD2    C211795   4.085   2.005  17.021  0.4367  0.6153 -0.0293
  797MPD2    C311796   3.984   2.047  16.932 -0.0641  0.0134 -0.0340
  797MPD2    C411797   3.873   1.966  16.926 -0.1989  0.6741  0.5475
  797MPD2    C511798   3.857   1.867  17.017 -0.4358 -0.1744 -0.2823
  797MPD2     H11799   4.177   2.061  17.034  1.2950 -1.0422  1.0107
  797MPD2    H111800   3.793   1.982  16.854 -0.7682 -0.3165  0.9649
  797MPD2    H211801   3.927   1.759  17.187  2.0278 -0.7191 -0.4647
  797MPD2    H311802   3.769   1.803  17.016 -0.9124  0.4435  2.3299
  797MPD2     N11803   3.983   2.169  16.863 -0.3997 -0.3675 -0.0820
  797MPD2    H511804   3.891   2.190  16.825 -1.1175 -1.0676  1.2703
  797MPD2    N111805   4.174   1.891  17.208 -0.1969 -0.1191  0.5324
  797MPD2    H711806   4.258   1.946  17.194  0.1985 -0.5967  0.9828
  798MPD2     C11807   4.323   2.611  17.272 -0.0373 -0.5602  0.2431
  798MPD2    C111808   4.281   2.506  17.192 -0.3816  0.0123 -0.1109
  798MPD2    C211809   4.289   2.376  17.243  0.0307  0.4318  0.6400
  798MPD2    C311810   4.338   2.353  17.372 -0.4891 -0.2221  0.4011
  798MPD2    C411811   4.373   2.461  17.450 -0.2860  0.1892 -0.3442
  798MPD2    C511812   4.366   2.587  17.396 -0.4428  0.2338  0.4979
  798MPD2     H11813   4.248   2.291  17.189  1.4274  0.6693 -0.7957
  798MPD2    H111814   4.405   2.443  17.552  1.7460  0.4841 -0.9223
  798MPD2    H211815   4.323   2.713  17.237 -1.4926 -0.6095  0.1002
  798MPD2    H311816   4.400   2.662  17.467 -0.8443 -0.2745  1.2171
  798MPD2     N11817   4.346   2.214  17.414  0.1276 -0.1376 -0.4321
  798MPD2    H511818   4.321   2.155  17.335  1.0267  0.2143 -0.9761
  798MPD2    N111819   4.221   2.515  17.063  0.2643 -0.1694 -0.3532
  798MPD2    H711820   4.211   2.432  17.006 -1.5338 -2.0488  2.6977
  799MPD2     C11821   3.078   3.079  14.713  0.2795 -0.1520 -0.7024
  799MPD2    C111822   3.128   3.122  14.595  0.0208 -0.2033 -0.6098
  799MPD2    C211823   3.056   3.200  14.508 -0.5080  0.6800 -0.3611
  799MPD2    C311824   2.925   3.224  14.541  0.3301 -0.1676  0.5425
  799MPD2    C411825   2.870   3.177  14.660 -0.2286 -0.3440  0.1779
  799MPD2    C511826   2.951   3.111  14.750  0.4086 -0.2712 -0.1996
  799MPD2     H11827   3.113   3.223  14.419 -1.3063 -0.2331 -1.1118
  799MPD2    H111828   2.765   3.189  14.685 -0.6293 -2.2239 -0.5459
  799MPD2    H211829   3.139   3.028  14.787 -1.0240  0.3775  0.7564
  799MPD2    H311830   2.915   3.070  14.844 -0.7393  0.5655 -0.2700
  799MPD2     N11831   2.846   3.278  14.440 -0.3896  0.0013  0.1423
  799MPD2    H511832   2.762   3.326  14.473  0.4313  0.8285  1.0339
  799MPD2    N111833   3.256   3.096  14.544 -0.3254  0.2452  0.0771
  799MPD2    H711834   3.283   3.144  14.459 -0.4183  1.2741  0.6284
  800MPD2     C11835   2.976   4.261  13.577  0.1036  0.3584 -0.0696
  800MPD2    C111836   3.086   4.336  13.541  0.0907  0.1803  0.1196
  800MPD2    C211837   3.184   4.268  13.463 -0.1825  0.5645  0.1708
  800MPD2    C311838   3.182   4.131  13.431  0.0455  0.0869 -0.1356
  800MPD2    C411839   3.072   4.058  13.467 -0.6900  0.0351  0.7145
  800MPD2    C511840   2.974   4.125  13.541 -0.0906  0.8564 -0.0779
  800MPD2     H11841   3.281   4.313  13.444  0.3863 -0.7108  0.0133
  800MPD2    H111842   3.073   3.952  13.445 -0.1460  0.3860 -0.9407
  800MPD2    H211843   2.904   4.311  13.640 -0.1235 -2.6470  2.0317
  800MPD2    H311844   2.891   4.071  13.586 -1.0402  0.3749 -2.3851
  800MPD2     N11845   3.303   4.079  13.379  0.3888 -0.6938  0.1631
  800MPD2    H511846   3.372   4.150  13.356  0.5975 -0.9450  0.0102
  800MPD2    N111847   3.102   4.460  13.602 -0.1371 -0.1137 -0.5216
  800MPD2    H711848   3.032   4.503  13.661  0.8147 -2.7082  2.4858
  801MPD2     C11849   3.728   0.190  13.695  0.2196  0.0146  0.0025
  801MPD2    C111850   3.611   0.229  13.743 -0.1836 -0.3091  0.0891
  801MPD2    C211851   3.609   0.307  13.859  0.6428 -0.0129  0.5945
  801MPD2    C311852   3.736   0.337  13.912  0.5266 -0.2066 -0.6232
  801MPD2    C411853   3.856   0.310  13.848  0.1634 -0.1725  0.5501
  801MPD2    C511854   3.850   0.236  13.735  0.0443  0.0286  0.2305
  801MPD2     H11855   3.517   0.342  13.904 -0.9811 -1.6050 -1.4632
  801MPD2    H111856   3.949   0.350  13.887  0.0811 -0.3754  0.9463
  801MPD2    H211857   3.732   0.134  13.603  0.8604 -0.4917  0.3373
  801MPD2    H311858   3.941   0.223  13.678  1.0535  0.3468  1.7591
  801MPD2     N11859   3.726   0.394  14.036  0.1734  0.0483  0.0012
  801MPD2    H511860   3.636   0.435  14.060 -0.3090 -1.9448  1.5904
  801MPD2    N111861   3.490   0.197  13.681  0.5684  0.6465  0.9883
  801MPD2    H711862   3.504   0.135  13.602  0.4449  1.3185  0.4401
  802MPD2     C11863   2.631   0.962   0.259  0.7063 -0.3436  0.2378
  802MPD2    C111864   2.766   0.953   0.245  0.1367 -0.2055 -0.0389
  802MPD2    C211865   2.820   0.836   0.213 -0.4599 -0.1675 -0.8628
  802MPD2    C311866   2.738   0.729   0.177 -0.2823 -0.0480  0.4867
  802MPD2    C411867   2.603   0.743   0.184 -0.1591  0.3283 -0.0099
  802MPD2    C511868   2.549   0.861   0.231 -0.2742  0.9020 -0.5227
  802MPD2     H11869   2.927   0.821   0.226 -0.7818 -0.6611  1.2770
  802MPD2    H111870   2.529   0.664   0.172 -0.9268  0.6528  2.3863
  802MPD2    H211871   2.581   1.056   0.281 -0.5297 -0.6849 -1.1313
  802MPD2    H311872   2.442   0.875   0.236 -0.3485 -0.1315  0.5473
  802MPD2     N11873   2.811   0.615   0.138 -0.0479 -0.3697 -0.6527
  802MPD2    H511874   2.911   0.628   0.129 -0.3060  0.3352 -2.5466
  802MPD2    N111875   2.859   1.056   0.279  0.3795 -0.6553  0.4487
  802MPD2    H711876   2.956   1.032   0.298  0.2311 -0.6102  1.2460
  803MPD2     C11877   3.401   3.547  11.925  0.3224 -0.5534 -0.2624
  803MPD2    C111878   3.491   3.552  11.818  0.3621  0.3987  0.0368
  803MPD2    C211879   3.625   3.538  11.853  0.7020 -0.3524  0.1225
  803MPD2    C311880   3.658   3.505  11.987 -0.6135 -0.9156 -0.0881
  803MPD2    C411881   3.559   3.482  12.085 -0.1783  0.1892  0.1182
  803MPD2    C511882   3.430   3.509  12.058  0.2331  0.2392  0.4569
  803MPD2     H11883   3.700   3.561  11.778 -3.3117 -1.1199 -4.1435
  803MPD2    H111884   3.580   3.449  12.186 -3.5568  1.4116  1.2410
  803MPD2    H211885   3.304   3.592  11.904  0.8313 -0.1287 -1.7098
  803MPD2    H311886   3.352   3.497  12.132  1.8642 -1.3440  1.9383
  803MPD2     N11887   3.793   3.495  12.031  0.0613 -0.4284  0.6240
  803MPD2    H511888   3.796   3.478  12.131 -2.4437 -0.8374  0.6321
  803MPD2    N111889   3.461   3.610  11.690  0.1131 -0.0652  0.0044
  803MPD2    H711890   3.540   3.641  11.633  0.2493 -2.0069 -0.8820
  804MPD2     C11891   3.644   0.728  17.037 -0.6411  0.0212 -0.0234
  804MPD2    C111892   3.573   0.741  17.156  0.0481 -0.3992 -0.4394
  804MPD2    C211893   3.616   0.830  17.251  0.4904  0.5952  0.0969
  804MPD2    C311894   3.708   0.928  17.212 -0.2414 -0.1282 -0.7206
  804MPD2    C411895   3.787   0.912  17.094  0.3379 -0.2976 -0.3880
  804MPD2    C511896   3.750   0.813  17.007 -0.5534 -0.6557 -0.8344
  804MPD2     H11897   3.568   0.826  17.348  3.5683 -1.8525  1.5394
  804MPD2    H111898   3.858   0.990  17.068  0.7688 -1.0410 -1.4736
  804MPD2    H211899   3.630   0.656  16.957 -0.6540 -0.7387  0.6532
  804MPD2    H311900   3.807   0.796  16.917  0.5769  1.1471 -0.4441
  804MPD2     N11901   3.744   1.038  17.292  0.2398 -0.5999  0.1205
  804MPD2    H511902   3.824   1.089  17.256 -0.6631  0.8620  0.1954
  804MPD2    N111903   3.497   0.630  17.197 -0.4905 -0.4450 -1.0455
  804MPD2    H711904   3.475   0.626  17.297 -1.1100 -1.8731 -1.2309
  805MPD2     C11905   2.470   3.919  15.857  0.7412  0.0796  0.2614
  805MPD2    C111906   2.557   3.993  15.778 -0.4182 -0.0600 -0.1482
  805MPD2    C211907   2.661   4.053  15.835  0.0494 -0.0054 -0.3730
  805MPD2    C311908   2.696   4.031  15.969 -0.4297  0.1018 -0.4278
  805MPD2    C411909   2.601   3.960  16.045 -0.3329 -0.6770 -0.1122
  805MPD2    C511910   2.489   3.903  15.995 -0.5489 -0.1110  0.2659
  805MPD2     H11911   2.718   4.126  15.778 -0.6735 -0.0367 -1.1365
  805MPD2    H111912   2.616   3.937  16.150 -3.2989 -2.0461  0.0406
  805MPD2    H211913   2.386   3.866  15.812  0.7656  1.5901 -1.5453
  805MPD2    H311914   2.419   3.848  16.058  0.0639 -1.1564  0.0433
  805MPD2     N11915   2.806   4.093  16.024 -0.2367  0.7923  0.0335
  805MPD2    H511916   2.852   4.166  15.970  1.8502 -0.2410  0.4204
  805MPD2    N111917   2.549   4.009  15.639 -0.1093 -0.4062  0.1204
  805MPD2    H711918   2.626   4.048  15.586 -0.5262 -1.7965 -1.5137
  806MPD2     C11919   3.451   3.127   0.640 -0.4160 -1.1055 -0.6358
  806MPD2    C111920   3.540   3.231   0.630  0.4191  0.3169 -0.8872
  806MPD2    C211921   3.586   3.262   0.502 -0.0753 -0.1256  0.0588
  806MPD2    C311922   3.547   3.192   0.393 -0.1618  0.0639  0.3309
  806MPD2    C411923   3.457   3.092   0.403 -0.4628 -0.7412 -0.3710
  806MPD2    C511924   3.407   3.063   0.527 -0.4083  0.1993  0.3235
  806MPD2     H11925   3.664   3.336   0.488  0.9476 -0.8319  2.0157
  806MPD2    H111926   3.425   3.030   0.320  2.0131 -2.1079 -0.3065
  806MPD2    H211927   3.405   3.091   0.732  0.4793 -1.2432 -0.2460
  806MPD2    H311928   3.339   2.980   0.539 -1.6667  0.8854 -2.2199
  806MPD2     N11929   3.615   3.233   0.276 -0.4040 -0.3693  0.3320
  806MPD2    H511930   3.663   3.322   0.286  2.6553 -1.8192 -1.4140
  806MPD2    N111931   3.576   3.296   0.750  0.3083 -0.0564 -0.2677
  806MPD2    H711932   3.527   3.262   0.831  1.3113  0.2863  0.4871
  807MPD2     C11933   3.428   3.315   1.460  0.5391 -0.1785 -0.4226
  807MPD2    C111934   3.483   3.232   1.361 -0.2924 -0.0586 -0.6966
  807MPD2    C211935   3.474   3.090   1.366  1.1006 -0.3255 -0.5594
  807MPD2    C311936   3.400   3.035   1.472  0.2257  0.0298  0.4242
  807MPD2    C411937   3.345   3.118   1.569 -0.0751 -0.1798  0.4725
  807MPD2    C511938   3.361   3.258   1.565  0.5946  0.1873 -0.2653
  807MPD2     H11939   3.518   3.028   1.289  2.0850 -0.5025  0.1421
  807MPD2    H111940   3.285   3.082   1.652  0.0335  2.2413  1.6145
  807MPD2    H211941   3.424   3.424   1.464 -0.6385 -0.0929 -3.6433
  807MPD2    H311942   3.327   3.324   1.645 -0.6229 -0.6680 -0.0823
  807MPD2     N11943   3.369   2.896   1.478 -0.4327 -0.4233 -0.8594
  807MPD2    H511944   3.383   2.839   1.395 -0.1299 -1.6243  0.0204
  807MPD2    N111945   3.557   3.287   1.255 -0.3497 -0.5762  0.2075
  807MPD2    H711946   3.580   3.219   1.182 -3.2457 -0.8699 -0.4206
  808MPD2     C11947   3.657   0.406  10.113 -0.0974  0.1231  0.6122
  808MPD2    C111948   3.638   0.471   9.997 -0.3748 -0.1765 -0.5508
  808MPD2    C211949   3.690   0.602   9.979 -0.1636  0.1324  0.0995
  808MPD2    C311950   3.754   0.667  10.083  0.4681 -0.1184  0.9354
  808MPD2    C411951   3.769   0.600  10.205 -0.2671 -0.7999  0.0970
  808MPD2    C511952   3.726   0.466  10.217  0.6291 -0.9296  0.2344
  808MPD2     H11953   3.691   0.637   9.876  1.3290 -1.7715 -0.5439
  808MPD2    H111954   3.825   0.639  10.289 -1.1755 -0.7108  0.6527
  808MPD2    H211955   3.610   0.309  10.127 -1.0508  0.6801  1.3107
  808MPD2    H311956   3.750   0.415  10.310 -1.4721  0.1940  1.4027
  808MPD2     N11957   3.795   0.803  10.084 -0.4647  0.0658 -0.1057
  808MPD2    H511958   3.837   0.830  10.172  1.6840  0.8199 -1.3796
  808MPD2    N111959   3.565   0.421   9.886  0.4335 -0.5323 -0.0718
  808MPD2    H711960   3.577   0.458   9.792  0.8234 -0.1445  0.1321
  809MPD2     C11961   4.182   1.694   9.623 -1.2318  0.4700  0.3417
  809MPD2    C111962   4.162   1.564   9.576 -0.4984 -0.2461 -0.7817
  809MPD2    C211963   4.086   1.478   9.652  0.1991 -0.2990 -0.3369
  809MPD2    C311964   4.016   1.523   9.758  0.2367  0.3765  0.6447
  809MPD2    C411965   4.027   1.655   9.792  0.4836 -0.0944 -0.1091
  809MPD2    C511966   4.114   1.740   9.735 -0.1283  1.0473 -0.5993
  809MPD2     H11967   4.087   1.374   9.621  2.1008 -0.7520  1.2786
  809MPD2    H111968   3.964   1.699   9.868  0.8064 -2.1400  1.3534
  809MPD2    H211969   4.246   1.770   9.580  0.2056 -0.3627  1.0371
  809MPD2    H311970   4.119   1.842   9.771 -0.4520  1.0501 -0.5669
  809MPD2     N11971   3.925   1.436   9.834  0.5290  0.0844  0.2180
  809MPD2    H511972   3.885   1.488   9.912  0.1244 -0.7073  0.5396
  809MPD2    N111973   4.228   1.504   9.465  0.5758  0.1053  0.4405
  809MPD2    H711974   4.202   1.411   9.432  1.0195  0.4176 -0.7845
  810MPD2     C11975   2.869   0.163  11.350 -0.2614 -0.2322 -0.1323
  810MPD2    C111976   2.807   0.155  11.229 -0.7800 -0.1194  0.3291
  810MPD2    C211977   2.793   0.262  11.149 -0.0701 -0.0885 -0.1780
  810MPD2    C311978   2.832   0.381  11.198 -0.1542 -0.1980 -0.3273
  810MPD2    C411979   2.889   0.393  11.323  0.5008 -0.7346  0.3443
  810MPD2    C511980   2.911   0.289  11.397  0.5626 -0.2040  0.2803
  810MPD2     H11981   2.735   0.261  11.057  1.9524  1.7788 -1.4506
  810MPD2    H111982   2.927   0.485  11.366  1.2561  0.1586 -2.1825
  810MPD2    H211983   2.887   0.078  11.415 -0.7393  0.1943  0.5665
  810MPD2    H311984   2.968   0.310  11.487  2.8080 -0.9822 -0.9695
  810MPD2     N11985   2.838   0.497  11.117  1.2291 -0.2717 -0.4254
  810MPD2    H511986   2.884   0.579  11.154 -1.4689 -0.0942  2.5346
  810MPD2    N111987   2.768   0.034  11.170 -0.2610  0.1587  0.0181
  810MPD2    H711988   2.713   0.041  11.086 -1.2389  0.2912  0.6726
  811MPD2     C11989   2.393   4.628  10.501 -0.1691 -0.0117 -0.3594
  811MPD2    C111990   2.460   4.700  10.594 -0.0748  0.3742 -0.0985
  811MPD2    C211991   2.522   0.089  10.557  0.0029  0.2559  0.0657
  811MPD2    C311992   2.520   0.131  10.425  0.4327 -0.5761 -0.0494
  811MPD2    C411993   2.450   0.052  10.335  0.0677  0.7414 -0.1527
  811MPD2    C511994   2.389   4.668  10.378  0.0926 -0.1557  0.5136
  811MPD2     H11995   2.555   0.155  10.637  2.0871 -1.5084  0.6710
  811MPD2    H111996   2.433   0.069  10.229 -0.3359 -0.5071 -0.2847
  811MPD2    H211997   2.337   4.541  10.533 -1.6183  0.1220 -2.5055
  811MPD2    H311998   2.334   4.615  10.301 -0.3422  0.5588  0.3237
  811MPD2     N11999   2.590   0.243  10.390  0.6832  0.0576 -0.3171
  811MPD2    H512000   2.630   0.300  10.464  1.0549 -2.4300  1.4024
  811MPD2    N112001   2.460   4.646  10.729 -0.1241 -1.0112  0.1102
  811MPD2    H712002   2.423   4.552  10.737 -1.6386 -0.2059  2.3985
  812MPD2     C12003   1.536   4.125  11.789 -0.1667  0.3369 -0.4844
  812MPD2    C112004   1.585   4.235  11.853  0.4551  0.5011 -0.2383
  812MPD2    C212005   1.661   4.212  11.968 -0.3656  0.0452  0.4010
  812MPD2    C312006   1.673   4.087  12.022 -0.4237  0.3886  0.1850
  812MPD2    C412007   1.613   3.983  11.959 -0.4649  0.0358 -0.5016
  812MPD2    C512008   1.540   4.001  11.844 -0.4029 -0.7222 -0.0225
  812MPD2     H12009   1.722   4.290  12.012 -0.7204  0.8875 -0.6055
  812MPD2    H112010   1.621   3.881  11.995 -1.3097  0.4080  0.7519
  812MPD2    H212011   1.470   4.139  11.704 -0.0326 -0.6495 -0.7429
  812MPD2    H312012   1.494   3.914  11.799  0.1572 -0.6993 -0.6340
  812MPD2     N12013   1.753   4.063  12.139 -0.2650 -1.0434 -0.4309
  812MPD2    H512014   1.800   4.147  12.170  0.1420 -1.4440  0.0258
  812MPD2    N112015   1.569   4.359  11.786  0.7844 -0.4213  0.0361
  812MPD2    H712016   1.511   4.357  11.703  1.4010 -0.7322 -0.3860
  813MPD2     C12017   0.603   1.257  12.779  0.9865 -0.6738  0.7101
  813MPD2    C112018   0.670   1.143  12.760 -0.2195  0.4239  0.2854
  813MPD2    C212019   0.681   1.057  12.868 -0.1457 -0.5501  0.1269
  813MPD2    C312020   0.619   1.083  12.985 -0.1334 -0.2165 -0.1296
  813MPD2    C412021   0.540   1.193  12.999 -0.7114  0.3212 -0.3719
  813MPD2    C512022   0.528   1.273  12.892 -0.1925  0.2668 -0.3420
  813MPD2     H12023   0.752   0.978  12.844  0.4738 -0.0890  0.4546
  813MPD2    H112024   0.489   1.212  13.093  1.4042  0.6763  0.7156
  813MPD2    H212025   0.606   1.322  12.693  1.4859 -1.3665  0.2049
  813MPD2    H312026   0.493   1.376  12.895  1.2821  0.8065 -1.4569
  813MPD2     N12027   0.663   1.017  13.093 -0.1559  0.1292 -0.8877
  813MPD2    H512028   0.734   0.945  13.084  0.6777  0.7412  0.8874
  813MPD2    N112029   0.740   1.123  12.638 -0.1119  0.2467  0.0962
  813MPD2    H712030   0.725   1.204  12.579  1.5532 -0.4241 -1.2351
  814MPD2     C12031   1.240   2.260  12.275  0.2327  0.2420 -0.1937
  814MPD2    C112032   1.358   2.284  12.207 -0.0887  0.3225  0.4454
  814MPD2    C212033   1.442   2.377  12.254 -0.0214 -0.2677  0.4406
  814MPD2    C312034   1.398   2.456  12.356  0.1835  0.6945  0.5333
  814MPD2    C412035   1.282   2.430  12.424 -0.6749  0.1127 -0.2499
  814MPD2    C512036   1.202   2.329  12.382  0.5244  0.1605  0.4273
  814MPD2     H12037   1.541   2.397  12.214  0.8798 -3.0952  1.2471
  814MPD2    H112038   1.254   2.483  12.515 -0.8085 -0.1251 -0.1506
  814MPD2    H212039   1.166   2.184  12.255  1.0225 -0.6756  0.3495
  814MPD2    H312040   1.106   2.312  12.429 -1.3321  2.4674 -2.5459
  814MPD2     N12041   1.475   2.571  12.392 -0.0118 -0.8068  0.2570
  814MPD2    H512042   1.445   2.616  12.477  0.0565 -1.8432  0.8248
  814MPD2    N112043   1.374   2.247  12.071  0.0459 -0.4005  0.0763
  814MPD2    H712044   1.441   2.300  12.016  0.6419 -0.0911  1.0854
  815MPD2     C12045   1.587   1.428  11.840 -0.0392 -0.7592  0.0003
  815MPD2    C112046   1.652   1.316  11.801  0.9502  0.4995 -0.1781
  815MPD2    C212047   1.584   1.197  11.800 -0.9929 -0.1811 -0.2001
  815MPD2    C312048   1.446   1.203  11.821 -0.3460 -0.5502  0.1201
  815MPD2    C412049   1.385   1.316  11.857  0.5144 -0.6174 -0.0289
  815MPD2    C512050   1.453   1.427  11.879 -0.4963  0.5067 -1.0863
  815MPD2     H12051   1.638   1.111  11.762 -0.5598 -0.2744  0.6213
  815MPD2    H112052   1.279   1.317  11.879  0.4619  0.7882 -0.3108
  815MPD2    H212053   1.637   1.523  11.856 -1.2383 -0.2215  0.5223
  815MPD2    H312054   1.403   1.519  11.910  0.5024  0.8998 -0.6367
  815MPD2     N12055   1.377   1.078  11.785  0.1773  0.4482  0.2405
  815MPD2    H512056   1.432   0.993  11.777 -0.3604  0.3613 -2.6621
  815MPD2    N112057   1.781   1.312  11.746 -0.4585 -0.5902 -0.0444
  815MPD2    H712058   1.821   1.219  11.732  0.2361 -0.2983  0.0139
  816MPD2     C12059   2.091   4.283  17.215 -0.6090 -0.2437 -0.1591
  816MPD2    C112060   2.052   4.365  17.110  0.0785  0.1151 -0.4227
  816MPD2    C212061   2.103   4.356  16.983  0.0850  0.6336 -0.3631
  816MPD2    C312062   2.195   4.255  16.957 -0.0535  0.0182 -0.2143
  816MPD2    C412063   2.235   4.169  17.054 -0.5423  0.0696 -0.1739
  816MPD2    C512064   2.180   4.179  17.185 -0.4493  0.4622 -0.7395
  816MPD2     H12065   2.092   4.427  16.902 -1.9704  0.8749  0.1297
  816MPD2    H112066   2.316   4.097  17.047  0.3618  1.2845 -2.2707
  816MPD2    H212067   2.061   4.297  17.319 -1.4661  0.1780 -0.4576
  816MPD2    H312068   2.223   4.124  17.268 -0.1603  0.0742 -1.1501
  816MPD2     N12069   2.244   4.241  16.826  0.6458 -0.0192 -0.2140
  816MPD2    H512070   2.200   4.300  16.755  0.0480 -1.3986 -0.9951
  816MPD2    N112071   1.972   4.473  17.136 -0.4839 -0.0563 -0.3034
  816MPD2    H712072   1.967   4.533  17.054 -2.4628 -0.9243 -0.8260
  817MPD2     C12073   2.010   2.820   9.947  0.4885 -0.1779 -1.4976
  817MPD2    C112074   1.901   2.740   9.907  0.4477 -0.3187 -0.2351
  817MPD2    C212075   1.776   2.798   9.897 -0.1939  0.5947  0.2472
  817MPD2    C312076   1.761   2.935   9.915 -0.1151  0.1120  0.3388
  817MPD2    C412077   1.866   3.014   9.950  0.1967 -0.5216 -0.2784
  817MPD2    C512078   1.987   2.953   9.971 -0.0090 -0.5382  0.1947
  817MPD2     H12079   1.688   2.742   9.866 -0.5134  0.2920  1.7054
  817MPD2    H112080   1.849   3.118   9.975  1.2230 -0.7967  1.5348
  817MPD2    H212081   2.105   2.768   9.951  0.8306  0.5720 -0.1160
  817MPD2    H312082   2.069   3.014  10.007 -0.1477 -0.1316 -0.1988
  817MPD2     N12083   1.632   2.985   9.897  0.1570 -0.0009 -0.1330
  817MPD2    H512084   1.567   2.921   9.853  0.0422  0.0580 -0.0466
  817MPD2    N112085   1.914   2.605   9.864 -0.0588 -0.2613 -0.4672
  817MPD2    H712086   1.832   2.555   9.830 -0.0818 -0.3559 -0.2688
  818MPD2     C12087   4.686   2.528   9.931  0.2655 -0.0197 -0.4239
  818MPD2    C112088   4.602   2.428   9.982  0.0274 -0.0054 -0.8455
  818MPD2    C212089   4.641   2.300   9.956 -0.1805  0.4147 -0.0348
  818MPD2    C312090   0.027   2.269   9.899  0.2527  0.0985 -0.1123
  818MPD2    C412091   0.115   2.365   9.861 -0.6572  0.2800 -0.4200
  818MPD2    C512092   0.073   2.499   9.879 -0.0808 -0.9872 -0.5123
  818MPD2     H12093   4.575   2.215   9.971  0.7984 -0.8956 -3.0205
  818MPD2    H112094   0.216   2.350   9.827 -0.6865  0.9440 -0.7982
  818MPD2    H212095   4.655   2.631   9.940 -1.6293 -0.7425  1.1270
  818MPD2    H312096   0.140   2.579   9.850 -0.0334 -0.0364  2.2169
  818MPD2     N12097   0.074   2.138   9.883 -0.1778  0.4036  0.2150
  818MPD2    H512098   0.175   2.129   9.870 -0.3041 -2.5576  1.2424
  818MPD2    N112099   4.480   2.442  10.051  0.0291 -0.1810  0.1558
  818MPD2    H712100   4.426   2.356  10.057  1.1556 -1.1330 -3.1978
  819MPD2     C12101   3.442   3.641  15.758 -0.0667 -0.0991  0.7869
  819MPD2    C112102   3.505   3.548  15.677  0.1431 -0.0555 -0.8048
  819MPD2    C212103   3.628   3.507  15.723  0.2266 -0.1701 -0.0803
  819MPD2    C312104   3.698   3.563  15.824  0.1396 -0.1896  0.7016
  819MPD2    C412105   3.632   3.655  15.900 -0.5899 -0.9118 -0.1998
  819MPD2    C512106   3.511   3.702  15.857 -0.2284  0.0751 -0.8290
  819MPD2     H12107   3.679   3.429  15.667 -0.4894 -1.2170  0.7306
  819MPD2    H112108   3.672   3.701  15.990 -0.8647  2.6786 -1.8917
  819MPD2    H212109   3.343   3.681  15.740 -0.4336 -0.9237  0.9758
  819MPD2    H312110   3.459   3.783  15.906  0.5756 -0.8142  1.4847
  819MPD2     N12111   3.825   3.515  15.850 -0.1115 -0.3709 -0.4081
  819MPD2    H512112   3.862   3.447  15.784 -1.3212  0.0184 -1.5057
  819MPD2    N112113   3.434   3.498  15.569  0.2325  0.5859 -0.4000
  819MPD2    H712114   3.352   3.550  15.539  1.6932  2.5336 -0.9733
  820MPD2     C12115   2.709   3.661  14.958 -0.0329 -0.0460 -0.0474
  820MPD2    C112116   2.777   3.719  15.061 -0.1071  0.4643 -0.0582
  820MPD2    C212117   2.888   3.650  15.106  1.2420 -0.4711 -0.5610
  820MPD2    C312118   2.947   3.551  15.029 -0.0646 -0.0302 -0.0507
  820MPD2    C412119   2.886   3.506  14.916 -0.0178 -0.1340  0.3748
  820MPD2    C512120   2.765   3.561  14.886 -0.1347 -0.0968 -0.2330
  820MPD2     H12121   2.942   3.688  15.193  0.4969 -0.0849 -0.2750
  820MPD2    H112122   2.937   3.439  14.848  1.8768  1.9489 -0.2344
  820MPD2    H212123   2.612   3.700  14.930 -0.0816  0.2748  0.5665
  820MPD2    H312124   2.728   3.528  14.789 -0.4727 -1.1236  0.2521
  820MPD2     N12125   3.075   3.497  15.060 -0.5447 -0.0016 -0.5634
  820MPD2    H512126   3.102   3.412  15.011 -0.2420  0.3404 -0.9963
  820MPD2    N112127   2.720   3.832  15.116  0.0738  0.6458  0.1495
  820MPD2    H712128   2.633   3.870  15.080  0.6101  0.5348 -1.2566
  821MPD2     C12129   3.923   3.821  12.863  0.3745  0.0877  0.0422
  821MPD2    C112130   3.900   3.951  12.888  0.5724 -0.2827  0.6424
  821MPD2    C212131   3.994   4.042  12.854  0.5320  0.4586 -0.1248
  821MPD2    C312132   4.116   4.010  12.808  0.3993 -0.5489  0.0326
  821MPD2    C412133   4.130   3.879  12.773  0.0819 -0.4220  0.6040
  821MPD2    C512134   4.042   3.786  12.816 -0.7102  0.1379 -0.0294
  821MPD2     H12135   3.964   4.145  12.874  1.5391  0.7296 -0.0145
  821MPD2    H112136   4.219   3.841  12.725 -1.3256 -1.8720 -0.8138
  821MPD2    H212137   3.853   3.746  12.897  0.8657 -0.8612 -1.0377
  821MPD2    H312138   4.057   3.681  12.794 -0.1107  0.2839 -0.3324
  821MPD2     N12139   4.212   4.102  12.764  0.2261 -0.5695  0.0422
  821MPD2    H512140   4.306   4.073  12.741  0.4711  0.4223 -0.2331
  821MPD2    N112141   3.785   4.001  12.958  0.1377 -0.1940  0.6036
  821MPD2    H712142   3.796   4.095  12.993 -0.8618 -0.1217  0.7069
  822MPD2     C12143   4.440   0.033  15.849  0.2702 -0.4243 -0.0055
  822MPD2    C112144   4.370   4.720  15.964 -0.6443 -0.0912  0.2009
  822MPD2    C212145   4.265   0.062  16.017 -0.3111 -0.0162  0.1111
  822MPD2    C312146   4.236   0.188  15.968 -0.5272  0.1512 -0.1760
  822MPD2    C412147   4.290   0.221  15.842 -0.0073  0.0551 -0.0072
  822MPD2    C512148   4.391   0.146  15.793 -0.2782  0.1282  0.1019
  822MPD2     H12149   4.219   0.019  16.106 -0.5292 -0.0015  0.0050
  822MPD2    H112150   4.269   0.314  15.790 -0.6285  0.0601  0.2465
  822MPD2    H212151   4.524   4.719  15.801  0.6840 -2.2737  2.5887
  822MPD2    H312152   4.454   0.179  15.711  2.1315 -4.7814 -0.0379
  822MPD2     N12153   4.142   0.263  16.044 -0.2116  0.0476  0.0425
  822MPD2    H512154   4.127   0.223  16.136  1.9700  1.3692  0.9730
  822MPD2    N112155   4.402   4.606  16.040 -0.0901  0.3920  0.1138
  822MPD2    H712156   4.348   4.589  16.124  0.0201  1.5028  0.4037
  823MPD2     C12157   3.807   0.404  16.789 -0.0350 -0.7528 -0.1662
  823MPD2    C112158   3.881   0.332  16.693  0.1386  1.1687 -0.8546
  823MPD2    C212159   3.944   0.212  16.734  0.3234 -0.4218  0.1423
  823MPD2    C312160   3.945   0.173  16.866  0.5628 -0.7753 -0.4757
  823MPD2    C412161   3.860   0.237  16.955  0.2156  0.5272  0.8164
  823MPD2    C512162   3.793   0.351  16.915 -0.2127 -0.0985  0.3178
  823MPD2     H12163   3.998   0.148  16.664 -0.0838  0.4040 -0.9271
  823MPD2    H112164   3.862   0.209  17.059  1.5860 -0.2347  0.5874
  823MPD2    H212165   3.759   0.497  16.760  1.3448 -0.2023 -0.6840
  823MPD2    H312166   3.741   0.410  16.989  0.4560  1.3128 -0.3376
  823MPD2     N12167   4.010   0.055  16.911  0.2147  0.6933  0.3634
  823MPD2    H512168   3.997   0.029  17.008 -1.1151 -0.9720 -0.2815
  823MPD2    N112169   3.900   0.395  16.567 -0.2716  0.4441  0.0479
  823MPD2    H712170   3.836   0.473  16.552 -2.4016 -1.4480 -0.8026
  824MPD2     C12171   4.644   3.807  15.926  0.3649 -0.3532  0.5898
  824MPD2    C112172   4.660   3.934  15.882 -0.0472  0.2819  0.1132
  824MPD2    C212173   4.727   3.948  15.765 -0.3564  0.6295  0.0198
  824MPD2    C312174   0.024   3.846  15.684 -0.5452 -0.9065 -0.3036
  824MPD2    C412175   4.725   3.719  15.726  0.3162  0.2429 -0.6036
  824MPD2    C512176   4.674   3.700  15.849 -0.4412  0.0996 -0.4044
  824MPD2     H12177   0.016   4.039  15.711  0.8209 -0.9208 -2.1098
  824MPD2    H112178   0.005   3.625  15.673 -1.9549 -1.7137  2.2161
  824MPD2    H212179   4.594   3.789  16.021 -1.8550 -0.1370 -0.5202
  824MPD2    H312180   4.662   3.597  15.881  0.6938  0.6039  1.6265
  824MPD2     N12181   0.106   3.872  15.573 -0.2928  0.5962  0.5561
  824MPD2    H512182   0.135   3.968  15.556 -0.4631  0.4841 -0.3936
  824MPD2    N112183   4.634   4.044  15.963 -0.1843  0.1444 -0.5661
  824MPD2    H712184   4.659   4.138  15.932 -0.9429  0.9604  1.3174
  825MPD2     C12185   0.623   4.172  15.012 -0.5210 -0.6260 -0.4529
  825MPD2    C112186   0.489   4.196  15.039 -1.0496  0.2921  0.1264
  825MPD2    C212187   0.440   4.333  15.036 -0.6027 -0.4117  0.1837
  825MPD2    C312188   0.526   4.436  15.000  0.2195 -0.2108  0.1275
  825MPD2    C412189   0.661   4.402  14.998 -0.0917 -0.2814 -0.2240
  825MPD2    C512190   0.708   4.271  14.990 -0.0186 -0.5099  0.0719
  825MPD2     H12191   0.336   4.358  15.048 -0.7031  0.2455 -2.0886
  825MPD2    H112192   0.736   4.475  14.970  1.3722 -1.7469 -0.1734
  825MPD2    H212193   0.662   4.071  15.016 -1.0711 -0.8133  0.0382
  825MPD2    H312194   0.813   4.258  14.971 -0.3851 -0.6197 -1.8225
  825MPD2     N12195   0.486   4.567  14.963 -0.6906  0.3375  0.6141
  825MPD2    H512196   0.559   4.631  14.937 -0.5679  0.1747  0.5559
  825MPD2    N112197   0.420   4.082  15.080 -0.3273  0.7196  0.3146
  825MPD2    H712198   0.479   4.000  15.082 -1.4462 -0.1689 -2.0928
  826MPD2     C12199   0.542   3.807  14.030 -0.1046  0.1313 -0.1464
  826MPD2    C112200   0.502   3.755  13.910  0.1125  0.7418 -0.0081
  826MPD2    C212201   0.370   3.770  13.875  0.0965  0.4598  0.0821
  826MPD2    C312202   0.278   3.829  13.960  0.1161  1.0728  0.0056
  826MPD2    C412203   0.323   3.871  14.080 -0.5423  0.1247  0.1740
  826MPD2    C512204   0.454   3.857  14.120 -0.3549  0.0691 -0.7807
  826MPD2     H12205   0.335   3.741  13.777 -0.8229  0.6605  0.3546
  826MPD2    H112206   0.258   3.918  14.154 -0.0399 -1.2321  1.4589
  826MPD2    H212207   0.644   3.787  14.064 -0.4450 -1.2317  0.0685
  826MPD2    H312208   0.485   3.896  14.217  2.3493 -1.4898 -1.0136
  826MPD2     N12209   0.142   3.841  13.932  0.3579  0.6484 -0.4427
  826MPD2    H512210   0.088   3.886  14.006  0.6776  0.2072  0.0548
  826MPD2    N112211   0.601   3.704  13.832 -0.1257  0.0837  0.3653
  826MPD2    H712212   0.692   3.698  13.875  0.4445  1.8508 -0.6097
  827MPD2     C12213   1.153   1.380  10.009  0.1744  0.9349 -0.3038
  827MPD2    C112214   1.125   1.249  10.040  0.2824 -0.5557  0.7247
  827MPD2    C212215   1.034   1.178   9.960 -1.0008 -0.7166  0.3397
  827MPD2    C312216   0.954   1.246   9.872 -0.6399  0.0254 -0.0542
  827MPD2    C412217   0.986   1.377   9.845 -0.0354  0.0596  0.0861
  827MPD2    C512218   1.083   1.440   9.909  0.5332  0.3573  0.1234
  827MPD2     H12219   1.034   1.069   9.968  1.7241 -0.8036 -0.9044
  827MPD2    H112220   0.934   1.421   9.761 -0.2773  0.4436  0.4365
  827MPD2    H212221   1.217   1.440  10.073  1.4387 -0.5865 -0.1243
  827MPD2    H312222   1.110   1.535   9.865  2.8205 -0.6350 -0.6626
  827MPD2     N12223   0.860   1.162   9.810  0.2229  0.1342 -0.7148
  827MPD2    H512224   0.856   1.069   9.849 -1.8017  0.5065 -0.0312
  827MPD2    N112225   1.207   1.187  10.139  0.5298  0.1867  0.2965
  827MPD2    H712226   1.275   1.252  10.176  1.4721 -0.8903  0.4373
  828MPD2     C12227   4.713   0.005  11.778  0.0202  0.5095 -1.0767
  828MPD2    C112228   4.604   0.091  11.774 -0.0308 -0.4534 -0.6411
  828MPD2    C212229   4.631   0.216  11.721  0.4637  0.4661  0.4660
  828MPD2    C312230   0.018   0.251  11.667 -0.3916  0.4358  0.1462
  828MPD2    C412231   0.120   0.161  11.677 -0.2751 -0.4437 -0.3283
  828MPD2    C512232   0.100   0.037  11.724 -0.8422 -0.5408 -0.4991
  828MPD2     H12233   4.549   0.286  11.718  0.3339  0.2309 -1.3753
  828MPD2    H112234   0.221   0.179  11.643 -0.0445  3.1006  2.2863
  828MPD2    H212235   4.702   4.642  11.826 -1.5139  0.3120 -1.8260
  828MPD2    H312236   0.183   4.701  11.731 -0.9422 -0.5195  0.8340
  828MPD2     N12237   0.048   0.382  11.614  0.4856 -0.1519  0.5347
  828MPD2    H512238   0.146   0.404  11.597  0.7006 -2.4859 -1.3379
  828MPD2    N112239   4.472   0.055  11.817 -0.6255  0.1059 -0.5173
  828MPD2    H712240   4.401   0.128  11.825 -1.7744 -0.9707 -1.0418
  829MPD2     C12241   3.849   0.621  11.794  0.2693  0.4871  0.2746
  829MPD2    C112242   3.810   0.534  11.891 -0.3974 -0.3049 -0.3287
  829MPD2    C212243   3.858   0.405  11.900 -0.2139 -0.7162 -0.1351
  829MPD2    C312244   3.971   0.363  11.824 -0.2484 -0.3456  0.1756
  829MPD2    C412245   4.017   0.456  11.731 -0.3812  0.0276 -0.7274
  829MPD2    C512246   3.956   0.581  11.717  0.3971  0.1832  0.0689
  829MPD2     H12247   3.813   0.332  11.966  0.8656 -0.6136  0.7332
  829MPD2    H112248   4.109   0.437  11.677  0.5875 -1.6633  1.5099
  829MPD2    H212249   3.809   0.720  11.775  1.3649  0.6328 -1.2873
  829MPD2    H312250   3.996   0.643  11.638 -0.3029  0.4251 -0.1004
  829MPD2     N12251   4.043   0.240  11.843  0.0307  0.2855  0.5258
  829MPD2    H512252   4.117   0.206  11.782 -0.0826 -0.3541  0.7444
  829MPD2    N112253   3.692   0.575  11.965 -0.1588 -0.2404  0.5185
  829MPD2    H712254   3.677   0.675  11.949  2.1038 -0.2663 -1.6443
  830MPD2     C12255   4.624   3.256  15.610 -0.6947  0.2579 -0.0667
  830MPD2    C112256   4.534   3.359  15.618 -0.1087  0.4044  0.0719
  830MPD2    C212257   4.557   3.462  15.527  0.0534 -0.5901 -0.1261
  830MPD2    C312258   4.653   3.468  15.429 -0.0330 -0.3677  0.4275
  830MPD2    C412259   0.004   3.359  15.425  0.3214 -1.1746  0.4786
  830MPD2    C512260   4.722   3.256  15.514  0.3107  0.3283 -0.6181
  830MPD2     H12261   4.485   3.542  15.543 -0.2350 -0.9980  0.5897
  830MPD2    H112262   0.078   3.351  15.347  0.4201 -0.3453  0.4778
  830MPD2    H212263   4.612   3.178  15.684  1.3391 -0.4423 -0.4820
  830MPD2    H312264   0.059   3.175  15.516 -0.3450 -0.2483 -0.4548
  830MPD2     N12265   4.658   3.561  15.330 -0.7631 -0.2918  0.0703
  830MPD2    H512266   4.723   3.544  15.254  0.5279  1.9638  0.6654
  830MPD2    N112267   4.432   3.357  15.714 -0.2569  0.5923  0.4390
  830MPD2    H712268   4.433   3.287  15.786 -2.9019 -0.5379 -0.5970
  831MPD2     C12269   4.466   0.326  16.400 -0.5293 -0.2697  0.2890
  831MPD2    C112270   4.489   0.211  16.330 -0.4411 -0.0277  0.6814
  831MPD2    C212271   4.411   0.100  16.345  0.0612 -0.1143 -0.0144
  831MPD2    C312272   4.299   0.113  16.431 -0.2453  0.0313  0.5012
  831MPD2    C412273   4.279   0.227  16.503 -0.2260  0.0646 -0.2012
  831MPD2    C512274   4.364   0.335  16.490  0.0701 -0.2512  0.2528
  831MPD2     H12275   4.422   0.012  16.283 -0.0959 -0.6696  0.7413
  831MPD2    H112276   4.190   0.238  16.565  0.1528 -0.9247  0.5142
  831MPD2    H212277   4.527   0.413  16.380 -2.7337  1.2598  0.2337
  831MPD2    H312278   4.342   0.429  16.539 -1.7903 -2.2264  3.2359
  831MPD2     N12279   4.200   0.024  16.434  0.1228 -0.4293  0.3404
  831MPD2    H512280   4.128   0.046  16.503 -0.0527  0.8464 -0.2447
  831MPD2    N112281   4.597   0.217  16.241  0.7303  0.1073 -0.3542
  831MPD2    H712282   4.635   0.310  16.223  0.0906  0.6083  0.8779
  832MPD2     C12283   2.760   0.798  17.568 -0.0774  0.1363 -0.1871
  832MPD2    C112284   2.777   0.885  17.466 -0.4319 -0.1267 -0.2489
  832MPD2    C212285   2.681   0.894  17.369  0.4175  0.2406  0.3177
  832MPD2    C312286   2.578   0.800  17.352  0.7891  0.7090 -0.3487
  832MPD2    C412287   2.567   0.705  17.454  0.6485 -0.2458  0.3371
  832MPD2    C512288   2.653   0.708  17.554  0.1722  0.2394  0.4911
  832MPD2     H12289   2.689   0.972  17.294 -1.3175 -0.0459 -0.1686
  832MPD2    H112290   2.486   0.633  17.455  0.6018 -0.2049 -0.7970
  832MPD2    H212291   2.821   0.794  17.657 -1.3466  1.4955  0.7448
  832MPD2    H312292   2.641   0.636  17.635  1.4846  0.7601  1.1555
  832MPD2     N12293   2.485   0.802  17.245  0.3706 -0.4442  0.2185
  832MPD2    H512294   2.417   0.727  17.240 -0.2150  0.0977  0.0835
  832MPD2    N112295   2.892   0.973  17.464 -0.2405  1.1993  0.5238
  832MPD2    H712296   2.973   0.946  17.519 -0.2773 -0.0207 -0.0266
  833MPD2     C12297   4.582   2.115  12.909  0.4357 -0.0456  0.1292
  833MPD2    C112298   4.509   2.170  12.809 -0.2378  0.4811 -0.3234
  833MPD2    C212299   4.489   2.111  12.687 -0.0470 -0.6472 -0.4312
  833MPD2    C312300   4.555   1.991  12.665  0.1773 -0.1952 -0.0625
  833MPD2    C412301   4.632   1.938  12.771  0.0598  1.0352  0.1216
  833MPD2    C512302   4.647   1.998  12.892 -0.0013 -0.1840  0.2824
  833MPD2     H12303   4.425   2.161  12.615 -1.0927 -1.2538  0.0865
  833MPD2    H112304   4.689   1.847  12.759  0.4285  1.3405 -0.4454
  833MPD2    H212305   4.590   2.154  13.009 -0.6260  0.9426 -0.1763
  833MPD2    H312306   4.714   1.951  12.964 -1.3220  1.1677  2.3857
  833MPD2     N12307   4.567   1.939  12.535  0.2455 -0.5142 -0.2429
  833MPD2    H512308   4.647   1.880  12.515  0.2214 -0.4174 -0.6218
  833MPD2    N112309   4.448   2.302  12.821  0.0300 -0.6621 -0.3281
  833MPD2    H712310   4.391   2.333  12.742  1.3143 -1.8093 -1.6993
  834MPD2     C12311   4.376   2.202  11.509  0.9671 -0.5145 -0.8644
  834MPD2    C112312   4.508   2.160  11.513 -0.1841  0.3657  0.4330
  834MPD2    C212313   4.573   2.154  11.636 -1.1022  0.2652  0.7215
  834MPD2    C312314   4.501   2.175  11.751  0.7185 -0.1392 -0.2649
  834MPD2    C412315   4.366   2.213  11.744 -0.0104  0.3183  0.5845
  834MPD2    C512316   4.308   2.230  11.625 -0.0996  0.6069 -0.3018
  834MPD2     H12317   4.678   2.126  11.634 -1.6766 -1.8548  0.7360
  834MPD2    H112318   4.303   2.253  11.823 -0.8773  0.2122 -0.0531
  834MPD2    H212319   4.310   2.214  11.423 -1.0087 -0.0228  0.7158
  834MPD2    H312320   4.206   2.261  11.609 -0.0178  1.8370  1.6371
  834MPD2     N12321   4.562   2.153  11.872 -0.1730 -0.3313  0.7387
  834MPD2    H512322   4.662   2.136  11.870 -0.0419  0.3484  1.4357
  834MPD2    N112323   4.577   2.136  11.389 -0.0362  0.2260  0.1093
  834MPD2    H712324   4.529   2.168  11.305 -0.2500 -0.5597 -0.0673
  835MPD2     C12325   0.772   0.826  11.007 -0.3776 -0.1519  1.0642
  835MPD2    C112326   0.675   0.797  11.101 -0.2190 -0.4079 -0.0184
  835MPD2    C212327   0.705   0.744  11.225  0.0500 -0.0868  0.1594
  835MPD2    C312328   0.830   0.697  11.250  0.7974 -0.4320  0.3106
  835MPD2    C412329   0.930   0.718  11.154 -0.1373 -0.4922 -0.4078
  835MPD2    C512330   0.900   0.788  11.042 -0.1734  0.4460  0.5532
  835MPD2     H12331   0.629   0.735  11.302  0.5726 -2.1662  0.4321
  835MPD2    H112332   1.035   0.689  11.157  0.1426  0.2222 -2.8625
  835MPD2    H212333   0.764   0.878  10.912  0.8092 -2.4069 -0.2691
  835MPD2    H312334   0.984   0.805  10.976 -0.2234 -3.1449 -0.4327
  835MPD2     N12335   0.859   0.630  11.375 -0.1369 -0.1913  0.3025
  835MPD2    H512336   0.784   0.641  11.443  0.6108 -1.3049  1.2869
  835MPD2    N112337   0.543   0.829  11.083 -0.0344 -0.3053  0.7676
  835MPD2    H712338   0.485   0.823  11.166 -1.3511  0.3633 -0.1168
  836MPD2     C12339   0.631   4.734  11.860  0.7285  0.6566  0.2181
  836MPD2    C112340   0.615   0.132  11.828 -0.2788 -0.3987  0.1635
  836MPD2    C212341   0.498   0.192  11.869 -0.3378 -0.0585 -0.4962
  836MPD2    C312342   0.393   0.131  11.938 -0.2177  0.1544 -0.1634
  836MPD2    C412343   0.418   0.005  11.981  0.2203  0.4883 -0.9556
  836MPD2    C512344   0.532   4.671  11.938  0.6339 -0.0468 -0.5876
  836MPD2     H12345   0.474   0.295  11.848 -1.0607 -0.1517 -0.1255
  836MPD2    H112346   0.344   4.686  12.040 -1.2070  1.6497 -1.7178
  836MPD2    H212347   0.712   4.675  11.820 -0.3970 -0.8525  0.1522
  836MPD2    H312348   0.538   4.566  11.966 -1.0767  0.0177  0.0498
  836MPD2     N12349   0.274   0.198  11.982  0.2278  0.7112  0.5549
  836MPD2    H512350   0.226   0.147  12.056  1.1283  1.5808  1.7390
  836MPD2    N112351   0.722   0.192  11.765  0.2806  0.0430 -0.1621
  836MPD2    H712352   0.807   0.139  11.746  0.7937  0.9779 -0.4840
  837MPD2     C12353   3.135   0.809  10.490  0.0027 -1.0865 -0.2847
  837MPD2    C112354   3.031   0.839  10.405 -0.4023  0.5924  0.1790
  837MPD2    C212355   3.014   0.969  10.362  0.1912 -0.2074  0.4431
  837MPD2    C312356   3.105   1.056  10.396  1.1526 -0.3333  0.6193
  837MPD2    C412357   3.205   1.030  10.486  0.0489  0.3415 -0.3470
  837MPD2    C512358   3.229   0.906  10.528  0.7552  0.3157  0.7463
  837MPD2     H12359   2.940   0.996  10.288  1.7779  0.1873 -1.0039
  837MPD2    H112360   3.286   1.099  10.507 -0.7592  0.6550  1.7965
  837MPD2    H212361   3.162   0.705  10.505 -0.0336 -1.0515  0.0173
  837MPD2    H312362   3.312   0.876  10.591  0.8513  1.9678  1.3910
  837MPD2     N12363   3.082   1.187  10.345  0.0305  0.6039 -0.0315
  837MPD2    H512364   3.006   1.194  10.278  0.0299  3.3768  0.2546
  837MPD2    N112365   2.937   0.753  10.359  0.4020  0.0746  0.1847
  837MPD2    H712366   2.863   0.796  10.304  0.5834 -0.8449 -0.7729
  838MPD2     C12367   1.601   3.601  11.848  0.0537 -0.1033  0.6844
  838MPD2    C112368   1.548   3.487  11.795 -0.2996 -0.6175  0.4167
  838MPD2    C212369   1.554   3.368  11.872  0.3561 -0.1913 -0.5556
  838MPD2    C312370   1.604   3.379  12.000  0.1581  0.3409 -0.6935
  838MPD2    C412371   1.659   3.499  12.050 -1.1027  0.5203  0.4983
  838MPD2    C512372   1.659   3.610  11.969 -0.1041 -0.8441 -0.3426
  838MPD2     H12373   1.518   3.275  11.828  0.5011 -0.4271 -0.1768
  838MPD2    H112374   1.706   3.501  12.147  0.5902  1.3994 -0.3363
  838MPD2    H212375   1.592   3.696  11.796 -0.8556 -0.9509 -0.6938
  838MPD2    H312376   1.696   3.704  12.007 -1.7945  0.5654 -2.1465
  838MPD2     N12377   1.594   3.271  12.090 -0.1046  0.1230  0.3791
  838MPD2    H512378   1.610   3.287  12.189  0.3053 -0.6802  0.4466
  838MPD2    N112379   1.483   3.484  11.667  0.4038  0.3269 -0.8056
  838MPD2    H712380   1.472   3.390  11.630 -1.0362  0.4219 -0.6329
  839MPD2     C12381   1.107   2.809  11.471 -0.0999 -0.7433 -0.2702
  839MPD2    C112382   1.097   2.853  11.340 -0.5789 -0.2127 -0.6037
  839MPD2    C212383   1.123   2.991  11.319 -0.3578  0.6302 -0.2254
  839MPD2    C312384   1.157   3.066  11.422  0.1761  0.2559  0.2089
  839MPD2    C412385   1.172   3.017  11.547  0.1332 -0.6169  1.1724
  839MPD2    C512386   1.136   2.888  11.575  0.6823  0.8421  0.2598
  839MPD2     H12387   1.110   3.036  11.222  1.2670  0.5604 -0.4800
  839MPD2    H112388   1.201   3.078  11.632 -0.8949  1.7657 -0.2052
  839MPD2    H212389   1.083   2.706  11.495  0.5808 -0.9113 -0.3046
  839MPD2    H312390   1.138   2.851  11.677 -0.1309  1.0682  0.3638
  839MPD2     N12391   1.185   3.206  11.420 -0.0170  0.3155 -0.7612
  839MPD2    H512392   1.210   3.262  11.501 -0.3287 -0.6498  0.0065
  839MPD2    N112393   1.072   2.767  11.235  0.3702  0.0394 -0.0349
  839MPD2    H712394   1.088   2.787  11.137  1.0233 -1.6843 -0.2758
  840MPD2     C12395   1.958   1.050  10.366 -0.2680 -0.1149  0.3041
  840MPD2    C112396   1.843   1.111  10.409  0.3983  0.0903 -0.5428
  840MPD2    C212397   1.858   1.222  10.493 -0.2775  0.1175  0.0182
  840MPD2    C312398   1.985   1.274  10.522 -0.1272 -0.5611  0.1682
  840MPD2    C412399   2.092   1.204  10.479  0.8730  0.0596  0.4964
  840MPD2    C512400   2.081   1.093  10.407 -0.1923  0.1656 -0.2828
  840MPD2     H12401   1.777   1.277  10.540 -1.0514  0.9527 -2.3017
  840MPD2    H112402   2.191   1.240  10.507  0.6673  0.7208  0.3919
  840MPD2    H212403   1.951   0.962  10.302 -1.4101 -0.2157  0.5630
  840MPD2    H312404   2.174   1.046  10.379  0.5014  1.3506  0.0319
  840MPD2     N12405   2.015   1.384  10.613 -0.5105  0.3961  0.0093
  840MPD2    H512406   2.113   1.394  10.637 -0.0535  0.6486 -1.9227
  840MPD2    N112407   1.721   1.041  10.381  1.0280 -0.6982 -0.1920
  840MPD2    H712408   1.726   0.949  10.340 -1.9353 -0.2426 -1.6108
  841MPD2     C12409   1.269   1.098  14.459 -0.6741 -0.4303 -0.3435
  841MPD2    C112410   1.281   0.962  14.485 -0.5292  0.3716 -0.0685
  841MPD2    C212411   1.398   0.888  14.450  0.3461  0.4356 -0.1691
  841MPD2    C312412   1.500   0.955  14.387  0.1155 -0.5035  0.4686
  841MPD2    C412413   1.481   1.086  14.350 -0.4402 -0.8364  0.1776
  841MPD2    C512414   1.377   1.159  14.395 -0.1193  0.6619  0.7551
  841MPD2     H12415   1.425   0.787  14.481  0.6593  0.7643  0.6497
  841MPD2    H112416   1.555   1.145  14.297 -0.7004 -1.3356 -0.7358
  841MPD2    H212417   1.181   1.157  14.480 -0.5224 -1.6359  3.6916
  841MPD2    H312418   1.358   1.263  14.369 -1.2394 -0.0069 -1.0731
  841MPD2     N12419   1.625   0.882  14.389 -0.0232  0.2123  0.1158
  841MPD2    H512420   1.621   0.787  14.426 -3.7563 -0.1285 -1.1704
  841MPD2    N112421   1.191   0.891  14.568  0.0978 -0.0253  0.0967
  841MPD2    H712422   1.215   0.793  14.581  1.4797  0.1614 -1.1278
  842MPD2     C12423   2.071   1.194  16.736  0.3223  0.1363  0.9539
  842MPD2    C112424   1.970   1.108  16.760  0.3147 -0.3935  0.5565
  842MPD2    C212425   1.961   1.066  16.892  0.2662  0.5973 -0.4480
  842MPD2    C312426   2.061   1.100  16.990 -0.2098  0.1989  0.0073
  842MPD2    C412427   2.157   1.185  16.951 -0.3327  0.3091 -0.0640
  842MPD2    C512428   2.160   1.237  16.828  1.1739  0.4731  0.0492
  842MPD2     H12429   1.874   1.005  16.912 -0.4858  1.5032 -0.9440
  842MPD2    H112430   2.231   1.223  17.020 -0.2317  0.9365 -0.5153
  842MPD2    H212431   2.075   1.237  16.637  1.2383 -2.3560 -0.1015
  842MPD2    H312432   2.234   1.309  16.797  0.8338 -0.2251 -2.3940
  842MPD2     N12433   2.049   1.057  17.128  0.4524 -0.2857  0.1639
  842MPD2    H512434   2.134   1.071  17.183  0.2732  0.4562  0.2594
  842MPD2    N112435   1.876   1.087  16.657 -0.3294 -0.4304  0.5027
  842MPD2    H712436   1.894   1.134  16.569  1.6916  1.4959  1.9448
  843MPD2     C12437   4.002   2.377  17.538  0.2589  0.0338  0.1357
  843MPD2    C112438   4.072   2.331  17.647  0.0014  0.1461 -0.4375
  843MPD2    C212439   4.151   2.415  17.725 -0.2457  0.5423 -0.4293
  843MPD2    C312440   4.173   2.542  17.679  0.0866 -0.1718  0.2094
  843MPD2    C412441   4.092   2.586  17.570  0.3299 -0.8556 -0.8201
  843MPD2    C512442   4.011   2.507  17.504 -0.2552 -0.0762  0.4132
  843MPD2     H12443   4.213   2.388   0.074 -1.1670 -5.2681 -1.6508
  843MPD2    H112444   4.119   2.679  17.522  0.8560 -0.7362 -0.2961
  843MPD2    H212445   3.939   2.304  17.488  2.1022 -0.0349 -2.1220
  843MPD2    H312446   3.965   2.537  17.410 -0.2386 -0.7882  0.1710
  843MPD2     N12447   4.262   2.638   0.002  0.0252  0.1601  0.2363
  843MPD2    H512448   4.252   2.730  17.697 -0.2258  0.9210  2.0740
  843MPD2    N112449   4.054   2.193  17.675  0.0188 -0.3188 -0.3914
  843MPD2    H712450   3.986   2.143  17.619 -0.5604  0.1352 -0.0873
  844MPD2     C12451   2.156   0.328  16.826 -0.0723  0.6360 -0.6715
  844MPD2    C112452   2.196   0.367  16.702 -0.7505  0.5425 -0.4782
  844MPD2    C212453   2.315   0.443  16.699  0.8092  0.4565 -0.2699
  844MPD2    C312454   2.394   0.459  16.809  0.7666 -0.0349  0.0836
  844MPD2    C412455   2.355   0.421  16.935 -0.6262  0.2085  0.1985
  844MPD2    C512456   2.237   0.352  16.934  0.1454  0.9779  0.3922
  844MPD2     H12457   2.353   0.470  16.601 -0.0708  0.1720 -0.6788
  844MPD2    H112458   2.409   0.434  17.028  0.9969 -0.2700 -0.6668
  844MPD2    H212459   2.061   0.276  16.832 -0.5243  1.2326 -2.8881
  844MPD2    H312460   2.194   0.312  17.026  2.0255  1.2859  1.4012
  844MPD2     N12461   2.516   0.533  16.811  0.2377 -0.3078  0.2096
  844MPD2    H512462   2.560   0.539  16.903  1.0579  3.4222 -0.4395
  844MPD2    N112463   2.113   0.377  16.587  0.2847 -0.4504 -0.3165
  844MPD2    H712464   2.135   0.441  16.511 -3.0756 -0.3504 -1.2111
  845MPD2     C12465   2.718   1.516  16.737 -0.1761  0.5690 -0.1339
  845MPD2    C112466   2.732   1.458  16.861 -0.1951 -0.0089  1.2302
  845MPD2    C212467   2.755   1.324  16.868  0.6093 -1.1803 -0.2962
  845MPD2    C312468   2.772   1.247  16.752  0.4708  0.0338 -0.0373
  845MPD2    C412469   2.760   1.306  16.626 -0.0057 -0.3575 -0.4837
  845MPD2    C512470   2.739   1.440  16.622  0.2277 -0.0526  0.6198
  845MPD2     H12471   2.771   1.272  16.962 -1.3233 -0.0506  0.6510
  845MPD2    H112472   2.765   1.256  16.529  1.0670 -0.7045 -0.2451
  845MPD2    H212473   2.701   1.623  16.730  0.1732  0.5609 -1.2288
  845MPD2    H312474   2.728   1.482  16.523  1.2771  0.7228  0.8261
  845MPD2     N12475   2.801   1.116  16.764  0.9340  0.1129  0.5172
  845MPD2    H512476   2.807   1.075  16.857 -3.3513  0.0822  0.8092
  845MPD2    N112477   2.725   1.538  16.973  0.3197 -0.3022 -1.3282
  845MPD2    H712478   2.700   1.636  16.961  2.2266  0.0696 -2.1707
  846MPD2     C12479   4.072   2.267  13.647 -0.1614  0.0908  0.3720
  846MPD2    C112480   4.009   2.388  13.638 -0.8070  0.3305 -0.4184
  846MPD2    C212481   3.983   2.462  13.750 -0.8423  0.6578  0.2655
  846MPD2    C312482   4.038   2.418  13.871  0.4441  0.3432 -0.8556
  846MPD2    C412483   4.098   2.294  13.878 -0.5459 -0.6800 -0.2702
  846MPD2    C512484   4.115   2.219  13.769 -0.5058 -0.0619  0.8461
  846MPD2     H12485   3.916   2.548  13.754 -1.0534  0.5072 -0.0351
  846MPD2    H112486   4.134   2.254  13.972  1.9059 -2.1893 -1.8556
  846MPD2    H212487   4.095   2.212  13.557  1.0945 -0.3242  0.9409
  846MPD2    H312488   4.186   2.141  13.792 -0.2468  0.6543  2.4993
  846MPD2     N12489   4.014   2.491  13.988  0.6115 -0.3474 -0.1849
  846MPD2    H512490   3.955   2.572  13.975 -0.8184 -1.6294 -1.6355
  846MPD2    N112491   3.949   2.435  13.520 -0.0463  0.7811  0.2213
  846MPD2    H712492   3.877   2.504  13.538 -1.3590 -0.5290  0.0239
  847MPD2     C12493   3.590   3.797  14.907 -0.4308 -0.2597 -0.4266
  847MPD2    C112494   3.715   3.773  14.866  0.4238  0.1372 -0.2308
  847MPD2    C212495   3.745   3.640  14.829 -0.6502  0.2880  0.0666
  847MPD2    C312496   3.656   3.529  14.830  0.2900 -0.1042 -0.3934
  847MPD2    C412497   3.527   3.561  14.866 -0.7092  0.2671  0.1266
  847MPD2    C512498   3.500   3.694  14.907  0.1809 -0.7224 -0.0181
  847MPD2     H12499   3.837   3.624  14.773 -0.3245 -0.6600  0.8626
  847MPD2    H112500   3.445   3.491  14.874 -0.9662  0.4631 -0.8723
  847MPD2    H212501   3.553   3.895  14.935  1.3043  0.6609 -1.4332
  847MPD2    H312502   3.399   3.715  14.943  1.1026  1.7092  1.1708
  847MPD2     N12503   3.696   3.403  14.788 -0.1938  0.4114  0.6095
  847MPD2    H512504   3.791   3.397  14.753 -1.0918 -0.3208 -1.6819
  847MPD2    N112505   3.817   3.872  14.849 -0.9293  0.0027  0.2468
  847MPD2    H712506   3.904   3.837  14.810 -1.4258 -0.9301 -0.0199
  848MPD2     C12507   2.455   1.037  16.417  0.4341  0.4460 -0.3075
  848MPD2    C112508   2.432   1.117  16.524 -0.1180  0.4666 -0.4003
  848MPD2    C212509   2.439   1.257  16.503  0.4050  0.7300  0.0481
  848MPD2    C312510   2.447   1.310  16.375  0.1328 -1.3080 -0.3211
  848MPD2    C412511   2.470   1.226  16.268 -0.0461  0.9030 -1.1056
  848MPD2    C512512   2.489   1.096  16.292 -0.0977  0.1151 -0.0471
  848MPD2     H12513   2.430   1.329  16.584 -1.1641 -0.7878  1.2334
  848MPD2    H112514   2.467   1.263  16.166 -0.8386  1.3041 -0.9286
  848MPD2    H212515   2.465   0.930  16.432  0.5434  0.7504  1.7652
  848MPD2    H312516   2.513   1.043  16.200 -0.9403 -0.3225 -0.0178
  848MPD2     N12517   2.431   1.448  16.342 -0.4291 -0.2561 -0.4768
  848MPD2    H512518   2.456   1.462  16.244  0.2138 -2.7010 -0.6737
  848MPD2    N112519   2.399   1.062  16.653 -0.4576 -0.4967 -0.2173
  848MPD2    H712520   2.411   1.114  16.739  0.2499  1.0407 -1.2525
  849MPD2     C12521   1.410   1.369  13.907 -0.1105 -0.0066  0.3150
  849MPD2    C112522   1.510   1.314  13.825  0.1680 -0.4601 -0.0580
  849MPD2    C212523   1.632   1.278  13.874  0.4132 -0.4925  0.6393
  849MPD2    C312524   1.666   1.311  14.002  0.0451  0.8728 -0.2824
  849MPD2    C412525   1.566   1.346  14.089 -0.3731 -0.7036  0.2796
  849MPD2    C512526   1.442   1.375  14.041  0.1035  0.1693  0.2839
  849MPD2     H12527   1.700   1.233  13.802 -0.3879 -1.2480  0.3618
  849MPD2    H112528   1.594   1.359  14.193  1.4249  0.9548 -0.4003
  849MPD2    H212529   1.310   1.397  13.878 -0.4068 -1.2358  0.1569
  849MPD2    H312530   1.368   1.412  14.112 -0.2734 -1.7871  0.8957
  849MPD2     N12531   1.798   1.305  14.058  0.4680 -0.1577  0.2867
  849MPD2    H512532   1.812   1.342  14.151 -2.2328  2.4581 -0.3432
  849MPD2    N112533   1.491   1.275  13.693 -0.1763  0.2939  0.1582
  849MPD2    H712534   1.574   1.259  13.636 -0.4763  1.5268 -0.6297
  850MPD2     C12535   3.872   4.546  14.988 -0.0930  0.6977 -0.0906
  850MPD2    C112536   3.908   4.420  15.013 -0.4118 -0.1730 -0.5443
  850MPD2    C212537   4.045   4.391  14.997 -0.8196 -0.1978 -0.5565
  850MPD2    C312538   4.134   4.486  14.958 -0.2910  0.3557 -0.2992
  850MPD2    C412539   4.095   4.613  14.933  0.7742  0.5201  0.2323
  850MPD2    C512540   3.963   4.642  14.945  1.2117  0.1987 -0.2047
  850MPD2     H12541   4.088   4.299  15.036  0.6233  0.7896  0.1691
  850MPD2    H112542   4.164   4.692  14.907 -2.6180  2.9956 -1.2009
  850MPD2    H212543   3.770   4.579  15.005 -0.3026  0.0328 -0.0482
  850MPD2    H312544   3.929   0.010  14.930  0.4357  0.1014  0.9043
  850MPD2     N12545   4.275   4.467  14.968  0.1324  0.7259  0.3032
  850MPD2    H512546   4.338   4.545  14.950 -1.4738  2.0154  0.2855
  850MPD2    N112547   3.826   4.325  15.079  0.1753 -0.4571 -0.1707
  850MPD2    H712548   3.859   4.230  15.090  2.4257  0.6149  2.2155
  851MPD2     C12549   4.180   4.390  15.437 -0.7224 -0.4168 -0.0880
  851MPD2    C112550   4.122   4.266  15.407 -0.5591  0.3978  0.6180
  851MPD2    C212551   4.205   4.171  15.354 -0.3281 -0.0861  0.2867
  851MPD2    C312552   4.337   4.195  15.318  0.3582 -0.3648  0.5782
  851MPD2    C412553   4.391   4.317  15.346 -0.4072  0.3243 -0.1780
  851MPD2    C512554   4.307   4.411  15.402 -0.0931  0.8951  0.2952
  851MPD2     H12555   4.163   4.078  15.319 -0.9026  0.3744 -0.2434
  851MPD2    H112556   4.491   4.348  15.317  0.2419 -2.3048 -0.7226
  851MPD2    H212557   4.119   4.467  15.484 -1.3377 -0.4957 -0.7412
  851MPD2    H312558   4.341   4.513  15.414  1.4545  0.7795 -3.2531
  851MPD2     N12559   4.400   4.090  15.248  0.0539 -0.0256 -1.0120
  851MPD2    H512560   4.342   4.013  15.218 -0.8576 -0.3411  1.5782
  851MPD2    N112561   3.983   4.254  15.421 -0.0676  0.0835  0.6309
  851MPD2    H712562   3.926   4.335  15.440 -1.1019 -1.1318  2.7064
  852MPD2     C12563   3.760   2.364  10.036  0.6072  0.0596 -0.4750
  852MPD2    C112564   3.745   2.473  10.122 -0.4497 -0.4622 -1.0495
  852MPD2    C212565   3.830   2.578  10.112 -1.0825  0.9209  0.1527
  852MPD2    C312566   3.925   2.580  10.014 -0.4003 -0.1263 -0.4453
  852MPD2    C412567   3.941   2.480   9.924 -0.0110 -0.3039  0.4326
  852MPD2    C512568   3.858   2.369   9.939 -0.7617  0.5881  0.7367
  852MPD2     H12569   3.826   2.665  10.175  2.4744  1.4596 -0.3306
  852MPD2    H112570   4.020   2.489   9.850 -1.0715 -3.0273 -1.0287
  852MPD2    H212571   3.701   2.273  10.043  0.3598  0.3774  1.4508
  852MPD2    H312572   3.870   2.282   9.875 -1.0551  1.3781 -0.4090
  852MPD2     N12573   4.012   2.686  10.024  0.3393 -0.1379 -0.0348
  852MPD2    H512574   4.015   2.741  10.109 -3.4419  0.9491 -0.5718
  852MPD2    N112575   3.631   2.469  10.214  0.1403  0.0225  0.1026
  852MPD2    H712576   3.570   2.389  10.200 -0.0416  0.2662 -0.5242
  853MPD2     C12577   0.997   1.560  12.090 -0.4970 -0.4650  0.6203
  853MPD2    C112578   0.880   1.631  12.091  0.7738  0.9413 -0.5520
  853MPD2    C212579   0.841   1.705  11.975 -0.2268 -0.2035 -0.2219
  853MPD2    C312580   0.917   1.690  11.860 -0.4869 -0.0384  0.2353
  853MPD2    C412581   1.031   1.612  11.865 -0.5705 -0.2379  0.8880
  853MPD2    C512582   1.068   1.540  11.979 -0.4659  0.3153  0.4551
  853MPD2     H12583   0.750   1.764  11.964  0.5989  0.8367 -1.3693
  853MPD2    H112584   1.090   1.594  11.777 -1.6387  1.6705 -0.2181
  853MPD2    H212585   1.034   1.509  12.179 -0.0356  0.4867  0.9716
  853MPD2    H312586   1.155   1.475  11.984 -0.8824 -0.2113  0.8806
  853MPD2     N12587   0.889   1.747  11.736  0.0938 -0.1240 -0.3694
  853MPD2    H512588   0.961   1.735  11.665 -0.3559 -0.3274 -0.7923
  853MPD2    N112589   0.818   1.632  12.220 -0.0378  0.7944  0.0691
  853MPD2    H712590   0.867   1.581  12.293 -0.5712  0.8558  0.4656
  854MPD2     C12591   2.789   2.115  12.893  0.3441 -0.2500  0.4227
  854MPD2    C112592   2.740   1.998  12.840  0.2289 -0.2249 -0.7410
  854MPD2    C212593   2.822   1.887  12.845  0.1952 -0.5995  0.4925
  854MPD2    C312594   2.951   1.899  12.899 -0.0598 -0.5223 -0.2074
  854MPD2    C412595   2.999   2.019  12.946  0.4263  0.2301  0.4431
  854MPD2    C512596   2.914   2.124  12.948 -0.5007  0.0330 -0.2577
  854MPD2     H12597   2.783   1.789  12.822 -0.2637 -0.7853  2.0856
  854MPD2    H112598   3.101   2.042  12.974  0.4140 -1.1816  1.6084
  854MPD2    H212599   2.720   2.199  12.891 -0.1070 -0.6420 -0.8713
  854MPD2    H312600   2.944   2.221  12.984 -0.3935 -0.4956  1.1128
  854MPD2     N12601   3.038   1.791  12.919  0.5192 -0.6282  0.7898
  854MPD2    H512602   3.121   1.803  12.976  0.7691 -1.2570  0.5624
  854MPD2    N112603   2.607   2.003  12.794 -0.0517 -0.6494 -0.9748
  854MPD2    H712604   2.568   2.097  12.791 -0.1202 -0.6784 -0.9859
  855MPD2     C12605   3.433   1.770  13.664 -0.7148  0.0566  0.6904
  855MPD2    C112606   3.414   1.639  13.633 -0.7562 -0.8179 -0.4057
  855MPD2    C212607   3.389   1.598  13.504  0.5862  1.0377 -0.6874
  855MPD2    C312608   3.386   1.690  13.395 -0.1024  0.0051 -0.0267
  855MPD2    C412609   3.393   1.825  13.429  0.3673 -0.4037  0.2788
  855MPD2    C512610   3.421   1.859  13.556  0.0705 -0.3527  0.2151
  855MPD2     H12611   3.370   1.494  13.481 -0.9714  0.9715  0.8054
  855MPD2    H112612   3.393   1.911  13.362  1.3406 -0.1680  0.5770
  855MPD2    H212613   3.449   1.806  13.766 -0.3376  1.3573  0.1709
  855MPD2    H312614   3.434   1.965  13.576  0.9517 -0.3671 -0.3313
  855MPD2     N12615   3.365   1.653  13.261 -0.7240  0.2768  0.6812
  855MPD2    H512616   3.332   1.726  13.198 -1.9636 -2.6181 -2.0114
  855MPD2    N112617   3.403   1.534  13.730 -0.1873  0.1596  0.0644
  855MPD2    H712618   3.383   1.442  13.691  0.2970 -0.3049  0.9338
  856MPD2     C12619   0.272   2.252  13.573  0.1140  0.0812  0.3645
  856MPD2    C112620   0.359   2.351  13.603  0.4246  0.6325 -0.1099
  856MPD2    C212621   0.308   2.482  13.612 -0.3886  0.0207  0.4509
  856MPD2    C312622   0.174   2.510  13.610  0.4036 -0.2310  0.4678
  856MPD2    C412623   0.085   2.408  13.583 -0.2467 -0.1840 -0.0721
  856MPD2    C512624   0.135   2.281  13.562 -0.5681 -0.6166  0.7037
  856MPD2     H12625   0.378   2.564  13.618 -2.1734  1.4663  1.9033
  856MPD2    H112626   4.718   2.438  13.561 -0.5115 -0.4296  0.8284
  856MPD2    H212627   0.307   2.150  13.557 -1.8647 -0.3808 -1.0088
  856MPD2    H312628   0.068   2.203  13.527 -0.5040  1.1919 -3.5191
  856MPD2     N12629   0.123   2.640  13.613  0.0109  0.2555  0.1509
  856MPD2    H512630   0.026   2.648  13.584  0.2789  3.6150  0.1072
  856MPD2    N112631   0.502   2.341  13.602  0.4130 -0.6963 -0.0368
  856MPD2    H712632   0.550   2.427  13.629  0.3610 -0.2495 -1.3882
  857MPD2     C12633   1.898   4.673  13.071  0.3999 -0.8055  0.1481
  857MPD2    C112634   1.990   4.720  12.989 -0.1456 -0.4750  0.4327
  857MPD2    C212635   2.072   0.089  13.025  0.0314  0.2960  0.3974
  857MPD2    C312636   2.046   0.157  13.141  0.4942  0.3111 -0.3804
  857MPD2    C412637   1.937   0.115  13.221  0.8382 -0.0721 -0.1908
  857MPD2    C512638   1.871   4.733  13.191 -0.8490 -0.1278  0.0329
  857MPD2     H12639   2.144   0.136  12.959 -1.2402  1.5393 -0.0967
  857MPD2    H112640   1.903   0.167  13.311 -0.7774  1.8343 -1.8933
  857MPD2    H212641   1.830   4.591  13.048 -1.8151  0.7654  1.0167
  857MPD2    H312642   1.787   4.699  13.250  0.6094 -1.0796  1.5659
  857MPD2     N12643   2.125   0.275  13.169  0.2790  0.7229 -0.6628
  857MPD2    H512644   2.197   0.305  13.103 -0.7018  0.9735 -1.6223
  857MPD2    N112645   2.009   4.658  12.861 -0.4973 -0.0186  0.7779
  857MPD2    H712646   2.077   4.699  12.798  0.4980 -0.5815  1.4867
  858MPD2     C12647   3.094   3.708  16.440  0.3120 -0.0768 -0.6134
  858MPD2    C112648   2.960   3.663  16.432  0.9951  0.6358  0.6606
  858MPD2    C212649   2.893   3.635  16.549 -0.1977 -0.2849 -0.2147
  858MPD2    C312650   2.952   3.657  16.675  0.2054 -0.0259  0.4403
  858MPD2    C412651   3.076   3.717  16.681 -0.0634 -0.4732 -0.5151
  858MPD2    C512652   3.150   3.742  16.564 -0.3286  0.4749 -0.0699
  858MPD2     H12653   2.791   3.600  16.555  0.5257 -2.4043 -0.4219
  858MPD2    H112654   3.120   3.734  16.778  1.6678 -0.4098 -1.3083
  858MPD2    H212655   3.159   3.725  16.354  0.1677 -0.9011 -0.8840
  858MPD2    H312656   3.246   3.792  16.558 -1.6443  2.9792 -0.4694
  858MPD2     N12657   2.885   3.621  16.792 -0.2983 -0.5533  0.2270
  858MPD2    H512658   2.898   3.662  16.885 -0.2826 -0.9096  0.3821
  858MPD2    N112659   2.898   3.656  16.305  0.3145 -0.0521  0.0404
  858MPD2    H712660   2.960   3.682  16.229  1.7759 -1.4998  0.7324
  859MPD2     C12661   1.324   1.234  15.099  0.2994 -0.2688 -0.5702
  859MPD2    C112662   1.457   1.195  15.095 -0.2515 -0.3318 -0.4638
  859MPD2    C212663   1.498   1.090  15.175 -0.0209 -0.3543  0.0491
  859MPD2    C312664   1.410   1.032  15.270  0.2268 -0.4730  0.0443
  859MPD2    C412665   1.280   1.075  15.272 -0.2068  0.1564 -0.5491
  859MPD2    C512666   1.237   1.182  15.190 -0.3303  0.2553 -0.4190
  859MPD2     H12667   1.599   1.050  15.170  0.4497  1.1049 -2.4132
  859MPD2    H112668   1.205   1.030  15.337  1.0790 -0.3548  0.5787
  859MPD2    H212669   1.287   1.307  15.027  1.2457  0.7568 -0.0146
  859MPD2    H312670   1.135   1.217  15.194  0.2698  2.0558 -0.8983
  859MPD2     N12671   1.445   0.924  15.354  0.0667  0.0866  0.4845
  859MPD2    H512672   1.375   0.885  15.416 -0.1375 -0.0711  0.1563
  859MPD2    N112673   1.534   1.267  15.006  0.4907  0.1070 -0.6516
  859MPD2    H712674   1.491   1.340  14.949 -1.4616 -1.3488 -1.0749
  860MPD2     C12675   3.923   1.845  11.487 -0.6512 -0.7722  0.0737
  860MPD2    C112676   3.881   1.714  11.518 -0.2035 -0.9660  0.4248
  860MPD2    C212677   3.755   1.701  11.565 -1.0039  0.0408 -0.0491
  860MPD2    C312678   3.669   1.808  11.576  0.2479 -0.0255 -0.6891
  860MPD2    C412679   3.709   1.939  11.547  0.1905 -0.0669 -0.6836
  860MPD2    C512680   3.842   1.959  11.503  0.8636  0.5500 -0.0347
  860MPD2     H12681   3.718   1.603  11.595  0.7308 -0.4528  0.4725
  860MPD2    H112682   3.646   2.026  11.560 -0.3656 -0.8013  1.5469
  860MPD2    H212683   4.017   1.871  11.439  0.4601 -1.6027  1.7932
  860MPD2    H312684   3.881   2.044  11.449  1.6066 -0.4482 -1.0805
  860MPD2     N12685   3.546   1.785  11.648  0.1615 -0.1034  0.0891
  860MPD2    H512686   3.504   1.693  11.651 -0.6037  0.1918 -1.3796
  860MPD2    N112687   3.961   1.603  11.513 -0.3578  0.0084  0.0194
  860MPD2    H712688   3.916   1.517  11.546 -0.8327  0.4088  0.4165
  861MPD2     C12689   2.381   0.157  11.148 -0.7503  0.7045  0.5291
  861MPD2    C112690   2.404   0.289  11.185 -1.3092 -0.5191  0.2995
  861MPD2    C212691   2.379   0.389  11.095 -0.2750  0.0942  0.1090
  861MPD2    C312692   2.345   0.369  10.966 -0.2349 -0.1860  0.1711
  861MPD2    C412693   2.322   0.241  10.928 -0.3844 -0.4541  0.0689
  861MPD2    C512694   2.344   0.137  11.018 -0.3847 -0.0866 -0.1925
  861MPD2     H12695   2.390   0.490  11.133  3.7700 -0.7053  1.0015
  861MPD2    H112696   2.278   0.215  10.833 -0.6930 -0.4051  0.1992
  861MPD2    H212697   2.399   0.072  11.212  1.9274 -0.2597 -1.5232
  861MPD2    H312698   2.318   0.037  10.985 -1.4826  0.6940 -1.7051
  861MPD2     N12699   2.320   0.466  10.872 -0.0954 -0.3260  0.0068
  861MPD2    H512700   2.271   0.428  10.791 -1.2674  1.6919 -0.2217
  861MPD2    N112701   2.432   0.325  11.317 -0.2340 -0.7883 -0.8354
  861MPD2    H712702   2.425   0.425  11.334 -2.0012 -1.4079  2.1388
  862MPD2     C12703   1.916   0.433  10.338 -0.2545  0.1602 -0.7247
  862MPD2    C112704   1.921   0.419  10.471 -0.4106  0.3668 -0.6212
  862MPD2    C212705   1.855   0.313  10.539  0.9398  0.2802 -0.1244
  862MPD2    C312706   1.780   0.220  10.474  0.1791 -0.2985 -0.9635
  862MPD2    C412707   1.783   0.228  10.341  0.1621 -0.0303  0.3852
  862MPD2    C512708   1.845   0.340  10.269  0.1608  0.3223  0.3420
  862MPD2     H12709   1.878   0.316  10.645  0.0449  0.0915  0.0783
  862MPD2    H112710   1.732   0.152  10.283  0.7200  0.0308 -0.1896
  862MPD2    H212711   1.979   0.497  10.277  0.4938 -0.1680 -0.3007
  862MPD2    H312712   1.841   0.344  10.161  0.8977 -1.1766  0.2637
  862MPD2     N12713   1.714   0.108  10.537  0.3840  0.2735  0.3427
  862MPD2    H512714   1.670   0.033  10.484  1.2219 -0.9131  1.3371
  862MPD2    N112715   1.997   0.506  10.551 -0.5717 -0.4434  0.1956
  862MPD2    H712716   1.998   0.491  10.652 -2.3462 -2.3689 -0.0630
  863MPD2     C12717   1.007   2.260  16.526 -0.0477  0.1586 -0.7167
  863MPD2    C112718   1.059   2.382  16.565  0.5327  0.0064  0.4647
  863MPD2    C212719   1.178   2.385  16.638  0.2573 -0.4573  0.3785
  863MPD2    C312720   1.226   2.267  16.690 -0.3414  0.2394 -0.1507
  863MPD2    C412721   1.170   2.148  16.642 -0.1860  0.0327  0.0223
  863MPD2    C512722   1.066   2.142  16.558  0.2952  0.2703  0.5181
  863MPD2     H12723   1.208   2.482  16.677 -0.5559 -0.7315  1.6833
  863MPD2    H112724   1.197   2.052  16.684  1.8284  0.1802 -0.9305
  863MPD2    H212725   0.920   2.270  16.462  0.6231 -2.5283 -2.0600
  863MPD2    H312726   1.015   2.047  16.548  0.4886  0.1438  0.7351
  863MPD2     N12727   1.332   2.255  16.782  0.8741  0.2937 -0.1817
  863MPD2    H512728   1.352   2.167  16.829  1.1506  1.1894  1.3741
  863MPD2    N112729   0.975   2.493  16.523  0.2880  0.0354  0.0058
  863MPD2    H712730   0.905   2.476  16.451 -1.2633  1.3056  1.2115
  864MPD2     C12731   1.551   3.325  17.395  0.1574 -0.2807  0.1105
  864MPD2    C112732   1.597   3.281  17.276  0.9416  0.4371  0.3764
  864MPD2    C212733   1.677   3.374  17.201  0.1987 -0.5986 -0.8285
  864MPD2    C312734   1.691   3.503  17.239 -0.5504  0.2278 -0.1537
  864MPD2    C412735   1.647   3.538  17.364 -0.6560  0.3431 -0.7498
  864MPD2    C512736   1.580   3.449  17.442  0.0175 -0.4332 -0.7567
  864MPD2     H12737   1.715   3.336  17.107  2.8127  1.6029 -0.6246
  864MPD2    H112738   1.646   3.643  17.392 -1.2404 -0.5466  2.5815
  864MPD2    H212739   1.493   3.257  17.457 -1.9907  0.8957 -0.5822
  864MPD2    H312740   1.548   3.473  17.543  1.9016  4.8109 -1.4120
  864MPD2     N12741   1.757   3.601  17.163 -0.6253 -0.0465  0.2184
  864MPD2    H512742   1.766   3.694  17.203 -1.7101 -0.1231  0.6430
  864MPD2    N112743   1.574   3.148  17.237  0.3403  0.6256  0.4043
  864MPD2    H712744   1.503   3.099  17.291  0.6099 -1.0106 -0.6940
  865MPD2     C12745   1.774   4.238  16.546 -0.1272 -0.0297  0.1952
  865MPD2    C112746   1.772   4.108  16.592  0.1817  0.2668 -0.1156
  865MPD2    C212747   1.793   4.086  16.726 -0.0915 -0.1902  0.4992
  865MPD2    C312748   1.836   4.192  16.800 -0.0401 -0.0483 -0.3518
  865MPD2    C412749   1.851   4.319  16.751 -0.1978 -0.2368 -0.6807
  865MPD2    C512750   1.803   4.345  16.625 -0.2535 -0.1110  0.0559
  865MPD2     H12751   1.775   3.991  16.774 -1.3684 -0.6410 -0.8848
  865MPD2    H112752   1.884   4.411  16.797  1.2622 -1.2947  0.3967
  865MPD2    H212753   1.744   4.270  16.446  0.1443 -1.3927 -0.3206
  865MPD2    H312754   1.822   4.442  16.580  0.3576  0.0778  0.7259
  865MPD2     N12755   1.854   4.179  16.943 -0.4602  0.1783 -0.0525
  865MPD2    H512756   1.867   4.268  16.988  1.8752 -0.9755  1.5509
  865MPD2    N112757   1.759   4.008  16.493  0.4252 -0.0129 -0.2968
  865MPD2    H712758   1.735   4.042  16.400 -0.3773  0.7273  0.1783
  866MPD2     C12759   3.206   0.505  11.625 -0.0224 -0.4158  1.1997
  866MPD2    C112760   3.198   0.506  11.485 -0.3362 -0.4338  0.1492
  866MPD2    C212761   3.116   0.602  11.424  0.1896 -0.5762  0.0308
  866MPD2    C312762   3.028   0.678  11.508  0.1694 -0.0272 -0.1879
  866MPD2    C412763   3.040   0.679  11.649 -0.2277  0.1242 -0.0343
  866MPD2    C512764   3.140   0.599  11.703  0.5095  0.0957 -0.1038
  866MPD2     H12765   3.113   0.607  11.315  0.0781 -1.1314  0.0078
  866MPD2    H112766   2.973   0.733  11.714  1.3285  2.4828 -0.4047
  866MPD2    H212767   3.280   0.451  11.683  1.0871  2.0666  2.1177
  866MPD2    H312768   3.163   0.594  11.809 -2.3150  0.8645  0.5356
  866MPD2     N12769   2.924   0.760  11.454  0.6200 -0.0784 -0.0758
  866MPD2    H512770   2.874   0.819  11.519  1.0475  1.4977 -1.1776
  866MPD2    N112771   3.273   0.407  11.422 -0.0856  0.0388  0.1922
  866MPD2    H712772   3.325   0.340  11.479 -0.5631 -0.4347  0.0642
  867MPD2     C12773   0.245   4.047  16.529  0.1177  1.0297 -0.0422
  867MPD2    C112774   0.373   4.043  16.569 -0.1201 -0.8056  0.7331
  867MPD2    C212775   0.449   4.152  16.565 -0.4047  0.5876 -0.2228
  867MPD2    C312776   0.391   4.268  16.511 -0.2565 -0.0185 -0.8621
  867MPD2    C412777   0.252   4.275  16.479 -0.0306  0.6883 -0.0327
  867MPD2    C512778   0.181   4.164  16.496  0.6076  0.5901 -0.4293
  867MPD2     H12779   0.554   4.146  16.590  0.0010  1.2570 -1.8000
  867MPD2    H112780   0.202   4.358  16.431 -2.5670 -0.9370 -0.1581
  867MPD2    H212781   0.180   3.961  16.513  0.1737  0.6785  1.6017
  867MPD2    H312782   0.081   4.147  16.456  0.3480  0.1332  0.4281
  867MPD2     N12783   0.471   4.382  16.482 -0.0852 -0.2493 -0.6983
  867MPD2    H512784   0.420   4.456  16.436 -1.3829 -1.0264 -0.5280
  867MPD2    N112785   0.426   3.909  16.598 -0.1221 -0.6774  0.1701
  867MPD2    H712786   0.363   3.832  16.577 -0.3341 -0.8768  1.5366
  868MPD2     C12787   2.482   3.289  13.375 -0.5369 -0.1713  0.5497
  868MPD2    C112788   2.478   3.190  13.278  0.4370 -0.0054  0.5812
  868MPD2    C212789   2.361   3.125  13.258 -0.5253 -0.3664  0.2077
  868MPD2    C312790   2.247   3.165  13.320 -0.8085 -0.4475 -0.0862
  868MPD2    C412791   2.244   3.267  13.405 -0.4610  0.2423  0.0609
  868MPD2    C512792   2.359   3.330  13.428 -0.3154 -0.7006  0.4118
  868MPD2     H12793   2.364   3.054  13.177 -0.4460 -2.6096  2.1855
  868MPD2    H112794   2.151   3.313  13.436  0.0801  0.4870  1.3062
  868MPD2    H212795   2.575   3.339  13.398  1.4617 -2.1780 -3.0691
  868MPD2    H312796   2.360   3.409  13.503 -1.2690  2.3561 -2.7881
  868MPD2     N12797   2.136   3.096  13.285 -0.2347 -0.1155  0.2117
  868MPD2    H512798   2.144   3.034  13.205 -3.9789 -1.1331  0.6658
  868MPD2    N112799   2.584   3.150  13.202  0.3366 -0.4329 -0.0858
  868MPD2    H712800   2.583   3.066  13.145  2.1334 -0.6734  0.2278
  869MPD2     C12801   3.040   1.004   0.970 -0.2945  0.1036 -0.4053
  869MPD2    C112802   3.094   1.123   0.937 -1.0610 -0.4821 -0.7480
  869MPD2    C212803   3.220   1.128   0.879  0.0146 -0.3500 -0.5176
  869MPD2    C312804   3.297   1.015   0.856  0.5766 -0.1889  0.5133
  869MPD2    C412805   3.247   0.899   0.906  0.5313 -0.0528 -0.6010
  869MPD2    C512806   3.126   0.895   0.968  0.4564 -0.9354  0.1627
  869MPD2     H12807   3.268   1.225   0.871 -1.6738  0.3082 -2.4066
  869MPD2    H112808   3.304   0.806   0.900  1.7214  0.6951 -0.8822
  869MPD2    H212809   2.936   1.001   1.000 -0.3070  2.1477 -0.2467
  869MPD2    H312810   3.093   0.801   1.011  0.6046 -1.2954 -0.5150
  869MPD2     N12811   3.429   1.022   0.807  0.8632 -0.9255 -0.1898
  869MPD2    H512812   3.485   0.946   0.845  0.5711 -0.5677  0.9705
  869MPD2    N112813   3.023   1.245   0.962 -0.3252 -0.0112  0.6742
  869MPD2    H712814   2.941   1.249   1.021 -1.6837  0.1870 -1.2564
  870MPD2     C12815   3.007   0.493   1.296 -0.4678  0.7361 -0.2808
  870MPD2    C112816   2.994   0.360   1.330 -0.4209 -0.3292  0.3092
  870MPD2    C212817   2.877   0.298   1.291 -0.3684 -0.6078 -0.3946
  870MPD2    C312818   2.767   0.376   1.251 -0.0724 -0.1632 -0.3828
  870MPD2    C412819   2.781   0.509   1.222  0.5765  0.1322 -0.5540
  870MPD2    C512820   2.905   0.567   1.248 -0.1336  0.0152 -0.0440
  870MPD2     H12821   2.844   0.201   1.327 -1.2430 -0.4489 -0.7485
  870MPD2    H112822   2.704   0.568   1.173  3.5659  3.0128 -1.7387
  870MPD2    H212823   3.098   0.546   1.321 -0.6821  1.3159 -0.7472
  870MPD2    H312824   2.908   0.675   1.237 -1.9318 -0.0987 -1.7823
  870MPD2     N12825   2.656   0.301   1.211 -0.6655 -0.1108  0.1100
  870MPD2    H512826   2.667   0.200   1.220  0.3124 -0.0441 -0.3325
  870MPD2    N112827   3.104   0.294   1.388 -0.1011  0.4569  0.3584
  870MPD2    H712828   3.190   0.347   1.403 -1.1230  2.3077 -0.2860
  871MPD2     C12829   4.132   4.231  16.460 -0.0494 -0.5081  0.3014
  871MPD2    C112830   4.200   4.197  16.575 -0.1369 -0.1436 -0.2234
  871MPD2    C212831   4.290   4.091  16.569 -1.0773 -0.2895  0.1927
  871MPD2    C312832   4.309   4.019  16.450 -0.1176 -0.5808 -0.9307
  871MPD2    C412833   4.228   4.050  16.342 -0.5667  0.3277 -0.1071
  871MPD2    C512834   4.141   4.159  16.346  0.3625 -0.6776  0.2363
  871MPD2     H12835   4.346   4.069  16.660  1.3653 -0.7732 -1.4351
  871MPD2    H112836   4.220   3.986  16.254 -0.2003  1.9950 -1.3620
  871MPD2    H212837   4.057   4.309  16.468 -0.5274 -0.9755  0.4265
  871MPD2    H312838   4.087   4.182  16.255  0.6025 -3.7283 -0.6798
  871MPD2     N12839   4.390   3.903  16.439 -0.1012  0.0534 -0.2086
  871MPD2    H512840   4.371   3.829  16.373  0.6798 -1.1658  0.9393
  871MPD2    N112841   4.183   4.286  16.679 -0.4661 -0.8044  0.1431
  871MPD2    H712842   4.104   4.350  16.676  0.0488 -0.2686 -2.3909
  872MPD2     C12843   0.544   1.398  13.578 -0.5542  0.2076  0.3522
  872MPD2    C112844   0.578   1.528  13.620  1.3946 -0.3988  0.1835
  872MPD2    C212845   0.493   1.588  13.712  0.2332  0.7049  0.3249
  872MPD2    C312846   0.395   1.520  13.774  0.0259  0.6053 -0.7014
  872MPD2    C412847   0.368   1.388  13.737  0.0435 -0.0288  0.5376
  872MPD2    C512848   0.438   1.330  13.629 -0.4678 -0.8486 -0.2786
  872MPD2     H12849   0.505   1.695  13.723  0.3242  0.4362  2.8691
  872MPD2    H112850   0.296   1.328  13.792 -0.1559 -1.0401 -0.8306
  872MPD2    H212851   0.602   1.355  13.498 -0.5476  0.8962 -0.0181
  872MPD2    H312852   0.408   1.228  13.607 -0.4289 -0.9417  0.0988
  872MPD2     N12853   0.310   1.581  13.867 -0.1406 -0.2055  0.0138
  872MPD2    H512854   0.333   1.674  13.902  0.5210  0.5261 -2.3456
  872MPD2    N112855   0.676   1.605  13.557 -0.1600  0.0500 -0.5777
  872MPD2    H712856   0.683   1.703  13.582  1.9397 -0.1066 -0.5586
  873MPD2     C12857   2.272   1.550   0.825 -0.3783  0.2039  0.6152
  873MPD2    C112858   2.149   1.588   0.874 -0.9427 -0.0117 -0.0522
  873MPD2    C212859   2.041   1.500   0.861  0.7703 -0.0354  0.7540
  873MPD2    C312860   2.061   1.377   0.798 -0.5494 -0.6257  0.3372
  873MPD2    C412861   2.187   1.347   0.736 -0.3129  0.7724 -0.2871
  873MPD2    C512862   2.291   1.431   0.765  0.1869  0.5412  0.8015
  873MPD2     H12863   1.945   1.517   0.907  0.0343  0.3258 -0.9329
  873MPD2    H112864   2.211   1.252   0.691  0.6329  0.8726  0.0208
  873MPD2    H212865   2.361   1.609   0.841 -1.8560  2.8276 -0.8755
  873MPD2    H312866   2.393   1.406   0.739 -0.5224 -0.8667 -0.6634
  873MPD2     N12867   1.955   1.285   0.777  0.0429 -0.6141 -0.1024
  873MPD2    H512868   1.966   1.224   0.696  1.4631  0.1563 -0.4885
  873MPD2    N112869   2.141   1.707   0.951 -0.1272  0.0255 -0.2487
  873MPD2    H712870   2.226   1.762   0.965  0.3198 -0.8378  0.4428
  874MPD2     C12871   1.678   1.502  16.060  0.3349 -0.2935  0.1083
  874MPD2    C112872   1.742   1.455  16.174 -0.3226  0.0670  0.4541
  874MPD2    C212873   1.859   1.512  16.210  0.4474  0.1722 -0.2411
  874MPD2    C312874   1.909   1.619  16.138 -0.6176  0.2954 -0.1616
  874MPD2    C412875   1.840   1.674  16.034  0.3084 -0.2472 -0.4504
  874MPD2    C512876   1.721   1.616  15.997 -0.0334 -0.0873 -0.3317
  874MPD2     H12877   1.915   1.479  16.297 -0.7916  1.0122  0.8668
  874MPD2    H112878   1.884   1.761  15.985  0.0282 -0.0821 -0.4092
  874MPD2    H212879   1.586   1.459  16.023 -0.8979  1.2638  1.3726
  874MPD2    H312880   1.666   1.640  15.906  0.5477 -2.0095 -1.1748
  874MPD2     N12881   2.035   1.661  16.192 -0.2039 -0.2101  0.3776
  874MPD2    H512882   2.079   1.594  16.255  1.9607 -0.2350 -1.1667
  874MPD2    N112883   1.677   1.349  16.245 -0.2212  0.4272 -0.4992
  874MPD2    H712884   1.589   1.320  16.203 -0.0121 -0.7066 -0.1435
  875MPD2     C12885   2.870   0.303  14.710  0.2516  0.2911 -0.0759
  875MPD2    C112886   2.734   0.326  14.725  0.9962 -0.7090 -0.0940
  875MPD2    C212887   2.686   0.379  14.844 -0.0218 -0.0323  0.2788
  875MPD2    C312888   2.772   0.417  14.949  0.7646 -0.1735  0.3627
  875MPD2    C412889   2.904   0.396  14.927 -0.1357 -0.0272 -0.2312
  875MPD2    C512890   2.953   0.336  14.816 -0.5509  0.1318  0.4447
  875MPD2     H12891   2.580   0.404  14.851 -0.1626 -0.1489 -1.3931
  875MPD2    H112892   2.969   0.443  15.000 -2.6612  1.1378  1.2316
  875MPD2    H212893   2.920   0.271  14.619 -0.2317 -2.1415  0.5071
  875MPD2    H312894   3.061   0.338  14.803 -0.5967  0.4650  0.1098
  875MPD2     N12895   2.734   0.497  15.058  0.1525 -0.9507 -0.4032
  875MPD2    H512896   2.798   0.542  15.123 -1.9049  1.3820  0.0316
  875MPD2    N112897   2.644   0.290  14.621  0.2178 -0.4159  0.1638
  875MPD2    H712898   2.548   0.322  14.625  0.5290  0.3726  1.4683
  876MPD2     C12899   1.514   1.629  15.624 -0.0137  0.1303 -0.2050
  876MPD2    C112900   1.641   1.578  15.603 -0.0662 -0.0285 -0.3557
  876MPD2    C212901   1.673   1.451  15.652 -0.2214 -1.4802 -0.1404
  876MPD2    C312902   1.576   1.372  15.708 -0.0260  0.3507 -0.3644
  876MPD2    C412903   1.443   1.422  15.730  0.3865 -0.3683  0.3346
  876MPD2    C512904   1.416   1.553  15.690  0.5010 -0.2410 -0.7236
  876MPD2     H12905   1.771   1.406  15.641  0.7628  0.4839  0.5780
  876MPD2    H112906   1.372   1.352  15.770  0.3900 -1.3856 -1.4271
  876MPD2    H212907   1.485   1.730  15.599 -2.6582 -0.5211  0.1865
  876MPD2    H312908   1.314   1.588  15.701  0.4939 -0.8411  1.0751
  876MPD2     N12909   1.609   1.242  15.744 -0.2109  0.4184  0.2740
  876MPD2    H512910   1.703   1.216  15.718 -1.0714 -2.5624  0.2022
  876MPD2    N112911   1.734   1.655  15.530 -0.2715  0.0123  0.2271
  876MPD2    H712912   1.708   1.751  15.514 -0.4313 -0.2875 -1.2946
  877MPD2     C12913   1.712   1.968  14.841 -0.1552  0.1977 -0.3898
  877MPD2    C112914   1.838   1.999  14.888  0.7194  0.0065 -0.2041
  877MPD2    C212915   1.926   2.065  14.798  0.3366 -0.3851  0.0753
  877MPD2    C312916   1.881   2.105  14.671  0.3556 -0.9608  0.8492
  877MPD2    C412917   1.753   2.087  14.632  0.7262  0.1870 -0.1003
  877MPD2    C512918   1.666   2.021  14.719 -1.0642  0.9856 -0.5183
  877MPD2     H12919   2.030   2.083  14.825  0.2678  2.9437 -1.8551
  877MPD2    H112920   1.717   2.107  14.531 -0.1839 -0.3297  0.1270
  877MPD2    H212921   1.647   1.919  14.913 -1.0014 -0.0804 -1.3530
  877MPD2    H312922   1.567   1.989  14.688 -0.4584 -2.0502  0.6585
  877MPD2     N12923   1.965   2.154  14.575  0.2139  0.4245  0.5745
  877MPD2    H512924   1.926   2.178  14.485  0.0419 -0.3998  0.4347
  877MPD2    N112925   1.883   1.965  15.016  0.2439  0.6621  0.1265
  877MPD2    H712926   1.970   2.011  15.042  1.8615 -1.1298 -2.0338
  878MPD2     C12927   1.017   0.851  12.931 -0.2154 -0.4157  0.1472
  878MPD2    C112928   1.125   0.921  12.881  0.3060 -0.0781 -0.3883
  878MPD2    C212929   1.223   0.967  12.976  0.2905 -0.3671 -0.2892
  878MPD2    C312930   1.204   0.935  13.113 -0.3742  0.2032 -0.1081
  878MPD2    C412931   1.096   0.860  13.152  0.7088 -0.1934  0.1748
  878MPD2    C512932   1.013   0.812  13.061  0.0121  0.5827 -0.0613
  878MPD2     H12933   1.301   1.028  12.932 -1.1778  1.6363 -0.0883
  878MPD2    H112934   1.081   0.815  13.250 -0.0889 -2.2566 -0.9017
  878MPD2    H212935   0.947   0.805  12.862 -1.6894  1.1267  0.6200
  878MPD2    H312936   0.928   0.753  13.093 -0.8881 -0.4722 -4.3874
  878MPD2     N12937   1.292   0.980  13.216  0.4797 -0.1517 -0.8631
  878MPD2    H512938   1.265   0.948  13.309 -2.8040  2.8629 -0.7814
  878MPD2    N112939   1.132   0.939  12.743 -0.6119  0.3545  0.2932
  878MPD2    H712940   1.050   0.915  12.689  0.3675  2.1681 -2.0055
  879MPD2     C12941   1.910   2.419  16.849 -0.1472  0.9054 -0.0585
  879MPD2    C112942   1.968   2.306  16.880 -0.1858  0.1240 -0.4834
  879MPD2    C212943   1.934   2.202  16.798  0.4836  0.1242 -0.4320
  879MPD2    C312944   1.851   2.216  16.690 -0.6077  0.9360 -0.9090
  879MPD2    C412945   1.790   2.339  16.664 -0.1100  0.1581  0.6593
  879MPD2    C512946   1.824   2.439  16.748 -0.4654 -0.3979 -0.6539
  879MPD2     H12947   1.974   2.105  16.826 -1.9760 -0.7356  0.1194
  879MPD2    H112948   1.732   2.363  16.576 -1.1238  2.3539  1.9337
  879MPD2    H212949   1.925   2.509  16.908  2.6895  0.5722 -0.2531
  879MPD2    H312950   1.784   2.535  16.718 -3.2259 -1.6202 -0.8657
  879MPD2     N12951   1.810   2.113  16.604  0.0692 -0.4164  0.6320
  879MPD2    H512952   1.746   2.150  16.534  1.0847  0.2748  0.0590
  879MPD2    N112953   2.062   2.298  16.987 -0.6741  0.1309 -0.1169
  879MPD2    H712954   2.082   2.385  17.035  1.2016  1.3779 -3.1672
  880MPD2     C12955   3.169   3.936  17.697 -0.0365 -0.1063 -1.2930
  880MPD2    C112956   3.131   3.962   0.091 -0.3496 -0.0843 -0.2172
  880MPD2    C212957   3.200   3.886   0.188 -0.4056 -0.2039 -0.3812
  880MPD2    C312958   3.296   3.785   0.157 -0.2580  0.1135 -0.5755
  880MPD2    C412959   3.319   3.762   0.024  0.0995  0.3208 -0.6217
  880MPD2    C512960   3.263   3.847  17.663 -0.0972  0.0006  0.0158
  880MPD2     H12961   3.177   3.905   0.292  3.1784  0.7810  0.2258
  880MPD2    H112962   3.388   3.688  17.721  0.6071  0.1898  0.5122
  880MPD2    H212963   3.125   3.994  17.617 -1.6819 -2.0400 -1.7897
  880MPD2    H312964   3.293   3.835  17.559  0.8575  0.2835  0.2540
  880MPD2     N12965   3.366   3.715   0.260  0.1656 -0.3023  0.1894
  880MPD2    H512966   3.361   3.753   0.354  0.2287 -2.3684  1.0284
  880MPD2    N112967   3.034   4.058   0.118 -0.0455 -0.1640 -0.3887
  880MPD2    H712968   2.996   4.099   0.033 -0.1752  1.2274  0.3351
  881MPD2     C12969   3.250   0.263   0.084  0.2526 -0.2539  0.2532
  881MPD2    C112970   3.230   0.167  17.722  0.8409 -0.0136  0.0357
  881MPD2    C212971   3.148   0.055   0.011  0.8905  0.3757  0.3812
  881MPD2    C312972   3.089   0.040   0.135  0.1364 -0.4603 -0.1096
  881MPD2    C412973   3.119   0.136   0.234 -0.2669 -0.1972 -0.0301
  881MPD2    C512974   3.198   0.248   0.210 -0.3910 -0.5580  0.6546
  881MPD2     H12975   3.119   0.000  17.658 -0.1033 -0.0620  0.9756
  881MPD2    H112976   3.066   0.117   0.327  0.0362  1.0298  0.3939
  881MPD2    H212977   3.310   0.351   0.066 -2.0291  1.4838  1.1638
  881MPD2    H312978   3.216   0.317   0.291 -1.9847  0.9219 -0.2400
  881MPD2     N12979   3.003   4.667   0.162  0.7174  0.2994 -0.0940
  881MPD2    H512980   2.973   4.660   0.258  0.4152  1.8240 -0.0707
  881MPD2    N112981   3.263   0.191  17.584  0.5021  0.5658 -0.1313
  881MPD2    H712982   3.248   0.112  17.521 -0.9782 -0.0232  0.9504
  882MPD2     C12983   2.145   1.926  13.927  0.7949  1.4437 -1.4108
  882MPD2    C112984   2.088   2.025  14.005  1.0683 -0.2244 -0.2748
  882MPD2    C212985   1.947   2.019  14.022 -1.1060  0.2342 -0.5645
  882MPD2    C312986   1.869   1.908  13.977 -0.1247  0.4935  0.1783
  882MPD2    C412987   1.935   1.816  13.900 -0.8091 -0.5519  0.3316
  882MPD2    C512988   2.074   1.816  13.882 -0.2326 -0.4879 -0.1925
  882MPD2     H12989   1.903   2.099  14.081 -0.5873  0.7607 -0.8983
  882MPD2    H112990   1.872   1.736  13.861 -0.1893 -1.2728  0.7949
  882MPD2    H212991   2.249   1.937  13.902  1.1408  0.2782 -0.4622
  882MPD2    H312992   2.110   1.734  13.821 -0.0438 -0.6272  0.1060
  882MPD2     N12993   1.730   1.908  13.990  0.7886  0.2414  0.1628
  882MPD2    H512994   1.686   1.830  13.944 -0.5610  0.8036  0.5191
  882MPD2    N112995   2.173   2.120  14.060 -0.2729 -0.3501 -0.3027
  882MPD2    H712996   2.270   2.094  14.077 -0.6712 -1.9809 -0.5303
  883MPD2     C12997   3.387   1.927  15.832 -0.1130 -0.1316  0.3565
  883MPD2    C112998   3.506   1.965  15.768  0.1262 -0.3244 -0.0350
  883MPD2    C212999   3.603   2.030  15.839 -0.1398  0.0753 -0.4798
  883MPD2    C313000   3.591   2.057  15.978  0.3194 -0.7080  0.2483
  883MPD2    C413001   3.476   2.019  16.039  0.6238 -0.9015  0.0654
  883MPD2    C513002   3.379   1.957  15.972  1.0500  0.3889  0.4561
  883MPD2     H13003   3.692   2.051  15.781  2.0483 -1.2305  2.4457
  883MPD2    H113004   3.465   2.043  16.144 -1.7983 -0.6782 -0.2362
  883MPD2    H213005   3.300   1.876  15.791 -0.7229  0.4428  0.9434
  883MPD2    H313006   3.284   1.932  16.018  1.2528  1.5463  1.5236
  883MPD2     N13007   3.702   2.108  16.049 -0.3130 -0.1200  0.1753
  883MPD2    H513008   3.778   2.145  15.992  0.2748 -2.7127 -0.7094
  883MPD2    N113009   3.537   1.953  15.633  0.6373  0.0153  0.0010
  883MPD2    H713010   3.635   1.967  15.611  0.2140  1.7811 -0.8166
  884MPD2     C13011   0.906   2.306  15.000 -0.5060 -0.2321  0.6428
  884MPD2    C113012   0.912   2.367  14.875  0.1399  0.0164 -0.1834
  884MPD2    C213013   0.805   2.442  14.839  0.2749 -0.3301  0.2869
  884MPD2    C313014   0.698   2.462  14.917 -0.7595 -0.2085 -0.4918
  884MPD2    C413015   0.698   2.405  15.040  0.0558  0.0507  0.3443
  884MPD2    C513016   0.799   2.323  15.086  0.0072 -0.2199  0.2542
  884MPD2     H13017   0.803   2.497  14.745  2.1049 -1.0408 -0.1529
  884MPD2    H113018   0.608   2.409  15.100 -1.6133 -1.5529 -2.0574
  884MPD2    H213019   0.982   2.236  15.032 -1.4665 -0.6159  2.0894
  884MPD2    H313020   0.796   2.259  15.173  1.0553  2.5441  2.3120
  884MPD2     N13021   0.592   2.533  14.860  0.2162 -0.4092  0.3318
  884MPD2    H513022   0.573   2.537  14.760 -0.9424  1.1772  0.6136
  884MPD2    N113023   1.019   2.344  14.781  0.7120  0.6792  0.5249
  884MPD2    H713024   0.998   2.386  14.691  0.7773  1.7678  1.0182
  885MPD2     C13025   4.076   2.626   0.342 -0.0503  0.5138 -0.2166
  885MPD2    C113026   4.136   2.745   0.364  0.0129 -0.3664 -0.2066
  885MPD2    C213027   4.100   2.847   0.277  0.0951  0.4054 -0.6371
  885MPD2    C313028   4.014   2.827   0.169  0.0304  0.0673  0.2251
  885MPD2    C413029   3.954   2.704   0.158  0.5128  0.0678  0.3230
  885MPD2    C513030   3.985   2.602   0.247 -0.2174  1.3048 -0.1775
  885MPD2     H13031   4.139   2.948   0.270 -0.0951  0.4845 -0.5266
  885MPD2    H113032   3.883   2.684   0.078  1.9263  0.2544 -0.9736
  885MPD2    H213033   4.111   2.541   0.401 -0.0317  0.3167 -0.5130
  885MPD2    H313034   3.948   2.501   0.236 -0.3797  1.2948  0.4890
  885MPD2     N13035   3.999   2.925   0.071  0.0657  0.1149  0.1153
  885MPD2    H513036   4.037   3.017   0.091  2.1306 -0.4152 -1.3475
  885MPD2    N113037   4.233   2.755   0.467  0.6147 -0.3083 -0.1710
  885MPD2    H713038   4.279   2.670   0.501  1.0809  1.0188  2.5561
  886MPD2     C13039   0.278   1.925  15.215 -0.0063 -0.5763  0.9474
  886MPD2    C113040   0.366   1.825  15.245 -0.6415 -0.1198  0.0598
  886MPD2    C213041   0.431   1.753  15.148 -0.2480 -0.5642  0.3105
  886MPD2    C313042   0.406   1.781  15.015 -0.6319  0.1317 -0.1727
  886MPD2    C413043   0.312   1.872  14.987 -0.6078 -0.1552  0.3363
  886MPD2    C513044   0.252   1.944  15.084  0.5271 -0.1265 -0.3406
  886MPD2     H13045   0.492   1.666  15.170 -0.0745 -0.5418 -0.0807
  886MPD2    H113046   0.289   1.889  14.883 -3.6077 -2.2737  0.6793
  886MPD2    H213047   0.199   1.954  15.285  1.8848  1.2259  2.3498
  886MPD2    H313048   0.170   2.010  15.059 -1.1356 -2.0304  0.0819
  886MPD2     N13049   0.474   1.709  14.912  0.0434 -0.9764 -0.1023
  886MPD2    H513050   0.458   1.753  14.822  2.4327  1.6051  0.7651
  886MPD2    N113051   0.372   1.773  15.378  0.2390 -0.9670 -0.2799
  886MPD2    H713052   0.423   1.686  15.383  0.3318 -1.0582 -2.7323
  887MPD2     C13053   0.835   1.840  16.007  0.6839  0.4251  0.7411
  887MPD2    C113054   0.779   1.885  15.886  0.2971  0.0107  0.3866
  887MPD2    C213055   0.861   1.942  15.792 -0.4236  0.7245  0.2483
  887MPD2    C313056   0.994   1.949  15.819  0.2081 -0.4094 -0.0083
  887MPD2    C413057   1.050   1.915  15.938  0.0371  0.1853 -0.2435
  887MPD2    C513058   0.970   1.857  16.032 -0.6539  0.4085  0.1878
  887MPD2     H13059   0.827   1.976  15.695  2.4614  2.2288 -0.2509
  887MPD2    H113060   1.151   1.931  15.973 -0.2315  1.2274  0.0361
  887MPD2    H213061   0.769   1.797  16.082  0.0540 -0.2260 -0.1943
  887MPD2    H313062   1.000   1.832  16.133  1.3135  1.4395 -0.1225
  887MPD2     N13063   1.077   2.007  15.718  0.3961 -0.5178  0.4300
  887MPD2    H513064   1.025   2.044  15.639 -0.1930 -1.1160  0.5432
  887MPD2    N113065   0.644   1.883  15.848 -0.2970  0.0615  0.4670
  887MPD2    H713066   0.613   1.926  15.761  3.0177  0.2858 -0.5834
  888MPD2     C13067   2.893   1.498  14.575 -0.6159 -1.1647  0.1605
  888MPD2    C113068   2.848   1.517  14.705  0.0885 -0.0303 -0.4554
  888MPD2    C213069   2.865   1.643  14.760  0.1790  0.6059 -0.7916
  888MPD2    C313070   2.931   1.744  14.688 -0.4788  0.2854  0.1933
  888MPD2    C413071   2.978   1.714  14.563 -0.0933  0.1982  0.4310
  888MPD2    C513072   2.951   1.596  14.497 -0.5564  0.7164 -0.3510
  888MPD2     H13073   2.818   1.656  14.857 -0.3863 -1.9822 -0.7105
  888MPD2    H113074   3.024   1.791  14.503  1.1778 -0.5983  0.4005
  888MPD2    H213075   2.879   1.406  14.520  0.2593  0.4586 -2.7552
  888MPD2    H313076   2.972   1.577  14.392 -0.7598  1.2904 -0.4943
  888MPD2     N13077   2.930   1.873  14.748 -0.9051 -0.3178  0.6034
  888MPD2    H513078   2.863   1.890  14.823  0.5042 -0.8374  1.9777
  888MPD2    N113079   2.783   1.412  14.777  0.5531  0.5352  0.1817
  888MPD2    H713080   2.773   1.432  14.876  1.3364 -1.3859  0.6650
  889MPD2     C13081   1.786   0.960  12.975 -0.2969 -0.2487  0.0399
  889MPD2    C113082   1.918   0.990  12.993  0.3093  0.6746 -0.8490
  889MPD2    C213083   1.955   1.124  12.985  1.0269 -0.1223 -0.0809
  889MPD2    C313084   1.879   1.225  12.934  0.8567 -0.0269 -0.0902
  889MPD2    C413085   1.750   1.193  12.893 -0.1877 -0.2515  0.4914
  889MPD2    C513086   1.711   1.060  12.914 -0.1954 -0.3426 -0.1836
  889MPD2     H13087   2.059   1.140  13.011  0.6384 -0.8227  1.8920
  889MPD2    H113088   1.691   1.258  12.830  1.3835  2.2853  1.6520
  889MPD2    H213089   1.762   0.854  12.969 -1.4536 -0.0465  1.1143
  889MPD2    H313090   1.622   1.028  12.861  1.3293 -1.3238 -2.1864
  889MPD2     N13091   1.939   1.352  12.930  0.5744 -0.0003 -0.3118
  889MPD2    H513092   2.033   1.351  12.967  0.7381 -0.1983 -0.7370
  889MPD2    N113093   2.015   0.896  13.048  0.1076 -0.0640 -0.1419
  889MPD2    H713094   2.110   0.930  13.064 -0.0536 -0.3605  1.4327
  890MPD2     C13095   1.629   3.266  14.843  0.2754  0.3089 -0.3038
  890MPD2    C113096   1.761   3.300  14.841 -0.2031 -0.0620 -0.0470
  890MPD2    C213097   1.853   3.257  14.945 -0.3321  0.2674 -0.3735
  890MPD2    C313098   1.799   3.197  15.058  0.1580 -0.6069 -0.7432
  890MPD2    C413099   1.664   3.176  15.069 -0.5358  0.0427 -0.1212
  890MPD2    C513100   1.584   3.201  14.957 -0.5707  0.2307  0.5908
  890MPD2     H13101   1.955   3.291  14.950 -0.6124  0.4740  4.1466
  890MPD2    H113102   1.615   3.141  15.159  2.0517  1.1420  1.7298
  890MPD2    H213103   1.552   3.288  14.770 -1.9568 -1.0105  1.6437
  890MPD2    H313104   1.478   3.182  14.969 -0.7482 -0.4893 -1.9615
  890MPD2     N13105   1.887   3.161  15.161  0.6486 -0.2325 -0.5931
  890MPD2    H513106   1.982   3.163  15.124  1.9441 -0.5340  2.7246
  890MPD2    N113107   1.796   3.381  14.730  0.7539 -0.0454 -0.1193
  890MPD2    H713108   1.726   3.400  14.659  1.8302 -0.6187 -1.3429
  891MPD2     C13109   4.534   1.249  16.518 -0.1520 -0.2437 -0.3231
  891MPD2    C113110   4.483   1.275  16.647  0.0041  0.0884  0.0981
  891MPD2    C213111   4.508   1.189  16.746 -0.3487  0.3435  0.3339
  891MPD2    C313112   4.610   1.100  16.733  0.8300 -0.8463 -0.9378
  891MPD2    C413113   4.674   1.084  16.610  0.3583  0.1214  0.0071
  891MPD2    C513114   4.629   1.154  16.503  0.2365 -0.4164 -0.5395
  891MPD2     H13115   4.453   1.189  16.839  0.3065 -2.1649  0.7208
  891MPD2    H113116   0.031   1.027  16.600  0.3434  0.2034 -0.6286
  891MPD2    H213117   4.512   1.320  16.439 -0.4378 -0.4971 -0.4713
  891MPD2    H313118   4.667   1.132  16.404  1.7967  0.1025 -0.0536
  891MPD2     N13119   4.641   1.033  16.852  0.0401  0.2617  0.0560
  891MPD2    H513120   4.591   1.050  16.939  3.1851  0.0830  1.9116
  891MPD2    N113121   4.401   1.391  16.660  0.7652 -0.0594 -0.0220
  891MPD2    H713122   4.372   1.433  16.572 -0.4968  2.0244  1.3792
  892MPD2     C13123   1.077   1.904  14.791  0.6837 -0.2114 -0.0454
  892MPD2    C113124   1.013   1.965  14.682 -0.6568 -0.3132  1.1911
  892MPD2    C213125   1.084   1.973  14.561  0.4364  0.0971  0.6627
  892MPD2    C313126   1.220   1.934  14.549 -0.0711 -0.1509  0.3421
  892MPD2    C413127   1.274   1.871  14.655 -0.3782 -0.0638 -0.1396
  892MPD2    C513128   1.206   1.857  14.774  0.1923  0.0461  0.0402
  892MPD2     H13129   1.040   2.016  14.472 -0.2941 -2.0899 -0.0151
  892MPD2    H113130   1.370   1.821  14.649 -1.0581 -1.6503  2.2581
  892MPD2    H213131   1.031   1.880  14.886 -1.6403  1.2597 -0.8108
  892MPD2    H313132   1.257   1.803  14.853 -2.4092  0.6610  2.1360
  892MPD2     N13133   1.298   1.958  14.433  0.2736 -0.0719 -0.3334
  892MPD2    H513134   1.391   1.917  14.430  0.8879  1.2287  0.8109
  892MPD2    N113135   0.877   2.006  14.691 -0.5155 -0.1490 -0.6498
  892MPD2    H713136   0.836   1.993  14.783 -0.6690 -0.9262 -0.8256
  893MPD2     C13137   1.624   0.665   0.590  0.4050 -0.2197 -0.3187
  893MPD2    C113138   1.656   0.749   0.698 -0.3134 -1.0650  0.3084
  893MPD2    C213139   1.556   0.809   0.781  0.5461  0.5015 -0.3460
  893MPD2    C313140   1.419   0.803   0.739 -0.1592  0.1002 -0.8952
  893MPD2    C413141   1.390   0.717   0.635  0.1584  0.4635  0.6279
  893MPD2    C513142   1.488   0.641   0.566 -0.9457 -0.1302  0.4962
  893MPD2     H13143   1.593   0.861   0.869 -0.6048 -0.5222  0.7366
  893MPD2    H113144   1.285   0.710   0.611  0.4673  2.1234 -1.2424
  893MPD2    H213145   1.700   0.616   0.529 -0.2007 -0.5441 -0.8088
  893MPD2    H313146   1.456   0.571   0.489 -1.0665 -2.5333  2.7039
  893MPD2     N13147   1.318   0.870   0.815 -0.1164  0.2547  0.2333
  893MPD2    H513148   1.226   0.849   0.777  0.3170 -0.1023 -0.6257
  893MPD2    N113149   1.795   0.767   0.714  0.3536  0.0671 -0.1406
  893MPD2    H713150   1.862   0.716   0.657 -1.3902 -1.5783 -0.6994
  894MPD2     C13151   1.010   3.178   0.796 -0.3659 -1.2401  0.6451
  894MPD2    C113152   0.985   3.288   0.869 -0.9587 -0.5269  0.0198
  894MPD2    C213153   1.003   3.412   0.814  0.5180  0.1956  0.2638
  894MPD2    C313154   1.022   3.426   0.680  0.0508  1.1993  0.4608
  894MPD2    C413155   1.041   3.311   0.598 -0.7984 -0.1967  0.3674
  894MPD2    C513156   1.041   3.185   0.665 -0.0707 -0.2128 -0.3906
  894MPD2     H13157   0.985   3.502   0.872 -2.2409 -1.2446  1.6267
  894MPD2    H113158   1.063   3.320   0.492  2.2486 -1.3650  0.9100
  894MPD2    H213159   1.006   3.080   0.843  1.6080 -2.2639 -1.3355
  894MPD2    H313160   1.055   3.092   0.612 -1.3596 -1.3812  1.3144
  894MPD2     N13161   1.039   3.557   0.632  0.4770 -0.5683 -0.5008
  894MPD2    H513162   1.049   3.624   0.708  0.3580  1.4182 -2.2273
  894MPD2    N113163   0.951   3.284   1.006  0.9541 -0.2141  0.4167
  894MPD2    H713164   0.944   3.374   1.052 -1.5950 -0.6565  0.8708
  895MPD2     C13165   4.645   1.226  13.783 -0.9299  0.5832  0.3247
  895MPD2    C113166   4.578   1.164  13.685  0.1113  0.3038  0.6823
  895MPD2    C213167   4.639   1.055  13.627  0.4545  0.7416  0.3840
  895MPD2    C313168   0.041   1.035  13.632  0.2914 -0.3773  0.2016
  895MPD2    C413169   0.106   1.105  13.735 -0.0440 -0.3867  0.1346
  895MPD2    C513170   0.039   1.194  13.813  0.0519  0.5685 -0.3931
  895MPD2     H13171   4.584   1.003  13.549  1.5741  0.8809 -0.4892
  895MPD2    H113172   0.212   1.101  13.757  0.0075  1.2530  0.1492
  895MPD2    H213173   4.609   1.298  13.856  1.2289  1.3517  0.6299
  895MPD2    H313174   0.096   1.251  13.887  1.7317 -0.1341 -1.1594
  895MPD2     N13175   0.100   0.932  13.557 -0.5637  0.0495 -0.6375
  895MPD2    H513176   0.037   0.892  13.489 -2.5565  0.7125  0.8010
  895MPD2    N113177   4.446   1.207  13.644  0.3147  0.2807  0.1878
  895MPD2    H713178   4.399   1.153  13.572 -1.1128  1.8747 -0.0698
  896MPD2     C13179   2.579   4.164   1.435 -0.8885 -0.1848 -0.0512
  896MPD2    C113180   2.544   4.100   1.318  0.0018 -0.0852 -0.3853
  896MPD2    C213181   2.434   4.016   1.326  0.1223  0.2371  0.0906
  896MPD2    C313182   2.352   4.015   1.438  0.8579  0.1452 -0.8333
  896MPD2    C413183   2.386   4.075   1.553 -0.2510 -0.0434  0.1234
  896MPD2    C513184   2.501   4.152   1.549  0.4779  0.6457  0.2465
  896MPD2     H13185   2.393   3.961   1.242  0.5898 -1.0243  0.6844
  896MPD2    H113186   2.327   4.077   1.644 -0.3960  1.5755  0.0035
  896MPD2    H213187   2.664   4.231   1.435 -0.2956 -0.9401 -1.2897
  896MPD2    H313188   2.520   4.204   1.642 -2.4070  0.3053  1.0433
  896MPD2     N13189   2.224   3.949   1.424  0.9904  0.2433 -0.3006
  896MPD2    H513190   2.190   3.921   1.332 -0.8045  0.3303  0.3413
  896MPD2    N113191   2.633   4.109   1.208 -0.0802 -0.3587  0.3992
  896MPD2    H713192   2.722   4.156   1.223 -0.6270  0.1924  1.9448
  897MPD2     C13193   3.428   1.182  10.796 -0.2183  0.1875  0.3617
  897MPD2    C113194   3.380   1.300  10.816  0.0332  0.8130 -0.9715
  897MPD2    C213195   3.287   1.329  10.910  0.5650  0.0777  0.2496
  897MPD2    C313196   3.248   1.229  11.004 -0.2000  0.6213  0.8371
  897MPD2    C413197   3.306   1.101  10.998 -0.5500  0.6333  0.5040
  897MPD2    C513198   3.384   1.080  10.878 -0.0968 -0.4961  0.9437
  897MPD2     H13199   3.231   1.422  10.915  2.4727  1.3087 -1.3767
  897MPD2    H113200   3.267   1.018  11.056 -0.9783  0.3832 -0.1324
  897MPD2    H213201   3.494   1.156  10.714  1.5282 -0.3548  1.9212
  897MPD2    H313202   3.422   0.980  10.859  1.5839  0.3247 -0.0912
  897MPD2     N13203   3.145   1.268  11.095 -0.2057  0.4991  0.3701
  897MPD2    H513204   3.088   1.351  11.090 -1.3853 -0.2803  0.7624
  897MPD2    N113205   3.426   1.398  10.716 -0.5914  0.0956  0.4344
  897MPD2    H713206   3.487   1.368  10.641 -1.0408  0.4699 -0.0837
  898MPD2     C13207   0.243   1.687  17.598 -0.5761  0.4559  0.1245
  898MPD2    C113208   0.249   1.788  17.687  0.5548 -0.1570 -0.1774
  898MPD2    C213209   0.169   1.903  17.666 -0.5966  1.0085  0.8846
  898MPD2    C313210   0.097   1.913  17.549  0.4103 -0.1652 -0.3810
  898MPD2    C413211   0.089   1.805  17.466 -0.6977  0.6305  0.2581
  898MPD2    C513212   0.162   1.694  17.484  0.1741 -0.1650 -0.4205
  898MPD2     H13213   0.164   1.978   0.008 -1.4870 -0.6340  2.4277
  898MPD2    H113214   0.041   1.808  17.369 -2.6732 -1.2386  1.2015
  898MPD2    H213215   0.294   1.592  17.611  0.0377  0.9282  1.2399
  898MPD2    H313216   0.169   1.609  17.418 -2.0813 -2.0099  1.7460
  898MPD2     N13217   0.061   2.046  17.512  0.8138  0.7080  0.0626
  898MPD2    H513218   0.109   2.118  17.565 -0.0525 -0.0491  1.8617
  898MPD2    N113219   0.328   1.781   0.072 -0.2628 -0.2107  0.0637
  898MPD2    H713220   0.314   1.858   0.137 -0.9934  1.1880 -1.7367
  899MPD2     C13221   1.264   1.801  17.229 -0.4526 -0.1885  0.1844
  899MPD2    C113222   1.294   1.916  17.290 -0.7487  0.7499  0.0536
  899MPD2    C213223   1.263   1.924  17.423 -0.2566 -0.4865 -0.2701
  899MPD2    C313224   1.170   1.840  17.492  0.0267  0.1746 -0.9624
  899MPD2    C413225   1.131   1.730  17.420  0.3947 -0.3221  0.7114
  899MPD2    C513226   1.176   1.718  17.288  0.5661  0.1750 -0.1236
  899MPD2     H13227   1.288   2.011  17.482  1.2693 -1.0361 -0.0971
  899MPD2    H113228   1.067   1.653  17.463 -0.3359 -1.1587 -1.8817
  899MPD2    H213229   1.281   1.789  17.122 -2.3656 -2.8278  0.1735
  899MPD2    H313230   1.135   1.638  17.227  1.0134  1.1403 -1.7121
  899MPD2     N13231   1.119   1.855  17.622 -0.1589  0.4481  0.0482
  899MPD2    H513232   1.045   1.792  17.650 -0.8838  1.1580 -0.2981
  899MPD2    N113233   1.353   2.017  17.209 -0.1115 -0.0621 -0.3153
  899MPD2    H713234   1.377   1.982  17.117  0.9851  1.2924 -0.5367
  900MPD2     C13235   0.386   3.481  12.564  0.2107 -0.1403 -0.3343
  900MPD2    C113236   0.351   3.349  12.558 -0.2963  0.7054 -0.2602
  900MPD2    C213237   0.236   3.320  12.492 -0.3227  0.0597 -0.3264
  900MPD2    C313238   0.161   3.416  12.425  0.3135 -0.9577  0.3701
  900MPD2    C413239   0.198   3.551  12.442  0.1058  0.3921 -0.0470
  900MPD2    C513240   0.311   3.579  12.509  0.6479 -1.0132  0.0104
  900MPD2     H13241   0.208   3.216  12.483  0.1525 -0.1123  0.1670
  900MPD2    H113242   0.139   3.632  12.402  1.0062 -0.2888 -2.7476
  900MPD2    H213243   0.472   3.512  12.622 -0.1296  1.0007 -0.4429
  900MPD2    H313244   0.347   3.681  12.516  1.3692 -1.1622 -1.5002
  900MPD2     N13245   0.056   3.372  12.346 -0.0118 -0.1842 -0.4205
  900MPD2    H513246   0.063   3.273  12.327 -1.5450 -0.3149 -0.2879
  900MPD2    N113247   0.437   3.245  12.610 -0.3069 -0.5360 -0.9051
  900MPD2    H713248   0.525   3.265  12.657  0.7620 -3.8071 -1.4774
  901MPD2     C13249   0.548   2.227  12.745 -0.4295 -0.4595 -0.0741
  901MPD2    C113250   0.630   2.301  12.666 -0.3953  0.2093 -0.4239
  901MPD2    C213251   0.643   2.431  12.689 -0.6167  0.0191 -0.1182
  901MPD2    C313252   0.572   2.497  12.788 -0.7846 -0.6837  0.0353
  901MPD2    C413253   0.482   2.426  12.868  0.7365  0.1308  0.7931
  901MPD2    C513254   0.472   2.290  12.839 -0.1472 -0.0122 -0.5182
  901MPD2     H13255   0.724   2.486  12.642 -1.3738  0.8243 -0.4883
  901MPD2    H113256   0.412   2.470  12.937  1.2375  1.5091  0.4110
  901MPD2    H213257   0.526   2.123  12.726 -0.5610 -0.6319  0.9873
  901MPD2    H313258   0.405   2.232  12.902  1.6595 -1.8666 -0.2851
  901MPD2     N13259   0.591   2.634  12.790  0.0858  0.2834  0.5835
  901MPD2    H513260   0.645   2.679  12.716  0.4309 -1.3932 -0.1910
  901MPD2    N113261   0.691   2.233  12.558 -0.0868  0.0666  0.1558
  901MPD2    H713262   0.685   2.132  12.564 -4.3753  0.3344  0.6826
  902MPD2     C13263   4.546   1.455  12.927 -0.2078  0.0186 -0.3082
  902MPD2    C113264   4.667   1.516  12.933  0.1703 -0.3044  0.9649
  902MPD2    C213265   0.016   1.524  12.824 -0.0464 -0.0182  0.4190
  902MPD2    C313266   4.715   1.453  12.709 -0.3494  0.2241 -0.2045
  902MPD2    C413267   4.591   1.394  12.701  0.0419 -1.0923 -0.3890
  902MPD2    C513268   4.500   1.394  12.808  0.3933  0.3500  0.4462
  902MPD2     H13269   0.113   1.571  12.828  0.7481 -1.6053 -0.0002
  902MPD2    H113270   4.564   1.317  12.630  0.0799 -0.4289 -1.1268
  902MPD2    H213271   4.485   1.444  13.016 -0.4544  1.8353 -0.2503
  902MPD2    H313272   4.410   1.334  12.802  0.0769  1.0338 -1.3495
  902MPD2     N13273   0.064   1.448  12.600 -0.1750  0.0326 -0.0806
  902MPD2    H513274   0.023   1.417  12.512 -0.6869 -1.4131  0.6630
  902MPD2    N113275   4.698   1.572  13.061  0.4074  0.0748  0.4778
  902MPD2    H713276   4.649   1.531  13.139 -1.6403  1.6270 -0.0012
  903MPD2     C13277   0.247   1.409  11.773  0.6582  0.1395  0.0987
  903MPD2    C113278   0.162   1.404  11.876  0.1863 -0.4141 -0.3837
  903MPD2    C213279   0.030   1.393  11.854 -0.5464 -0.6936  0.0176
  903MPD2    C313280   4.707   1.378  11.734 -0.2469 -0.9070 -0.2996
  903MPD2    C413281   0.056   1.393  11.623 -0.2095  0.3107 -0.8083
  903MPD2    C513282   0.194   1.407  11.644  0.3089 -0.7697  1.5653
  903MPD2     H13283   4.700   1.404  11.941  0.7692 -1.3517  1.0818
  903MPD2    H113284   0.016   1.380  11.524 -1.1724  1.3631 -0.5614
  903MPD2    H213285   0.355   1.410  11.779  0.7818  2.6446 -2.4429
  903MPD2    H313286   0.261   1.408  11.558  0.8169 -0.3025  1.9673
  903MPD2     N13287   4.566   1.374  11.729  0.2262  0.1709 -0.3737
  903MPD2    H513288   4.518   1.367  11.818 -0.0366  1.2734 -0.4294
  903MPD2    N113289   0.223   1.405  12.008 -0.0362  0.1926 -0.8903
  903MPD2    H713290   0.318   1.441  12.000  0.3343 -0.7066 -0.5118
  904MPD2     C13291   0.105   0.465  13.861 -0.5794  0.5859  0.1914
  904MPD2    C113292   0.059   0.554  13.960  0.1801  0.2579 -0.0283
  904MPD2    C213293   0.136   0.579  14.069 -0.2108 -0.1594  0.2821
  904MPD2    C313294   0.268   0.529  14.072 -0.3872 -0.5992 -0.2981
  904MPD2    C413295   0.316   0.457  13.974  0.4522 -0.2607  0.8680
  904MPD2    C513296   0.235   0.418  13.871 -0.4454 -0.0728 -0.1109
  904MPD2     H13297   0.096   0.655  14.134  3.2332 -0.9199  3.3008
  904MPD2    H113298   0.418   0.421  13.967 -0.0498 -1.7555  1.1309
  904MPD2    H213299   0.059   0.446  13.764  0.2507 -1.6626  0.2347
  904MPD2    H313300   0.274   0.355  13.792  1.1085 -0.3053  0.8412
  904MPD2     N13301   0.353   0.597  14.168  0.0503 -0.4292  0.2768
  904MPD2    H513302   0.302   0.654  14.235 -2.3481 -1.6409 -0.5004
  904MPD2    N113303   4.670   0.620  13.953 -0.0914  0.2293  0.0618
  904MPD2    H713304   4.653   0.681  14.032  0.9875 -0.0830  0.5445
  905MPD2     C13305   4.285   0.595  13.313 -0.3971 -0.1941 -0.5932
  905MPD2    C113306   4.334   0.701  13.387  0.0060  0.4803 -0.8705
  905MPD2    C213307   4.459   0.751  13.347 -0.1614 -0.6372  0.3529
  905MPD2    C313308   4.521   0.703  13.228 -0.2641 -0.0296  0.1708
  905MPD2    C413309   4.455   0.617  13.151  1.1463  0.5212 -0.6000
  905MPD2    C513310   4.342   0.552  13.198  0.2869 -0.1330 -0.4820
  905MPD2     H13311   4.524   0.809  13.411  2.1908 -2.6304 -0.2447
  905MPD2    H113312   4.498   0.586  13.056  1.4742 -0.9966  0.0473
  905MPD2    H213313   4.189   0.551  13.338 -0.7854  1.4193  0.7705
  905MPD2    H313314   4.302   0.473  13.136 -0.5499 -1.0698  1.2481
  905MPD2     N13315   4.647   0.745  13.176 -0.5072  0.5681 -0.0264
  905MPD2    H513316   4.686   0.707  13.090  1.0496 -0.8503  1.3095
  905MPD2    N113317   4.281   0.724  13.512  0.5747 -0.4263  0.8825
  905MPD2    H713318   4.216   0.654  13.548 -1.3411  0.8334 -0.1239
  906MPD2     C13319   1.478   1.729  11.109 -0.3503  0.6225  0.4746
  906MPD2    C113320   1.596   1.673  11.139 -0.3963 -0.2415 -0.0878
  906MPD2    C213321   1.598   1.583  11.243 -0.1012  0.1641 -1.1388
  906MPD2    C313322   1.474   1.527  11.279  0.5253 -0.0410 -0.3021
  906MPD2    C413323   1.350   1.580  11.241 -0.5828  0.4125 -0.1619
  906MPD2    C513324   1.357   1.689  11.157  0.1882  0.0274  0.1550
  906MPD2     H13325   1.695   1.545  11.275 -1.0258 -1.1717  0.0594
  906MPD2    H113326   1.254   1.539  11.269 -0.0678  0.9234  2.3815
  906MPD2    H213327   1.476   1.816  11.044  0.7315  0.0317 -0.3446
  906MPD2    H313328   1.264   1.734  11.124  0.0532  1.2982  2.2641
  906MPD2     N13329   1.466   1.405  11.349  0.4213 -0.1594  0.5051
  906MPD2    H513330   1.371   1.374  11.366 -0.1513  0.8556 -0.8989
  906MPD2    N113331   1.718   1.685  11.072 -0.5707  0.1072  0.0987
  906MPD2    H713332   1.792   1.626  11.109 -0.4366 -0.3895 -0.9607
  907MPD2     C13333   0.512   0.459  15.362  0.6101  0.5301  0.8676
  907MPD2    C113334   0.556   0.328  15.325  0.2162  0.3260 -0.2578
  907MPD2    C213335   0.642   0.256  15.400  0.3287  0.0937  0.1578
  907MPD2    C313336   0.704   0.315  15.513  0.5866 -0.0792 -1.0263
  907MPD2    C413337   0.678   0.446  15.539 -0.0161  0.2011  1.1275
  907MPD2    C513338   0.579   0.512  15.469  0.2712  0.2292 -0.5572
  907MPD2     H13339   0.668   0.154  15.374 -2.5225 -0.3158 -1.1671
  907MPD2    H113340   0.718   0.501  15.623  0.7783  0.1694  0.7780
  907MPD2    H213341   0.435   0.510  15.305  0.2985 -0.8894  0.0224
  907MPD2    H313342   0.550   0.610  15.504 -0.7575 -0.4712  0.5447
  907MPD2     N13343   0.804   0.235  15.586 -0.2408  0.0057 -0.1559
  907MPD2    H513344   0.814   0.140  15.551  1.6590  1.0405 -2.4298
  907MPD2    N113345   0.508   0.269  15.208  0.7468  0.3977  0.4706
  907MPD2    H713346   0.529   0.171  15.194  1.2729  0.4734  0.7029
  908MPD2     C13347   3.474   1.114   9.922  0.2875  0.3407 -0.2710
  908MPD2    C113348   3.457   1.074  10.053 -0.7001 -0.2858  0.0876
  908MPD2    C213349   3.459   1.169  10.152  0.1261 -0.2716  0.2446
  908MPD2    C313350   3.471   1.305  10.122 -0.0692  0.4387  0.8994
  908MPD2    C413351   3.472   1.348   9.990  0.0246  0.1522 -0.0180
  908MPD2    C513352   3.468   1.248   9.894 -0.5057 -0.0605  0.1292
  908MPD2     H13353   3.464   1.136  10.255 -1.5787  0.9499  0.7042
  908MPD2    H113354   3.482   1.449   9.954 -2.0158 -0.1371 -1.3718
  908MPD2    H213355   3.480   1.037   9.846  1.6755  0.5619 -0.3947
  908MPD2    H313356   3.487   1.283   9.793  1.1021  0.3119  0.5600
  908MPD2     N13357   3.454   1.398  10.233 -0.8125 -0.1948  0.1845
  908MPD2    H513358   3.452   1.353  10.323  0.6047  0.7367  0.6940
  908MPD2    N113359   3.445   0.933  10.067  0.4368  0.4901 -0.2966
  908MPD2    H713360   3.425   0.877   9.984  0.2534 -0.6236  0.5074
  909MPD2     C13361   3.258   4.097  11.211 -0.5289 -0.2267 -0.2490
  909MPD2    C113362   3.346   4.196  11.244  0.4155  0.2985 -0.0965
  909MPD2    C213363   3.350   4.244  11.374  0.0536  0.5102 -0.3466
  909MPD2    C313364   3.266   4.183  11.468 -0.8316 -0.2670  0.7109
  909MPD2    C413365   3.200   4.072  11.441 -0.7503  0.4631 -0.4156
  909MPD2    C513366   3.187   4.027  11.306 -0.3265  0.8849 -0.3904
  909MPD2     H13367   3.404   4.337  11.387  1.0960 -0.0774 -0.4503
  909MPD2    H113368   3.135   4.020  11.509  0.6633 -0.3802  0.2924
  909MPD2    H213369   3.244   4.061  11.110 -0.9062  0.4000 -0.4210
  909MPD2    H313370   3.125   3.940  11.285  0.7135  0.4937 -1.8444
  909MPD2     N13371   3.267   4.232  11.598  0.1250  0.3586 -0.5317
  909MPD2    H513372   3.330   4.311  11.608  0.3011 -0.1076  1.8086
  909MPD2    N113373   3.438   4.258  11.152  0.1088 -0.1047 -0.1387
  909MPD2    H713374   3.501   4.323  11.197  2.8265 -1.5456 -1.9049
  910MPD2     C13375   0.306   0.624  15.820  0.0392  0.3927  0.0978
  910MPD2    C113376   0.427   0.691  15.796 -0.5442 -0.5746 -0.1715
  910MPD2    C213377   0.426   0.796  15.705 -0.0844  0.9183 -0.6628
  910MPD2    C313378   0.316   0.832  15.641  0.3206  0.0667 -0.2422
  910MPD2    C413379   0.203   0.755  15.658 -0.3623 -0.1028  0.5809
  910MPD2    C513380   0.189   0.660  15.754  0.4935  0.6829  0.1642
  910MPD2     H13381   0.520   0.848  15.690 -0.2047  0.7232 -2.0459
  910MPD2    H113382   0.116   0.781  15.598  1.2126  3.1573 -0.2402
  910MPD2    H213383   0.297   0.553  15.901 -0.2293 -1.0143 -1.1654
  910MPD2    H313384   0.094   0.614  15.775  1.9510 -3.1381 -1.6361
  910MPD2     N13385   0.301   0.942  15.547  0.3787  0.1416  0.0447
  910MPD2    H513386   0.209   0.950  15.506  0.9491 -3.2471 -1.8478
  910MPD2    N113387   0.550   0.656  15.864 -0.5304 -0.2161  0.7515
  910MPD2    H713388   0.629   0.718  15.848 -0.5442 -1.1300 -2.8975
  911MPD2     C13389   3.173   0.472  16.814  0.1380  0.5400  0.9352
  911MPD2    C113390   3.185   0.611  16.790  0.9630  0.0582  0.6537
  911MPD2    C213391   3.111   0.665  16.690 -0.1992  0.2936  0.1939
  911MPD2    C313392   3.041   0.585  16.606  0.0806  0.1704 -0.4793
  911MPD2    C413393   3.019   0.459  16.638  0.2053  0.2203  0.7158
  911MPD2    C513394   3.092   0.396  16.738  0.4730  0.3116 -0.0698
  911MPD2     H13395   3.124   0.769  16.661  1.5574  0.1408  0.4147
  911MPD2    H113396   2.962   0.387  16.580 -0.5833 -0.3885  2.2536
  911MPD2    H213397   3.235   0.428  16.891 -2.5362 -1.4840  1.9031
  911MPD2    H313398   3.088   0.288  16.750 -0.0552  0.2957 -0.3958
  911MPD2     N13399   2.975   0.629  16.489  0.6109  0.0501 -0.6502
  911MPD2    H513400   2.913   0.561  16.445 -0.1847 -0.1854  0.8559
  911MPD2    N113401   3.281   0.683  16.860 -0.0508  0.0388  0.2269
  911MPD2    H713402   3.363   0.638  16.898  1.7536  2.1522 -1.1797
  912MPD2     C13403   2.323   0.792  15.932  0.2717 -0.4530 -0.1441
  912MPD2    C113404   2.378   0.740  16.040 -0.1524  0.2447 -0.4905
  912MPD2    C213405   2.298   0.654  16.115  0.2452 -0.0660 -0.4647
  912MPD2    C313406   2.167   0.624  16.075 -0.1541 -0.1057 -0.6537
  912MPD2    C413407   2.114   0.685  15.961 -0.1714  0.5683  0.6414
  912MPD2    C513408   2.200   0.756  15.886 -0.2709  0.1935 -0.6934
  912MPD2     H13409   2.335   0.593  16.197  1.1600 -0.3903 -1.1179
  912MPD2    H113410   2.017   0.658  15.922 -0.3627  1.0232  0.8078
  912MPD2    H213411   2.377   0.860  15.866  1.3839  0.1005  1.3466
  912MPD2    H313412   2.171   0.774  15.783 -1.8159 -0.2556 -0.3413
  912MPD2     N13413   2.093   0.537  16.157  0.1578  0.3417  0.1011
  912MPD2    H513414   2.146   0.480  16.221  0.7168  1.6840  0.8504
  912MPD2    N113415   2.512   0.780  16.074  0.5992 -0.3748 -0.2437
  912MPD2    H713416   2.573   0.823  16.005 -1.1171  0.7562 -1.0457
  913MPD2     C13417   2.326   3.018  10.746  0.1514 -0.5190 -0.3363
  913MPD2    C113418   2.432   3.109  10.761  0.5346 -0.1134  0.3028
  913MPD2    C213419   2.460   3.200  10.656 -0.3302  0.0192  0.6038
  913MPD2    C313420   2.405   3.189  10.529 -0.3818 -0.1873 -0.0718
  913MPD2    C413421   2.303   3.096  10.516  0.4697 -0.5518  0.1913
  913MPD2    C513422   2.263   3.022  10.623 -0.6197 -0.0594  0.2374
  913MPD2     H13423   2.547   3.263  10.664 -0.5433  0.5306 -0.9897
  913MPD2    H113424   2.264   3.076  10.417 -1.2697  0.9119  0.5774
  913MPD2    H213425   2.297   2.948  10.823 -3.0151 -0.2767 -1.2785
  913MPD2    H313426   2.191   2.944  10.602  0.8821 -1.7858  1.4197
  913MPD2     N13427   2.442   3.275  10.420 -0.0752 -0.8699 -0.2439
  913MPD2    H513428   2.402   3.252  10.330 -0.0424 -2.5832  0.1949
  913MPD2    N113429   2.494   3.111  10.886  0.2273  0.3187 -0.6307
  913MPD2    H713430   2.459   3.043  10.952  0.7687  1.9014  1.2740
  914MPD2     C13431   1.241   2.651  11.882 -0.3088 -0.0920  0.2569
  914MPD2    C113432   1.200   2.668  12.011  0.3090  0.2331  0.0631
  914MPD2    C213433   1.107   2.580  12.071  0.0195 -0.4418 -0.7461
  914MPD2    C313434   1.068   2.467  12.003  0.5086 -0.1621  0.3753
  914MPD2    C413435   1.107   2.453  11.872 -0.5999  0.1839 -0.1003
  914MPD2    C513436   1.189   2.548  11.815 -0.8535  0.4482  0.0998
  914MPD2     H13437   1.075   2.584  12.174 -2.9094 -0.0189 -1.6656
  914MPD2    H113438   1.077   2.369  11.811 -0.4952 -0.2680  0.4701
  914MPD2    H213439   1.292   2.721  11.817 -1.4244 -0.8656 -1.4659
  914MPD2    H313440   1.213   2.549  11.709 -1.1476 -0.6675  0.0226
  914MPD2     N13441   0.981   2.377  12.069  0.2181  0.1252  0.1009
  914MPD2    H513442   0.965   2.395  12.168 -1.1880  2.0064 -0.4817
  914MPD2    N113443   1.250   2.787  12.066  0.5613 -0.4300 -0.1006
  914MPD2    H713444   1.282   2.860  12.003 -0.2205 -1.2824 -1.4887
  915MPD2     C13445   4.074   2.909  15.790 -0.0954 -0.3224  0.0385
  915MPD2    C113446   3.939   2.891  15.760 -0.4532 -0.1518 -0.7701
  915MPD2    C213447   3.845   2.974  15.823 -0.2758 -1.2068  0.0145
  915MPD2    C313448   3.876   3.058  15.933 -0.3854 -0.8742  0.3857
  915MPD2    C413449   4.006   3.073  15.963  0.5213 -0.6958 -0.2199
  915MPD2    C513450   4.101   2.996  15.894 -0.2407  0.0743 -0.0957
  915MPD2     H13451   3.741   2.977  15.793 -1.0815  0.4966  2.9801
  915MPD2    H113452   4.049   3.142  16.034  0.4141 -0.5896 -0.2596
  915MPD2    H213453   4.161   2.858  15.750  1.1130  2.4605 -0.8660
  915MPD2    H313454   4.206   3.014  15.915 -0.2223  0.5304 -0.5744
  915MPD2     N13455   3.767   3.134  15.986 -0.1405 -0.0809  0.1184
  915MPD2    H513456   3.675   3.132  15.944 -0.8783  1.0044  1.6958
  915MPD2    N113457   3.896   2.813  15.645 -0.2087  0.5233  0.1186
  915MPD2    H713458   3.797   2.801  15.628 -0.5284  1.1114  1.4966
  916MPD2     C13459   2.063   0.906  15.469  0.4622 -0.0480 -0.4654
  916MPD2    C113460   1.990   0.826  15.554 -0.4345  0.4156  0.2148
  916MPD2    C213461   1.986   0.686  15.521 -0.4386 -0.1729 -0.2544
  916MPD2    C313462   2.044   0.632  15.408  0.4185 -0.0485 -0.6592
  916MPD2    C413463   2.111   0.720  15.327 -0.2275  0.5216  0.2891
  916MPD2    C513464   2.120   0.854  15.352  0.0956 -0.1956 -0.1274
  916MPD2     H13465   1.937   0.617  15.589  2.7100 -2.2912 -0.1148
  916MPD2    H113466   2.175   0.685  15.246 -0.4683  0.9693 -0.0908
  916MPD2    H213467   2.065   1.013  15.483  2.1370  0.0262 -1.2433
  916MPD2    H313468   2.176   0.924  15.292 -1.6841 -0.0694 -1.6320
  916MPD2     N13469   2.038   0.493  15.395 -1.0083 -0.2991 -0.5778
  916MPD2    H513470   1.996   0.441  15.471 -1.2192 -1.7336 -1.6895
  916MPD2    N113471   1.921   0.876  15.663  0.1604 -0.0999 -0.2476
  916MPD2    H713472   1.919   0.977  15.670 -2.1114 -0.0560 -1.4552
  917MPD2     C13473   1.789   3.403  11.473  0.2299 -0.3680 -0.0214
  917MPD2    C113474   1.837   3.434  11.595 -0.9544 -0.3728  0.3113
  917MPD2    C213475   1.848   3.567  11.630 -0.6621  0.0578 -0.3521
  917MPD2    C313476   1.830   3.669  11.547 -0.2656 -0.4005  0.2705
  917MPD2    C413477   1.786   3.628  11.420  0.8735 -0.6594 -0.1740
  917MPD2    C513478   1.765   3.501  11.384  0.3493 -0.3815 -0.4070
  917MPD2     H13479   1.870   3.582  11.735 -0.8732  0.2655 -0.3401
  917MPD2    H113480   1.773   3.706  11.346 -1.6504 -1.0728 -0.1750
  917MPD2    H213481   1.779   3.297  11.451  1.7787 -0.5198  0.0325
  917MPD2    H313482   1.759   3.466  11.281 -1.4987  1.5243 -0.9504
  917MPD2     N13483   1.835   3.809  11.577 -0.5616 -0.4387  0.3854
  917MPD2    H513484   1.798   3.874  11.508 -0.1541 -0.6774 -0.0511
  917MPD2    N113485   1.863   3.324  11.686 -0.9297 -0.0221  0.8518
  917MPD2    H713486   1.855   3.229  11.653 -2.6809  0.3953  0.0817
  918MPD2     C13487   1.997   3.526  12.570 -0.2246  0.5335 -0.6244
  918MPD2    C113488   2.109   3.521  12.497 -0.2570 -0.1023 -0.0257
  918MPD2    C213489   2.130   3.416  12.411  0.6460 -0.2896  0.0647
  918MPD2    C313490   2.025   3.325  12.391  0.1395  0.6969 -0.0650
  918MPD2    C413491   1.922   3.322  12.480 -0.4387 -0.7273 -0.1552
  918MPD2    C513492   1.910   3.425  12.568  0.0469 -0.2885 -0.1222
  918MPD2     H13493   2.216   3.413  12.345  0.5476  0.7388 -0.1012
  918MPD2    H113494   1.839   3.253  12.479 -1.4823  0.5188  3.6786
  918MPD2    H213495   1.973   3.606  12.640 -2.9967  0.3390 -1.3662
  918MPD2    H313496   1.827   3.430  12.638  0.1297 -2.6004  0.1498
  918MPD2     N13497   2.036   3.237  12.283 -0.2003  0.0817 -0.5292
  918MPD2    H513498   2.114   3.243  12.218 -0.5056 -0.9270 -0.9759
  918MPD2    N113499   2.213   3.622  12.497 -0.4750 -0.1665 -0.4162
  918MPD2    H713500   2.285   3.610  12.426 -0.2086  0.2227 -0.2060
  919MPD2     C13501   2.719   2.662  12.167  0.4894  0.8087  0.5420
  919MPD2    C113502   2.707   2.571  12.061 -0.2739  0.2372 -0.4632
  919MPD2    C213503   2.667   2.630  11.936 -0.2053 -0.1945 -0.5470
  919MPD2    C313504   2.637   2.763  11.921  0.7171  0.1629  0.2300
  919MPD2    C413505   2.649   2.845  12.036  0.6593  0.5084 -0.1601
  919MPD2    C513506   2.691   2.792  12.155  0.5844 -0.5065 -0.4574
  919MPD2     H13507   2.671   2.559  11.855  1.7021 -0.5558 -0.1293
  919MPD2    H113508   2.631   2.952  12.038  0.9319  0.5897 -1.6971
  919MPD2    H213509   2.761   2.646  12.266 -1.6673  0.7832  1.4522
  919MPD2    H313510   2.715   2.867  12.229 -1.9883  0.7413 -0.8720
  919MPD2     N13511   2.584   2.819  11.802  0.3142 -0.2541 -0.1350
  919MPD2    H513512   2.566   2.918  11.812 -0.1094 -0.2960 -0.4483
  919MPD2    N113513   2.730   2.435  12.083 -0.0608 -0.0433 -0.2000
  919MPD2    H713514   2.750   2.376  12.002  2.7094  1.2225 -0.4393
  920MPD2     C13515   2.399   3.551  11.132 -0.3847  0.4451  0.1039
  920MPD2    C113516   2.361   3.428  11.077  0.1692  0.2959  0.0447
  920MPD2    C213517   2.359   3.314  11.153  0.3600 -0.1516 -0.0895
  920MPD2    C313518   2.411   3.311  11.280 -0.2475  0.5580 -0.5069
  920MPD2    C413519   2.462   3.427  11.339  0.6722  0.1809  0.0576
  920MPD2    C513520   2.455   3.541  11.261  0.3588 -0.9901  0.3489
  920MPD2     H13521   2.318   3.224  11.109  2.2014 -1.3697  0.7130
  920MPD2    H113522   2.496   3.441  11.441  0.6036 -1.9531  0.3725
  920MPD2    H213523   2.390   3.650  11.089 -1.6085 -0.0664 -0.8170
  920MPD2    H313524   2.479   3.637  11.305 -0.4892 -0.9007  0.6114
  920MPD2     N13525   2.406   3.189  11.343  0.3434  0.3699  0.1749
  920MPD2    H513526   2.342   3.122  11.303 -0.4399  1.3766 -0.2710
  920MPD2    N113527   2.290   3.415  10.957  0.0906  0.5734  0.0746
  920MPD2    H713528   2.235   3.333  10.933  0.0523  0.9089 -0.9905
  921MPD2     C13529   3.581   1.716  16.743 -0.1917  0.3049  0.2828
  921MPD2    C113530   3.662   1.621  16.788 -0.1014 -0.4443 -0.0034
  921MPD2    C213531   3.608   1.512  16.845 -0.4040  0.1788 -0.4642
  921MPD2    C313532   3.477   1.482  16.849  0.1368  0.3486  0.1862
  921MPD2    C413533   3.391   1.585  16.809 -0.3230 -0.2064 -0.5257
  921MPD2    C513534   3.443   1.706  16.764  0.6880 -0.0684  1.2600
  921MPD2     H13535   3.676   1.436  16.882 -1.1594 -0.6114 -0.7066
  921MPD2    H113536   3.285   1.570  16.793 -0.3440 -1.1619  0.5194
  921MPD2    H213537   3.614   1.812  16.705  0.1177 -0.5720 -1.6693
  921MPD2    H313538   3.376   1.785  16.733  0.6753 -0.7367 -0.3962
  921MPD2     N13539   3.424   1.352  16.862 -0.3802 -0.4227  0.1479
  921MPD2    H513540   3.329   1.330  16.837  0.4738 -0.9064 -2.6949
  921MPD2    N113541   3.797   1.643  16.762  0.2067 -0.3268  0.3116
  921MPD2    H713542   3.820   1.725  16.707 -0.1723 -0.0717  0.5295
  922MPD2     C13543   0.037   4.278  17.313 -0.4015  0.1428  0.0485
  922MPD2    C113544   0.092   4.163  17.253  0.5323 -0.6261  0.4334
  922MPD2    C213545   0.040   4.037  17.303  0.0151  0.2634 -0.0247
  922MPD2    C313546   4.668   4.028  17.395  0.5306  0.5627  0.0276
  922MPD2    C413547   4.619   4.144  17.438  0.7447 -0.2154  0.4207
  922MPD2    C513548   4.672   4.269  17.404  0.3888  0.3161  0.2455
  922MPD2     H13549   0.073   3.939  17.269 -0.0204  0.3530 -0.3120
  922MPD2    H113550   4.538   4.146  17.510  0.8139 -1.2815  0.5278
  922MPD2    H213551   0.062   4.377  17.276  1.3987  0.2031  1.4603
  922MPD2    H313552   4.640   4.359  17.455  1.7127  0.6388  0.5026
  922MPD2     N13553   4.610   3.910  17.453 -0.0251  0.3727  0.3493
  922MPD2    H513554   4.533   3.924  17.517  0.6187 -0.2800  1.2759
  922MPD2    N113555   0.185   4.186  17.151  0.3174 -0.3433 -0.1603
  922MPD2    H713556   0.206   4.284  17.133 -0.5583  0.2271  1.8489
  923MPD2     C13557   0.723   2.241   8.642 -0.3194  0.3436  0.9394
  923MPD2    C113558   0.629   2.219   8.743 -0.1777 -1.2606  0.2569
  923MPD2    C213559   0.614   2.092   8.799  0.1036 -0.1788 -0.1292
  923MPD2    C313560   0.686   1.986   8.749  0.4882 -1.4551  1.0506
  923MPD2    C413561   0.772   2.007   8.640  0.2887  0.8269  0.0570
  923MPD2    C513562   0.791   2.132   8.587 -0.1245 -0.1318 -0.1433
  923MPD2     H13563   0.552   2.098   8.887  2.1917  1.3102  1.2324
  923MPD2    H113564   0.835   1.936   8.590  2.0146  1.7134  0.9928
  923MPD2    H213565   0.721   2.331   8.582  0.1785 -0.8928 -0.9257
  923MPD2    H313566   0.858   2.155   8.505  1.2471  0.6203  1.1868
  923MPD2     N13567   0.674   1.851   8.800 -0.0629 -0.3447  0.1836
  923MPD2    H513568   0.731   1.782   8.752  0.3975  0.3800 -0.3125
  923MPD2    N113569   0.565   2.341   8.776  0.8655 -0.6728  0.3746
  923MPD2    H713570   0.584   2.422   8.718 -3.4953 -1.4683 -2.1318
  924MPD2     C13571   1.058   4.247  16.182 -0.7094  0.2031  0.0879
  924MPD2    C113572   1.154   4.345  16.183 -0.3650 -0.5916  0.4883
  924MPD2    C213573   1.161   4.426  16.079 -0.2591  0.0072  0.5194
  924MPD2    C313574   1.069   4.428  15.975  0.3670 -1.1905  0.1862
  924MPD2    C413575   0.969   4.335  15.975 -0.0701  0.5140  0.0262
  924MPD2    C513576   0.968   4.241  16.079  0.1015 -0.3895 -0.7399
  924MPD2     H13577   1.229   4.511  16.073 -0.5980  0.3339  1.3268
  924MPD2    H113578   0.886   4.338  15.905 -0.0301 -0.9429 -0.0745
  924MPD2    H213579   1.055   4.168  16.256 -0.2569 -0.0606 -0.1790
  924MPD2    H313580   0.884   4.173  16.078 -1.2101  1.2119  0.6599
  924MPD2     N13581   1.084   4.521  15.871 -0.7508 -0.1861 -0.1938
  924MPD2    H513582   1.170   4.574  15.864  1.4843 -3.9081 -0.9153
  924MPD2    N113583   1.241   4.339  16.294  0.1954  0.0575  0.7524
  924MPD2    H713584   1.205   4.281  16.369 -0.7218 -0.2988  0.0480
  925MPD2     C13585   0.220   1.491  14.607 -0.2297  0.0297 -0.5021
  925MPD2    C113586   0.143   1.600  14.579 -0.3938  0.1947 -0.0464
  925MPD2    C213587   0.086   1.661  14.682 -0.4485 -0.4017  0.6877
  925MPD2    C313588   0.097   1.617  14.814 -0.1924 -0.2421  0.4896
  925MPD2    C413589   0.163   1.499  14.837  0.2420  0.0204  0.2767
  925MPD2    C513590   0.228   1.446  14.736  0.7363  0.6708 -0.4652
  925MPD2     H13591   0.030   1.750  14.655  1.6675 -0.3794 -3.5607
  925MPD2    H113592   0.155   1.446  14.931  1.7032  0.6191  0.7356
  925MPD2    H213593   0.271   1.427  14.535  2.4104 -0.9727  2.2511
  925MPD2    H313594   0.284   1.358  14.767 -2.4311 -0.5259  1.8768
  925MPD2     N13595   0.035   1.675  14.926  0.3246 -0.2321  0.1625
  925MPD2    H513596   0.019   1.616  15.007  2.2055 -1.2598 -0.2174
  925MPD2    N113597   0.124   1.656  14.454 -0.6427 -0.2006 -0.0138
  925MPD2    H713598   0.051   1.725  14.439  0.4088  1.3124  1.7601
  926MPD2     C13599   3.157   0.019  13.258 -0.4357 -0.1479  0.4808
  926MPD2    C113600   3.165   0.154  13.255 -0.3726  0.2901  0.7471
  926MPD2    C213601   3.241   0.221  13.158  0.0514 -0.4454 -0.3529
  926MPD2    C313602   3.308   0.136  13.064 -0.1980  0.8944  0.0658
  926MPD2    C413603   3.290   4.731  13.068 -0.0784 -0.0675 -0.2939
  926MPD2    C513604   3.212   4.674  13.163 -0.1831 -0.6269  0.3945
  926MPD2     H13605   3.248   0.328  13.151 -0.6044 -0.3331  0.6519
  926MPD2    H113606   3.342   4.666  12.998  0.3063  1.3271 -1.2925
  926MPD2    H213607   3.110   4.699  13.339 -0.5809 -1.6638 -0.6197
  926MPD2    H313608   3.192   4.568  13.157 -0.8628 -0.4253 -0.8448
  926MPD2     N13609   3.397   0.187  12.965  0.1955  0.0203  0.3102
  926MPD2    H513610   3.402   0.135  12.878 -0.4962  0.0002  0.2816
  926MPD2    N113611   3.118   0.233  13.361  0.5116  0.2313 -0.3184
  926MPD2    H713612   3.145   0.330  13.366 -0.2926  0.6463 -3.9240
  927MPD2     C13613   3.515   2.330   0.108  0.1529 -0.1917 -0.0405
  927MPD2    C113614   3.418   2.254   0.047 -0.6291 -0.1532  0.2137
  927MPD2    C213615   3.445   2.198  17.659  0.6037 -0.5198  0.4846
  927MPD2    C313616   3.573   2.204  17.607  0.2609 -0.2322 -0.6580
  927MPD2    C413617   3.672   2.277  17.675 -0.5000 -0.4304 -0.1740
  927MPD2    C513618   3.638   2.343   0.055  0.4775 -0.0115  0.1581
  927MPD2     H13619   3.365   2.152  17.601 -0.6192  1.3937  0.6417
  927MPD2    H113620   3.773   2.285  17.639 -0.4398 -1.2933 -0.1979
  927MPD2    H213621   3.499   2.377   0.205 -1.4794 -3.3187  1.1863
  927MPD2    H313622   3.709   2.398   0.116  0.2808  0.6313 -0.1871
  927MPD2     N13623   3.605   2.123  17.492  0.4803 -0.1432 -1.0187
  927MPD2    H513624   3.523   2.084  17.446  0.9522  0.0766 -2.0668
  927MPD2    N113625   3.291   2.259   0.111  0.7932 -0.0688  0.3726
  927MPD2    H713626   3.283   2.298   0.205 -1.4377  1.5096 -0.4925
  928MPD2     C13627   0.371   1.456   0.528 -0.0585 -0.5583  0.0352
  928MPD2    C113628   0.474   1.488   0.614  0.1054 -0.1067 -0.5236
  928MPD2    C213629   0.605   1.466   0.579 -0.1245  0.0923 -0.2315
  928MPD2    C313630   0.630   1.415   0.454 -1.0576  0.0468 -0.3484
  928MPD2    C413631   0.532   1.401   0.363 -0.0900  0.8533 -0.2784
  928MPD2    C513632   0.402   1.418   0.404 -0.1238 -0.7545 -0.2750
  928MPD2     H13633   0.686   1.473   0.651  1.5573  1.4477 -2.2241
  928MPD2    H113634   0.553   1.368   0.262 -0.6784 -0.8459  0.1546
  928MPD2    H213635   0.266   1.456   0.555 -0.1492 -0.4564 -0.3227
  928MPD2    H313636   0.320   1.382   0.343 -0.3923 -1.7337  0.6714
  928MPD2     N13637   0.764   1.393   0.407  0.0871 -0.5362 -0.0184
  928MPD2    H513638   0.772   1.363   0.311  0.2484 -1.6909  0.3505
  928MPD2    N113639   0.438   1.540   0.744  0.8382  0.2121 -0.1567
  928MPD2    H713640   0.340   1.538   0.771  0.4395  1.9903 -1.4666
  929MPD2     C13641   0.888   1.815   9.781  0.0507  0.3755  0.7969
  929MPD2    C113642   0.827   1.741   9.875  0.6928  0.1941 -0.5054
  929MPD2    C213643   0.688   1.720   9.865  0.3894 -0.0218 -1.2281
  929MPD2    C313644   0.612   1.793   9.771 -0.1261 -0.2431  0.1704
  929MPD2    C413645   0.681   1.880   9.696  0.4843 -0.4516  0.2221
  929MPD2    C513646   0.818   1.890   9.696  0.6265  0.1811 -0.0506
  929MPD2     H13647   0.639   1.679   9.952 -0.6607  1.8860 -0.9340
  929MPD2    H113648   0.625   1.940   9.625  1.1483 -0.5074 -0.3537
  929MPD2    H213649   0.994   1.834   9.775 -0.1549  0.6767 -1.7452
  929MPD2    H313650   0.869   1.952   9.624  0.0398 -0.5012 -1.0616
  929MPD2     N13651   0.468   1.798   9.769 -0.2888  0.2620 -0.4259
  929MPD2    H513652   0.418   1.869   9.717 -0.4268 -0.0283 -0.6894
  929MPD2    N113653   0.905   1.696   9.992 -0.6620 -0.4304  0.5751
  929MPD2    H713654   1.001   1.728   9.986 -0.6423  0.0036  3.1710
  930MPD2     C13655   3.020   3.010  13.826 -0.3699 -0.7271 -0.0473
  930MPD2    C113656   3.118   3.066  13.742  0.9987 -0.2320 -0.5806
  930MPD2    C213657   3.148   3.005  13.622 -0.2920  0.0469  0.4733
  930MPD2    C313658   3.076   2.901  13.568 -0.1914 -0.1404 -0.0399
  930MPD2    C413659   2.979   2.846  13.649  0.3321  0.6234 -0.5565
  930MPD2    C513660   2.950   2.901  13.769  0.2130  0.4535 -0.3304
  930MPD2     H13661   3.233   3.055  13.579 -0.9918  0.2498 -0.6774
  930MPD2    H113662   2.913   2.765  13.619 -1.7219  2.2270 -0.3222
  930MPD2    H213663   3.005   3.051  13.925  1.4146 -1.9192  0.7051
  930MPD2    H313664   2.876   2.852  13.831  1.4719 -1.6228 -0.4656
  930MPD2     N13665   3.114   2.829  13.452 -0.0883  0.6085  0.1877
  930MPD2    H513666   3.084   2.733  13.449  3.6165 -0.5539 -0.0154
  930MPD2    N113667   3.186   3.176  13.794 -0.1442 -0.4206 -0.3137
  930MPD2    H713668   3.165   3.197  13.891  1.8965  1.5004 -0.3085
  931MPD2     C13669   2.860   2.469   0.744 -0.2764 -0.3049 -1.1323
  931MPD2    C113670   2.935   2.365   0.702 -0.1411  0.7421  0.0133
  931MPD2    C213671   3.010   2.285   0.788 -0.3855  0.6256  0.9630
  931MPD2    C313672   2.996   2.312   0.922  0.4581 -0.3728 -1.0482
  931MPD2    C413673   2.920   2.416   0.965  0.2997 -0.4921  0.4703
  931MPD2    C513674   2.847   2.488   0.875  1.2163  0.4510  0.0814
  931MPD2     H13675   3.072   2.202   0.757 -1.9096 -0.0387 -0.2974
  931MPD2    H113676   2.907   2.438   1.070 -2.0355 -0.2432  0.1329
  931MPD2    H213677   2.801   2.528   0.674  0.8386  0.4253 -1.4588
  931MPD2    H313678   2.788   2.573   0.910  0.1692 -0.0906 -0.3744
  931MPD2     N13679   3.057   2.232   1.025  0.3178  0.0264 -0.1585
  931MPD2    H513680   3.034   2.245   1.123 -1.0274  0.1654 -0.4892
  931MPD2    N113681   2.937   2.341   0.569  0.3533 -0.3993 -0.4011
  931MPD2    H713682   2.900   2.413   0.509 -0.4900 -0.7539 -0.3077
  932MPD2     C13683   0.456   1.757  10.894  0.0597  0.0902  0.0311
  932MPD2    C113684   0.416   1.762  11.027 -0.6668 -0.6218 -0.0043
  932MPD2    C213685   0.485   1.686  11.122 -0.3359 -0.0191 -0.1721
  932MPD2    C313686   0.588   1.607  11.093  0.2373  0.5702 -0.3280
  932MPD2    C413687   0.625   1.601  10.960  1.0948  0.3504  0.0903
  932MPD2    C513688   0.570   1.677  10.863 -0.2231 -0.4633  0.1731
  932MPD2     H13689   0.462   1.696  11.227 -1.5495  1.6918 -0.6065
  932MPD2    H113690   0.712   1.544  10.928 -0.1424 -1.8484  0.6249
  932MPD2    H213691   0.407   1.800  10.807 -0.0402 -0.6371 -0.2757
  932MPD2    H313692   0.608   1.668  10.762  2.1110  0.5757  0.9501
  932MPD2     N13693   0.667   1.538  11.186  0.0594 -0.0294  0.4449
  932MPD2    H513694   0.746   1.485  11.152 -0.6796 -1.0457  0.3148
  932MPD2    N113695   0.311   1.849  11.068  0.5208  0.6394  0.0214
  932MPD2    H713696   0.291   1.860  11.167 -2.5567 -1.9742 -0.3200
  933MPD2     C13697   4.583   1.499   1.060  0.0798  0.9422 -0.2563
  933MPD2    C113698   4.655   1.598   1.112 -0.2268  0.0357  0.1868
  933MPD2    C213699   4.588   1.704   1.169  0.2320 -0.0688 -0.0508
  933MPD2    C313700   4.451   1.698   1.175  0.4981  1.0662  0.0972
  933MPD2    C413701   4.378   1.586   1.131 -0.0824  0.0850 -0.1128
  933MPD2    C513702   4.449   1.489   1.068 -0.1724  0.1167 -0.0361
  933MPD2     H13703   4.645   1.792   1.198  1.3004 -0.4810 -0.9017
  933MPD2    H113704   4.270   1.574   1.142 -0.4489  2.4939 -1.0317
  933MPD2    H213705   4.638   1.424   1.005  0.5498  0.0764  1.3718
  933MPD2    H313706   4.403   1.402   1.021  0.0174  0.4834 -0.9106
  933MPD2     N13707   4.379   1.805   1.232 -0.5207 -0.1739 -0.1983
  933MPD2    H513708   4.428   1.888   1.265  1.2145 -1.5209  0.5803
  933MPD2    N113709   0.060   1.592   1.087  0.0390  0.0054 -0.1386
  933MPD2    H713710   0.099   1.521   1.026 -1.8735  0.0187 -1.3723
  934MPD2     C13711   2.054   3.689   1.732  0.4582  0.1496 -0.3829
  934MPD2    C113712   2.112   3.638   1.618 -0.4370  0.7615 -0.2093
  934MPD2    C213713   2.045   3.551   1.537 -0.2442  0.6915 -0.0734
  934MPD2    C313714   1.911   3.522   1.570 -0.3229 -0.3555  0.3057
  934MPD2    C413715   1.850   3.585   1.677 -0.2506 -0.5779 -1.3228
  934MPD2    C513716   1.921   3.668   1.757 -0.0038  0.2889  0.1374
  934MPD2     H13717   2.091   3.533   1.441 -2.0551 -0.1383 -0.7810
  934MPD2    H113718   1.750   3.559   1.709  0.9252 -0.8529  2.1330
  934MPD2    H213719   2.119   3.752   1.791 -1.5678  0.8400  1.0856
  934MPD2    H313720   1.869   3.715   1.839  0.1939 -0.5653  0.7561
  934MPD2     N13721   1.837   3.438   1.493 -0.5826 -0.3516 -0.5004
  934MPD2    H513722   1.738   3.433   1.516  0.1176 -1.4225  2.2451
  934MPD2    N113723   2.257   3.653   1.597  0.0429  0.1958 -0.0598
  934MPD2    H713724   2.287   3.597   1.517 -2.6327 -2.3250  0.7074
  935MPD2     C13725   2.057   2.539   1.145 -0.3439 -0.3339  1.2534
  935MPD2    C113726   1.976   2.590   1.047 -0.2556 -0.2688  0.1225
  935MPD2    C213727   1.914   2.716   1.054 -0.1778 -0.1291  0.2617
  935MPD2    C313728   1.941   2.793   1.164  0.3877  0.3655 -0.0577
  935MPD2    C413729   2.034   2.749   1.255 -0.5157  0.6362  0.5155
  935MPD2    C513730   2.088   2.621   1.249  0.4702  0.1745 -0.4926
  935MPD2     H13731   1.846   2.742   0.973 -1.4813  0.8233  1.6561
  935MPD2    H113732   2.060   2.807   1.342  0.6910  1.0045 -0.0898
  935MPD2    H213733   2.097   2.439   1.145 -0.5578 -0.4139  1.9516
  935MPD2    H313734   2.144   2.584   1.334 -1.4987  2.2496  1.7081
  935MPD2     N13735   1.871   2.913   1.197 -0.4321  0.4176  0.3334
  935MPD2    H513736   1.885   2.964   1.284  1.4858  0.8320 -0.2315
  935MPD2    N113737   1.948   2.510   0.935  0.3071 -0.1810 -0.4382
  935MPD2    H713738   1.881   2.559   0.877  0.2163 -0.1935 -0.3435
  936MPD2     C13739   1.088   4.655  12.435  0.5690 -0.5839 -0.4513
  936MPD2    C113740   1.086   4.683  12.570  0.1166  0.2014 -0.2987
  936MPD2    C213741   1.178   0.036  12.626 -0.7932  0.5016  0.8478
  936MPD2    C313742   1.275   0.089  12.550  0.7681 -0.3851  0.3684
  936MPD2    C413743   1.279   0.053  12.412 -0.5699 -0.3625 -0.4077
  936MPD2    C513744   1.186   4.707  12.355  0.0506  0.0517  0.3106
  936MPD2     H13745   1.179   0.067  12.730 -0.4794 -0.4972  1.1472
  936MPD2    H113746   1.357   0.095  12.350 -0.6096 -1.0355 -0.9133
  936MPD2    H213747   1.007   4.595  12.397 -1.8659  3.3766 -1.4692
  936MPD2    H313748   1.177   4.695  12.247 -0.2782 -2.5057  0.6283
  936MPD2     N13749   1.368   0.182  12.599 -0.1805  0.4714  0.4995
  936MPD2    H513750   1.418   0.233  12.527 -2.5250  0.4110 -1.1614
  936MPD2    N113751   0.989   4.634  12.663 -0.6591 -0.5831  0.3157
  936MPD2    H713752   1.005   4.669  12.757  0.1946 -0.9514  0.3083
  937MPD2     C13753   3.018   1.900  11.734 -0.1450  0.2583  0.2875
  937MPD2    C113754   2.954   2.017  11.748  0.3893 -0.6179  0.0681
  937MPD2    C213755   2.974   2.113  11.644 -0.0827  0.0881 -0.1168
  937MPD2    C313756   3.039   2.085  11.524 -0.5230  0.2197  0.8034
  937MPD2    C413757   3.105   1.958  11.514 -0.2863 -0.4139 -0.6347
  937MPD2    C513758   3.104   1.879  11.626  0.4823  0.4012 -0.3214
  937MPD2     H13759   2.930   2.212  11.657 -0.2442 -0.1289  1.0093
  937MPD2    H113760   3.156   1.919  11.425  0.4534 -0.9186  0.0071
  937MPD2    H213761   3.010   1.814  11.798  2.3485  0.5483  0.9993
  937MPD2    H313762   3.151   1.783  11.612  0.9955  0.8295 -1.5114
  937MPD2     N13763   3.028   2.182  11.427 -0.0726  0.2608  0.2430
  937MPD2    H513764   2.979   2.267  11.452 -0.6779 -0.2539  0.8241
  937MPD2    N113765   2.890   2.057  11.869  0.6449  0.1261 -0.2890
  937MPD2    H713766   2.836   2.143  11.872 -0.5353 -0.6097 -0.3204
  938MPD2     C13767   1.170   2.855   0.460 -0.5542 -0.1775 -0.4665
  938MPD2    C113768   1.234   2.930   0.557 -0.7541  0.0591 -0.4274
  938MPD2    C213769   1.235   2.882   0.689 -0.3122  0.5670 -0.2438
  938MPD2    C313770   1.159   2.770   0.723  0.3996  0.3870  0.0426
  938MPD2    C413771   1.088   2.702   0.620 -0.1212 -0.0162 -0.6136
  938MPD2    C513772   1.097   2.746   0.492 -0.6349  0.4558 -0.1897
  938MPD2     H13773   1.283   2.942   0.766  0.4492  0.4219 -0.5986
  938MPD2    H113774   1.029   2.614   0.646 -0.1715  0.4339  0.7846
  938MPD2    H213775   1.152   2.890   0.359  0.2184  0.6782 -0.3091
  938MPD2    H313776   1.037   2.687   0.424 -0.6283  1.6666 -1.2296
  938MPD2     N13777   1.128   2.745   0.862 -0.2745  0.0987  0.5667
  938MPD2    H513778   1.046   2.690   0.884 -0.6153  0.6066  0.5430
  938MPD2    N113779   1.296   3.060   0.538  0.8000 -0.3735  0.1453
  938MPD2    H713780   1.327   3.109   0.622 -0.2760 -2.1073  1.5579
  939MPD2     C13781   2.224   3.866   0.556 -0.1371 -0.4329  0.1656
  939MPD2    C113782   2.109   3.888   0.480  0.3638  0.1107 -0.1283
  939MPD2    C213783   2.064   3.783   0.397  0.2578  0.8360 -0.0609
  939MPD2    C313784   2.143   3.670   0.384  0.4546 -0.1861  0.4054
  939MPD2    C413785   2.253   3.652   0.459  0.5481 -0.0064  0.5173
  939MPD2    C513786   2.293   3.747   0.551 -0.2879  0.2387 -0.2633
  939MPD2     H13787   1.971   3.791   0.342  0.0317 -0.7732  0.0863
  939MPD2    H113788   2.306   3.557   0.461  0.4104 -0.0771  0.9621
  939MPD2    H213789   2.268   3.946   0.613 -0.1893 -1.3056  1.4320
  939MPD2    H313790   2.383   3.736   0.610 -1.1385  0.4972  1.0789
  939MPD2     N13791   2.090   3.570   0.295 -0.6143 -0.5501  0.1394
  939MPD2    H513792   1.990   3.573   0.277 -0.5652  1.8930  0.2732
  939MPD2    N113793   2.028   4.006   0.502  0.4551 -0.0463 -0.0533
  939MPD2    H713794   2.067   4.064   0.575 -0.2121  0.0151  0.2532
  940MPD2     C13795   1.299   0.348  13.638 -0.1691 -1.1574  0.7781
  940MPD2    C113796   1.284   0.211  13.617 -1.0203 -0.3706 -0.1109
  940MPD2    C213797   1.328   0.152  13.497 -0.3681 -0.6029 -0.1389
  940MPD2    C313798   1.393   0.215  13.397  0.2446  0.3861 -0.0780
  940MPD2    C413799   1.396   0.356  13.419 -0.0745 -0.4295 -0.6338
  940MPD2    C513800   1.353   0.420  13.538  0.4157 -0.1638 -0.4026
  940MPD2     H13801   1.321   0.045  13.485  2.3164 -0.6018 -1.5392
  940MPD2    H113802   1.436   0.426  13.346 -0.9076  0.4361 -0.2597
  940MPD2    H213803   1.267   0.400  13.728  0.7269  0.8577 -0.0616
  940MPD2    H313804   1.362   0.528  13.550  0.2471 -0.2456  0.5018
  940MPD2     N13805   1.444   0.166  13.270  0.6523  0.3689 -0.2094
  940MPD2    H513806   1.489   0.236  13.211  3.5187 -0.9052  0.4531
  940MPD2    N113807   1.216   0.127  13.707  0.6541 -0.2368  0.4580
  940MPD2    H713808   1.194   0.033  13.674  0.2920  0.2935 -0.7987
  941MPD2     C13809   0.056   0.252  10.142 -0.1876 -0.3228  0.8633
  941MPD2    C113810   0.121   0.156  10.070  0.1787 -0.0367  0.1429
  941MPD2    C213811   0.050   0.033  10.057  0.1628 -0.4936 -0.0052
  941MPD2    C313812   4.671   0.001  10.131 -0.2386 -0.5515  0.5172
  941MPD2    C413813   4.628   0.100  10.222  0.2190  0.0708 -0.1079
  941MPD2    C513814   4.682   0.225  10.217 -0.0119 -0.2078 -0.0366
  941MPD2     H13815   0.087   4.695   9.985  1.9870  1.2717 -0.8421
  941MPD2    H113816   4.537   0.076  10.276  0.2358  1.2015  0.4110
  941MPD2    H213817   0.095   0.353  10.154 -0.5473  0.1014 -1.6228
  941MPD2    H313818   4.636   0.301  10.279 -1.8735 -0.2102 -1.3940
  941MPD2     N13819   4.603   4.612  10.116 -0.6795  0.0128  0.7611
  941MPD2    H513820   4.531   4.590  10.185 -0.9318 -0.5732  0.3113
  941MPD2    N113821   0.247   0.164  10.001  0.4105  0.0841 -0.0219
  941MPD2    H713822   0.286   0.081   9.958  1.7727  0.8784 -0.3097
  942MPD2     C13823   4.398   2.178   9.266 -0.5444  0.4130 -0.0980
  942MPD2    C113824   4.389   2.042   9.272  0.1326 -0.0141 -0.5144
  942MPD2    C213825   4.499   1.968   9.224 -0.0310 -0.2065  0.3565
  942MPD2    C313826   4.619   2.023   9.186  0.1071 -0.1105 -0.0848
  942MPD2    C413827   4.629   2.158   9.182  0.0978 -0.6626 -0.2689
  942MPD2    C513828   4.522   2.234   9.218 -1.2987 -0.3382  0.7466
  942MPD2     H13829   4.489   1.860   9.226 -1.0477 -0.1316 -0.3474
  942MPD2    H113830   4.717   2.214   9.155 -0.9566  1.6171  0.9955
  942MPD2    H213831   4.316   2.240   9.301  0.1839  0.4000  1.6123
  942MPD2    H313832   4.533   2.342   9.212 -0.4545 -0.4326  0.4904
  942MPD2     N13833   4.727   1.939   9.140  0.4379  0.3896 -0.7070
  942MPD2    H513834   0.084   1.982   9.137 -0.4299  2.4953  2.6820
  942MPD2    N113835   4.280   1.969   9.319  0.0507 -0.1891  0.7454
  942MPD2    H713836   4.298   1.869   9.325  2.0248  0.0919 -0.8234
  943MPD2     C13837   3.691   4.637   9.943 -0.4937 -0.0710  0.6770
  943MPD2    C113838   3.596   4.608  10.041  0.7589 -0.0476  0.0994
  943MPD2    C213839   3.608   4.659  10.167  0.3314 -0.8067 -0.4276
  943MPD2    C313840   3.711   0.001  10.200 -0.7548 -0.1764 -0.5667
  943MPD2    C413841   3.810   0.023  10.104  0.6283  0.4363 -0.1765
  943MPD2    C513842   3.797   4.715   9.972  0.5465  0.1202  0.2322
  943MPD2     H13843   3.535   4.633  10.242 -0.1422  0.0179 -0.5973
  943MPD2    H113844   3.884   0.098  10.127  0.7584  0.2390  0.0514
  943MPD2    H213845   3.676   4.603   9.841  0.1255  1.6142  0.0134
  943MPD2    H313846   3.875   0.004   9.902  0.0751 -1.0454 -0.6878
  943MPD2     N13847   3.731   0.054  10.331  0.1080 -0.3648  0.8140
  943MPD2    H513848   3.806   0.121  10.349  2.2754 -2.2261 -1.2937
  943MPD2    N113849   3.498   4.524   9.987  0.6882  0.0387  0.4215
  943MPD2    H713850   3.511   4.484   9.894 -2.4786  0.0246 -0.0028
  944MPD2     C13851   2.830   3.761  11.048 -0.5230 -0.0349  0.3354
  944MPD2    C113852   2.893   3.879  11.009  0.0872 -0.0603  0.5316
  944MPD2    C213853   2.896   3.980  11.103 -0.6367 -0.1113  0.0404
  944MPD2    C313854   2.846   3.973  11.232 -0.2670 -0.5617  0.0408
  944MPD2    C413855   2.798   3.848  11.269 -0.0817 -0.0749 -0.0952
  944MPD2    C513856   2.790   3.745  11.177 -0.0222  0.3905 -0.0523
  944MPD2     H13857   2.944   4.074  11.077 -1.3002  0.1583 -0.2090
  944MPD2    H113858   2.781   3.831  11.375  1.3823  0.4684  0.2382
  944MPD2    H213859   2.836   3.672  10.986 -1.4778  1.1480 -1.4688
  944MPD2    H313860   2.742   3.655  11.216  0.7274  0.7254  1.6274
  944MPD2     N13861   2.864   4.093  11.309  0.5171  0.1232  0.5729
  944MPD2    H513862   2.927   4.166  11.278  1.5661 -1.0453 -0.0961
  944MPD2    N113863   2.948   3.882  10.880 -0.5145  0.6593 -0.1342
  944MPD2    H713864   2.945   3.796  10.826  0.6404  0.8197 -0.4480
    1TMC1    C113865   1.274   3.981  14.869 -0.2772  0.5918  0.5752
    1TMC1    C213866   1.190   3.876  14.889  0.0651 -0.0406  0.1276
    1TMC1    C313867   1.155   3.794  14.783 -0.2007  0.1231 -0.2654
    1TMC1    C413868   1.315   4.008  14.738 -0.5205  0.6945 -0.7301
    1TMC1    C513869   1.268   3.924  14.637  0.4030 -0.6123 -0.6878
    1TMC1    C613870   1.186   3.819  14.658  0.5367 -0.5116  0.5023
    1TMC1     C13871   1.334   4.040  14.988  0.0741  0.5661 -0.0779
    1TMC1     O13872   1.315   3.984  15.096  0.6453 -0.3838  0.7174
    1TMC1     H13873   1.153   3.850  14.988 -0.0821 -0.5168 -0.0545
    1TMC1    H113874   1.381   4.089  14.709  1.6417 -0.8398 -0.0595
    1TMC1    H213875   1.183   3.737  14.588 -0.5444 -0.6793  0.7405
    1TMC1    C713876   1.249   4.004  14.513 -1.2492  0.1992  0.3883
    1TMC1    C813877   1.077   3.673  14.824 -0.1042  0.1167 -0.4118
    1TMC1    O113878   1.306   4.107  14.481 -0.2399  0.3223  0.7507
    1TMC1    O213879   1.070   3.629  14.934 -0.1117 -0.1863  0.2045
    1TMC1    O313880   1.128   3.967  14.460  0.1931 -0.7162 -0.0073
    1TMC1    H313881   1.077   3.897  14.506  0.2568 -0.5022  0.3878
    1TMC1    O513882   0.993   3.634  14.724  0.5428 -0.3827  0.2499
    1TMC1    H513883   0.995   3.695  14.647 -1.3611 -1.0836 -0.3411
    2MPD2     C13884   1.499   4.447  15.255 -0.4822 -0.2878  0.4259
    2MPD2    C113885   1.501   4.476  15.121  0.5109  0.0173  1.1697
    2MPD2    C213886   1.454   4.383  15.031  0.3925 -0.3245  0.0235
    2MPD2    C313887   1.417   4.258  15.070 -0.5179 -0.1170  0.1127
    2MPD2    C413888   1.416   4.222  15.203 -0.5192  0.2971  0.5948
    2MPD2    C513889   1.454   4.323  15.293 -0.5871 -0.2389 -0.9406
    2MPD2     H13890   1.467   4.392  14.924  1.5891 -1.5817  0.0582
    2MPD2    H113891   1.387   4.126  15.244 -2.0565  1.1687  1.5579
    2MPD2    H213892   1.543   4.511  15.330  2.4843 -1.1886 -0.5259
    2MPD2    H313893   1.441   4.299  15.398  1.0356 -0.2889 -0.7453
    2MPD2     N13894   1.383   4.166  14.966 -0.4094 -0.2809  0.2439
    2MPD2    H513895   1.393   4.202  14.872  1.6584  0.7139  0.8348
    2MPD2    N113896   1.561   4.602  15.083 -0.2906 -0.4959 -0.4993
    2MPD2    H713897   1.595   4.660  15.159 -0.5116  1.4758 -1.8989
    3TMC2    C113898   1.591   0.055  14.964 -0.0047 -0.3018  0.1229
    3TMC2    C213899   1.512   0.136  15.042 -0.1333 -0.2127  0.2585
    3TMC2    C313900   1.502   0.266  14.997  0.1886  0.2218  0.0187
    3TMC2    C413901   1.631   0.088  14.838  0.2140  1.0193  0.8839
    3TMC2    C513902   1.603   0.215  14.796 -0.1665 -0.4594 -0.0001
    3TMC2    C613903   1.553   0.314  14.880  0.2267  0.4445  0.0277
    3TMC2     C13904   1.560   4.649  14.955 -0.6860 -0.2960 -0.5327
    3TMC2     O13905   1.507   4.604  14.854  0.5588  0.1391  0.4130
    3TMC2     H13906   1.461   0.104  15.132 -2.1699 -0.6030 -1.0460
    3TMC2    H113907   1.687   0.021  14.774 -1.1334  0.8484 -0.1153
    3TMC2    H213908   1.546   0.420  14.859  1.3960  0.4141 -0.5173
    3TMC2    C713909   1.675   0.258  14.675 -0.0199  0.3596 -0.8182
    3TMC2    C813910   1.430   0.364  15.082  0.2033  0.0577 -0.2546
    3TMC2    O113911   1.764   0.186  14.636 -0.0237  0.1740  0.4072
    3TMC2    O213912   1.457   0.482  15.083 -0.0205 -0.5767  0.0409
    3TMC2    O513913   1.318   0.304  15.132 -0.7002 -0.2058  0.0668
    3TMC2    H513914   1.306   0.216  15.090  0.3175 -0.6405  0.6895
    4TMC2    C113915   1.085   0.624  13.994  0.2320 -0.7671  0.3849
    4TMC2    C213916   1.145   0.692  13.891  0.2793  0.1098 -0.1889
    4TMC2    C313917   1.269   0.745  13.919  0.6050 -0.4502 -0.0248
    4TMC2    C413918   1.147   0.605  14.122  0.1598 -0.8899 -0.1165
    4TMC2    C513919   1.277   0.648  14.133 -0.4250  1.1062 -0.2116
    4TMC2    C613920   1.338   0.715  14.031  0.4607  0.0990 -0.4757
    4TMC2     C13921   0.970   0.545  13.974 -0.5804 -0.5333  0.3418
    4TMC2     O13922   0.928   0.481  14.068 -0.3175 -0.3098 -0.0475
    4TMC2     H13923   1.104   0.704  13.792  2.2596  1.4061 -0.8537
    4TMC2    H113924   1.112   0.535  14.197 -0.0975  0.6722  1.2321
    4TMC2    H213925   1.440   0.753  14.030 -0.0734  1.4898 -2.2222
    4TMC2    C713926   1.360   0.591  14.239 -0.0072  0.1036 -0.3266
    4TMC2    C813927   1.326   0.818  13.806 -0.1308 -0.0272 -0.0740
    4TMC2    O113928   1.304   0.521  14.317  0.1780  0.2367  0.5154
    4TMC2    O213929   1.250   0.883  13.732 -0.1344 -0.0059  0.1157
    4TMC2    O513930   1.455   0.784  13.781  0.4072 -0.2833 -0.4578
    4TMC2    H513931   1.494   0.712  13.835  0.8279 -0.2193 -0.6728
    5MPD2     C13932   0.625   0.281  13.686 -0.2875 -0.1125  0.0336
    5MPD2    C113933   0.705   0.367  13.603 -0.0032 -0.4994 -0.8487
    5MPD2    C213934   0.801   0.448  13.663 -0.2946 -0.1963 -0.7171
    5MPD2    C313935   0.825   0.453  13.799 -0.0473  0.6288 -0.0073
    5MPD2    C413936   0.737   0.375  13.881  0.8455 -0.6649 -0.9448
    5MPD2    C513937   0.647   0.286  13.815  0.0141 -0.2898 -0.0991
    5MPD2     H13938   0.861   0.517  13.605 -1.4432  0.6466 -0.8894
    5MPD2    H113939   0.739   0.390  13.988  2.4107 -2.1738 -0.7643
    5MPD2    H213940   0.547   0.216  13.648 -0.0448  1.0594 -2.5019
    5MPD2    H313941   0.584   0.221  13.873  0.5099  0.4913  1.3164
    5MPD2     N13942   0.933   0.529  13.841 -0.4136 -0.1866  0.1827
    5MPD2    H513943   0.991   0.570  13.768  0.9036 -3.1915 -0.4604
    5MPD2    N113944   0.683   0.369  13.463 -0.4914  0.7377 -0.0804
    5MPD2    H713945   0.616   0.303  13.425 -1.6843  2.4147 -0.8858
    6MPD1     C13946   0.222   1.481  13.420 -0.8267  0.6667 -1.1817
    6MPD1    C113947   0.121   1.392  13.421 -0.2789  1.0593 -0.6288
    6MPD1    C213948   0.099   1.324  13.309  0.1604  0.2299 -0.0469
    6MPD1    C313949   0.180   1.340  13.194 -0.7962  0.7581 -0.0479
    6MPD1    C413950   0.284   1.424  13.199  0.0977  0.7265  0.1902
    6MPD1    C513951   0.303   1.497  13.307 -0.3420  0.0888 -0.4753
    6MPD1     H13952   0.007   1.267  13.308 -0.3623  1.0678  0.7505
    6MPD1    H113953   0.328   1.436  13.100  2.0425  0.0960  0.9796
    6MPD1    H213954   0.252   1.535  13.509 -0.4616 -2.2895  0.5010
    6MPD1    H313955   0.389   1.561  13.324 -1.4092  1.8026 -1.6168
    6MPD1     N13956   0.148   1.272  13.068 -0.6077  0.5879  0.2440
    6MPD1    H513957   0.210   1.294  12.991 -0.8419 -1.1035 -0.4141
    6MPD1    N113958   0.038   1.383  13.530  0.0100  0.0183 -0.5559
    6MPD1    H613959   0.086   1.397  13.618 -0.4484 -1.0589 -0.1280
    6MPD1    H713960   4.708   1.304  13.536  2.6802 -1.9255  2.1391
    7MPD2     C13961   4.701   0.569  12.910  0.0744  0.4560  0.3186
    7MPD2    C113962   0.074   0.653  12.891  0.5895  0.6330  0.5959
    7MPD2    C213963   0.208   0.616  12.924 -0.8236 -0.4751  0.9490
    7MPD2    C313964   0.226   0.486  12.982  0.0536 -0.1894 -0.3224
    7MPD2    C413965   0.116   0.405  12.988 -0.0353  0.4153 -0.3999
    7MPD2    C513966   4.718   0.447  12.959  0.4311  0.0810 -0.2567
    7MPD2     H13967   0.291   0.686  12.920 -1.4393  0.1061 -1.3666
    7MPD2    H113968   0.127   0.304  13.025 -0.4272  0.7644  0.6480
    7MPD2    H213969   4.603   0.605  12.883 -1.1578 -0.9105  3.0231
    7MPD2    H313970   4.637   0.376  12.970  1.1228 -0.5543  0.7406
    7MPD2     N13971   0.358   0.451  13.016  0.4206 -0.0529  0.1855
    7MPD2    H513972   0.422   0.528  12.998  0.8645 -0.5113 -0.1938
    7MPD2    N113973   0.051   0.782  12.836  0.2578 -0.2184 -0.2975
    7MPD2    H713974   0.141   0.827  12.824 -1.7195  3.4824 -1.1849
    8TMC3    C113975   0.543   0.336  13.083 -0.2290  0.3744 -0.2041
    8TMC3    C213976   0.572   0.353  13.218 -0.3004 -0.3031 -0.8530
    8TMC3    C313977   0.685   0.430  13.237 -0.7127  0.8894 -0.0884
    8TMC3    C413978   0.612   0.402  12.983 -0.4779  0.6735  0.8123
    8TMC3    C513979   0.706   0.490  13.014  0.1496 -0.2105  0.3163
    8TMC3    C613980   0.750   0.500  13.142  0.8004  0.7413 -0.2918
    8TMC3     C13981   0.402   0.338  13.080  0.0229  0.5991  0.3220
    8TMC3     O13982   0.338   0.259  13.149 -0.1821  0.4903  0.3764
    8TMC3     H13983   0.520   0.293  13.291  0.2666 -0.2970 -0.4408
    8TMC3    H113984   0.571   0.413  12.883  0.8968  1.2724  0.3120
    8TMC3    H213985   0.839   0.558  13.165  1.8508 -0.2937 -1.8066
    8TMC3    C713986   0.691   0.622  12.944 -0.4730 -0.1194  0.4020
    8TMC3    C813987   0.737   0.462  13.370  0.5248  0.7509 -0.3660
    8TMC3    O113988   0.682   0.718  13.016  0.7387  0.2378  0.3522
    8TMC3    O213989   0.802   0.566  13.387 -0.2736 -0.0554 -0.0737
    9TMC3    C113990   0.030   1.154  12.903 -0.2578 -0.6401 -0.3151
    9TMC3    C213991   0.134   1.184  12.816  0.0319 -0.6355 -0.3629
    9TMC3    C313992   0.140   1.110  12.702  0.3845 -0.2891  0.1419
    9TMC3    C413993   4.674   1.053  12.883 -0.5038 -0.7591 -0.1708
    9TMC3    C513994   4.694   0.976  12.773  0.5209  0.3330  0.3943
    9TMC3    C613995   0.061   0.996  12.682 -0.8961 -0.1728 -0.7297
    9TMC3     C13996   0.034   1.207  13.039  0.8063  0.0642  0.3375
    9TMC3     O13997   4.669   1.184  13.112 -0.0182 -0.3985 -0.7402
    9TMC3     H13998   0.196   1.272  12.816  3.3074 -2.9791  3.1504
    9TMC3    H113999   4.597   1.030  12.956 -0.3690  1.7942  0.7784
    9TMC3    H214000   0.055   0.934  12.594 -3.0509  1.6069 -1.8157
    9TMC3    C714001   4.668   0.843  12.807 -0.6006  0.6421  0.0446
    9TMC3    C814002   0.276   1.078  12.658  0.5405  0.0412 -0.0268
    9TMC3    O114003   4.562   0.825  12.865 -1.1969  0.3359 -0.6425
    9TMC3    O214004   0.325   1.131  12.556 -0.2669  0.1397 -1.0562
   10MPD2     C14005   0.564   0.658  12.606  0.4904  0.5164 -0.6772
   10MPD2    C114006   0.580   0.699  12.734  0.5192  0.0499 -0.2559
   10MPD2    C214007   0.497   0.810  12.776  0.4989 -0.6008 -0.1201
   10MPD2    C314008   0.420   0.881  12.684 -0.7428 -0.6343 -0.2223
   10MPD2    C414009   0.407   0.838  12.555  0.2494  0.3799  0.1472
   10MPD2    C514010   0.481   0.729  12.520  0.0908 -0.0826 -0.6435
   10MPD2     H14011   0.486   0.824  12.883  2.6486  0.9036 -0.0970
   10MPD2    H114012   0.352   0.884  12.474  1.2437  1.0297 -0.1468
   10MPD2    H214013   0.626   0.580  12.564 -2.1135 -1.8665 -0.0631
   10MPD2    H314014   0.480   0.694  12.418 -0.0785  0.0988 -0.7052
   10MPD2     N14015   0.327   0.972  12.732 -0.2199  0.4620  0.2645
   10MPD2    H514016   0.305   0.963  12.831  1.1148  1.4314  0.6475
   10MPD2    N114017   0.658   0.617  12.810  0.6323  0.2297 -0.2301
   10MPD2    H714018   0.687   0.530  12.766 -2.0635 -1.1307  0.6929
   11MPD2     C14019   1.775   0.406  14.445  0.3720 -0.0033  0.5809
   11MPD2    C114020   1.654   0.421  14.494  0.6558  0.2334 -0.2769
   11MPD2    C214021   1.562   0.507  14.434  0.9619  0.5810  0.3829
   11MPD2    C314022   1.592   0.551  14.307  0.3500  0.7397  0.0651
   11MPD2    C414023   1.715   0.538  14.252 -0.0252  0.1840  0.2742
   11MPD2    C514024   1.808   0.469  14.325  0.0531 -0.4138  0.7271
   11MPD2     H14025   1.467   0.531  14.481  1.6773  0.3971  1.9168
   11MPD2    H114026   1.736   0.587  14.157 -2.3579  0.0502 -0.3017
   11MPD2    H214027   1.849   0.348  14.499  0.4391 -1.0439 -0.6162
   11MPD2    H314028   1.907   0.449  14.286  0.0630 -2.0599  1.5672
   11MPD2     N14029   1.493   0.617  14.226  0.0046 -0.1189  0.0213
   11MPD2    H514030   1.530   0.664  14.144  1.1987  0.1821  0.7299
   11MPD2    N114031   1.613   0.360  14.616  0.3580 -0.5218  0.2455
   11MPD2    H714032   1.523   0.384  14.654 -0.2902  1.4191 -2.5529
    1MPD1     C14033   4.426   1.564  17.181 -0.0652 -0.3285  0.3278
    1MPD1    C114034   4.560   1.560  17.212 -0.7993  0.5362  0.0449
    1MPD1    C214035   4.647   1.651  17.158 -0.1755  0.4978  0.2884
    1MPD1    C314036   4.613   1.731  17.054  0.5483 -0.2042  0.6114
    1MPD1    C414037   4.480   1.730  17.019 -1.0118  0.0894 -0.0268
    1MPD1    C514038   4.386   1.651  17.078 -0.2647  0.5940 -0.3005
    1MPD1     H14039   0.020   1.653  17.173  0.0033 -1.0758 -0.8185
    1MPD1    H114040   4.444   1.802  16.947  0.4405 -0.2960 -1.1211
    1MPD1    H214041   4.356   1.484  17.203  0.1511 -0.9688 -1.3085
    1MPD1    H314042   4.285   1.664  17.043 -0.6865 -3.1551 -0.4470
    1MPD1     N14043   4.692   1.825  16.987  0.4412 -0.1392 -0.1021
    1MPD1    H514044   4.647   1.881  16.915 -1.3402 -0.1480  1.0016
    1MPD1    N114045   4.603   1.457  17.292  0.9721  0.7121 -0.0172
    1MPD1    H614046   4.700   1.476  17.314  0.3059  1.4323  2.3976
    1MPD1    H714047   4.550   1.456  17.380 -0.2117  2.5804 -0.7103
    2MPD1     C14048   0.974   2.102  16.955 -0.4650  0.0631 -0.8561
    2MPD1    C114049   0.911   1.995  17.024  0.1055  0.1924  0.5807
    2MPD1    C214050   0.777   1.968  17.003  0.4868 -0.5701 -0.1808
    2MPD1    C314051   0.699   2.066  16.935 -0.0005  0.3867  0.1059
    2MPD1    C414052   0.760   2.176  16.874 -0.4156 -0.8119 -0.2627
    2MPD1    C514053   0.897   2.191  16.882 -0.1846  0.6373  0.5942
    2MPD1     H14054   0.726   1.888  17.054  2.2893 -0.9317  1.0438
    2MPD1    H114055   0.711   2.260  16.826  1.2986  0.7724  0.7261
    2MPD1    H214056   1.079   2.118  16.972 -0.5630  1.8807 -1.9128
    2MPD1    H314057   0.938   2.282  16.840  1.3197 -0.0395  0.6240
    2MPD1     N14058   0.554   2.042  16.925  0.0390  0.3069 -0.4172
    2MPD1    H514059   0.519   1.966  16.981  0.0911  0.0060 -0.7902
    2MPD1    N114060   0.987   1.895  17.092 -0.2649  0.1143  0.2235
    2MPD1    H614061   0.930   1.839  17.155 -2.4389  3.7086  1.4680
    2MPD1    H714062   1.054   1.937  17.156 -1.3693  1.5687  0.4389
    3TMC3    C114063   0.325   2.094  16.868 -0.5959  0.4521  0.5610
    3TMC3    C214064   0.248   2.192  16.814 -0.1579  0.2198 -0.3792
    3TMC3    C314065   0.112   2.179  16.833  0.4015 -0.1817 -0.0904
    3TMC3    C414066   0.280   1.983  16.929 -0.7197  0.2124  0.7465
    3TMC3    C514067   0.148   1.972  16.946 -0.3901  0.0510  0.5351
    3TMC3    C614068   0.061   2.077  16.912  0.1221  1.2419 -0.2703
    3TMC3     C14069   0.468   2.120  16.848 -0.0503  0.5135 -0.1032
    3TMC3     O14070   0.492   2.209  16.769  0.3065  0.0389  0.0561
    3TMC3     H14071   0.286   2.283  16.769 -2.1718  1.0138 -0.4936
    3TMC3    H114072   0.346   1.902  16.957 -1.3801 -0.2410  0.9899
    3TMC3    H214073   4.687   2.062  16.913  0.3518 -0.5733 -1.8006
    3TMC3    C714074   0.094   1.847  17.011  0.3283  0.2591  0.1495
    3TMC3    C814075   0.019   2.237  16.734  0.6652  0.3346  0.3062
    3TMC3    O114076   0.178   1.772  17.056  0.1612  0.2089 -0.8511
    3TMC3    O214077   4.652   2.167  16.716  0.2371 -0.3124  0.6355
    4MPD1     C14078   4.602   2.531  16.372 -0.3330  0.5597 -0.2490
    4MPD1    C114079   4.706   2.598  16.429 -1.0523  0.6235  0.4116
    4MPD1    C214080   0.047   2.523  16.519  0.2599 -0.1614 -0.0340
    4MPD1    C314081   0.001   2.400  16.558 -0.3691  0.1459 -0.5866
    4MPD1    C414082   4.629   2.330  16.484  0.6981  0.5476 -0.1293
    4MPD1    C514083   4.567   2.400  16.390 -0.0620 -0.3068  0.6032
    4MPD1     H14084   0.125   2.576  16.573  1.3535  0.2814 -2.0450
    4MPD1    H114085   4.595   2.231  16.510  0.0020  0.1164 -2.7373
    4MPD1    H214086   4.548   2.587  16.297 -0.8146  0.2223 -0.1570
    4MPD1    H314087   4.490   2.344  16.337 -0.3919 -1.0385  1.8775
    4MPD1     N14088   0.062   2.350  16.673  0.9796  0.0726 -0.6111
    4MPD1    H514089   0.143   2.399  16.712 -0.4135  0.7156  1.5099
    4MPD1    N114090   0.021   2.712  16.366  0.2747 -0.0187  0.1310
    4MPD1    H614091   0.081   2.760  16.432  1.6633  2.5244 -2.9761
    4MPD1    H714092   4.684   2.778  16.338  1.1110  0.9663  0.3473
    1TCq1    O114093   0.250   1.420  11.110  0.2971  0.0086  0.1205
    1TCq1    C114094   0.294   1.377  10.990 -1.1513 -0.1912 -0.0834
    1TCq1    O214095   0.413   1.350  10.965  0.2029 -0.4787  0.5454
    1TCq1    C214096   0.197   1.427  10.898 -0.4264  0.6838  0.5230
    1TCq1    C314097   0.071   1.449  10.948  0.4603  0.1441 -0.3692
    1TCq1    C414098   4.716   1.525  10.878 -0.1456  0.0168  0.5994
    1TCq1    C514099   0.030   1.610  10.781  0.6098 -0.3196 -0.3862
    1TCq1    C614100   0.157   1.591  10.738 -0.3722  0.2767 -0.9044
    1TCq1    C714101   0.239   1.499  10.790 -0.3987 -0.2001 -0.0490
    1TCq1    C814102   0.208   1.688  10.642  0.1592  0.4638  0.5479
    1TCq1    O414103   0.122   1.770  10.610 -0.1736 -0.1996  0.0215
    1TCq1    C914104   4.591   1.564  10.932 -0.0707 -0.4716  0.3838
    1TCq1    O514105   4.568   1.533  11.050 -0.2239  0.3934 -0.2447
    1TCq1    O614106   4.532   1.659  10.874  0.4269 -0.7807 -0.3041
    1TCq1    H114107   0.168   1.474  11.105  0.8655  0.8471 -0.1828
    1TCq1    H214108   0.032   1.381  11.022  2.3859 -1.0780 -0.4759
    1TCq1    H314109   4.699   1.688  10.744  0.2727 -0.6960 -0.5945
    1TCq1    H414110   0.345   1.521  10.788 -0.3977 -0.0181  1.7717
    2MPD1     C14111   0.591   1.965  10.440 -0.2202 -0.5612 -0.0084
    2MPD1    C114112   0.632   1.836  10.447 -0.2104  0.4840 -0.0891
    2MPD1    C214113   0.536   1.743  10.478 -0.7961 -0.8083 -0.3572
    2MPD1    C314114   0.404   1.770  10.523 -0.3516  0.2960  0.7278
    2MPD1    C414115   0.372   1.903  10.520  0.0355 -0.2378  0.2643
    2MPD1    C514116   0.461   1.998  10.471  0.3571 -0.0609  0.0883
    2MPD1     H14117   0.560   1.638  10.475 -0.5174 -0.8034  1.5387
    2MPD1    H114118   0.279   1.941  10.559 -0.4511 -0.9285 -0.2071
    2MPD1    H214119   0.655   2.045  10.405 -0.6313  0.4412  1.5473
    2MPD1    H314120   0.434   2.102  10.457 -0.0260  0.0482  1.6236
    2MPD1     N14121   0.326   1.665  10.576  0.2657  0.2361 -0.0097
    2MPD1    H514122   0.387   1.588  10.602  2.1154  0.5944 -3.2601
    2MPD1    N114123   0.767   1.803  10.399 -0.3640 -0.2435 -0.5349
    2MPD1    H614124   0.804   1.723  10.450  1.3389  1.3147  0.6783
    2MPD1    H714125   0.839   1.871  10.419 -0.5880  0.0100 -0.5860
    1TMC1    C114126   2.860   3.163   0.509  0.1592  0.9581 -0.3296
    1TMC1    C214127   2.770   3.260   0.474  0.2081  0.0832 -0.4241
    1TMC1    C314128   2.687   3.241   0.367  0.1581  0.8164  0.6084
    1TMC1    C414129   2.874   3.061   0.428 -0.4841 -0.5157 -0.5922
    1TMC1    C514130   2.792   3.041   0.320 -0.2038  0.0711 -0.4020
    1TMC1    C614131   2.696   3.134   0.286  0.3608 -0.0695  0.3363
    1TMC1     C14132   2.851   3.122   0.645  0.5522  0.4626  0.1361
    1TMC1     O14133   2.844   3.004   0.668 -0.3997 -0.4703  0.2369
    1TMC1     H14134   2.769   3.352   0.531  0.5725 -0.8917  1.1387
    1TMC1    H114135   2.947   2.983   0.446  1.3784  2.1743  3.2400
    1TMC1    H214136   2.629   3.122   0.201  1.1185  1.4504 -0.4804
    1TMC1    C714137   2.796   2.913   0.251 -0.1802  0.7241  0.3164
    1TMC1    C814138   2.651   3.361   0.295 -0.1956  0.4794 -1.0834
    1TMC1    O114139   2.842   2.813   0.305  0.3492  0.3152 -0.1886
    1TMC1    O214140   2.674   3.367   0.175  0.3607  0.1703  0.3656
    1TMC1    O314141   2.770   2.928   0.119  0.2528  0.2333 -0.8529
    1TMC1    H314142   2.718   3.008   0.097 -2.6533 -1.8374 -1.5504
    1TMC1    O514143   2.621   3.461   0.382 -0.5999 -0.5247 -0.4574
    1TMC1    H514144   2.585   3.439   0.471 -0.4962  1.3618  0.0585
    2MPD1     C14145   2.830   3.241   1.145  0.0250  0.5134  0.7759
    2MPD1    C114146   2.854   3.351   1.077 -0.3194  0.0084  0.3020
    2MPD1    C214147   2.869   3.339   0.937 -0.1990 -0.6842  0.3198
    2MPD1    C314148   2.833   3.225   0.875  0.1173  0.5965 -0.0806
    2MPD1    C414149   2.803   3.110   0.949  0.0597  0.1368 -0.8450
    2MPD1    C514150   2.798   3.123   1.085  0.3700  0.2617 -0.7200
    2MPD1     H14151   2.890   3.431   0.882 -0.3408 -0.6503  0.3238
    2MPD1    H114152   2.756   3.023   0.905 -0.1925 -0.5050  0.6827
    2MPD1    H214153   2.819   3.249   1.253  1.5765 -1.6728  1.0728
    2MPD1    H314154   2.767   3.038   1.145 -0.1385  1.2637  0.4606
    2MPD1     N14155   2.846   3.223   0.735  0.1588 -0.3663  0.6091
    2MPD1    H514156   2.857   3.318   0.701 -0.5289 -0.5984 -0.2698
    2MPD1    N114157   2.900   3.469   1.141  0.5538  0.1172  0.1071
    2MPD1    H614158   2.872   3.466   1.239  2.3323  0.6018  0.6172
    2MPD1    H714159   2.856   3.553   1.106  0.7549  0.8084  1.5171
    1MPD1     C14160   1.966   1.157  12.156  0.4035  0.1550  0.6630
    1MPD1    C114161   1.894   1.250  12.084  0.3966  0.3449  0.6850
    1MPD1    C214162   1.961   1.366  12.034  0.9644  0.4905  0.6384
    1MPD1    C314163   2.099   1.368  12.023  0.5747  0.2322 -0.3374
    1MPD1    C414164   2.169   1.262  12.088  0.3522 -0.7567 -0.0155
    1MPD1    C514165   2.103   1.163  12.156  0.0313 -0.1944 -0.0958
    1MPD1     H14166   1.910   1.445  11.980 -0.6342  0.6517  2.3985
    1MPD1    H114167   2.276   1.269  12.100  0.4794  1.5592 -2.6693
    1MPD1    H214168   1.924   1.082  12.221 -0.6099  1.1895  1.1986
    1MPD1    H314169   2.159   1.096  12.220 -0.2924 -1.5128 -1.1984
    1MPD1     N14170   2.173   1.484  11.975  0.2570 -0.6046 -0.4610
    1MPD1    H514171   2.115   1.561  11.943 -0.0923 -1.5533 -2.1262
    1MPD1    N114172   1.750   1.252  12.090  0.4889  0.3343  0.5263
    1MPD1    H614173   1.702   1.163  12.098 -0.0304  0.4517 -1.4578
    1MPD1    H714174   1.720   1.306  12.009 -0.5515  0.3513  0.9201
    2MPD1     C14175   1.648   2.595  10.437 -0.4566 -0.5523  0.0836
    2MPD1    C114176   1.654   2.569  10.297  0.0674  0.3055 -0.3175
    2MPD1    C214177   1.689   2.443  10.258 -0.1900 -0.0589 -0.3408
    2MPD1    C314178   1.712   2.346  10.356 -0.7043 -0.5417 -0.6275
    2MPD1    C414179   1.693   2.372  10.492  0.5074  0.4662  0.1781
    2MPD1    C514180   1.669   2.498  10.530 -0.6746 -0.3259  0.0271
    2MPD1     H14181   1.705   2.404  10.158 -0.2054 -1.0469  0.0383
    2MPD1    H114182   1.697   2.287  10.559 -1.2785 -0.4981 -0.9460
    2MPD1    H214183   1.626   2.693  10.478 -0.2263 -0.9043  1.0637
    2MPD1    H314184   1.661   2.533  10.633  1.6120  0.2595  0.0189
    2MPD1     N14185   1.748   2.209  10.322  0.7862 -0.2106 -0.1546
    2MPD1    H514186   1.775   2.150  10.400  2.0055 -0.5989 -0.8526
    2MPD1    N114187   1.668   2.676  10.207  0.2421 -0.0091 -0.2354
    2MPD1    H614188   1.623   2.759  10.244 -0.2882 -0.3362 -0.1495
    2MPD1    H714189   1.635   2.632  10.121  0.7255 -1.2447  0.2121
    3MPD1     C14190   1.525   1.546   9.628 -0.0337 -0.1743 -0.1961
    3MPD1    C114191   1.453   1.630   9.707 -0.0315 -0.6887 -0.6317
    3MPD1    C214192   1.522   1.704   9.802  0.3225 -0.2848 -0.8855
    3MPD1    C314193   1.658   1.691   9.816 -0.0892  0.4906  0.3900
    3MPD1    C414194   1.730   1.605   9.736 -0.1614 -0.4417 -0.1617
    3MPD1    C514195   1.660   1.536   9.644  0.4576 -0.6508  0.2001
    3MPD1     H14196   1.468   1.765   9.873  3.9632  2.5320 -0.5695
    3MPD1    H114197   1.837   1.591   9.749 -0.5764 -1.8054  1.7009
    3MPD1    H214198   1.476   1.476   9.561  0.3766 -0.0979 -0.5720
    3MPD1    H314199   1.711   1.464   9.581  3.2229 -1.5671  3.5135
    3MPD1     N14200   1.725   1.754   9.923  0.3032 -0.4330  0.1863
    3MPD1    H514201   1.673   1.816   9.985  1.7997 -0.5153  1.5225
    3MPD1    N114202   1.308   1.626   9.719 -0.5528  0.0275  0.2001
    3MPD1    H614203   1.262   1.603   9.630 -1.2575  2.6509 -0.1054
    3MPD1    H714204   1.266   1.708   9.762 -1.2755 -2.3172  3.9084
    4MPD2     C14205   2.100   2.059  11.627  0.1097  0.1712  0.5512
    4MPD2    C114206   2.235   2.022  11.630  0.0444  0.2367 -0.7788
    4MPD2    C214207   2.322   2.037  11.524  0.0975  0.1182 -0.2523
    4MPD2    C314208   2.260   2.071  11.406 -0.2959  0.3810 -0.0574
    4MPD2    C414209   2.130   2.110  11.398 -0.5327 -0.2058  0.2836
    4MPD2    C514210   2.049   2.106  11.508  0.2333  0.6597  0.0472
    4MPD2     H14211   2.421   1.993  11.531  0.4558  1.3565  2.4059
    4MPD2    H114212   2.073   2.133  11.309  0.3550  1.2189  0.0697
    4MPD2    H214213   2.046   2.055  11.721 -2.0120  0.9480 -0.6234
    4MPD2    H314214   1.950   2.143  11.485  0.6754  1.5324 -0.4722
    4MPD2     N14215   2.325   2.061  11.277 -0.2440  0.7879 -0.6849
    4MPD2    H514216   2.272   2.071  11.191  0.6088  1.3945 -1.1324
    4MPD2    N114217   2.301   1.975  11.742 -0.5751 -0.1196  0.5852
    4MPD2    H714218   2.399   1.958  11.719 -0.6017  0.8858 -0.2306
    5TMC3    C114219   2.327   1.851  11.938  0.1576 -0.3498  0.0283
    5TMC3    C214220   2.283   1.725  11.966  0.0168 -0.0396  0.4347
    5TMC3    C314221   2.370   1.624  11.935 -0.1249  0.5642  0.4253
    5TMC3    C414222   2.458   1.864  11.907  0.0774  0.3328 -0.6867
    5TMC3    C514223   2.541   1.761  11.879  0.2055  0.3868 -1.0304
    5TMC3    C614224   2.498   1.633  11.882  0.6082  0.5082 -0.1488
    5TMC3     C14225   2.238   1.925  11.857 -0.3854 -0.1653 -0.1462
    5TMC3     O14226   2.122   1.934  11.898 -0.5311  0.0846 -0.1586
    5TMC3     H14227   2.181   1.707  11.998 -0.7063  0.6619 -1.4283
    5TMC3    H114228   2.501   1.964  11.898  0.3484  0.2050 -0.8129
    5TMC3    H214229   2.564   1.549  11.867 -1.3828 -0.7815 -1.5672
    5TMC3    C714230   2.617   1.789  11.759  0.1172 -0.7814  0.4236
    5TMC3    C814231   2.315   1.491  11.949 -0.2797  0.1665  0.2306
    5TMC3    O114232   2.586   1.894  11.707  0.2873 -0.9103 -0.1914
    5TMC3    O214233   2.382   1.387  11.950  0.2732 -0.6169  0.8680
    6TMC3    C114234   1.817   2.024  10.199 -0.7516 -0.2121 -0.3832
    6TMC3    C214235   1.817   1.949  10.079  0.3484  0.7622 -0.2807
    6TMC3    C314236   1.883   1.828  10.071 -0.3697  0.5948  0.1213
    6TMC3    C414237   1.900   1.982  10.298 -0.3552 -0.1082 -0.2876
    6TMC3    C514238   1.976   1.872  10.281  0.1287  0.0657 -0.0405
    6TMC3    C614239   1.968   1.793  10.167 -0.1115  0.3709 -0.1362
    6TMC3     C14240   1.759   2.157  10.200 -0.4938  0.5282  0.2786
    6TMC3     O14241   1.702   2.184  10.096 -0.6346  1.1832 -0.4540
    6TMC3     H14242   1.762   1.987   9.993  0.8894 -2.6633 -2.1250
    6TMC3    H114243   1.911   2.031  10.394 -0.4740 -0.9763  0.1756
    6TMC3    H214244   2.011   1.694  10.159 -2.5586 -0.5002 -2.7907
    6TMC3    C714245   2.062   1.832  10.398 -0.0381 -0.1774 -0.7113
    6TMC3    C814246   1.858   1.739   9.959 -1.1701  0.0258 -0.0145
    6TMC3    O114247   2.076   1.917  10.485 -0.0322 -0.0035 -0.1346
    6TMC3    O214248   1.950   1.665   9.922 -0.6435  0.0266 -0.0009
    7MPD2     C14249   2.888   1.646  11.345 -0.7951  0.4911  0.3428
    7MPD2    C114250   2.789   1.741  11.358  0.2633  0.0149  0.1311
    7MPD2    C214251   2.741   1.767  11.485  0.1366 -0.0917  0.4139
    7MPD2    C314252   2.765   1.677  11.589  0.3827 -0.0187  0.0814
    7MPD2    C414253   2.851   1.572  11.568 -0.6304  0.2132 -0.4507
    7MPD2    C514254   2.924   1.568  11.452  0.2987  0.7588  0.8838
    7MPD2     H14255   2.674   1.852  11.498 -0.5373 -0.3707 -1.2304
    7MPD2    H114256   2.881   1.509  11.651 -0.3422 -0.5499 -1.1386
    7MPD2    H214257   2.939   1.622  11.253 -1.1354  2.0872 -0.2631
    7MPD2    H314258   2.999   1.491  11.439 -0.5002  0.1538 -0.1428
    7MPD2     N14259   2.703   1.688  11.718 -0.6152 -0.2087 -0.4187
    7MPD2    H514260   2.721   1.616  11.787 -1.0050 -1.6134 -1.7708
    7MPD2    N114261   2.748   1.830  11.252  0.3100 -0.4048  0.4880
    7MPD2    H714262   2.670   1.891  11.276 -1.0660 -1.3842 -1.5141
    8TMC3    C114263   2.662   1.880  11.049  0.0489 -0.3740 -0.2295
    8TMC3    C214264   2.580   1.802  10.971  0.5025 -0.9023 -0.1890
    8TMC3    C314265   2.446   1.835  10.974 -0.2580  1.0902 -0.2379
    8TMC3    C414266   2.615   1.990  11.114 -0.5613  0.5738  0.1271
    8TMC3    C514267   2.484   2.017  11.122 -0.0898  0.2791 -0.7459
    8TMC3    C614268   2.399   1.942  11.047 -0.1721  0.0929  0.6266
    8TMC3     C14269   2.759   1.801  11.120  0.1908  0.9433 -0.2804
    8TMC3     O14270   2.827   1.714  11.065  0.1671  0.0353 -0.1232
    8TMC3     H14271   2.629   1.725  10.914  1.1603  1.3418 -2.6322
    8TMC3    H114272   2.673   2.055  11.178 -0.5746 -1.1858  1.9144
    8TMC3    H214273   2.295   1.970  11.032 -0.3578 -1.8222 -1.5040
    8TMC3    C714274   2.450   2.029  11.261  0.5434 -0.9432 -0.1557
    8TMC3    C814275   2.379   1.818  10.843 -1.1620  0.3077 -0.4920
    8TMC3    O114276   2.537   2.020  11.347 -0.7181 -0.2112 -0.3258
    8TMC3    O214277   2.276   1.885  10.825  0.3512 -0.4530  0.2300
    9MPD2     C14278   2.406   1.520  10.620  0.5655  0.2525  0.2910
    9MPD2    C114279   2.357   1.639  10.668 -0.5084  0.0307 -0.2031
    9MPD2    C214280   2.267   1.707  10.585 -0.1231 -0.1707 -0.3339
    9MPD2    C314281   2.218   1.652  10.471 -0.0786 -0.1663  0.6669
    9MPD2    C414282   2.252   1.519  10.445  0.3983  0.2044  0.6194
    9MPD2    C514283   2.350   1.461  10.514  0.0584 -1.0539  0.4127
    9MPD2     H14284   2.232   1.808  10.606 -2.4230 -0.6027 -2.1818
    9MPD2    H114285   2.227   1.476  10.348 -4.2639 -0.0373  1.9372
    9MPD2    H214286   2.484   1.461  10.667  1.0835  0.7913  0.0983
    9MPD2    H314287   2.390   1.365  10.487 -1.0294 -0.4350 -3.3731
    9MPD2     N14288   2.123   1.713  10.382 -0.2567 -0.1318  0.5044
    9MPD2    H514289   2.096   1.665  10.297  0.6137  0.2110  0.0414
    9MPD2    N114290   2.419   1.697  10.785 -0.9144  0.1177 -0.4705
    9MPD2    H714291   2.499   1.652  10.828 -1.1975  0.1031  0.0525
    1MPD1     C14292   1.582   4.465  17.168 -0.0281 -0.8397  0.4949
    1MPD1    C114293   1.622   4.332  17.166  0.7373 -0.5966  0.1839
    1MPD1    C214294   1.561   4.249  17.069  0.3164 -0.5344 -0.0755
    1MPD1    C314295   1.484   4.302  16.972 -0.9487 -0.6525 -0.1630
    1MPD1    C414296   1.449   4.436  16.979  0.3549  0.0023 -0.1634
    1MPD1    C514297   1.508   4.519  17.069  0.3859  0.5993 -0.7800
    1MPD1     H14298   1.594   4.146  17.080  1.6932 -0.0869  0.0171
    1MPD1    H114299   1.368   4.470  16.915  1.3483  2.4025 -0.1303
    1MPD1    H214300   1.606   4.533  17.250 -1.5798  0.0873  0.1680
    1MPD1    H314301   1.486   4.625  17.068 -0.2013  0.5033  2.0693
    1MPD1     N14302   1.434   4.226  16.865 -0.2965 -0.0696 -0.3880
    1MPD1    H514303   1.401   4.280  16.786  0.1385 -0.1447 -0.6220
    1MPD1    N114304   1.703   4.276  17.267  0.0364  0.2384  0.0800
    1MPD1    H614305   1.772   4.336  17.312 -1.5950  1.9745  0.2432
    1MPD1    H714306   1.754   4.192  17.241 -1.0011 -0.3300 -0.0878
    2TMC2    C114307   1.386   4.015  16.510  0.3601 -0.8807  0.3598
    2TMC2    C214308   1.299   3.904  16.509 -0.5555  0.1114 -0.5539
    2TMC2    C314309   1.244   3.865  16.627 -0.1734  0.1509  0.5370
    2TMC2    C414310   1.421   4.069  16.623 -0.1090 -0.4015  0.5399
    2TMC2    C514311   1.362   4.025  16.739  0.3221 -0.0449 -0.3401
    2TMC2    C614312   1.271   3.925  16.747  0.2232 -0.4549  0.1826
    2TMC2     C14313   1.449   4.066  16.391  0.0403 -0.1138  0.0912
    2TMC2     O14314   1.510   4.170  16.389  0.4149 -0.7037  0.0719
    2TMC2     H14315   1.261   3.872  16.412 -1.5103 -2.2072  0.5878
    2TMC2    H114316   1.508   4.132  16.635 -0.8905  0.7350  0.2194
    2TMC2    H214317   1.228   3.913  16.845 -0.7326  3.7204  0.2833
    2TMC2    C714318   1.412   4.086  16.866  0.2969  0.3616 -0.0355
    2TMC2    C814319   1.113   3.807  16.619 -1.0944 -0.6108 -0.0455
    2TMC2    O114320   1.416   4.005  16.958 -0.4564 -0.1668  0.5186
    2TMC2    O214321   1.030   3.829  16.528 -0.5040  0.1302 -0.0066
    2TMC2    O514322   1.082   3.738  16.734  0.0369 -0.1708  0.3558
    2TMC2    H514323   1.152   3.723  16.801 -0.4473 -0.4252  0.8054
    3MPD1     C14324   1.597   4.013  15.901 -0.4615 -0.5568 -0.4619
    3MPD1    C114325   1.549   3.894  15.943  0.2371  0.1435  0.4775
    3MPD1    C214326   1.522   3.885  16.081 -0.1519  0.3061  0.3404
    3MPD1    C314327   1.511   3.997  16.163 -0.4816 -0.1994  0.1649
    3MPD1    C414328   1.550   4.124  16.115 -0.2729 -0.0561  0.6179
    3MPD1    C514329   1.599   4.127  15.983 -0.0197 -0.1855  0.7292
    3MPD1     H14330   1.498   3.788  16.122  0.4625 -0.1411 -0.3529
    3MPD1    H114331   1.539   4.215  16.173  2.5593 -0.5803  1.9408
    3MPD1    H214332   1.634   4.017  15.799 -1.0531 -0.3477 -0.6678
    3MPD1    H314333   1.635   4.224  15.948 -0.6507 -0.9497 -2.0253
    3MPD1     N14334   1.453   3.974  16.288  0.4089  0.4695 -0.2993
    3MPD1    H514335   1.420   3.880  16.306  1.2657 -0.1074 -1.7490
    3MPD1    N114336   1.548   3.782  15.851 -0.2758  0.0160  0.2193
    3MPD1    H614337   1.480   3.710  15.875  0.0519 -1.3652 -2.9719
    3MPD1    H714338   1.534   3.797  15.752 -0.0652  0.0654  0.1990
    1TMC1    C114339   0.151   3.776  13.399  0.2402 -0.5172 -0.3543
    1TMC1    C214340   0.037   3.725  13.344 -0.1813 -0.1619 -0.5144
    1TMC1    C314341   0.019   3.590  13.317 -0.5193  0.4302 -0.4216
    1TMC1    C414342   0.263   3.694  13.409  0.1335 -0.4553 -0.2504
    1TMC1    C514343   0.245   3.563  13.371  0.7593 -0.4540 -0.8031
    1TMC1    C614344   0.126   3.505  13.333 -0.4878 -0.2457 -0.6652
    1TMC1     C14345   0.159   3.909  13.451  0.5131  0.3270 -0.6750
    1TMC1     O14346   0.067   3.984  13.441  0.1005 -0.2454 -0.7344
    1TMC1     H14347   4.690   3.797  13.351 -1.1763 -0.9471 -3.6770
    1TMC1    H114348   0.363   3.722  13.440  0.1932  0.7679 -1.5429
    1TMC1    H214349   0.118   3.402  13.302  0.1748 -0.8426  1.1146
    1TMC1    C714350   0.361   3.499  13.322 -0.7692  0.0796 -0.0553
    1TMC1    C814351   4.621   3.533  13.287  1.0158 -0.7884 -0.2247
    1TMC1    O114352   0.362   3.427  13.221  0.3353 -0.7992  0.2329
    1TMC1    O214353   4.615   3.412  13.283 -0.4465  0.8868  0.4379
    1TMC1    O314354   0.464   3.514  13.415  0.0663 -0.1620 -0.4163
    1TMC1    H314355   0.444   3.581  13.484 -0.0141 -1.8466  1.2028
    1TMC1    O514356   4.519   3.617  13.322  0.8671  0.6367 -0.1857
    1TMC1    H514357   4.531   3.705  13.281  1.7003 -0.0402 -1.4036
    2MPD2     C14358   0.256   4.171  13.556 -0.2102  0.6623 -0.6478
    2MPD2    C114359   0.309   4.046  13.596  0.6534 -0.7238 -0.0924
    2MPD2    C214360   0.396   4.039  13.702 -0.8754  0.2354 -0.3117
    2MPD2    C314361   0.433   4.153  13.767 -0.3469 -0.1002  0.1330
    2MPD2    C414362   0.374   4.273  13.726 -0.3227  0.2731 -0.1075
    2MPD2    C514363   0.285   4.285  13.621 -0.6335 -0.5332 -0.0842
    2MPD2     H14364   0.458   3.950  13.712 -0.6239  0.4033 -0.3915
    2MPD2    H114365   0.384   4.364  13.784 -1.0312 -0.1702  0.7034
    2MPD2    H214366   0.196   4.169  13.466  0.1346  0.1712 -0.8693
    2MPD2    H314367   0.245   4.383  13.600 -0.2089 -0.7867 -2.0346
    2MPD2     N14368   0.522   4.132  13.874  0.6163  0.5448  0.7650
    2MPD2    H514369   0.537   4.034  13.896 -0.1788  0.0482 -0.9130
    2MPD2    N114370   0.270   3.924  13.533  0.3890  0.6014 -0.5870
    2MPD2    H714371   0.313   3.838  13.563 -1.3186  0.3744  1.1959
    3TCq1    O114372   0.802   4.163  14.494  0.3046 -0.3044 -0.3930
    3TCq1    C114373   0.760   4.236  14.393  0.0880 -0.2038  0.1713
    3TCq1    O214374   0.781   4.356  14.366  0.0906  0.7767  0.3335
    3TCq1    C214375   0.713   4.152  14.281 -0.1540  0.6247 -0.2416
    3TCq1    C314376   0.800   4.047  14.255  0.1592  0.0813 -0.8146
    3TCq1    C414377   0.799   3.998  14.124 -0.9709  0.3407 -0.4755
    3TCq1    C514378   0.721   4.056  14.027 -0.2117  0.0469  0.1655
    3TCq1    C614379   0.645   4.159  14.066 -0.1178  0.1148 -1.0893
    3TCq1    C714380   0.633   4.208  14.188  0.4173 -0.0081 -0.3089
    3TCq1    C814381   0.563   4.217  13.961  0.1353 -0.0925  0.4260
    3TCq1    O414382   0.554   4.335  13.951  0.1029 -0.3489  0.2445
    3TCq1    C914383   0.882   3.891  14.086  0.0290 -0.2847  0.4056
    3TCq1    O514384   0.973   3.879  14.169  0.1703  0.6062 -0.0079
    3TCq1    O614385   0.863   3.832  13.970 -0.8532 -0.1653  0.3588
    3TCq1    H114386   0.773   4.072  14.477  3.1182 -1.2196 -0.3843
    3TCq1    H214387   0.871   4.007  14.326  2.9263 -0.2609 -3.7576
    3TCq1    H314388   0.724   4.015  13.927 -0.2483  1.7051 -0.5141
    3TCq1    H414389   0.579   4.299  14.211 -0.7423 -0.6835 -0.3497
    1MPD2     C14390   4.291   0.894  15.012 -0.4371  0.0538  0.6581
    1MPD2    C114391   4.260   0.812  15.119 -0.5145  0.0874  0.6722
    1MPD2    C214392   4.361   0.734  15.176 -0.9769 -0.5022 -0.1735
    1MPD2    C314393   4.488   0.725  15.126  0.8163 -0.5249  0.2060
    1MPD2    C414394   4.517   0.810  15.029 -0.1338  0.4847 -0.0280
    1MPD2    C514395   4.426   0.898  14.972 -0.0979 -0.4359 -0.5273
    1MPD2     H14396   4.338   0.662  15.254 -2.4211 -2.1414 -2.1453
    1MPD2    H114397   4.615   0.813  14.985  0.3379  3.1354  1.2232
    1MPD2    H214398   4.227   0.971  14.972  2.4293  1.4026 -1.3749
    1MPD2    H314399   4.454   0.975  14.901 -1.5173  0.4193 -0.1658
    1MPD2     N14400   4.568   0.623  15.177  0.6068 -0.0730 -0.3052
    1MPD2    H514401   4.526   0.571  15.254 -0.8990  0.2285 -0.9279
    1MPD2    N114402   4.128   0.829  15.165  0.4532 -0.1192  0.1635
    1MPD2    H714403   4.067   0.884  15.105 -1.6766 -2.3885  0.2792
    2TMC3    C114404   3.933   0.761  15.279  0.6195  0.6724  0.3824
    2TMC3    C214405   3.903   0.675  15.380 -0.9183 -0.2309 -0.1742
    2TMC3    C314406   3.825   0.569  15.350  0.5158 -0.2106  0.3211
    2TMC3    C414407   3.872   0.754  15.157 -0.2576 -0.1455  0.7449
    2TMC3    C514408   3.789   0.651  15.135 -1.2611  0.4549  0.1431
    2TMC3    C614409   3.773   0.556  15.228 -0.1149  0.4592  0.6660
    2TMC3     C14410   4.075   0.754  15.271 -0.8051  0.0532 -0.9976
    2TMC3     O14411   4.131   0.678  15.348 -0.5748 -0.5906  0.0568
    2TMC3     H14412   3.942   0.693  15.480 -0.8099 -1.0105 -0.0809
    2TMC3    H114413   3.896   0.815  15.071  2.8943  0.3375  1.9714
    2TMC3    H214414   3.714   0.469  15.201  0.0722  1.1387 -1.9383
    2TMC3    C714415   3.693   0.665  15.027 -0.6181 -0.1635 -0.2216
    2TMC3    C814416   3.855   0.448  15.415 -0.5636  0.0289 -0.3932
    2TMC3    O114417   3.581   0.623  15.047 -0.0704 -0.4264  0.0850
    2TMC3    O214418   3.779   0.354  15.397  0.4035  0.1622  0.1654
    3TCq1    O114419   4.033   0.624  13.862  0.2647 -0.0336 -0.4508
    3TCq1    C114420   3.922   0.688  13.909  0.2182  0.7078  0.4148
    3TCq1    O214421   3.823   0.713  13.841  0.0301  0.1053  0.8845
    3TCq1    C214422   3.936   0.736  14.049 -0.1743 -0.4414 -0.6919
    3TCq1    C314423   4.062   0.756  14.094 -0.0311 -0.2172  0.1390
    3TCq1    C414424   4.075   0.830  14.210 -0.7347 -0.0665 -0.3039
    3TCq1    C514425   3.963   0.882  14.267 -0.6670 -0.4747  0.3709
    3TCq1    C614426   3.838   0.856  14.225  0.5052  0.4360  0.0289
    3TCq1    C714427   3.822   0.779  14.113  1.0118  0.2586 -0.0887
    3TCq1    C814428   3.726   0.836  14.316  0.7532  0.3664 -0.3020
    3TCq1    O414429   3.624   0.800  14.262  0.5890  0.3300  0.2312
    3TCq1    C914430   4.202   0.852  14.273  0.6592  0.1266  0.1762
    3TCq1    O514431   4.209   0.926  14.378 -0.1237 -0.0885  0.0140
    3TCq1    O614432   4.288   0.775  14.230 -0.7824 -0.5153 -0.1701
    3TCq1    H114433   4.088   0.592  13.937 -0.1344  0.9222  0.2609
    3TCq1    H214434   4.152   0.711  14.054  1.2531  1.8980  0.6618
    3TCq1    H314435   3.975   0.931  14.363  1.7900  0.7862 -0.5706
    3TCq1    H414436   3.730   0.753  14.062  1.4402 -1.2310 -0.0846
    4MPD2     C14437   3.548   0.798  14.540  1.0614 -0.4107  0.4845
    4MPD2    C114438   3.689   0.799  14.555 -0.0359 -0.3796 -0.6975
    4MPD2    C214439   3.749   0.780  14.679 -0.0919  0.3144 -0.5369
    4MPD2    C314440   3.675   0.741  14.788  0.1421  0.0385  0.1128
    4MPD2    C414441   3.538   0.714  14.767  0.1290 -0.5768 -0.0294
    4MPD2    C514442   3.474   0.748  14.645  0.1643  0.1978 -1.0447
    4MPD2     H14443   3.857   0.792  14.681 -0.2642  1.7591  0.6500
    4MPD2    H114444   3.481   0.674  14.850 -0.9868  0.8329 -0.1095
    4MPD2    H214445   3.491   0.824  14.451  1.7192  0.4419  0.3131
    4MPD2    H314446   3.367   0.741  14.634 -0.0705  4.1673 -1.2726
    4MPD2     N14447   3.744   0.725  14.918  0.3291 -0.0013  0.3101
    4MPD2    H514448   3.845   0.729  14.914  0.3439 -2.1159 -1.2859
    4MPD2    N114449   3.770   0.823  14.447 -1.0636 -0.0785 -0.6863
    4MPD2    H714450   3.867   0.847  14.465 -1.6257  2.1426 -0.6019
    5TMC2    C114451   4.618   0.313  15.350 -0.1051 -0.2401  0.4428
    5TMC2    C214452   4.639   0.213  15.259 -0.6783  0.5374  0.0360
    5TMC2    C314453   4.687   0.251  15.139  0.0248  0.0268 -0.2884
    5TMC2    C414454   4.664   0.441  15.312 -0.3791 -0.5502 -0.1719
    5TMC2    C514455   4.731   0.466  15.196  0.2055  0.3982 -0.0845
    5TMC2    C614456   4.723   0.372  15.099 -0.1580 -0.7189 -0.2467
    5TMC2     C14457   4.477   0.328  15.380  0.3321  0.3509 -0.1069
    5TMC2     O14458   4.425   0.425  15.331  0.2804 -0.5773 -0.1233
    5TMC2     H14459   4.582   0.121  15.266  1.9753 -1.0311  1.3549
    5TMC2    H114460   4.653   0.521  15.384  1.4629 -1.9091  1.6356
    5TMC2    H214461   0.022   0.392  14.998  0.1186 -0.5908 -0.1298
    5TMC2    C714462   4.699   0.599  15.146 -0.3952  0.3821  0.3205
    5TMC2    C814463   4.712   0.150  15.042 -0.4714 -0.8785 -0.3262
    5TMC2    O114464   0.030   0.645  15.054  0.0458 -0.1243 -0.4978
    5TMC2    O214465   4.701   0.160  14.917 -0.0637  0.6451  0.6379
    5TMC2    O514466   0.056   0.048  15.092 -0.0915 -0.9414 -0.4676
    5TMC2    H514467   0.093   0.069  15.180  0.4996  1.3421 -1.2585
    6MPD2     C14468   3.998   0.218  15.520  0.6957  0.5607 -0.0821
    6MPD2    C114469   4.056   0.335  15.479  0.3764  0.0753  0.0255
    6MPD2    C214470   4.194   0.342  15.462  0.2409  0.0647  0.3853
    6MPD2    C314471   4.278   0.233  15.480  0.3951  0.3039 -0.4080
    6MPD2    C414472   4.215   0.114  15.522 -0.2241  0.1376  0.3743
    6MPD2    C514473   4.081   0.108  15.536 -0.5940 -0.3493 -0.2319
    6MPD2     H14474   4.228   0.438  15.426 -2.0680  0.9265  0.5015
    6MPD2    H114475   4.279   0.029  15.545  0.5028  0.5976  0.0259
    6MPD2    H214476   3.890   0.208  15.526  0.7274 -0.5688 -1.3350
    6MPD2    H314477   4.027   0.014  15.542 -1.5226  0.2481  0.8430
    6MPD2     N14478   4.415   0.223  15.443 -1.1315 -0.0558 -0.2397
    6MPD2    H514479   4.475   0.142  15.451  0.1761  1.0987  1.6341
    6MPD2    N114480   3.986   0.448  15.458  0.4119 -0.0175  0.5327
    6MPD2    H714481   4.044   0.529  15.440  0.5891 -0.7100 -2.0391
  945NH3     N114482   0.800   1.516   7.559  0.0383 -0.2134 -0.0296
  945NH3     H214483   0.823   1.615   7.553 -0.5537 -0.1764 -1.7464
  945NH3     H314484   0.881   1.477   7.513  0.6270  1.0552 -0.0763
  945NH3     H414485   0.724   1.507   7.492 -0.1184  1.1156 -0.0337
  946SOD     NA14486   4.033   1.831  14.722 -0.0080 -0.2825 -0.2576
  947SOD     NA14487   3.156   3.657  13.302 -0.2934  0.0878  0.4309
  948SOD     NA14488   2.472   2.286   5.739  0.1757 -0.2714 -0.0032
  949SOD     NA14489   0.326   4.388  12.285 -0.3326 -0.1508 -0.1659
  950SOD     NA14490   2.391   4.635   7.658 -0.2714 -0.1085 -0.6175
  951SOD     NA14491   1.952   1.887   4.460 -0.1870 -0.1777  0.2984
  952SOD     NA14492   0.063   0.104  12.352  0.3948 -0.5389 -0.4869
  953SOD     NA14493   1.301   2.368  16.176  0.2168 -0.0311  0.6226
  954SOL     OW14494   2.159   0.221   2.063 -0.1520 -0.2052 -0.3564
  954SOL    HW114495   2.176   0.277   1.987  1.8250  0.1590  0.3797
  954SOL    HW214496   2.191   0.273   2.136 -0.0725 -1.2896  0.3789
  955SOL     OW14497   2.211   1.877   5.737 -0.0676  0.1286  0.5484
  955SOL    HW114498   2.279   1.810   5.738  1.2037  1.3866 -1.1730
  955SOL    HW214499   2.244   1.933   5.666  0.5923 -2.3448 -1.0941
  956SOL     OW14500   2.037   2.591   3.966 -0.2419 -0.2331 -0.1232
  956SOL    HW114501   1.957   2.558   4.008  0.2717 -0.7460  0.4438
  956SOL    HW214502   1.997   2.650   3.902 -0.6387  0.8145  1.0735
  957SOL     OW14503   2.434   3.707  17.592  1.0361  0.0091 -0.2100
  957SOL    HW114504   2.478   3.791  17.588  0.5174  0.2429 -1.0034
  957SOL    HW214505   2.407   3.707  17.684  1.3698  0.3298 -0.1130
  958SOL     OW14506   1.801   4.123   0.011 -0.5513  0.3879  0.2925
  958SOL    HW114507   1.837   4.197   0.060  0.9623 -0.2767  0.2122
  958SOL    HW214508   1.846   4.150  17.666 -1.7389 -0.4363 -0.6433
  959SOL     OW14509   2.129   4.330   2.960  0.1571 -1.1532 -0.7826
  959SOL    HW114510   2.201   4.283   3.001 -1.3438  1.7785  5.1936
  959SOL    HW214511   2.169   4.357   2.877 -0.0228 -1.6636 -1.0301
  960SOL     OW14512   3.615   2.054   0.466  0.0077 -0.5947  0.1734
  960SOL    HW114513   3.638   2.060   0.559  0.1841 -0.7680  0.1390
  960SOL    HW214514   3.560   1.976   0.467 -1.9645  0.7923 -0.0239
  961SOL     OW14515   4.509   3.557   1.589  0.1226  0.0529 -0.3579
  961SOL    HW114516   4.468   3.490   1.534 -0.6884  0.7594 -0.6034
  961SOL    HW214517   4.590   3.511   1.613  0.9840  2.3042  0.9835
  962SOL     OW14518   3.426   4.403   4.702  0.2318 -0.1602  0.1087
  962SOL    HW114519   3.344   4.369   4.667 -0.3745  3.5819 -2.0991
  962SOL    HW214520   3.469   4.456   4.635  1.6646 -1.1947  0.2192
  963SOL     OW14521   3.024   3.821   3.238  0.0574 -0.3894 -0.3335
  963SOL    HW114522   3.056   3.733   3.218  0.1170 -0.3458 -0.4335
  963SOL    HW214523   2.942   3.825   3.189  1.4657  1.9100 -2.5145
  964SOL     OW14524   2.202   3.187  10.214  0.1857 -0.3041  0.1184
  964SOL    HW114525   2.135   3.139  10.264  1.7522  1.2060  3.6457
  964SOL    HW214526   2.250   3.109  10.186  0.6087 -0.0355  0.1004
  965SOL     OW14527   0.072   4.509   4.163 -0.5811  0.3713 -0.1461
  965SOL    HW114528   0.126   4.486   4.239 -2.2081  2.2076  1.5406
  965SOL    HW214529   4.722   4.471   4.188  0.3686 -2.6602 -1.5736
  966SOL     OW14530   1.194   1.456   4.247  0.5534  0.5134 -0.4036
  966SOL    HW114531   1.275   1.441   4.295  0.4812  1.0786 -0.1035
  966SOL    HW214532   1.138   1.383   4.273  0.0035 -0.2661 -3.7156
  967SOL     OW14533   3.022   2.123   7.246  0.1235 -0.1530  0.2071
  967SOL    HW114534   2.982   2.194   7.297  0.7562  1.2644 -1.2606
  967SOL    HW214535   3.101   2.099   7.293  0.2273  1.7148  0.9976
  968SOL     OW14536   0.769   3.628  15.729  0.2736 -0.2402  0.4968
  968SOL    HW114537   0.841   3.661  15.676  0.9587 -0.7997  1.0893
  968SOL    HW214538   0.710   3.704  15.736 -1.4792 -1.2287 -3.4595
  969SOL     OW14539   1.688   1.576   2.998 -0.2584  0.3569  0.0631
  969SOL    HW114540   1.696   1.611   2.909 -0.5556  0.0096 -0.0970
  969SOL    HW214541   1.765   1.612   3.043  0.5169 -0.0569 -0.9532
  970SOL     OW14542   3.994   0.796   3.982  0.1899 -0.5858  0.2030
  970SOL    HW114543   3.985   0.889   3.959  1.0843 -0.9711 -1.6676
  970SOL    HW214544   4.060   0.790   4.050  0.9480 -0.7600 -0.5567
  971SOL     OW14545   1.878   0.060  11.370  0.9085 -0.0851 -0.4718
  971SOL    HW114546   1.959   0.015  11.343  1.8866  0.4709  1.5265
  971SOL    HW214547   1.909   0.109  11.446 -2.1997 -0.7308  1.1969
  972SOL     OW14548   2.764   0.714   8.483  0.2126 -0.1318  0.1945
  972SOL    HW114549   2.761   0.626   8.520 -0.6662  0.4735  1.5805
  972SOL    HW214550   2.740   0.764   8.561  2.5418  0.1202  0.7746
  973SOL     OW14551   3.237   3.643   2.270  0.3409 -0.6104  0.4516
  973SOL    HW114552   3.183   3.667   2.195  1.1741 -0.7921 -0.2064
  973SOL    HW214553   3.253   3.732   2.303  1.0938 -1.9739  3.8116
  974SOL     OW14554   0.424   3.109   4.324 -0.6923  0.3683 -0.2629
  974SOL    HW114555   0.424   3.148   4.236 -0.1781 -2.1156 -1.3815
  974SOL    HW214556   0.493   3.045   4.303  0.6682  2.0785 -1.0070
  975SOL     OW14557   2.132   3.505  14.175  0.3065  0.6199  0.0786
  975SOL    HW114558   2.224   3.503  14.150 -0.0715 -0.6162 -1.2141
  975SOL    HW214559   2.130   3.593  14.211  1.7539  1.2639 -1.4056
  976SOL     OW14560   1.251   0.108   2.560  0.1065 -0.1511 -0.3612
  976SOL    HW114561   1.309   0.062   2.499  0.3282  1.2273 -1.1806
  976SOL    HW214562   1.224   0.188   2.515 -1.6204 -1.4969 -1.7313
  977SOL     OW14563   1.966   3.682  12.010  0.4773  0.0563  0.9558
  977SOL    HW114564   1.919   3.727  11.939 -0.1543 -0.5652  0.9781
  977SOL    HW214565   1.957   3.596  11.968  0.9219  1.6389 -2.4170
  978SOL     OW14566   3.297   3.191   2.811 -0.5451 -0.7473  0.2964
  978SOL    HW114567   3.386   3.191   2.777 -1.1219 -3.8474 -1.1889
  978SOL    HW214568   3.278   3.278   2.849  0.8668 -0.8493  1.2133
  979SOL     OW14569   1.798   1.321   8.668  0.3224 -0.5718 -0.0488
  979SOL    HW114570   1.824   1.379   8.597 -1.7023 -0.1024 -0.4069
  979SOL    HW214571   1.703   1.318   8.657  0.3085  0.5122 -0.1684
  980SOL     OW14572   3.584   4.675   7.297 -0.2853  0.1922  0.9974
  980SOL    HW114573   3.531   4.626   7.234 -0.6345  1.6097  0.1872
  980SOL    HW214574   3.524   4.693   7.369  1.6588  2.8498  1.9521
  981SOL     OW14575   1.079   1.934   0.862  0.6277  0.0872  0.1806
  981SOL    HW114576   1.002   1.907   0.911 -2.0801  4.1610 -1.8829
  981SOL    HW214577   1.138   1.859   0.863  2.3925  1.4251 -2.1546
  982SOL     OW14578   0.391   0.939   3.412 -0.1188 -0.9261  0.3818
  982SOL    HW114579   0.335   0.951   3.488 -1.3533  0.9572 -0.8245
  982SOL    HW214580   0.320   0.949   3.349 -0.0778 -3.0191 -0.0083
  983SOL     OW14581   1.914   1.529   7.984 -0.2476 -0.0426  0.0627
  983SOL    HW114582   1.927   1.551   7.892  0.7249 -1.2747 -0.0752
  983SOL    HW214583   1.834   1.477   7.976 -0.9342  1.0575 -0.2562
  984SOL     OW14584   1.402   0.491   3.838 -0.4571  0.1787  0.5039
  984SOL    HW114585   1.386   0.399   3.860 -2.6289  0.2494 -0.8300
  984SOL    HW214586   1.371   0.527   3.921 -1.2458  1.0261 -0.1713
  985SOL     OW14587   1.844   2.794  14.985 -0.3210  0.0421  0.0326
  985SOL    HW114588   1.804   2.709  15.005 -0.9103  0.0125 -1.2749
  985SOL    HW214589   1.894   2.792  15.066 -0.3111  1.6516  0.0590
  986SOL     OW14590   3.720   0.106   5.656  0.1120 -0.2836  0.1786
  986SOL    HW114591   3.784   0.037   5.637 -0.5539 -0.9387  0.3094
  986SOL    HW214592   3.647   0.054   5.690 -2.0223  2.2567 -0.4880
  987SOL     OW14593   1.435   3.605   6.549 -0.3525  0.5538 -0.6713
  987SOL    HW114594   1.353   3.619   6.500 -1.0877  2.2075  1.0369
  987SOL    HW214595   1.410   3.650   6.630 -1.5848 -0.5651 -0.4333
  988SOL     OW14596   2.115   1.056  16.449 -0.3053 -0.1385  1.0495
  988SOL    HW114597   2.125   1.015  16.363 -2.1477 -0.2348  0.8872
  988SOL    HW214598   2.200   1.027  16.483  0.2431  0.2223 -0.0121
  989SOL     OW14599   2.335   0.541  17.292 -0.2694 -0.1166  0.5906
  989SOL    HW114600   2.244   0.517  17.310 -0.1196 -0.5767  0.7307
  989SOL    HW214601   2.393   0.466  17.306 -0.4355 -0.3529  0.0104
  990SOL     OW14602   2.860   4.628   2.023 -0.0602 -0.4266  0.5495
  990SOL    HW114603   2.778   4.650   1.980  0.5586  0.5808 -0.1218
  990SOL    HW214604   2.821   4.594   2.104 -1.2722 -1.1497 -0.3449
  991SOL     OW14605   2.786   2.798   3.099 -0.1775 -0.9878 -0.2263
  991SOL    HW114606   2.869   2.755   3.114 -1.5655 -3.5183  0.1605
  991SOL    HW214607   2.811   2.878   3.053 -0.2808 -0.7767  0.0837
  992SOL     OW14608   0.993   2.076   4.281 -0.2857  0.1464 -0.3735
  992SOL    HW114609   1.077   2.121   4.289 -0.6100  0.6812 -0.0223
  992SOL    HW214610   0.948   2.123   4.351  1.4850  0.1583  0.7455
  993SOL     OW14611   3.390   2.557   3.534 -0.0730  0.0878  0.4958
  993SOL    HW114612   3.323   2.524   3.594 -0.6194 -0.0129 -0.1629
  993SOL    HW214613   3.387   2.650   3.555 -0.8272  0.8492 -2.8816
  994SOL     OW14614   1.387   1.493   2.359  0.3850  0.2905 -0.6732
  994SOL    HW114615   1.446   1.442   2.415 -0.6632  0.5819  0.6795
  994SOL    HW214616   1.307   1.483   2.411 -1.3065 -1.5337 -3.6211
  995SOL     OW14617   2.280   2.407   5.323  0.4120  0.0661  0.3067
  995SOL    HW114618   2.281   2.494   5.285 -2.0010 -1.1232 -2.4956
  995SOL    HW214619   2.312   2.366   5.243  1.0620 -0.4022  0.8039
  996SOL     OW14620   4.137   3.831   8.792  0.3842 -0.1043  0.0259
  996SOL    HW114621   4.110   3.741   8.810 -0.1976 -0.1337 -1.0399
  996SOL    HW214622   4.232   3.824   8.787  0.3610  0.7899 -1.7841
  997SOL     OW14623   4.469   2.382   7.277  0.4953  0.9493  0.0031
  997SOL    HW114624   4.495   2.451   7.216  0.3753  1.1218  0.1479
  997SOL    HW214625   4.520   2.406   7.355  0.9066 -1.1016  0.3721
  998SOL     OW14626   0.344   3.861   6.632  0.2606  0.8294  0.0159
  998SOL    HW114627   0.312   3.832   6.717  0.1193  0.6959 -0.0826
  998SOL    HW214628   0.262   3.875   6.584  0.6517  1.4850 -0.4584
  999SOL     OW14629   4.638   0.902   1.699 -0.1523  0.4848  0.0777
  999SOL    HW114630   4.716   0.957   1.688 -0.9681  0.7788 -4.2334
  999SOL    HW214631   4.565   0.961   1.681  0.2426  0.8651 -0.3130
 1000SOL     OW14632   0.511   0.280   6.477  0.3288 -0.0228  0.2854
 1000SOL    HW114633   0.454   0.356   6.474  2.7997  1.7770 -1.3491
 1000SOL    HW214634   0.451   0.216   6.438  0.4806  0.0906 -0.1412
 1001SOL     OW14635   3.495   0.379   2.704  0.5370 -0.5829  0.0912
 1001SOL    HW114636   3.478   0.457   2.652  3.8832 -1.6236 -2.4983
 1001SOL    HW214637   3.485   0.318   2.631  0.9595  1.0973 -1.3515
 1002SOL     OW14638   3.525   1.895   2.713 -0.1227  0.0377  0.5334
 1002SOL    HW114639   3.540   1.820   2.655  1.9586  1.1882 -0.4125
 1002SOL    HW214640   3.447   1.875   2.764 -0.4745  2.0433  0.7940
 1003SOL     OW14641   2.549   3.827  16.826  0.0383 -0.1248 -0.4488
 1003SOL    HW114642   2.547   3.811  16.732  1.9776  0.1826 -0.5363
 1003SOL    HW214643   2.481   3.894  16.830 -0.1116 -0.3721  1.0550
 1004SOL     OW14644   1.695   1.308   8.925 -0.2755  0.1943 -0.4585
 1004SOL    HW114645   1.737   1.334   9.007 -1.4946 -0.9296  0.5355
 1004SOL    HW214646   1.768   1.295   8.865  0.0135  4.4484 -0.9861
 1005SOL     OW14647   0.176   2.618   7.383 -0.0708  0.3985  0.8649
 1005SOL    HW114648   0.123   2.668   7.320  0.7518 -1.1827 -1.0965
 1005SOL    HW214649   0.153   2.669   7.460  1.0239  3.0830 -0.5664
 1006SOL     OW14650   4.571   1.327  10.691 -0.5610 -0.2947 -0.0636
 1006SOL    HW114651   4.641   1.313  10.627  0.9978 -2.8763  2.1988
 1006SOL    HW214652   4.600   1.265  10.758 -1.7115 -1.0466 -0.2697
 1007SOL     OW14653   0.005   4.264   9.461 -0.9481  0.0923  0.1746
 1007SOL    HW114654   0.005   4.357   9.482  1.2239  0.2930 -0.6993
 1007SOL    HW214655   4.667   4.226   9.511 -1.0509  1.7379  1.2569
 1008SOL     OW14656   3.620   4.472  15.986  0.4363 -0.2989  0.0544
 1008SOL    HW114657   3.701   4.421  15.996 -0.3359 -1.7278 -0.8449
 1008SOL    HW214658   3.566   4.425  15.922  1.0539  1.4353 -1.7289
 1009SOL     OW14659   2.207   0.336   6.381  1.0508  0.2921  0.2131
 1009SOL    HW114660   2.211   0.432   6.372 -1.3157  0.3589  0.0352
 1009SOL    HW214661   2.299   0.311   6.387  1.0899  0.8044  1.8909
 1010SOL     OW14662   1.413   4.233   9.846  0.2058 -0.5155  0.0137
 1010SOL    HW114663   1.464   4.204   9.922 -0.7490 -3.0200 -0.3343
 1010SOL    HW214664   1.322   4.220   9.872  0.3821 -0.3891  0.7074
 1011SOL     OW14665   2.364   1.447   9.128 -0.6044 -0.2961  0.3666
 1011SOL    HW114666   2.459   1.462   9.129 -0.7073  0.3296  0.4299
 1011SOL    HW214667   2.357   1.402   9.043  0.9850 -2.4333  1.3696
 1012SOL     OW14668   3.793   1.516  10.579 -0.4872 -0.0140  0.2551
 1012SOL    HW114669   3.757   1.602  10.558 -2.5940 -0.6671  1.1862
 1012SOL    HW214670   3.882   1.538  10.606 -0.8024 -0.4677  1.6454
 1013SOL     OW14671   4.321   4.522   4.180  0.0592  0.4170 -0.2948
 1013SOL    HW114672   4.391   4.488   4.125 -0.3589 -0.5025 -0.2530
 1013SOL    HW214673   4.303   4.602   4.131  0.4212  0.7878  0.1807
 1014SOL     OW14674   0.395   4.618   1.120  0.0531 -0.2397  0.4934
 1014SOL    HW114675   0.368   4.702   1.156 -0.0800 -0.6778  1.4016
 1014SOL    HW214676   0.490   4.627   1.128  0.0925 -0.8574  0.7042
 1015SOL     OW14677   4.396   4.567  13.833  0.0791 -0.0090  0.4092
 1015SOL    HW114678   4.476   4.558  13.885  2.0230  1.1820 -2.3028
 1015SOL    HW214679   4.398   4.663  13.826  1.6876 -0.1065 -0.6641
 1016SOL     OW14680   2.164   4.092   5.199 -0.0864 -0.1208 -0.2356
 1016SOL    HW114681   2.119   4.038   5.134  1.2642 -0.6625 -0.7221
 1016SOL    HW214682   2.104   4.167   5.204 -1.3666 -1.2230  0.7427
 1017SOL     OW14683   0.254   3.190   7.600 -0.2456 -0.5952  0.0980
 1017SOL    HW114684   0.346   3.185   7.626 -0.0959 -0.7313 -0.4524
 1017SOL    HW214685   0.215   3.220   7.682 -0.8026  2.0891 -1.1316
 1018SOL     OW14686   1.200   0.207   9.252 -0.5085 -0.1895  0.0652
 1018SOL    HW114687   1.210   0.212   9.347 -1.8924  0.8024  0.1649
 1018SOL    HW214688   1.104   0.208   9.258 -0.4988 -3.0087  0.3394
 1019SOL     OW14689   3.947   3.977   2.414  0.2630  0.2217 -0.7424
 1019SOL    HW114690   3.985   3.893   2.440 -1.2286  0.3048  1.6876
 1019SOL    HW214691   3.962   4.037   2.487 -1.1366 -0.3578  0.0268
 1020SOL     OW14692   0.494   1.344   5.055 -0.0621 -0.8136  0.2963
 1020SOL    HW114693   0.461   1.430   5.029 -0.5882  0.0568  3.8020
 1020SOL    HW214694   0.568   1.327   4.997 -0.3571 -1.9387  0.2577
 1021SOL     OW14695   0.954   3.464   2.393  0.7333  0.0972 -0.4788
 1021SOL    HW114696   0.982   3.388   2.444 -0.8294  0.3703  0.7748
 1021SOL    HW214697   1.038   3.509   2.383  1.7420 -2.1026 -1.9494
 1022SOL     OW14698   3.324   0.754  13.473 -0.0168 -0.0745  0.6681
 1022SOL    HW114699   3.378   0.776  13.549 -0.2459 -1.4403  1.2383
 1022SOL    HW214700   3.290   0.839  13.447 -0.4656 -1.0748 -1.9964
 1023SOL     OW14701   0.879   0.080   2.341 -0.2729  0.3625  0.6011
 1023SOL    HW114702   0.879   0.031   2.423  3.7190 -0.1680  0.3115
 1023SOL    HW214703   0.801   0.050   2.295  1.1892  0.4707 -1.9320
 1024SOL     OW14704   2.019   3.558   3.992 -0.3133 -0.7020  0.1677
 1024SOL    HW114705   2.035   3.466   3.974 -1.9956 -1.0736  0.5747
 1024SOL    HW214706   2.032   3.592   3.903  1.6938 -0.9313  0.3823
 1025SOL     OW14707   3.119   2.858  10.450  0.9787  0.3302 -0.5701
 1025SOL    HW114708   3.136   2.933  10.507  1.8154 -0.8562  0.7388
 1025SOL    HW214709   3.109   2.785  10.512 -5.0827  1.6229  0.0129
 1026SOL     OW14710   0.423   0.916   4.015  0.6688  0.4568 -0.4871
 1026SOL    HW114711   0.498   0.910   3.956  0.5420 -0.1705 -0.5760
 1026SOL    HW214712   0.376   0.991   3.977 -1.7230  0.0330  1.6179
 1027SOL     OW14713   2.390   3.980   5.329 -0.2534 -0.4664 -0.0336
 1027SOL    HW114714   2.437   4.043   5.383 -1.0630  0.7850 -0.7653
 1027SOL    HW214715   2.307   4.026   5.315 -0.9686 -1.5831  0.5173
 1028SOL     OW14716   3.035   1.614  12.469 -0.1560 -0.3823  0.6368
 1028SOL    HW114717   3.017   1.549  12.402 -0.4090  1.3174 -0.9709
 1028SOL    HW214718   2.948   1.648  12.493  0.2332  1.9056 -1.1587
 1029SOL     OW14719   2.892   0.188   9.488  0.0464 -0.2417  0.6913
 1029SOL    HW114720   2.873   0.280   9.468 -0.4998 -0.5361 -0.1694
 1029SOL    HW214721   2.955   0.162   9.421  0.8502 -1.3597  1.8981
 1030SOL     OW14722   3.932   2.926   5.443  0.1400  0.8164 -0.0398
 1030SOL    HW114723   3.863   2.923   5.377 -1.2895 -0.1775  1.4848
 1030SOL    HW214724   3.947   3.018   5.462  0.0118  0.6968  0.6764
 1031SOL     OW14725   2.394   1.617  13.446 -0.2814 -0.2689  0.0703
 1031SOL    HW114726   2.439   1.590  13.366  0.0833  0.5632  0.0061
 1031SOL    HW214727   2.351   1.698  13.419 -0.6544 -1.0318 -1.6052
 1032SOL     OW14728   0.012   0.974   8.360  0.0587 -0.3028  0.1681
 1032SOL    HW114729   0.028   0.900   8.419  0.9565  1.1342  1.7210
 1032SOL    HW214730   0.097   1.017   8.368 -0.5193  0.6306  1.1780
 1033SOL     OW14731   3.358   3.206   3.488  0.2075 -0.5453  0.2595
 1033SOL    HW114732   3.444   3.232   3.521  1.1130 -0.0551 -2.4406
 1033SOL    HW214733   3.337   3.279   3.430  0.1794 -2.0762 -1.6539
 1034SOL     OW14734   0.215   1.987   1.824 -0.0825 -0.7172  0.1519
 1034SOL    HW114735   0.204   1.908   1.879  2.6067 -0.9997  0.3186
 1034SOL    HW214736   0.294   2.021   1.866 -1.3706  1.5135  0.7347
 1035SOL     OW14737   2.354   0.883   4.435  0.3077 -0.4484 -0.2713
 1035SOL    HW114738   2.390   0.837   4.360 -1.8205 -1.3495 -0.7312
 1035SOL    HW214739   2.366   0.815   4.501 -1.4218  0.8449  1.3779
 1036SOL     OW14740   2.189   4.565   4.429  0.0630  0.2636  0.4298
 1036SOL    HW114741   2.112   4.571   4.374 -2.4672 -0.1920  3.9056
 1036SOL    HW214742   2.198   4.658   4.446  4.5204 -0.5384  2.5052
 1037SOL     OW14743   4.198   0.264   6.218 -0.0594  0.9299  0.2472
 1037SOL    HW114744   4.145   0.193   6.253  0.8878 -0.0610 -0.3157
 1037SOL    HW214745   4.283   0.233   6.249 -0.5087 -0.3210  0.2283
 1038SOL     OW14746   2.447   2.483  12.988  0.0477  0.2858 -0.1292
 1038SOL    HW114747   2.489   2.549  13.043  3.1662 -1.4699 -0.3646
 1038SOL    HW214748   2.372   2.538  12.966 -0.6793 -0.8743 -0.4925
 1039SOL     OW14749   1.644   2.351   7.161  0.1252  0.0560 -0.0406
 1039SOL    HW114750   1.657   2.355   7.066 -0.5482  1.9746 -0.0392
 1039SOL    HW214751   1.625   2.442   7.182  2.0885  0.6453 -0.8749
 1040SOL     OW14752   2.983   2.316  10.165 -0.1575  0.2337  0.2132
 1040SOL    HW114753   2.953   2.236  10.208  1.3648 -0.0182  0.7917
 1040SOL    HW214754   2.943   2.314  10.078 -0.1272  0.5769  0.1904
 1041SOL     OW14755   2.162   0.917   1.301  0.3883  0.3760  0.3610
 1041SOL    HW114756   2.147   0.976   1.375 -1.5421 -0.4819  0.6580
 1041SOL    HW214757   2.101   0.968   1.247  1.6012  0.9485 -0.4446
 1042SOL     OW14758   1.244   3.112  15.198 -0.2622 -0.2425  0.1756
 1042SOL    HW114759   1.213   3.082  15.113  1.0634 -2.5196  0.4724
 1042SOL    HW214760   1.202   3.049  15.257 -0.5517 -0.7426 -0.5677
 1043SOL     OW14761   3.356   3.038   7.949 -0.6811 -0.1112  0.1056
 1043SOL    HW114762   3.435   3.055   7.898  0.2404  1.1735  1.9635
 1043SOL    HW214763   3.401   3.017   8.031 -0.1964  0.9304  0.1087
 1044SOL     OW14764   4.234   3.027   3.950 -0.2315  0.0545 -0.3752
 1044SOL    HW114765   4.157   3.010   3.897  0.8092  0.4932 -2.0317
 1044SOL    HW214766   4.251   2.937   3.980  0.8072  0.4763  0.3026
 1045SOL     OW14767   3.625   1.440   6.116  0.3034  0.1643 -0.0468
 1045SOL    HW114768   3.633   1.519   6.170 -0.1509  0.4939 -0.4596
 1045SOL    HW214769   3.715   1.410   6.101  0.7503 -0.1641  3.1597
 1046SOL     OW14770   3.378   1.550   7.527  0.1822  0.3006 -0.4761
 1046SOL    HW114771   3.332   1.539   7.610 -0.1497  0.6399 -0.6147
 1046SOL    HW214772   3.358   1.468   7.484 -0.5253  0.0651  0.2943
 1047SOL     OW14773   2.718   0.972   6.845  0.3203 -0.2928  0.4025
 1047SOL    HW114774   2.656   1.002   6.778  0.3744 -0.7408  0.1559
 1047SOL    HW214775   2.795   1.018   6.812 -0.4152 -1.3354 -2.8064
 1048SOL     OW14776   4.259   3.096   8.643 -0.5686  0.2648  0.0950
 1048SOL    HW114777   4.270   3.186   8.674  0.3776 -0.4444  1.8295
 1048SOL    HW214778   4.341   3.090   8.594 -1.8485  0.3084 -2.0442
 1049SOL     OW14779   3.672   0.443   2.186  0.9656  0.4876 -0.1868
 1049SOL    HW114780   3.749   0.405   2.143 -0.8863 -0.2342 -2.8613
 1049SOL    HW214781   3.611   0.397   2.129 -0.0723  0.8834  0.5968
 1050SOL     OW14782   2.205   3.253   7.926 -0.5268  0.0577  0.0863
 1050SOL    HW114783   2.126   3.215   7.966 -1.5864  0.4707 -1.6387
 1050SOL    HW214784   2.175   3.311   7.857  0.1912  1.6528  1.1241
 1051SOL     OW14785   4.582   1.473  15.076 -0.3922  0.3152 -0.2904
 1051SOL    HW114786   4.631   1.435  15.149 -0.3390 -0.0351 -0.5113
 1051SOL    HW214787   4.505   1.510  15.120 -0.9911 -1.8997  0.5206
 1052SOL     OW14788   2.156   0.004  13.562  0.6915 -0.3688  0.3684
 1052SOL    HW114789   2.116   4.651  13.568 -0.2032 -0.0826 -1.5891
 1052SOL    HW214790   2.207   0.002  13.481 -0.6239 -0.6635 -0.4456
 1053SOL     OW14791   3.982   1.467  17.324 -0.3416  0.1509  0.0249
 1053SOL    HW114792   3.977   1.476  17.419 -1.6154  0.1625 -0.0390
 1053SOL    HW214793   4.030   1.548  17.308 -0.1867 -0.0200 -0.3746
 1054SOL     OW14794   0.515   1.976   3.742 -0.0922 -0.3314  0.6122
 1054SOL    HW114795   0.452   1.909   3.715  1.8049 -2.3638  1.2295
 1054SOL    HW214796   0.540   2.005   3.654 -4.0157  2.3591  0.3694
 1055SOL     OW14797   3.727   0.656   5.008 -1.0319 -0.4292 -0.1171
 1055SOL    HW114798   3.680   0.697   4.936 -0.2049 -1.3180 -1.1622
 1055SOL    HW214799   3.784   0.723   5.046 -1.3760 -1.4846  2.2743
 1056SOL     OW14800   0.780   3.850   2.684  0.0918 -0.0726  0.0425
 1056SOL    HW114801   0.740   3.924   2.730  0.2891 -0.3265  0.6229
 1056SOL    HW214802   0.796   3.897   2.602 -0.7368 -0.6204 -0.4393
 1057SOL     OW14803   0.059   0.981   2.234  0.3773 -0.1546  0.3520
 1057SOL    HW114804   0.029   1.040   2.165  0.9317  1.0988  1.1724
 1057SOL    HW214805   0.078   0.898   2.190  0.3273 -0.5852  1.1295
 1058SOL     OW14806   2.623   1.129   8.134  0.1015  0.5730  0.2328
 1058SOL    HW114807   2.605   1.129   8.228 -0.8560  0.8567  0.0433
 1058SOL    HW214808   2.535   1.120   8.098  1.5283 -2.0299 -2.6599
 1059SOL     OW14809   0.907   0.388   4.102  0.5183  0.4053 -0.1303
 1059SOL    HW114810   0.941   0.300   4.085 -0.5590  0.0966 -0.7528
 1059SOL    HW214811   0.937   0.431   4.022 -0.3089 -0.5572 -0.9633
 1060SOL     OW14812   0.814   3.938  12.251  0.7728  0.3772  0.3015
 1060SOL    HW114813   0.803   3.852  12.291  0.9570  0.8040  1.2656
 1060SOL    HW214814   0.813   3.997  12.326  3.6559  0.2273  0.4359
 1061SOL     OW14815   0.952   4.693   4.623 -0.0124 -0.1332  0.2470
 1061SOL    HW114816   0.967   4.667   4.714  0.7618  0.4603  0.2826
 1061SOL    HW214817   0.938   4.610   4.577  0.1214 -1.0976  1.9364
 1062SOL     OW14818   1.886   4.537   5.990  0.2772 -0.3735 -0.5376
 1062SOL    HW114819   1.916   4.558   5.902 -0.4938 -1.4029 -1.0563
 1062SOL    HW214820   1.964   4.575   6.029  0.7379 -3.2583  1.3098
 1063SOL     OW14821   1.648   0.661   8.379  0.0863 -0.4015 -0.0154
 1063SOL    HW114822   1.559   0.649   8.347  0.0577 -0.4545  0.0812
 1063SOL    HW214823   1.646   0.590   8.444  1.5334  2.0462  2.6692
 1064SOL     OW14824   4.028   2.587   6.601 -0.2751 -0.7798 -0.0501
 1064SOL    HW114825   4.122   2.586   6.583 -0.3359  1.0158 -0.4445
 1064SOL    HW214826   3.987   2.542   6.526 -1.7920 -0.7492  0.7570
 1065SOL     OW14827   2.522   4.344   2.796  0.7241 -0.3060 -0.0413
 1065SOL    HW114828   2.557   4.416   2.847 -0.7839  0.4656 -0.1004
 1065SOL    HW214829   2.427   4.358   2.804  0.7507 -0.8698  1.1883
 1066SOL     OW14830   2.223   3.783  13.083 -0.5388  0.5899  0.0096
 1066SOL    HW114831   2.284   3.845  13.042  0.0884 -0.2571 -0.3340
 1066SOL    HW214832   2.182   3.732  13.014  0.5585 -0.6432  0.2731
 1067SOL     OW14833   4.512   0.798   8.967 -0.0560  0.5193  0.2312
 1067SOL    HW114834   4.515   0.838   8.880 -2.0133 -1.8241 -0.9062
 1067SOL    HW214835   4.596   0.752   8.962  0.0086  0.7811 -0.9200
 1068SOL     OW14836   1.419   0.094  10.275 -0.2807  0.0406 -0.3238
 1068SOL    HW114837   1.415   0.116  10.368  2.2714  0.3725 -0.2860
 1068SOL    HW214838   1.324   0.092  10.261 -0.1468 -0.2087 -1.1685
 1069SOL     OW14839   0.797   0.499   6.295 -0.1415  0.2359 -0.1036
 1069SOL    HW114840   0.883   0.466   6.267 -0.5376 -1.3362  0.5354
 1069SOL    HW214841   0.742   0.467   6.223 -3.5164  1.5895  1.9148
 1070SOL     OW14842   0.425   3.771   4.882 -0.4142  0.4722 -0.2657
 1070SOL    HW114843   0.363   3.780   4.954 -0.0742 -0.3772  0.1340
 1070SOL    HW214844   0.491   3.829   4.921  0.5783 -1.2424  0.6509
 1071SOL     OW14845   0.477   3.843   3.673  0.3567  0.3394  0.2277
 1071SOL    HW114846   0.384   3.867   3.681  0.7957  0.9604  3.4254
 1071SOL    HW214847   0.504   3.895   3.597 -1.7518  1.3578  0.1732
 1072SOL     OW14848   2.547   0.672   6.046  0.6121  0.0981  0.1060
 1072SOL    HW114849   2.559   0.752   5.994 -0.7359  0.8396  0.9513
 1072SOL    HW214850   2.452   0.667   6.051  0.6285  0.6037  0.8441
 1073SOL     OW14851   3.183   2.952  11.698 -0.0764  0.5856  0.0873
 1073SOL    HW114852   3.246   2.888  11.665 -3.1742 -1.7103 -1.3623
 1073SOL    HW214853   3.157   2.915  11.783 -2.9371  2.2642 -0.0600
 1074SOL     OW14854   0.671   0.804   7.984  0.3870  0.7016  0.1653
 1074SOL    HW114855   0.737   0.854   7.937  0.7377 -0.9676 -1.1168
 1074SOL    HW214856   0.711   0.814   8.071  0.1912  1.2282  0.1888
 1075SOL     OW14857   4.538   3.015   4.686  0.3901  0.7227  1.0530
 1075SOL    HW114858   4.510   3.041   4.775  1.7103  0.2760  1.5894
 1075SOL    HW214859   4.456   3.007   4.638  0.8537  1.5693  0.1215
 1076SOL     OW14860   1.529   1.314  12.521 -0.0108 -0.0080  0.2066
 1076SOL    HW114861   1.586   1.342  12.450  1.8399 -2.2329  0.8044
 1076SOL    HW214862   1.524   1.396  12.571 -1.2571 -0.3033  0.5716
 1077SOL     OW14863   4.411   3.186   9.105  0.1657 -0.3619  0.2769
 1077SOL    HW114864   4.368   3.252   9.051  0.4692  0.2732  0.8086
 1077SOL    HW214865   4.396   3.112   9.045  2.2603  0.4014 -1.1929
 1078SOL     OW14866   4.061   3.876   5.688 -0.7765  0.3987  0.6704
 1078SOL    HW114867   3.966   3.868   5.682 -0.8257 -0.3007  2.4748
 1078SOL    HW214868   4.077   3.817   5.615 -0.1756 -0.9313  1.8761
 1079SOL     OW14869   1.865   3.400   3.200  0.1349  0.4461 -0.1288
 1079SOL    HW114870   1.847   3.479   3.150 -1.4008  0.0805 -0.1456
 1079SOL    HW214871   1.955   3.423   3.223  0.8644 -1.7139 -0.8012
 1080SOL     OW14872   3.232   2.817   7.857  0.1860 -0.3258  0.4605
 1080SOL    HW114873   3.273   2.748   7.909  1.0191  0.5686  0.9920
 1080SOL    HW214874   3.272   2.899   7.887 -1.1279  0.4871  0.0195
 1081SOL     OW14875   3.022   4.133  17.378  0.0596 -0.0936  0.2330
 1081SOL    HW114876   3.001   4.041  17.359 -3.0981  0.0514  3.0000
 1081SOL    HW214877   3.001   4.171  17.293 -0.9287 -0.4403  0.3178
 1082SOL     OW14878   0.304   1.238   2.571  0.1957  0.2718 -0.2536
 1082SOL    HW114879   0.378   1.182   2.597 -0.6384 -0.3483  0.7697
 1082SOL    HW214880   0.345   1.324   2.577 -0.3062  0.4150  1.1202
 1083SOL     OW14881   2.172   3.480  17.537 -0.1658 -0.7618  0.0888
 1083SOL    HW114882   2.164   3.510  17.447  0.2153  0.1290  0.3474
 1083SOL    HW214883   2.210   3.559  17.578  0.1688  0.1712 -2.0322
 1084SOL     OW14884   2.564   2.101   5.634  0.0684 -0.0580 -0.0470
 1084SOL    HW114885   2.557   2.009   5.660  0.7412  0.2444  1.2052
 1084SOL    HW214886   2.646   2.100   5.585  0.6527 -1.8874  0.9514
 1085SOL     OW14887   0.212   2.361   4.257 -0.2028  0.2680  0.2101
 1085SOL    HW114888   0.233   2.333   4.168 -3.0949 -1.8254  0.1796
 1085SOL    HW214889   0.119   2.338   4.255 -0.0346 -0.2840 -1.2244
 1086SOL     OW14890   1.155   2.845   4.253  0.2960 -0.1311 -0.2485
 1086SOL    HW114891   1.250   2.845   4.238  0.3245 -3.6102 -0.2384
 1086SOL    HW214892   1.132   2.915   4.192 -0.5843 -0.8618 -0.7481
 1087SOL     OW14893   3.134   3.175   8.016 -0.1547 -0.0951 -0.3738
 1087SOL    HW114894   3.210   3.150   7.963 -1.9324 -0.2357 -2.8509
 1087SOL    HW214895   3.172   3.205   8.098 -0.5819  2.0968 -0.9811
 1088SOL     OW14896   0.078   2.252   5.597 -0.6104  0.3038 -0.4122
 1088SOL    HW114897   0.164   2.272   5.558 -0.7640 -1.4638 -1.6694
 1088SOL    HW214898   0.042   2.186   5.538 -1.6219  0.5855 -0.1113
 1089SOL     OW14899   4.113   3.600   2.693  0.8112 -0.2437  0.2755
 1089SOL    HW114900   4.165   3.616   2.771 -0.3617 -0.4766  1.1015
 1089SOL    HW214901   4.025   3.609   2.729  0.3367 -0.3613 -0.8353
 1090SOL     OW14902   0.633   1.304   1.325 -0.5156  0.1863 -0.7446
 1090SOL    HW114903   0.607   1.287   1.235  0.9653  0.2285 -1.1886
 1090SOL    HW214904   0.695   1.232   1.338  3.6079  4.1517  1.3448
 1091SOL     OW14905   3.190   1.963   6.243 -0.0628  0.4170 -0.5749
 1091SOL    HW114906   3.229   2.047   6.269 -0.2206  0.4618 -0.4828
 1091SOL    HW214907   3.157   1.923   6.323 -1.6959 -2.1769 -2.5549
 1092SOL     OW14908   3.411   2.902  14.946  0.4680  0.0073  0.5641
 1092SOL    HW114909   3.405   2.942  14.859 -0.1131  3.3147  2.1307
 1092SOL    HW214910   3.345   2.832  14.948  2.5064 -1.9033  1.0208
 1093SOL     OW14911   0.523   4.029  14.524 -0.4386 -0.5504 -0.2104
 1093SOL    HW114912   0.530   4.091  14.597 -0.2849 -0.0316 -0.6601
 1093SOL    HW214913   0.602   3.977  14.521 -0.4535 -0.6936  1.5021
 1094SOL     OW14914   4.574   3.684   7.758  0.3432 -0.1847  0.3019
 1094SOL    HW114915   4.481   3.663   7.768  0.7430 -1.3249  1.5947
 1094SOL    HW214916   4.591   3.691   7.852  2.9869  1.2036 -0.2925
 1095SOL     OW14917   3.970   0.444   7.222 -0.4846 -0.0849 -0.1643
 1095SOL    HW114918   3.988   0.449   7.316  0.2094 -1.5155 -0.2317
 1095SOL    HW214919   3.985   0.353   7.199 -0.5316 -0.3862  0.9766
 1096SOL     OW14920   0.237   0.839  14.286 -0.2800 -0.3000 -0.4907
 1096SOL    HW114921   0.238   0.863  14.193 -0.3066  0.2021 -0.3656
 1096SOL    HW214922   0.145   0.856  14.308  0.0235  0.0703  0.4838
 1097SOL     OW14923   1.865   0.179   2.629  0.2095  0.1046 -0.2623
 1097SOL    HW114924   1.942   0.201   2.680  1.4199  2.0178 -2.9447
 1097SOL    HW214925   1.800   0.221   2.686  0.6550  0.2058  0.1712
 1098SOL     OW14926   0.784   1.664   3.562  0.1006  0.2883 -0.1851
 1098SOL    HW114927   0.699   1.680   3.520 -0.6842  0.4915  1.4814
 1098SOL    HW214928   0.756   1.686   3.651 -1.0629  1.2222 -0.7775
 1099SOL     OW14929   1.664   4.531   5.723  0.0957  0.1077  0.2351
 1099SOL    HW114930   1.756   4.555   5.726 -0.4645  2.2711  0.6491
 1099SOL    HW214931   1.668   4.456   5.664  1.3597  0.4255 -0.0697
 1100SOL     OW14932   3.592   2.981   5.767 -0.0129 -0.7838  0.4167
 1100SOL    HW114933   3.629   3.051   5.821  2.7495 -1.3766 -0.7156
 1100SOL    HW214934   3.573   3.029   5.686 -0.7425  0.2007  1.1735
 1101SOL     OW14935   3.370   1.207  11.395 -0.4291  0.0322  0.3833
 1101SOL    HW114936   3.391   1.115  11.409  2.1782  1.0687  3.2919
 1101SOL    HW214937   3.374   1.197  11.300  1.4554 -1.3604  0.6115
 1102SOL     OW14938   1.908   1.520   4.721 -0.0317  0.3149  0.4736
 1102SOL    HW114939   1.890   1.429   4.696 -0.3112  1.0041 -1.7962
 1102SOL    HW214940   2.003   1.509   4.723  0.1249  1.4995 -0.3480
 1103SOL     OW14941   1.483   0.176   1.572 -0.3961  0.1900 -0.4110
 1103SOL    HW114942   1.451   0.086   1.568  2.7161 -0.8648 -0.8635
 1103SOL    HW214943   1.399   0.223   1.571 -1.6864 -2.0985 -1.0119
 1104SOL     OW14944   0.199   2.892   4.704  0.3175 -0.4943  0.5368
 1104SOL    HW114945   0.147   2.943   4.642  0.9664 -0.4338  0.0427
 1104SOL    HW214946   0.180   2.809   4.661  0.7721  0.0703 -0.7518
 1105SOL     OW14947   1.150   0.533   9.803  0.5562  0.4903 -0.6890
 1105SOL    HW114948   1.116   0.613   9.842 -0.9107  1.1722 -3.3312
 1105SOL    HW214949   1.108   0.464   9.854  1.7383  0.9581  0.8905
 1106SOL     OW14950   3.743   4.160  16.658  0.3867 -0.2297  0.3181
 1106SOL    HW114951   3.765   4.082  16.708 -0.9578 -0.4459  0.5750
 1106SOL    HW214952   3.825   4.208  16.666  0.9010 -1.1904  0.8308
 1107SOL     OW14953   0.477   2.560   9.768  0.5415 -0.2441 -0.6028
 1107SOL    HW114954   0.498   2.653   9.761 -1.6354  0.1368 -2.1305
 1107SOL    HW214955   0.445   2.561   9.858  0.8629 -0.1836 -0.4904
 1108SOL     OW14956   1.973   3.972   7.059 -0.1690  0.1695  0.4184
 1108SOL    HW114957   1.979   4.020   7.141  1.9962 -0.8035  0.8236
 1108SOL    HW214958   2.065   3.948   7.043 -0.5643 -1.4532  0.5588
 1109SOL     OW14959   3.989   4.464   2.067  0.3211  0.1452 -0.3061
 1109SOL    HW114960   3.912   4.409   2.055  1.7340 -1.7571 -0.6752
 1109SOL    HW214961   4.033   4.449   1.983 -2.1076  0.2634 -1.6011
 1110SOL     OW14962   1.920   4.495   1.230  0.0346  0.1061  0.6248
 1110SOL    HW114963   1.976   4.441   1.285 -1.3966 -1.8203  0.1893
 1110SOL    HW214964   1.894   4.567   1.287  1.7475  0.9062  0.3934
 1111SOL     OW14965   0.368   4.503   7.992 -0.3840  0.5749 -0.3152
 1111SOL    HW114966   0.310   4.560   8.043 -0.6570 -1.1712  1.3628
 1111SOL    HW214967   0.455   4.537   8.013  0.4576 -0.3385 -2.3956
 1112SOL     OW14968   2.311   0.495   9.014 -0.0586  0.1427  0.6318
 1112SOL    HW114969   2.263   0.512   9.094  0.6354  0.1299  1.0494
 1112SOL    HW214970   2.248   0.535   8.953 -0.2325  0.9375  1.3295
 1113SOL     OW14971   4.114   2.880  17.323  0.6559 -0.0112  0.0056
 1113SOL    HW114972   4.149   2.832  17.247  0.7838  0.6992 -0.3814
 1113SOL    HW214973   4.047   2.937  17.287  0.1117 -1.3613 -1.1472
 1114SOL     OW14974   0.054   4.640  17.345  0.0628  0.5231  0.0413
 1114SOL    HW114975   0.014   4.562  17.306 -1.7111 -0.4088  3.7790
 1114SOL    HW214976   0.126   4.603  17.395 -1.8663 -2.2895  0.7617
 1115SOL     OW14977   0.980   4.729  14.389 -0.4361  0.2591 -0.8571
 1115SOL    HW114978   0.973   0.051  14.466 -0.6865  0.7499 -1.2400
 1115SOL    HW214979   0.887   4.709  14.382 -0.3824  0.3713 -1.9068
 1116SOL     OW14980   1.961   0.130   6.648 -0.3525 -0.4872 -0.8545
 1116SOL    HW114981   2.004   0.144   6.563 -0.1782 -0.5151 -0.7710
 1116SOL    HW214982   1.961   0.034   6.654  1.3250 -0.6138 -3.0580
 1117SOL     OW14983   2.438   2.808   2.046 -0.3981  0.0515  0.1885
 1117SOL    HW114984   2.381   2.738   2.079  0.7833 -0.4649  1.1466
 1117SOL    HW214985   2.361   2.863   2.057  0.0725  1.2325 -2.5338
 1118SOL     OW14986   4.432   1.256  14.964  0.2140 -0.3634 -0.5898
 1118SOL    HW114987   4.401   1.224  15.048 -0.8481 -0.3075 -0.9642
 1118SOL    HW214988   4.490   1.329  14.988 -1.6282  0.1811  2.1217
 1119SOL     OW14989   2.915   2.840   3.445 -0.1534  0.0029 -0.2541
 1119SOL    HW114990   2.970   2.906   3.404  1.2860  0.4379  2.3994
 1119SOL    HW214991   2.978   2.785   3.492  0.7255  2.5493  1.5126
 1120SOL     OW14992   3.124   1.024   3.926  0.1164  0.1701 -0.1504
 1120SOL    HW114993   3.055   0.985   3.980 -0.2789  0.9548 -0.0859
 1120SOL    HW214994   3.188   1.045   3.995 -0.1641  0.6280 -0.0295
 1121SOL     OW14995   2.434   2.925   9.886  0.1746 -0.2957 -0.1161
 1121SOL    HW114996   2.438   3.001   9.829 -0.0045 -0.5698 -0.4964
 1121SOL    HW214997   2.393   2.858   9.832 -0.1430 -0.8626  0.8232
 1122SOL     OW14998   1.663   4.431   1.174 -0.2154 -0.7853  0.1365
 1122SOL    HW114999   1.757   4.445   1.190 -1.2575  2.4999  3.4101
 1122SOL    HW215000   1.660   4.340   1.202 -1.2061 -0.5372  0.8554
 1123SOL     OW15001   3.735   3.179  16.639 -0.0533  0.2115 -0.0640
 1123SOL    HW115002   3.664   3.184  16.703 -0.5459 -3.1191 -0.3192
 1123SOL    HW215003   3.791   3.119  16.688  0.4271  0.5108 -0.2445
 1124SOL     OW15004   0.718   0.271  17.719 -0.3189  0.0211  0.4160
 1124SOL    HW115005   0.716   0.367  17.716  1.1542 -0.0087 -1.1583
 1124SOL    HW215006   0.640   0.239   0.029 -1.2257  1.2121 -0.2938
 1125SOL     OW15007   3.981   1.027   7.370 -0.4410 -0.6729 -0.1128
 1125SOL    HW115008   3.935   1.107   7.345 -0.4118 -0.0937  1.6788
 1125SOL    HW215009   3.913   0.985   7.423 -0.7194  0.9768  0.8741
 1126SOL     OW15010   1.547   1.834   0.213 -0.4046 -0.2472 -0.1950
 1126SOL    HW115011   1.487   1.849   0.286  0.4868  1.7766  0.1228
 1126SOL    HW215012   1.617   1.815   0.275 -1.2752 -0.7504  0.6357
 1127SOL     OW15013   4.156   4.069  14.022 -0.6108  0.4185  0.1862
 1127SOL    HW115014   4.227   4.133  14.025 -0.0206 -0.2085 -0.5966
 1127SOL    HW215015   4.080   4.118  13.992  0.2469  0.9163 -1.1603
 1128SOL     OW15016   4.459   4.160  17.121 -0.3778 -0.0990 -0.2361
 1128SOL    HW115017   4.422   4.072  17.115 -0.0950 -0.4781  3.6772
 1128SOL    HW215018   4.483   4.187  17.032  2.6094  0.0644  0.6241
 1129SOL     OW15019   0.670   2.894   1.568 -0.1316  0.5084 -0.0539
 1129SOL    HW115020   0.638   2.983   1.565 -0.1177  0.4864 -0.8544
 1129SOL    HW215021   0.720   2.898   1.486 -0.1233  0.4604 -0.0518
 1130SOL     OW15022   0.492   3.625   3.129  0.3521  0.1894 -0.1020
 1130SOL    HW115023   0.566   3.577   3.166 -1.8316 -4.5746 -1.8367
 1130SOL    HW215024   0.463   3.564   3.060 -1.1856  1.1598 -0.3110
 1131SOL     OW15025   3.074   1.842   4.064  0.2698  0.1818 -0.5513
 1131SOL    HW115026   3.083   1.812   3.973  0.7486 -1.6682  0.1029
 1131SOL    HW215027   2.981   1.850   4.084  0.7925 -0.5182  2.1678
 1132SOL     OW15028   3.846   3.943  11.632 -0.3022 -0.2792 -0.7808
 1132SOL    HW115029   3.797   4.008  11.581  0.3911  0.7386 -0.1511
 1132SOL    HW215030   3.937   3.970  11.617  0.0510 -0.3866  1.1807
 1133SOL     OW15031   2.209   2.358   9.070  0.3235 -0.0372 -0.2622
 1133SOL    HW115032   2.223   2.291   9.136  0.6470 -0.4575 -0.7519
 1133SOL    HW215033   2.208   2.304   8.991 -1.0609 -0.4547  0.0403
 1134SOL     OW15034   3.963   2.840   2.013 -0.0097 -0.1791  0.1835
 1134SOL    HW115035   3.891   2.792   2.054 -1.9176  1.6781 -0.9978
 1134SOL    HW215036   3.936   2.931   2.013  3.7910  0.9665 -1.2783
 1135SOL     OW15037   0.281   3.820  15.861  0.1985  0.1315 -0.5952
 1135SOL    HW115038   0.240   3.863  15.936  1.6946  0.9325 -0.2360
 1135SOL    HW215039   0.219   3.831  15.789 -1.5835  2.5553  1.3048
 1136SOL     OW15040   0.294   1.258  10.090 -0.4132  0.1866  0.0962
 1136SOL    HW115041   0.296   1.338  10.143 -0.7060  0.2695 -0.0142
 1136SOL    HW215042   0.212   1.210  10.100 -0.3518  0.1326  0.3381
 1137SOL     OW15043   2.294   3.302   1.569  0.2412 -0.4429  0.0290
 1137SOL    HW115044   2.311   3.298   1.663 -0.6669  0.4416  0.2290
 1137SOL    HW215045   2.211   3.255   1.565  0.2115 -0.3440 -0.5115
 1138SOL     OW15046   0.141   4.573   3.629  0.0320  0.1107  0.9634
 1138SOL    HW115047   0.136   4.645   3.566  1.0724  0.2918  1.1012
 1138SOL    HW215048   0.047   4.568   3.648 -0.1785  0.6975  0.0613
 1139SOL     OW15049   3.353   3.856   8.803 -0.1590 -0.2339  0.5519
 1139SOL    HW115050   3.335   3.915   8.876 -1.3227  0.1402 -0.0259
 1139SOL    HW215051   3.442   3.837   8.832 -0.1458  0.4143  0.9253
 1140SOL     OW15052   0.905   3.978   4.193  0.6140 -0.3569  1.0895
 1140SOL    HW115053   0.854   3.961   4.273  0.6912  1.0996  1.4440
 1140SOL    HW215054   0.871   3.906   4.139 -0.9911  0.5592  0.8756
 1141SOL     OW15055   1.076   0.468   6.358 -0.0398 -0.0681  0.4089
 1141SOL    HW115056   1.032   0.457   6.443 -2.3102 -2.2450 -1.0481
 1141SOL    HW215057   1.055   0.381   6.324 -0.7722 -0.9899  3.1619
 1142SOL     OW15058   4.604   2.350   0.035 -0.5872  0.2963  0.1489
 1142SOL    HW115059   4.532   2.410   0.055 -1.1531  0.2198 -1.7031
 1142SOL    HW215060   4.574   2.308  17.690 -0.3526  0.3881  0.0128
 1143SOL     OW15061   1.906   1.548   3.970  0.0612  0.2881  0.2290
 1143SOL    HW115062   1.989   1.513   3.938  0.4298 -1.2149  2.8652
 1143SOL    HW215063   1.850   1.548   3.892 -2.3382 -1.1047  1.9597
 1144SOL     OW15064   2.615   4.676   7.601  0.8170  0.0816  0.3695
 1144SOL    HW115065   2.706   4.655   7.581  0.8757  1.7382 -1.1380
 1144SOL    HW215066   2.616   0.037   7.600  1.3136  0.0767  2.5205
 1145SOL     OW15067   1.627   3.919  11.204 -0.3380  0.2163 -0.4509
 1145SOL    HW115068   1.585   3.975  11.270  0.9723 -0.5546  1.0443
 1145SOL    HW215069   1.718   3.911  11.232  0.0754  0.7529 -1.6485
 1146SOL     OW15070   3.029   0.495   9.080  0.2990  0.0792 -0.5125
 1146SOL    HW115071   3.026   0.578   9.127  0.4379 -1.6193  2.4794
 1146SOL    HW215072   2.955   0.503   9.019 -0.5775 -0.8863  0.4183
 1147SOL     OW15073   1.199   0.489   2.267  0.3636  0.6435 -0.1706
 1147SOL    HW115074   1.235   0.570   2.232 -0.7292  0.4578 -1.6876
 1147SOL    HW215075   1.275   0.445   2.305  0.8745  0.7151 -1.1114
 1148SOL     OW15076   0.918   4.440   8.806 -0.2503  0.5183 -0.2094
 1148SOL    HW115077   0.912   4.535   8.819  1.6062  0.4941  0.7677
 1148SOL    HW215078   1.010   4.428   8.830 -0.2455  0.0988 -0.4509
 1149SOL     OW15079   1.104   3.857   7.448  0.3595  0.4257  0.7657
 1149SOL    HW115080   1.141   3.918   7.512 -0.4441  0.1483  1.4924
 1149SOL    HW215081   1.055   3.791   7.496  0.4204  0.8418  1.4021
 1150SOL     OW15082   1.822   4.200   8.483  0.2294 -0.2872  0.1439
 1150SOL    HW115083   1.818   4.109   8.454  0.9046 -0.1415 -0.4026
 1150SOL    HW215084   1.783   4.188   8.570  1.5060 -0.3303  0.7212
 1151SOL     OW15085   3.383   0.157   2.468  0.3803  0.4179  0.2432
 1151SOL    HW115086   3.306   0.189   2.515  0.9595  2.9955 -0.5440
 1151SOL    HW215087   3.336   0.148   2.385  3.6346  0.7830 -1.6226
 1152SOL     OW15088   4.556   0.980   2.394  0.0652  0.3426 -0.0328
 1152SOL    HW115089   4.532   1.068   2.365 -1.1445 -0.4225 -1.3785
 1152SOL    HW215090   4.644   0.970   2.358 -0.3105  0.5175 -1.0134
 1153SOL     OW15091   3.954   1.699   7.249 -0.6308  0.1109 -0.0288
 1153SOL    HW115092   3.902   1.664   7.321 -0.2927  0.4905  0.3954
 1153SOL    HW215093   3.947   1.621   7.194  0.1024  0.0987 -0.1030
 1154SOL     OW15094   0.203   2.765   5.789 -0.1487  0.4013 -0.3120
 1154SOL    HW115095   0.137   2.784   5.723  0.5331  1.8630 -0.5606
 1154SOL    HW215096   0.149   2.736   5.863  3.6032 -1.5255  1.6732
 1155SOL     OW15097   3.825   1.093   2.360  0.2495  0.3946  0.4648
 1155SOL    HW115098   3.751   1.067   2.306  1.2484  1.0070 -1.1993
 1155SOL    HW215099   3.788   1.118   2.445  0.8895 -0.3627  0.9680
 1156SOL     OW15100   0.184   2.625   2.865 -1.0373  0.5425  0.1365
 1156SOL    HW115101   0.133   2.646   2.787 -0.5293 -0.2157 -0.3948
 1156SOL    HW215102   0.183   2.712   2.906 -2.9639  1.1093 -1.0837
 1157SOL     OW15103   4.402   1.320   7.192  0.0304  0.3441  0.0452
 1157SOL    HW115104   4.461   1.289   7.260  0.1987 -0.7150 -0.5779
 1157SOL    HW215105   4.348   1.241   7.184 -0.0792  0.2138  2.2468
 1158SOL     OW15106   0.600   3.929   3.444  0.0226 -0.2746  0.1283
 1158SOL    HW115107   0.551   3.886   3.374 -3.6811 -0.0421  2.5363
 1158SOL    HW215108   0.601   4.021   3.416  0.1494  0.0278  1.1205
 1159SOL     OW15109   1.574   3.658   9.426 -0.6275  0.5576 -0.0741
 1159SOL    HW115110   1.511   3.667   9.498 -0.3710 -3.2388  0.6236
 1159SOL    HW215111   1.510   3.647   9.355 -1.1640 -1.2736  0.6760
 1160SOL     OW15112   3.944   4.191   6.716 -0.1485 -0.3517  0.0244
 1160SOL    HW115113   3.916   4.261   6.658  0.3830  1.1726  1.6072
 1160SOL    HW215114   3.898   4.210   6.798 -0.7912 -3.9058  0.5187
 1161SOL     OW15115   2.526   0.900   8.976  0.4053  0.6506 -0.0678
 1161SOL    HW115116   2.551   0.991   8.958  0.3814  1.0768  2.0232
 1161SOL    HW215117   2.440   0.891   8.935  0.0628 -1.9393  1.2399
 1162SOL     OW15118   4.619   1.634   7.548  0.3064 -0.0420 -0.1104
 1162SOL    HW115119   4.563   1.558   7.531 -1.7823  1.6270 -0.7357
 1162SOL    HW215120   4.613   1.690   7.470 -0.3495  0.1412  0.0738
 1163SOL     OW15121   4.177   2.882   6.402  0.0311 -0.2193 -0.6230
 1163SOL    HW115122   4.192   2.913   6.313  1.1544 -2.3454 -1.1789
 1163SOL    HW215123   4.266   2.850   6.414  0.5595  1.4645 -0.0329
 1164SOL     OW15124   1.422   4.203   8.620  0.3449  0.6711 -0.1887
 1164SOL    HW115125   1.413   4.118   8.576 -1.1057  0.2653  0.8881
 1164SOL    HW215126   1.494   4.173   8.677  0.5453 -3.9974 -2.8930
 1165SOL     OW15127   3.452   2.534  14.961 -0.3682  0.3037 -0.4285
 1165SOL    HW115128   3.395   2.469  15.002  0.9617  0.0711  1.0778
 1165SOL    HW215129   3.381   2.580  14.916 -0.1185  1.8487  0.7528
 1166SOL     OW15130   2.526   2.594  15.335  0.2640  0.2310 -0.4997
 1166SOL    HW115131   2.510   2.688  15.328  0.3260  0.3926  1.5052
 1166SOL    HW215132   2.621   2.590  15.343  0.0661 -3.8537 -0.5200
 1167SOL     OW15133   0.352   2.334   3.981  0.1252  0.3635  0.4825
 1167SOL    HW115134   0.442   2.315   3.955 -0.0863  0.5871 -0.3785
 1167SOL    HW215135   0.307   2.353   3.899 -1.4102  1.1204  1.5120
 1168SOL     OW15136   2.162   4.367   2.473 -0.0320 -0.7400  0.2506
 1168SOL    HW115137   2.119   4.308   2.411 -0.2589  0.4012 -0.6903
 1168SOL    HW215138   2.250   4.330   2.479 -0.7266 -2.3937  0.2819
 1169SOL     OW15139   1.485   1.254  10.994  0.3587  0.1852  0.0785
 1169SOL    HW115140   1.426   1.186  11.027  0.6724 -1.1183 -2.0975
 1169SOL    HW215141   1.572   1.236  11.030  0.2631 -1.1707 -0.3686
 1170SOL     OW15142   4.546   1.843   3.715  0.3069  0.1688 -0.2957
 1170SOL    HW115143   4.552   1.928   3.670  0.5988  0.2773 -0.0461
 1170SOL    HW215144   4.558   1.876   3.804  0.7990 -1.2515  0.1614
 1171SOL     OW15145   2.188   1.457   3.911 -0.0853 -0.0931  0.1090
 1171SOL    HW115146   2.162   1.376   3.867  0.1038 -0.2694  0.3201
 1171SOL    HW215147   2.259   1.423   3.965 -0.3314 -0.9352 -0.0981
 1172SOL     OW15148   0.851   0.836   3.776 -0.0638  0.7531 -0.3023
 1172SOL    HW115149   0.755   0.830   3.771 -0.3198  0.5903  4.4872
 1172SOL    HW215150   0.863   0.890   3.699  1.6848  0.4810 -0.2133
 1173SOL     OW15151   4.589   2.227   4.963  0.4458  0.2666 -0.3816
 1173SOL    HW115152   4.551   2.177   4.892 -1.0346  0.5907  0.1754
 1173SOL    HW215153   4.512   2.232   5.020  0.0952  0.9109 -0.9217
 1174SOL     OW15154   3.377   4.718   6.704  0.3729 -0.1202 -0.8113
 1174SOL    HW115155   3.436   0.055   6.677  1.4744 -0.0985  1.6151
 1174SOL    HW215156   3.308   4.717   6.638 -1.1420  2.3931  0.7151
 1175SOL     OW15157   4.082   0.827   4.583 -0.4537 -0.0516 -0.5217
 1175SOL    HW115158   4.032   0.798   4.507 -0.4133 -1.9655  0.1832
 1175SOL    HW215159   4.171   0.829   4.548 -0.9944 -1.5421 -1.9507
 1176SOL     OW15160   2.154   2.597  12.883  0.4183  0.4995 -0.5779
 1176SOL    HW115161   2.103   2.547  12.819 -0.2011  0.7318 -0.2575
 1176SOL    HW215162   2.098   2.595  12.960 -0.8111 -2.5332 -1.5544
 1177SOL     OW15163   2.610   3.650   2.764 -0.4464 -0.1487 -0.4144
 1177SOL    HW115164   2.705   3.658   2.770 -0.3227 -1.8275 -0.0950
 1177SOL    HW215165   2.604   3.661   2.669  0.9613 -0.4373 -0.5352
 1178SOL     OW15166   1.434   1.796   5.288  0.1431  0.0913  0.0212
 1178SOL    HW115167   1.427   1.716   5.341 -0.8765  0.7767  0.9160
 1178SOL    HW215168   1.425   1.862   5.357  1.3403  0.2017  0.0677
 1179SOL     OW15169   1.914   3.314   8.171 -0.4888  0.1974 -0.0650
 1179SOL    HW115170   1.820   3.308   8.155 -0.4021 -1.0943 -0.0743
 1179SOL    HW215171   1.947   3.245   8.114 -0.5731  0.1654 -0.0750
 1180SOL     OW15172   3.591   3.233   6.839  0.3277  0.2539  0.1788
 1180SOL    HW115173   3.534   3.181   6.896  1.4144 -1.5098 -0.3493
 1180SOL    HW215174   3.611   3.176   6.765  2.0468  0.1225  0.7374
 1181SOL     OW15175   4.170   0.997   2.160  0.7020  0.2366 -0.0565
 1181SOL    HW115176   4.156   0.942   2.237 -2.4020  2.2216  0.8168
 1181SOL    HW215177   4.258   0.978   2.128  1.7216  2.5062  1.4074
 1182SOL     OW15178   0.435   4.077   9.287  0.5652  0.3713  0.7391
 1182SOL    HW115179   0.465   4.058   9.376  0.4910  0.6478  0.8227
 1182SOL    HW215180   0.350   4.118   9.300 -0.0964 -0.5785 -0.5328
 1183SOL     OW15181   0.436   3.285   1.127  0.5944  0.0562  0.4995
 1183SOL    HW115182   0.500   3.237   1.074  0.8927  1.8723 -0.8004
 1183SOL    HW215183   0.354   3.257   1.087  0.9653  1.2414 -1.0616
 1184SOL     OW15184   1.949   4.070   3.764 -0.2021 -0.2313 -0.0706
 1184SOL    HW115185   1.972   4.163   3.764  0.4650 -0.4211 -4.2951
 1184SOL    HW215186   1.942   4.056   3.859  3.1859 -0.2740  0.1782
 1185SOL     OW15187   3.408   4.637   3.272  0.5440  1.1293 -0.1077
 1185SOL    HW115188   3.387   4.566   3.211 -0.4341  1.9653 -0.7561
 1185SOL    HW215189   3.501   4.656   3.258  0.8784  0.4285  1.2180
 1186SOL     OW15190   1.886   4.698   5.062  0.1523 -0.1341  0.1763
 1186SOL    HW115191   1.970   4.653   5.056  1.0594  1.5095  0.5426
 1186SOL    HW215192   1.818   4.630   5.062  0.5296 -0.4923 -1.6955
 1187SOL     OW15193   0.411   4.462   3.600 -0.3895  0.0084 -0.2196
 1187SOL    HW115194   0.462   4.537   3.572 -1.4185  0.8046  0.0258
 1187SOL    HW215195   0.321   4.494   3.612 -0.6081  0.1952 -2.3886
 1188SOL     OW15196   3.565   3.509   7.095 -0.2129  0.0069 -0.1817
 1188SOL    HW115197   3.499   3.445   7.068  2.2572 -1.2391 -3.1307
 1188SOL    HW215198   3.518   3.579   7.141  0.4557 -1.4206  2.6758
 1189SOL     OW15199   0.501   4.424   0.458  0.1488  0.9626 -0.3830
 1189SOL    HW115200   0.504   4.328   0.449 -1.5259  0.7714  1.0640
 1189SOL    HW215201   0.583   4.426   0.508  1.1527  0.6287 -2.0239
 1190SOL     OW15202   1.595   0.788   2.941  0.1624  0.0052  0.1267
 1190SOL    HW115203   1.573   0.710   2.890  0.2564  0.6354 -0.8720
 1190SOL    HW215204   1.652   0.834   2.879  0.5212 -0.5483  0.0447
 1191SOL     OW15205   2.061   3.840  13.636  0.2775  0.2629  0.1230
 1191SOL    HW115206   2.078   3.930  13.608 -1.6979  0.8621  0.7905
 1191SOL    HW215207   2.004   3.801  13.570 -0.8878  2.1305  0.0047
 1192SOL     OW15208   3.526   0.882   2.507  0.2469  0.6781  0.1512
 1192SOL    HW115209   3.526   0.906   2.414  1.1144  1.2086  0.2936
 1192SOL    HW215210   3.474   0.950   2.549 -0.6320  0.7449 -1.0393
 1193SOL     OW15211   3.840   4.513   3.427  0.5210 -0.1295 -0.1113
 1193SOL    HW115212   3.872   4.600   3.406 -2.1107  0.2547 -2.5333
 1193SOL    HW215213   3.910   4.459   3.390  1.1536  1.3709 -1.0842
 1194SOL     OW15214   3.745   0.729   6.714  0.1386  0.0005 -0.3622
 1194SOL    HW115215   3.668   0.725   6.771 -0.4713 -0.4206 -1.2090
 1194SOL    HW215216   3.802   0.686   6.777 -0.5583  1.6505  1.3859
 1195SOL     OW15217   1.847   1.872   2.215  0.5577 -0.4396  0.3609
 1195SOL    HW115218   1.815   1.877   2.125 -2.8151 -0.2411  1.5693
 1195SOL    HW215219   1.793   1.938   2.258  0.3484  0.4407 -1.2332
 1196SOL     OW15220   0.617   3.191  11.750  0.6004 -0.2169 -0.3432
 1196SOL    HW115221   0.702   3.159  11.719  0.4194  0.8775 -1.9883
 1196SOL    HW215222   0.645   3.213  11.839  0.4819 -1.3050 -0.0498
 1197SOL     OW15223   2.746   0.029   6.568 -0.7533  0.2074 -0.3752
 1197SOL    HW115224   2.806   0.049   6.640  1.0154 -2.4632 -1.1351
 1197SOL    HW215225   2.708   0.114   6.547 -0.6792  0.0092 -1.3123
 1198SOL     OW15226   0.815   0.686   0.581 -0.2789 -0.1963 -0.1969
 1198SOL    HW115227   0.888   0.724   0.532 -0.2552 -1.9626 -1.5342
 1198SOL    HW215228   0.768   0.768   0.597  0.9219  0.7969 -1.7683
 1199SOL     OW15229   0.653   3.666   7.575 -0.1934 -0.7237  0.5316
 1199SOL    HW115230   0.691   3.579   7.588  0.9986 -0.1821  0.7293
 1199SOL    HW215231   0.602   3.684   7.653 -1.2929 -1.6326  0.0204
 1200SOL     OW15232   4.653   0.420   0.670 -0.8262 -0.5333  0.6469
 1200SOL    HW115233   4.721   0.387   0.611 -1.3056 -0.8069  0.2358
 1200SOL    HW215234   4.582   0.368   0.632 -1.0146  0.8953 -0.9777
 1201SOL     OW15235   3.493   2.795   6.805  0.1442  0.1974  0.0434
 1201SOL    HW115236   3.568   2.855   6.805 -0.2580  0.7143  1.9560
 1201SOL    HW215237   3.504   2.756   6.891 -0.3128  2.4488  1.1382
 1202SOL     OW15238   4.463   1.375   2.475 -0.0429 -0.0047 -0.1033
 1202SOL    HW115239   4.456   1.468   2.454 -0.8178 -0.3474 -1.3264
 1202SOL    HW215240   4.531   1.381   2.543 -0.9120  1.8516  0.6163
 1203SOL     OW15241   4.330   3.634   4.795  0.7757 -0.4666 -0.0425
 1203SOL    HW115242   4.339   3.544   4.763 -0.9631 -0.8748  0.6278
 1203SOL    HW215243   4.401   3.653   4.856 -1.0949  2.2106  1.2778
 1204SOL     OW15244   1.326   0.388  14.710  0.4995  0.2687 -0.2332
 1204SOL    HW115245   1.264   0.405  14.781  1.1111  1.1976  0.0743
 1204SOL    HW215246   1.308   0.297  14.686 -1.9946  1.0407 -1.3384
 1205SOL     OW15247   0.558   0.505   8.021  0.2380  0.3818  0.0586
 1205SOL    HW115248   0.533   0.512   8.113  1.0743 -2.1160  0.4568
 1205SOL    HW215249   0.599   0.590   8.007  0.7014  0.3340  1.1390
 1206SOL     OW15250   3.190   3.980   8.613  0.0466 -0.3402  0.3083
 1206SOL    HW115251   3.141   4.050   8.657 -1.2584 -1.2267  0.2741
 1206SOL    HW215252   3.246   3.936   8.677 -0.7306  0.6895  1.6935
 1207SOL     OW15253   3.398   0.315   6.351 -0.6394 -0.6432 -0.6143
 1207SOL    HW115254   3.490   0.320   6.376 -1.0511  2.0535  0.4091
 1207SOL    HW215255   3.399   0.226   6.316  0.2378 -0.6215 -0.6488
 1208SOL     OW15256   1.559   2.051   8.350  0.4204 -0.3112 -0.2844
 1208SOL    HW115257   1.604   1.976   8.311 -0.5054  0.0786 -2.0990
 1208SOL    HW215258   1.477   2.058   8.302 -0.1619  2.2213  1.1035
 1209SOL     OW15259   4.115   2.324   5.330  0.5493 -0.0549  0.2109
 1209SOL    HW115260   4.121   2.418   5.312  1.0171 -0.3396 -1.1734
 1209SOL    HW215261   4.176   2.299   5.260  0.1468 -1.5161  0.3949
 1210SOL     OW15262   3.523   1.387  11.518 -0.3734 -0.5646  0.2110
 1210SOL    HW115263   3.482   1.317  11.466  0.2836 -0.3461 -0.6133
 1210SOL    HW215264   3.617   1.381  11.499 -0.4833 -2.8629  0.4294
 1211SOL     OW15265   3.850   0.108   8.900  0.0662  0.6757  0.4984
 1211SOL    HW115266   3.779   0.044   8.907 -0.2774  1.2175  1.9867
 1211SOL    HW215267   3.815   0.178   8.845 -1.1348 -0.4870 -0.2406
 1212SOL     OW15268   0.356   1.002   6.033 -0.8126  0.5459  0.4244
 1212SOL    HW115269   0.384   0.978   6.122  2.2747 -0.7161 -0.9047
 1212SOL    HW215270   0.445   0.989   5.999 -1.7275  1.0398 -2.1458
 1213SOL     OW15271   0.183   1.607   2.418 -0.1559  0.2782  0.6050
 1213SOL    HW115272   0.124   1.600   2.343  2.3808  1.2020 -1.4786
 1213SOL    HW215273   0.121   1.631   2.488 -1.2679 -2.5575  0.6003
 1214SOL     OW15274   0.883   0.750   5.343  0.2289  0.1016  0.5370
 1214SOL    HW115275   0.801   0.790   5.316  1.2836  1.0001 -1.3410
 1214SOL    HW215276   0.923   0.735   5.257  0.0918 -0.4919  0.5708
 1215SOL     OW15277   1.096   1.452  15.660  0.4569 -0.3397  0.9427
 1215SOL    HW115278   1.103   1.459  15.755 -2.5609  1.7936  1.0113
 1215SOL    HW215279   1.042   1.528  15.637  1.5952 -1.0363 -3.9336
 1216SOL     OW15280   2.601   2.975  17.007  0.0069 -0.3889 -0.0462
 1216SOL    HW115281   2.566   3.063  16.992  0.6963 -0.0930  0.0414
 1216SOL    HW215282   2.611   2.993  17.101  0.3971  0.3240 -0.2176
 1217SOL     OW15283   1.504   0.503   4.649 -0.2955  0.8774  0.5060
 1217SOL    HW115284   1.419   0.503   4.605 -0.0089  0.4956 -0.0459
 1217SOL    HW215285   1.529   0.594   4.639 -2.1790  1.5577  2.0148
 1218SOL     OW15286   0.162   2.056   2.281 -0.0053  0.2249  0.3054
 1218SOL    HW115287   0.248   2.096   2.269  0.6288 -1.0513  0.6241
 1218SOL    HW215288   0.186   1.974   2.323 -0.9183 -0.5303 -0.6452
 1219SOL     OW15289   0.751   2.044   2.684 -0.0350  0.0849  0.6527
 1219SOL    HW115290   0.679   2.017   2.627 -0.5250 -0.0183  1.3200
 1219SOL    HW215291   0.770   2.126   2.639 -1.1045 -0.8099 -1.3933
 1220SOL     OW15292   2.264   2.626   4.215 -0.2476 -0.0705 -0.2469
 1220SOL    HW115293   2.326   2.596   4.149  0.4672  0.8056  0.0193
 1220SOL    HW215294   2.271   2.578   4.298  1.8129  1.4637  0.4650
 1221SOL     OW15295   2.166   3.793  13.871 -0.3076  0.2575 -0.0924
 1221SOL    HW115296   2.241   3.847  13.849  0.0200 -1.1451 -2.4204
 1221SOL    HW215297   2.113   3.806  13.792 -1.2639 -0.1793  0.4642
 1222SOL     OW15298   1.413   1.265   1.766 -0.2969  0.7925 -0.2492
 1222SOL    HW115299   1.355   1.194   1.793  1.6043 -0.9787 -0.8406
 1222SOL    HW215300   1.460   1.229   1.691  0.6880 -0.4974  0.9867
 1223SOL     OW15301   2.723   1.578   7.044  0.2014  0.2354  0.2647
 1223SOL    HW115302   2.803   1.612   7.004 -1.9250  3.1784 -1.5528
 1223SOL    HW215303   2.688   1.506   6.991  2.2365 -0.8683  0.4418
 1224SOL     OW15304   1.373   1.562  15.355 -0.9274  0.3443 -0.1986
 1224SOL    HW115305   1.463   1.550  15.322 -1.2785 -2.1391 -0.2648
 1224SOL    HW215306   1.364   1.518  15.439 -0.6164  1.9862  0.6809
 1225SOL     OW15307   2.444   3.186   2.132 -0.1401 -0.6834 -0.2995
 1225SOL    HW115308   2.488   3.234   2.202 -0.9049  0.3232 -0.5046
 1225SOL    HW215309   2.361   3.232   2.119  0.1819 -0.1648 -0.5025
 1226SOL     OW15310   0.566   0.017   2.000 -0.4076  0.3821  0.6537
 1226SOL    HW115311   0.648   0.063   1.982 -0.0209 -1.0398 -1.1810
 1226SOL    HW215312   0.502   0.079   1.965 -0.2473  1.1763  1.7479
 1227SOL     OW15313   3.674   1.092   7.487  0.2568  0.2378  0.4858
 1227SOL    HW115314   3.655   1.006   7.524 -2.1619  0.0729 -1.1031
 1227SOL    HW215315   3.601   1.106   7.426 -0.4255 -2.6003  0.6215
 1228SOL     OW15316   0.872   0.910  10.101 -0.3426  0.3461  0.1843
 1228SOL    HW115317   0.815   0.987  10.102 -0.5641  0.1607  1.5681
 1228SOL    HW215318   0.956   0.952  10.120  0.0832 -0.1217 -0.6641
 1229SOL     OW15319   1.065   4.500   4.062 -0.2921 -0.1636 -0.4990
 1229SOL    HW115320   1.075   4.584   4.106  0.3264 -0.2826 -0.4119
 1229SOL    HW215321   1.016   4.524   3.983 -0.2341 -1.0618 -0.8082
 1230SOL     OW15322   2.038   3.393   5.295 -1.0110 -0.1447 -0.0943
 1230SOL    HW115323   1.978   3.440   5.237 -0.9100 -0.5698 -0.5464
 1230SOL    HW215324   2.039   3.461   5.362  0.9929 -0.5392  0.2447
 1231SOL     OW15325   4.526   2.754   5.972 -0.8078  0.1378  0.1864
 1231SOL    HW115326   4.554   2.789   6.056 -0.6212 -2.6087  1.2771
 1231SOL    HW215327   4.468   2.686   6.004 -2.5800  1.7031  0.2659
 1232SOL     OW15328   1.885   4.731   3.258  0.4160  0.3843  0.5666
 1232SOL    HW115329   1.927   4.663   3.206  1.0554  0.9920  0.2914
 1232SOL    HW215330   1.877   4.692   3.345 -2.4354 -0.4687 -0.0705
 1233SOL     OW15331   3.599   3.614  11.109  0.2914 -0.1983  0.2395
 1233SOL    HW115332   3.653   3.552  11.158 -1.2508 -0.4854  1.5685
 1233SOL    HW215333   3.564   3.556  11.042  0.3856  0.5972 -0.4990
 1234SOL     OW15334   4.688   2.748  14.508 -0.0115  0.6854  0.0292
 1234SOL    HW115335   4.599   2.714  14.499 -0.3049  1.2281  0.9022
 1234SOL    HW215336   0.006   2.705  14.440 -1.1741  2.0679 -1.7352
 1235SOL     OW15337   1.474   1.254   2.471  0.1855 -0.0795  0.0443
 1235SOL    HW115338   1.381   1.243   2.491  0.3638 -0.1736  0.8298
 1235SOL    HW215339   1.512   1.218   2.551  0.0136  2.0007  1.0475
 1236SOL     OW15340   3.128   1.805   3.779  0.2464  0.3027  0.9863
 1236SOL    HW115341   3.221   1.824   3.778  0.6007 -1.5410  0.5140
 1236SOL    HW215342   3.115   1.797   3.684  0.0914  1.6595  0.8884
 1237SOL     OW15343   0.234   2.920   7.468  0.1941  0.3216  0.2330
 1237SOL    HW115344   0.202   3.005   7.498  1.8733  0.6629  1.0416
 1237SOL    HW215345   0.152   2.883   7.435 -1.9645  3.0502  2.5950
 1238SOL     OW15346   0.760   1.176  15.584 -0.2146 -0.5900  0.2492
 1238SOL    HW115347   0.701   1.101  15.584  0.4285 -1.1005 -2.8403
 1238SOL    HW215348   0.753   1.209  15.673 -0.3188 -1.1204  0.4412
 1239SOL     OW15349   4.446   1.451   7.513  0.4720 -0.6873  0.1402
 1239SOL    HW115350   4.352   1.436   7.513  0.5926 -1.5140 -1.8489
 1239SOL    HW215351   4.475   1.362   7.532 -2.2228 -1.8360 -1.2114
 1240SOL     OW15352   0.970   3.100   6.301  0.1945  0.4179 -0.0552
 1240SOL    HW115353   0.947   3.007   6.292 -0.2227  0.5884 -0.7510
 1240SOL    HW215354   1.010   3.122   6.217 -1.8687  0.2835 -1.0596
 1241SOL     OW15355   0.878   3.808   1.908  0.0012 -0.3975  0.0831
 1241SOL    HW115356   0.805   3.778   1.854  0.0825 -0.0756 -0.2024
 1241SOL    HW215357   0.958   3.774   1.867  0.8572  0.5208  0.9922
 1242SOL     OW15358   4.256   1.105   7.503 -0.0040 -0.7374 -0.0675
 1242SOL    HW115359   4.194   1.039   7.473  0.7890 -0.6743 -1.8751
 1242SOL    HW215360   4.340   1.060   7.489 -1.1950 -1.4193 -5.3087
 1243SOL     OW15361   3.168   3.359   4.996  0.0899  0.2239  0.1307
 1243SOL    HW115362   3.225   3.283   4.989 -0.8918 -0.4532 -0.5576
 1243SOL    HW215363   3.165   3.387   4.904  0.7537  2.5092  0.8001
 1244SOL     OW15364   1.865   0.099   2.022  0.2238 -0.7944 -0.9434
 1244SOL    HW115365   1.787   0.081   1.970 -0.8170  2.0126 -0.3187
 1244SOL    HW215366   1.876   0.194   2.020 -0.4788 -0.6364  2.8911
 1245SOL     OW15367   3.716   3.661   6.540 -0.2885 -0.0102  0.4981
 1245SOL    HW115368   3.737   3.754   6.539 -4.2957  0.8927  0.6019
 1245SOL    HW215369   3.718   3.644   6.634  1.2163 -0.3500  0.4067
 1246SOL     OW15370   4.720   4.370   6.505  0.3782 -0.0386 -0.3028
 1246SOL    HW115371   4.713   4.293   6.560 -0.4744 -1.1875 -2.0224
 1246SOL    HW215372   0.070   4.404   6.534 -0.0194 -1.7188  2.7178
 1247SOL     OW15373   1.737   1.904   2.934 -0.2550  0.6794 -0.1770
 1247SOL    HW115374   1.764   1.897   3.026  0.7338  2.5075 -0.3112
 1247SOL    HW215375   1.808   1.856   2.891 -0.8831  1.4687 -2.1045
 1248SOL     OW15376   0.248   1.740   6.246  0.4999  0.2321 -0.4840
 1248SOL    HW115377   0.251   1.799   6.171  0.5143 -0.0976 -0.7448
 1248SOL    HW215378   0.221   1.661   6.199  1.9940 -1.5516  1.6656
 1249SOL     OW15379   2.183   0.038  17.216  0.2065 -0.5718 -0.3018
 1249SOL    HW115380   2.130   0.074  17.287 -2.2647 -1.7907 -1.5142
 1249SOL    HW215381   2.230   4.706  17.267  1.0672  1.1996  1.2004
 1250SOL     OW15382   2.648   0.464   9.322 -0.2280 -0.0991 -0.8099
 1250SOL    HW115383   2.742   0.462   9.339 -0.1760  1.0736 -0.9810
 1250SOL    HW215384   2.650   0.544   9.269 -1.5272  0.5446  0.1255
 1251SOL     OW15385   3.453   2.790  16.307  0.4904 -0.4127  0.1332
 1251SOL    HW115386   3.448   2.868  16.251  2.2371 -1.2824 -1.2279
 1251SOL    HW215387   3.386   2.804  16.374  1.2158 -0.7803  0.9146
 1252SOL     OW15388   3.272   3.121  17.471 -0.4845  0.0533 -0.3615
 1252SOL    HW115389   3.188   3.152  17.437  0.3944  3.9110  1.0490
 1252SOL    HW215390   3.321   3.201  17.488  0.8007 -0.9715  0.7461
 1253SOL     OW15391   2.977   2.621   8.561 -0.0457 -0.0852 -0.0427
 1253SOL    HW115392   2.968   2.595   8.653 -2.2178  0.5574 -0.0589
 1253SOL    HW215393   2.893   2.665   8.549 -0.4952 -0.0302  3.0634
 1254SOL     OW15394   3.002   0.364  17.085  0.0439 -0.6039 -0.2272
 1254SOL    HW115395   2.985   0.449  17.045  0.9561  0.1843  1.0688
 1254SOL    HW215396   2.966   0.372  17.174 -0.1208  1.3872 -0.4712
 1255SOL     OW15397   2.615   2.126  13.283  0.6013 -0.8058 -0.5398
 1255SOL    HW115398   2.549   2.137  13.215  0.7307  0.2012 -0.5055
 1255SOL    HW215399   2.677   2.192  13.254  0.9905 -1.4343 -1.1381
 1256SOL     OW15400   4.311   0.073   5.301 -0.5179  0.0365  0.9385
 1256SOL    HW115401   4.247   0.013   5.263  1.6691  0.6564 -3.7273
 1256SOL    HW215402   4.285   0.067   5.392  0.1675 -1.8525  1.0018
 1257SOL     OW15403   2.601   2.299   6.705 -0.3087 -0.2511 -0.5200
 1257SOL    HW115404   2.621   2.392   6.694 -0.5303 -0.1940 -0.4370
 1257SOL    HW215405   2.602   2.260   6.618  0.0862  1.8493 -1.4620
 1258SOL     OW15406   3.238   4.007   5.977  0.1801 -0.1327  0.0411
 1258SOL    HW115407   3.154   4.044   5.950  0.4609  0.3300 -0.1813
 1258SOL    HW215408   3.227   4.017   6.071  2.5110  0.0050  0.3096
 1259SOL     OW15409   4.146   0.783  11.905  0.4100  0.2885  0.2282
 1259SOL    HW115410   4.070   0.840  11.918  1.1719  1.5427 -0.9663
 1259SOL    HW215411   4.177   0.810  11.819  0.4945 -1.7977 -0.4031
 1260SOL     OW15412   2.207   0.001   9.534  0.3787  0.1818  0.1649
 1260SOL    HW115413   2.162   0.067   9.480  0.1395 -1.7067 -1.9484
 1260SOL    HW215414   2.257   4.696   9.462 -0.7743  1.6427 -1.4373
 1261SOL     OW15415   0.202   3.885   3.361 -0.5582 -0.3305  0.0617
 1261SOL    HW115416   0.135   3.932   3.311  2.3652  1.9703 -1.6194
 1261SOL    HW215417   0.155   3.807   3.393  0.4936 -0.9335  0.1377
 1262SOL     OW15418   3.040   3.844   8.857 -0.3403  0.2014  0.0403
 1262SOL    HW115419   3.008   3.933   8.840  0.8261  0.6741  0.3258
 1262SOL    HW215420   2.979   3.789   8.808  0.4471 -0.5230 -0.1277
 1263SOL     OW15421   3.923   2.115   3.281  0.0952  0.1055  0.2170
 1263SOL    HW115422   3.907   2.204   3.312 -0.3690  0.0103  0.2498
 1263SOL    HW215423   4.012   2.124   3.246  0.2692  1.9180  1.1334
 1264SOL     OW15424   1.620   1.049  14.669 -0.0498  0.4679 -0.3947
 1264SOL    HW115425   1.545   1.046  14.727 -0.3071  0.6785 -0.7169
 1264SOL    HW215426   1.587   0.992  14.600  0.2801  1.3215 -1.2695
 1265SOL     OW15427   4.403   1.371  11.158 -0.0579 -0.3552  0.2572
 1265SOL    HW115428   4.460   1.302  11.190 -0.8509 -0.2507  1.9074
 1265SOL    HW215429   4.454   1.440  11.115  2.5099 -3.3460 -1.4951
 1266SOL     OW15430   3.153   0.692  14.484  0.3674  0.5063  0.2308
 1266SOL    HW115431   3.209   0.743  14.426  0.2552  0.1015 -0.2319
 1266SOL    HW215432   3.185   0.604  14.462 -2.6040 -0.2050 -1.2674
 1267SOL     OW15433   1.261   3.063   1.153  0.5573  0.5689 -0.6684
 1267SOL    HW115434   1.172   3.059   1.119 -0.1528  2.0295  1.0135
 1267SOL    HW215435   1.309   3.070   1.070  2.4767  0.2251  0.4151
 1268SOL     OW15436   2.522   0.732   2.268  0.4467 -0.2036  0.2591
 1268SOL    HW115437   2.527   0.695   2.357 -2.5666 -1.0710  0.0726
 1268SOL    HW215438   2.516   0.827   2.267  3.9015  0.0450  1.0521
 1269SOL     OW15439   3.760   0.886  10.762 -0.1900  0.4997 -0.0338
 1269SOL    HW115440   3.746   0.976  10.793  0.6948  1.2416 -1.7407
 1269SOL    HW215441   3.729   0.883  10.671 -0.0867 -1.7158  0.0186
 1270SOL     OW15442   1.024   3.790   4.507  0.0157  0.4211  0.1712
 1270SOL    HW115443   1.049   3.769   4.417  0.3583  0.3338  0.2874
 1270SOL    HW215444   0.942   3.837   4.489  1.5612  2.1324 -2.4124
 1271SOL     OW15445   1.247   1.050  12.140  0.2142 -0.2687  0.3945
 1271SOL    HW115446   1.244   1.116  12.071  2.0212 -1.8554 -1.1836
 1271SOL    HW215447   1.307   1.088  12.204  0.3872 -0.5717  0.4087
 1272SOL     OW15448   4.688   1.402   1.355  0.3873  0.4052 -0.3957
 1272SOL    HW115449   4.686   1.459   1.279 -1.5347  2.6994  1.3522
 1272SOL    HW215450   0.002   1.455   1.419  1.9571 -0.9884 -0.4071
 1273SOL     OW15451   3.948   3.766  15.641  0.0989 -0.0842  0.3553
 1273SOL    HW115452   3.863   3.810  15.639 -0.0690 -0.3833  0.9375
 1273SOL    HW215453   3.933   3.684  15.596  1.9876 -0.8786  1.1636
 1274SOL     OW15454   0.271   0.806  13.819  0.1647 -0.3004  0.1324
 1274SOL    HW115455   0.297   0.716  13.798 -2.8024 -1.5725  1.9378
 1274SOL    HW215456   0.286   0.851  13.736 -1.1871 -1.7660 -0.9186
 1275SOL     OW15457   2.172   2.711   0.584  0.1417  1.3007 -0.3773
 1275SOL    HW115458   2.077   2.710   0.596  0.1751  1.4089 -0.0992
 1275SOL    HW215459   2.201   2.690   0.672 -0.3839  0.5866 -0.3687
 1276SOL     OW15460   2.667   1.550   3.437 -0.0721  0.4208 -0.1782
 1276SOL    HW115461   2.644   1.586   3.523 -1.6411 -0.8333 -0.0763
 1276SOL    HW215462   2.711   1.629   3.406 -1.5932  1.2078 -0.3046
 1277SOL     OW15463   3.515   3.557   3.016 -0.3517  0.4821 -0.2018
 1277SOL    HW115464   3.547   3.609   2.942  1.6838 -2.6073 -1.5372
 1277SOL    HW215465   3.425   3.533   2.995 -0.7185  1.1536  0.6460
 1278SOL     OW15466   1.425   3.117  12.919  0.2097 -0.0632  0.5648
 1278SOL    HW115467   1.478   3.163  12.985 -1.3054  2.6620 -0.1307
 1278SOL    HW215468   1.427   3.188  12.855  1.7548 -0.0766  0.6009
 1279SOL     OW15469   3.752   0.279   8.239  0.4467  0.6818 -0.1268
 1279SOL    HW115470   3.775   0.360   8.284 -2.5047  0.2103  2.2676
 1279SOL    HW215471   3.661   0.276   8.269  0.4855  0.7551 -0.0022
 1280SOL     OW15472   0.118   3.254   8.830  0.0944 -0.3079 -0.4140
 1280SOL    HW115473   0.057   3.189   8.865 -0.8735  0.6874 -0.2681
 1280SOL    HW215474   0.089   3.332   8.877  1.2096  1.6455 -2.9332
 1281SOL     OW15475   2.136   2.892   9.677  0.0002  0.0038  0.0801
 1281SOL    HW115476   2.154   2.986   9.675 -0.5838  0.1077 -0.2509
 1281SOL    HW215477   2.084   2.878   9.756  0.0301 -2.0131 -0.2617
 1282SOL     OW15478   0.382   0.380  11.611 -0.4147 -0.4914  0.2770
 1282SOL    HW115479   0.353   0.358  11.700  0.0456  0.1016  0.5720
 1282SOL    HW215480   0.475   0.385  11.633 -0.4649  2.1979 -0.1285
 1283SOL     OW15481   2.584   1.140   6.641 -0.0016 -0.6157  0.1187
 1283SOL    HW115482   2.589   1.210   6.576 -1.9183  0.4917  1.1481
 1283SOL    HW215483   2.526   1.074   6.602 -1.2743 -0.0112  0.9820
 1284SOL     OW15484   3.857   0.717   8.609  0.1714 -0.5848 -0.3656
 1284SOL    HW115485   3.873   0.810   8.593  1.4885 -0.8577 -0.6410
 1284SOL    HW215486   3.927   0.700   8.671  0.6940 -1.6715 -1.2498
 1285SOL     OW15487   1.679   0.105   4.157  0.2500  0.3912 -0.2392
 1285SOL    HW115488   1.628   0.070   4.084 -0.7110  1.1885  0.0472
 1285SOL    HW215489   1.608   0.126   4.217 -1.0849 -1.6019 -1.1052
 1286SOL     OW15490   2.240   0.330  12.334  0.0500 -0.2928 -0.2834
 1286SOL    HW115491   2.282   0.338  12.248 -1.7810 -0.3712 -1.1738
 1286SOL    HW215492   2.305   0.278  12.381 -1.6702 -1.1110  1.2021
 1287SOL     OW15493   0.384   0.426   7.065 -0.4300  0.3809 -0.0803
 1287SOL    HW115494   0.431   0.346   7.045  3.0460  1.9729  1.7364
 1287SOL    HW215495   0.344   0.449   6.981  0.5147 -1.9266 -1.1313
 1288SOL     OW15496   3.074   3.202   1.965 -0.2216  0.0738  0.1389
 1288SOL    HW115497   3.041   3.113   1.960 -0.2361  0.1918 -1.8549
 1288SOL    HW215498   3.041   3.236   1.882 -2.6872  1.4344  1.6838
 1289SOL     OW15499   3.030   4.319   1.921  0.2086  0.3364 -0.1962
 1289SOL    HW115500   3.065   4.367   1.996 -0.9592 -0.2245  0.7089
 1289SOL    HW215501   2.936   4.321   1.942  0.0887 -2.2949 -0.5647
 1290SOL     OW15502   2.214   2.416  16.197 -0.0351  0.0528 -0.3572
 1290SOL    HW115503   2.199   2.503  16.161  0.5534  0.1993 -0.2327
 1290SOL    HW215504   2.286   2.401  16.136 -1.0450  0.1614 -1.5864
 1291SOL     OW15505   3.839   2.527   2.522 -0.5181  0.0974  0.0364
 1291SOL    HW115506   3.814   2.453   2.467  0.6690 -1.5954  1.8245
 1291SOL    HW215507   3.933   2.534   2.504 -0.3702 -0.8086  0.4960
 1292SOL     OW15508   3.237   1.635   2.807  0.1031  0.1457  0.9074
 1292SOL    HW115509   3.299   1.581   2.855  2.7047 -0.2046 -2.8674
 1292SOL    HW215510   3.216   1.710   2.862 -1.4050 -0.8479  1.6874
 1293SOL     OW15511   0.519   1.421  10.259  0.8636  0.5112  0.0029
 1293SOL    HW115512   0.582   1.482  10.220  1.3586  1.7130  2.6668
 1293SOL    HW215513   0.438   1.468  10.239 -0.0647 -1.6035 -1.1807
 1294SOL     OW15514   2.263   2.796   8.815  0.3338 -0.4652 -0.4091
 1294SOL    HW115515   2.255   2.887   8.784 -2.3337 -0.2568  0.8671
 1294SOL    HW215516   2.300   2.802   8.903  0.9292 -0.3036 -0.6708
 1295SOL     OW15517   2.370   0.591   6.842 -0.0340 -0.3607 -0.6369
 1295SOL    HW115518   2.415   0.634   6.769 -2.0077  0.2032 -1.5188
 1295SOL    HW215519   2.279   0.581   6.814  0.0760 -1.1775 -0.7029
 1296SOL     OW15520   0.044   3.945   5.502  0.0327  0.1382  0.0026
 1296SOL    HW115521   0.110   3.993   5.452 -1.3710  1.9924 -0.0715
 1296SOL    HW215522   0.089   3.863   5.522 -2.4703 -1.1284  0.5693
 1297SOL     OW15523   4.373   1.673   4.947  0.4138  0.0005  0.0098
 1297SOL    HW115524   4.375   1.649   5.040  2.6256  0.6618  0.1177
 1297SOL    HW215525   4.413   1.596   4.908 -0.9793  0.0179 -1.4492
 1298SOL     OW15526   4.624   4.450   6.244 -0.1008  0.8031 -0.3269
 1298SOL    HW115527   4.607   4.389   6.173  0.5775  0.7408 -0.4344
 1298SOL    HW215528   4.646   4.398   6.321 -1.2503 -0.0666 -0.5958
 1299SOL     OW15529   4.031   1.928   6.634 -0.7544 -0.2127  0.3005
 1299SOL    HW115530   4.078   1.855   6.594  1.4312  0.8072  1.0056
 1299SOL    HW215531   3.958   1.941   6.574  0.1112  1.1627 -0.4588
 1300SOL     OW15532   3.094   3.065   3.448  0.9075  0.1231 -0.1067
 1300SOL    HW115533   3.181   3.102   3.433  2.0900 -2.0040  1.5402
 1300SOL    HW215534   3.106   3.052   3.542  0.3931  2.8151  0.3276
 1301SOL     OW15535   2.733   2.585   5.007 -0.3491 -0.5801  0.1931
 1301SOL    HW115536   2.692   2.631   5.080  1.9792 -2.6092  2.7632
 1301SOL    HW215537   2.667   2.605   4.941 -0.0055  1.5989  0.4973
 1302SOL     OW15538   1.979   1.103   4.308 -0.2553 -0.3940 -0.0262
 1302SOL    HW115539   2.065   1.085   4.269 -0.5392  0.8326 -1.2437
 1302SOL    HW215540   1.986   1.053   4.389  0.2667  1.9064  1.3343
 1303SOL     OW15541   3.034   4.144   8.784 -0.0625  0.6501  0.4592
 1303SOL    HW115542   2.962   4.206   8.773 -0.5275 -0.1070 -0.8551
 1303SOL    HW215543   3.032   4.131   8.879  0.9409  2.6954  0.7547
 1304SOL     OW15544   4.712   3.694   3.895  0.3880 -0.3333  0.3200
 1304SOL    HW115545   4.671   3.741   3.822  0.6439  1.5477  1.3786
 1304SOL    HW215546   0.051   3.754   3.910  0.9365 -0.7065 -0.9167
 1305SOL     OW15547   0.416   1.612   4.925  0.1757 -0.6388  0.5465
 1305SOL    HW115548   0.331   1.654   4.937  1.2112  1.3182  1.0871
 1305SOL    HW215549   0.454   1.680   4.870  1.7503 -1.6404  0.3815
 1306SOL     OW15550   3.596   4.448  13.066 -0.5719 -0.0911 -0.0854
 1306SOL    HW115551   3.628   4.516  13.006 -1.1134 -0.7058 -1.0668
 1306SOL    HW215552   3.553   4.501  13.133  1.3295  1.1504  0.1416
 1307SOL     OW15553   4.457   1.088  15.810 -0.4734 -0.0352 -0.5028
 1307SOL    HW115554   4.481   1.002  15.846  2.1483 -0.0578 -2.3426
 1307SOL    HW215555   4.514   1.099  15.734  2.3527  0.4182  1.6877
 1308SOL     OW15556   3.953   0.692   9.316 -0.4513 -0.0069 -0.4947
 1308SOL    HW115557   3.885   0.625   9.309 -1.4976  1.0751 -0.5742
 1308SOL    HW215558   4.025   0.649   9.270 -2.4685 -5.4147  1.4015
 1309SOL     OW15559   3.927   2.274   3.588 -0.1084 -0.3489  0.0099
 1309SOL    HW115560   3.986   2.199   3.574 -0.2374 -0.5675  0.6746
 1309SOL    HW215561   3.930   2.323   3.506 -1.2460  2.3813  1.6218
 1310SOL     OW15562   4.509   3.863   9.485  0.1536  0.5523 -0.3946
 1310SOL    HW115563   4.555   3.915   9.419  1.5803  1.4083  1.2566
 1310SOL    HW215564   4.444   3.927   9.515 -0.5938 -0.5840  0.4216
 1311SOL     OW15565   2.942   4.436  11.948 -0.2091  0.2576  0.5479
 1311SOL    HW115566   2.965   4.455  12.039  0.9279  0.2861  0.2576
 1311SOL    HW215567   2.890   4.513  11.925  0.2347  0.5321  0.4549
 1312SOL     OW15568   0.023   2.677   5.515 -0.2312 -0.4946  0.5071
 1312SOL    HW115569   0.021   2.641   5.426  2.0839  0.7867 -0.0708
 1312SOL    HW215570   4.728   2.768   5.507  1.0395 -0.3091 -1.9165
 1313SOL     OW15571   4.440   2.062   5.719  0.5630  0.5570  0.3729
 1313SOL    HW115572   4.391   2.004   5.778  0.2929  0.0516 -0.3574
 1313SOL    HW215573   4.428   2.150   5.754  0.0988  0.4855  0.4060
 1314SOL     OW15574   1.717   2.754   4.230 -0.1083  0.1691 -0.4803
 1314SOL    HW115575   1.760   2.837   4.213 -0.6611  0.5761  0.1071
 1314SOL    HW215576   1.700   2.771   4.322 -0.8598 -0.2237 -0.5404
 1315SOL     OW15577   3.683   3.584   3.710  0.4255 -0.1086  0.5938
 1315SOL    HW115578   3.661   3.582   3.617  0.9646  1.2935  0.4323
 1315SOL    HW215579   3.767   3.539   3.717 -1.0521 -2.6950  1.9296
 1316SOL     OW15580   2.416   0.537   2.127  0.6492  0.2696 -0.3432
 1316SOL    HW115581   2.347   0.575   2.073  0.5576  0.7302  0.0895
 1316SOL    HW215582   2.446   0.598   2.195 -1.9194 -0.4075  1.3613
 1317SOL     OW15583   4.274   1.445  17.706 -0.1930  0.2506  0.0158
 1317SOL    HW115584   4.353   1.472  17.660  0.5598 -0.2716  1.0056
 1317SOL    HW215585   4.203   1.489  17.660  1.1415 -0.0561 -2.2992
 1318SOL     OW15586   2.385   3.952   6.443 -0.9528 -0.3318  0.0699
 1318SOL    HW115587   2.414   4.018   6.380 -1.9952  0.1500  0.0875
 1318SOL    HW215588   2.454   3.958   6.508  0.4491 -1.2958 -1.3425
 1319SOL     OW15589   1.182   3.617   2.388  0.4230 -0.2287  0.1312
 1319SOL    HW115590   1.202   3.665   2.307  0.4208 -0.3471  0.0607
 1319SOL    HW215591   1.172   3.681   2.458 -1.8233  1.0653 -1.3341
 1320SOL     OW15592   3.206   0.894  12.401  0.0866  0.2158 -0.5480
 1320SOL    HW115593   3.111   0.907  12.406  0.1285 -0.6183  2.1395
 1320SOL    HW215594   3.239   0.871  12.488  0.6781  2.2403 -0.2364
 1321SOL     OW15595   3.615   4.096   0.694 -0.1514 -0.0523  0.1300
 1321SOL    HW115596   3.524   4.074   0.674 -0.0197 -3.4552  3.3194
 1321SOL    HW215597   3.619   4.188   0.669  1.2525 -0.7189 -2.0979
 1322SOL     OW15598   1.655   4.396   7.081 -0.9274  0.5244 -0.1915
 1322SOL    HW115599   1.628   4.393   7.173 -0.1981  1.6443  0.0663
 1322SOL    HW215600   1.747   4.421   7.090 -1.0211  1.2727 -1.3810
 1323SOL     OW15601   2.421   4.247  10.296  0.1937 -0.0273  0.7878
 1323SOL    HW115602   2.411   4.318  10.233 -0.9034  2.0165  3.2745
 1323SOL    HW215603   2.432   4.171  10.239 -2.0103  1.1762 -1.2199
 1324SOL     OW15604   4.401   4.536   8.665  0.3516 -0.3023  0.2168
 1324SOL    HW115605   4.361   4.450   8.648 -0.5782 -0.1744  1.7764
 1324SOL    HW215606   4.453   4.521   8.744 -0.7365  1.0698  1.1907
 1325SOL     OW15607   0.401   3.961  11.566 -0.5043  0.0700  0.7091
 1325SOL    HW115608   0.306   3.962  11.557 -0.6511 -2.3963  2.0442
 1325SOL    HW215609   0.419   3.972  11.660  0.6165 -0.5542  0.5713
 1326SOL     OW15610   2.314   2.269   6.749  0.1065 -0.1226  0.3042
 1326SOL    HW115611   2.328   2.180   6.781  2.6745  0.7186  1.4914
 1326SOL    HW215612   2.401   2.277   6.712  0.4182  1.6662  1.4099
 1327SOL     OW15613   0.899   4.206   8.384 -0.1009  0.3094 -0.4247
 1327SOL    HW115614   0.955   4.211   8.306  1.1482 -1.4526  0.3625
 1327SOL    HW215615   0.817   4.231   8.343 -0.1136 -0.5363 -0.9194
 1328SOL     OW15616   0.241   4.160  10.786  0.2058 -0.4355  0.7051
 1328SOL    HW115617   0.325   4.176  10.743 -0.8055  0.5859 -0.8826
 1328SOL    HW215618   0.179   4.148  10.714  2.3038  1.3171 -1.4070
 1329SOL     OW15619   0.814   3.525  12.657 -0.0597  0.1580  0.4179
 1329SOL    HW115620   0.891   3.542  12.710  0.4256 -1.3728  0.2281
 1329SOL    HW215621   0.804   3.598  12.597 -1.9300  0.2481  0.8279
 1330SOL     OW15622   2.913   2.575   7.490  0.0530  0.4210 -0.3547
 1330SOL    HW115623   2.980   2.625   7.443 -0.5492  0.6245 -1.0011
 1330SOL    HW215624   2.926   2.620   7.573  0.2774 -2.5229  1.1789
 1331SOL     OW15625   4.172   2.668   3.903 -0.5227  0.1317 -0.3989
 1331SOL    HW115626   4.155   2.588   3.853  2.3497 -0.7914  0.0989
 1331SOL    HW215627   4.267   2.663   3.913 -0.7339 -1.4694  0.9285
 1332SOL     OW15628   2.407   0.389   5.295  0.6866  0.2282 -0.1452
 1332SOL    HW115629   2.388   0.368   5.386 -1.5978 -0.2402 -0.7427
 1332SOL    HW215630   2.496   0.354   5.290  1.4368  1.9874  0.5877
 1333SOL     OW15631   1.095   3.481   7.429  0.0195  0.9403  0.5684
 1333SOL    HW115632   1.126   3.392   7.412  0.1495  0.7998  1.5285
 1333SOL    HW215633   1.001   3.463   7.439 -0.1149  0.0944 -2.0310
 1334SOL     OW15634   3.920   3.657   1.562  0.2007 -0.5634 -0.4511
 1334SOL    HW115635   3.950   3.572   1.530 -0.2841 -0.9878  0.2308
 1334SOL    HW215636   3.825   3.645   1.563 -0.2446  2.9077 -1.2629
 1335SOL     OW15637   1.769   2.426  16.087 -0.3159  0.2001 -0.0590
 1335SOL    HW115638   1.801   2.415  15.997  1.4045 -0.2156  0.6038
 1335SOL    HW215639   1.804   2.513  16.105  0.8247 -0.5098  1.1484
 1336SOL     OW15640   3.803   1.358   7.554 -0.0550  0.1454  0.0624
 1336SOL    HW115641   3.753   1.277   7.565  0.2958  0.1435  1.7208
 1336SOL    HW215642   3.879   1.346   7.611  0.3732 -0.4949 -0.6583
 1337SOL     OW15643   3.214   4.448  17.166  0.2229 -0.2808  0.4899
 1337SOL    HW115644   3.126   4.410  17.170  0.8595 -2.0153 -2.3021
 1337SOL    HW215645   3.203   4.494  17.083  0.1228  0.1487  0.7409
 1338SOL     OW15646   2.239   2.644   0.830  0.3985 -0.4130 -0.1296
 1338SOL    HW115647   2.196   2.584   0.891  0.2961 -3.5318 -3.2724
 1338SOL    HW215648   2.324   2.602   0.814 -0.2010 -1.4526 -0.5275
 1339SOL     OW15649   4.278   4.656   5.528  0.7656 -0.3068 -0.2818
 1339SOL    HW115650   4.278   4.577   5.581  1.5922 -1.0399 -1.3758
 1339SOL    HW215651   4.237   4.721   5.584  0.4936 -1.1935  0.5394
 1340SOL     OW15652   3.931   3.118   2.016 -0.3962 -0.2215  0.1893
 1340SOL    HW115653   3.847   3.104   2.059 -0.7160  1.2163  0.0259
 1340SOL    HW215654   3.919   3.212   2.004 -1.8081 -0.4377 -0.1170
 1341SOL     OW15655   4.302   3.464   5.930 -0.0085 -0.2289  0.1816
 1341SOL    HW115656   4.252   3.492   5.853 -0.1341 -0.2236  0.2664
 1341SOL    HW215657   4.392   3.474   5.899  0.1025 -1.0729  0.2229
 1342SOL     OW15658   1.996   1.683  11.787 -0.2800 -0.0189  0.2346
 1342SOL    HW115659   1.909   1.651  11.762 -0.0559 -1.7127  1.6092
 1342SOL    HW215660   1.985   1.774  11.816 -0.4835  0.2850 -0.8130
 1343SOL     OW15661   3.931   1.530   5.862  0.6036 -0.2534  0.1208
 1343SOL    HW115662   3.995   1.590   5.901  1.0763 -1.2794  0.9175
 1343SOL    HW215663   3.962   1.529   5.771  1.7903  0.8765  0.4971
 1344SOL     OW15664   0.466   0.297   4.383  0.0533  0.6456 -0.1421
 1344SOL    HW115665   0.538   0.237   4.364 -1.8131 -1.2281 -1.2977
 1344SOL    HW215666   0.436   0.265   4.468 -0.2304 -1.4406 -1.0292
 1345SOL     OW15667   2.702   2.817   0.568 -0.2379  0.4596  0.3905
 1345SOL    HW115668   2.760   2.774   0.505 -0.2007  1.2243 -0.0935
 1345SOL    HW215669   2.753   2.885   0.611 -2.4055  0.5786  2.8300
 1346SOL     OW15670   0.371   0.953   8.040 -0.6289  0.2498 -0.0876
 1346SOL    HW115671   0.422   0.921   8.115 -0.7545  0.4676  0.0912
 1346SOL    HW215672   0.374   1.049   8.043 -0.2982  0.2177  0.6170
 1347SOL     OW15673   4.588   2.643  13.926 -0.0220  0.5374  0.4910
 1347SOL    HW115674   4.510   2.690  13.896 -1.0439 -0.9837  0.7979
 1347SOL    HW215675   4.547   2.563  13.959 -0.2595 -0.7502 -2.9482
 1348SOL     OW15676   1.163   2.841   2.646 -0.2932  0.1496  0.1707
 1348SOL    HW115677   1.174   2.913   2.583  1.4551 -1.1468 -1.0239
 1348SOL    HW215678   1.074   2.809   2.632  0.4954 -2.2920  0.7095
 1349SOL     OW15679   2.341   1.961   4.392  0.0483 -0.0104  0.2735
 1349SOL    HW115680   2.407   1.934   4.456 -0.5691 -1.4885  0.2932
 1349SOL    HW215681   2.346   2.055   4.406 -1.9434  0.2345 -0.5989
 1350SOL     OW15682   4.348   3.809  15.766 -0.1679 -0.1252  0.5928
 1350SOL    HW115683   4.382   3.853  15.688 -0.3683 -2.6668 -0.9448
 1350SOL    HW215684   4.354   3.720  15.730 -1.2220 -0.0949  0.3499
 1351SOL     OW15685   0.757   4.266   2.527 -0.4481 -0.5823  0.0843
 1351SOL    HW115686   0.715   4.335   2.475 -2.4484 -1.0120  1.1189
 1351SOL    HW215687   0.750   4.193   2.465  0.6532 -0.5418 -0.0867
 1352SOL     OW15688   3.385   4.412   3.843 -0.1837  0.1635  0.4582
 1352SOL    HW115689   3.391   4.318   3.860 -3.7734 -0.4233 -1.7634
 1352SOL    HW215690   3.299   4.414   3.802  0.7522  2.3656 -1.4241
 1353SOL     OW15691   0.672   4.623   0.615 -0.4906 -0.4031 -0.3396
 1353SOL    HW115692   0.581   4.605   0.637 -0.5839 -0.7709 -1.0539
 1353SOL    HW215693   0.664   4.677   0.537  0.9227 -0.6199 -0.6492
 1354SOL     OW15694   0.148   4.730  12.175  0.5256 -0.1191  0.1303
 1354SOL    HW115695   0.091   4.654  12.162  0.0074 -0.0556  1.9613
 1354SOL    HW215696   0.218   4.683  12.221 -1.5189 -1.6836  1.6919
 1355SOL     OW15697   2.122   3.166   4.971 -0.1453  0.6788 -0.4912
 1355SOL    HW115698   2.161   3.080   4.984 -2.8867 -0.5306 -0.1494
 1355SOL    HW215699   2.193   3.221   5.004 -0.1418  1.1597 -1.2914
 1356SOL     OW15700   2.452   4.724   2.687 -0.1287  0.4546  0.0036
 1356SOL    HW115701   2.398   0.068   2.676 -1.0739 -0.1898  0.0954
 1356SOL    HW215702   2.483   4.731   2.778  3.6659  2.4513 -1.4352
 1357SOL     OW15703   2.063   1.352   0.144 -0.1178  0.3329  0.1121
 1357SOL    HW115704   2.034   1.411   0.213 -2.8147 -2.5246  1.4116
 1357SOL    HW215705   2.012   1.275   0.169 -1.6335  1.4828  0.5420
 1358SOL     OW15706   3.991   2.029   7.594  1.1200 -0.6340  0.2893
 1358SOL    HW115707   4.027   2.059   7.510  1.6736 -3.8788 -0.6177
 1358SOL    HW215708   3.897   2.043   7.595  1.5612  2.5984 -1.3439
 1359SOL     OW15709   0.540   0.660  10.749  0.3690  0.1803  0.0198
 1359SOL    HW115710   0.600   0.718  10.796  0.3632  0.2067 -0.0049
 1359SOL    HW215711   0.582   0.645  10.664 -0.6301 -0.0960 -0.4171
 1360SOL     OW15712   1.607   3.896   6.068 -0.3062 -0.6275  0.1161
 1360SOL    HW115713   1.530   3.850   6.102 -1.4878  1.4202  0.2130
 1360SOL    HW215714   1.596   3.985   6.101  0.4317 -1.7560  3.3373
 1361SOL     OW15715   1.227   0.818  16.808  0.5771  0.0942  0.8117
 1361SOL    HW115716   1.278   0.737  16.812 -0.5366 -0.6741 -0.4326
 1361SOL    HW215717   1.263   0.855  16.727 -0.6129  0.7505  0.5806
 1362SOL     OW15718   0.012   3.242   7.403 -0.2382 -0.1855 -0.0591
 1362SOL    HW115719   0.059   3.319   7.436  0.5116 -0.3654 -0.7091
 1362SOL    HW215720   0.084   3.196   7.360  0.5181  0.2830  0.7129
 1363SOL     OW15721   4.724   4.431   4.680 -0.1811  0.2334 -0.5501
 1363SOL    HW115722   4.734   4.515   4.635  1.3514 -0.3762 -1.3655
 1363SOL    HW215723   4.642   4.443   4.726 -0.4247 -1.4272 -0.5708
 1364SOL     OW15724   2.517   2.828  13.345  0.0459 -0.4474  0.0988
 1364SOL    HW115725   2.468   2.775  13.407 -0.8820  0.2233 -0.0641
 1364SOL    HW215726   2.443   2.846  13.286 -1.1768  0.8853  2.0543
 1365SOL     OW15727   3.605   1.586  11.294  0.0928  0.8917  0.6656
 1365SOL    HW115728   3.695   1.611  11.271 -0.9955  1.8675 -2.6479
 1365SOL    HW215729   3.599   1.493  11.275  2.1053  0.9876 -0.4545
 1366SOL     OW15730   1.607   1.882  14.456 -0.0696 -0.1231 -0.2342
 1366SOL    HW115731   1.698   1.908  14.451 -0.1639  0.5913  1.8225
 1366SOL    HW215732   1.604   1.797  14.500  0.0310  0.8563  1.6724
 1367SOL     OW15733   0.425   0.917   6.284  0.0510  0.6280  0.6088
 1367SOL    HW115734   0.471   0.931   6.367 -0.9089 -0.7876  1.3709
 1367SOL    HW215735   0.428   0.821   6.287 -1.2166  0.6234  1.4315
 1368SOL     OW15736   3.514   0.616  17.505  0.5439 -0.1939 -0.5365
 1368SOL    HW115737   3.436   0.583  17.550  0.9275  0.8378  0.9102
 1368SOL    HW215738   3.580   0.557  17.542  0.0844 -0.2541  0.1977
 1369SOL     OW15739   1.226   3.919   0.246 -0.4104  0.1807 -0.4596
 1369SOL    HW115740   1.300   3.975   0.221  0.2340 -0.5211 -0.1492
 1369SOL    HW215741   1.271   3.836   0.262  0.8877  1.2971  1.7452
 1370SOL     OW15742   2.088   2.677   2.020 -0.4276  0.9298 -0.2761
 1370SOL    HW115743   2.072   2.764   1.984 -1.0890  1.1494  0.5368
 1370SOL    HW215744   2.142   2.703   2.095  0.2502  0.3882 -0.5729
 1371SOL     OW15745   2.315   3.573   2.395  0.4645 -0.1907 -0.3387
 1371SOL    HW115746   2.325   3.556   2.302 -0.6035  0.4242 -0.5655
 1371SOL    HW215747   2.244   3.637   2.406  0.6573  0.2508 -1.6711
 1372SOL     OW15748   1.403   0.965   3.010  0.6472  0.1311  0.6685
 1372SOL    HW115749   1.476   0.906   2.992  1.6893  0.9580  2.1503
 1372SOL    HW215750   1.332   0.927   2.960  1.2016 -0.9540  0.7068
 1373SOL     OW15751   0.178   2.241  15.461  0.4661 -0.0814 -0.3371
 1373SOL    HW115752   0.212   2.281  15.542 -0.9665 -1.0927  0.7752
 1373SOL    HW215753   0.209   2.151  15.474 -1.2549 -0.8777 -1.8211
 1374SOL     OW15754   0.786   3.164   9.761  0.2015  0.3798  0.5984
 1374SOL    HW115755   0.797   3.095   9.827 -1.6666  0.8900  1.4571
 1374SOL    HW215756   0.818   3.119   9.683  1.4008  0.6902  0.9095
 1375SOL     OW15757   0.992   0.236   7.129  0.0011  0.0969  0.0940
 1375SOL    HW115758   1.038   0.264   7.208 -0.5421 -1.4582  0.9837
 1375SOL    HW215759   0.981   0.142   7.146  2.6271 -0.1252  0.5788
 1376SOL     OW15760   2.966   0.606   6.340 -0.0140  0.4902 -0.2016
 1376SOL    HW115761   2.934   0.632   6.254  0.9942 -0.4472 -0.8607
 1376SOL    HW215762   3.046   0.560   6.316 -0.9436 -0.5607 -1.3563
 1377SOL     OW15763   3.429   3.425   9.667 -0.0588  0.1231 -0.0172
 1377SOL    HW115764   3.450   3.432   9.761  1.1465 -1.4257 -0.1628
 1377SOL    HW215765   3.374   3.347   9.658 -0.7393  0.5207  0.6228
 1378SOL     OW15766   3.044   1.721  10.690  0.2168  0.1540  0.4645
 1378SOL    HW115767   3.098   1.645  10.708 -0.3100 -0.9293 -2.5681
 1378SOL    HW215768   3.055   1.739  10.597  0.9775 -1.9098  0.1549
 1379SOL     OW15769   1.830   0.218   5.839  0.3549  0.1511  0.5532
 1379SOL    HW115770   1.817   0.238   5.747 -0.9654  0.8840  0.8938
 1379SOL    HW215771   1.900   0.153   5.834 -0.4619 -0.4572 -2.6514
 1380SOL     OW15772   3.046   0.809   9.975  0.0633 -0.3055 -0.1296
 1380SOL    HW115773   3.125   0.832   9.926  0.1822 -0.1474  0.1331
 1380SOL    HW215774   3.013   0.746   9.911  0.1985  0.6369 -1.1296
 1381SOL     OW15775   2.492   3.160   6.889 -0.3786 -0.6636  0.0310
 1381SOL    HW115776   2.447   3.161   6.974 -0.9268 -1.8367 -0.2350
 1381SOL    HW215777   2.565   3.220   6.900 -0.1275 -1.4451  2.5382
 1382SOL     OW15778   3.077   0.024   2.734  0.1680  0.2612 -0.1027
 1382SOL    HW115779   3.070   0.098   2.674 -2.5252  0.1557  0.1110
 1382SOL    HW215780   3.125   4.696   2.678  0.2828  0.2139  0.0458
 1383SOL     OW15781   2.068   0.139   6.896 -0.6170 -0.0410  0.3230
 1383SOL    HW115782   2.005   0.147   6.824  0.2180 -4.0824 -0.8702
 1383SOL    HW215783   2.049   0.214   6.951 -2.0658 -0.7993  0.8720
 1384SOL     OW15784   1.825   4.265  14.455 -0.6560  0.0524 -0.1131
 1384SOL    HW115785   1.827   4.170  14.471 -1.6573 -0.3153 -2.1098
 1384SOL    HW215786   1.735   4.283  14.427 -0.3913  1.2343 -0.1861
 1385SOL     OW15787   3.315   1.579  16.449 -0.3026 -0.3698 -0.3785
 1385SOL    HW115788   3.256   1.608  16.519  1.4056  0.2335  0.8179
 1385SOL    HW215789   3.285   1.631  16.374  1.0854 -3.1611 -2.8678
 1386SOL     OW15790   2.578   0.091   2.923  0.4973  0.4812  0.4777
 1386SOL    HW115791   2.669   0.109   2.945  0.5512 -0.4110  0.9888
 1386SOL    HW215792   2.544   0.065   3.008  1.7669 -1.9703  0.2285
 1387SOL     OW15793   4.177   0.928   4.307  0.1511 -0.7205  0.3569
 1387SOL    HW115794   4.095   0.960   4.269 -0.7949  0.1842  3.1391
 1387SOL    HW215795   4.186   0.987   4.382  0.7014 -0.7163  0.2911
 1388SOL     OW15796   2.317   2.151  12.137  0.0548 -0.3840  0.5553
 1388SOL    HW115797   2.362   2.142  12.221  1.2087  0.2187  0.0101
 1388SOL    HW215798   2.353   2.236  12.112  0.6443 -0.2528  1.8367
 1389SOL     OW15799   1.641   3.823   2.771  0.7824  0.1086  0.5912
 1389SOL    HW115800   1.725   3.807   2.814  0.6906 -0.4874  0.5525
 1389SOL    HW215801   1.596   3.744   2.803  0.8182  0.2310  0.9478
 1390SOL     OW15802   2.034   0.569   4.322 -0.3592 -0.1928  0.2004
 1390SOL    HW115803   1.981   0.646   4.343  0.0559  0.6514 -1.8269
 1390SOL    HW215804   2.060   0.536   4.408 -2.1605  0.6420  1.0617
 1391SOL     OW15805   1.000   0.512   7.998  0.0605  0.0809  0.0571
 1391SOL    HW115806   0.924   0.452   7.994 -0.3177  0.6220 -1.0124
 1391SOL    HW215807   1.033   0.531   7.910  1.7436  2.2160  1.1886
 1392SOL     OW15808   3.265   2.640   5.874 -0.1723  1.0134 -0.4590
 1392SOL    HW115809   3.177   2.675   5.893 -0.0428  0.3122  1.4563
 1392SOL    HW215810   3.282   2.665   5.784  0.5318 -1.7870 -1.0945
 1393SOL     OW15811   4.269   1.679  15.000 -0.0743  0.8598  0.5401
 1393SOL    HW115812   4.191   1.731  14.979 -0.1817  0.6851  0.5067
 1393SOL    HW215813   4.285   1.618  14.929 -2.4895  0.8444 -0.0023
 1394SOL     OW15814   0.567   0.622   1.201  0.4034  0.0508  0.2819
 1394SOL    HW115815   0.538   0.535   1.173 -0.4243  1.0284 -1.9407
 1394SOL    HW215816   0.582   0.610   1.295 -0.1154 -2.7286  0.0271
 1395SOL     OW15817   2.560   3.519   2.135  0.3444 -0.1607 -0.2051
 1395SOL    HW115818   2.509   3.458   2.082 -2.3259  1.4637  0.5026
 1395SOL    HW215819   2.557   3.471   2.218 -2.3009  0.9231  0.3278
 1396SOL     OW15820   3.162   1.935   5.321 -0.6024  0.7897  0.4664
 1396SOL    HW115821   3.155   1.843   5.296 -1.1128  0.4173  1.9277
 1396SOL    HW215822   3.207   1.965   5.242  0.2218 -0.2175  0.5614
 1397SOL     OW15823   1.143   2.290  14.064 -0.4645 -0.3457 -0.0699
 1397SOL    HW115824   1.186   2.273  13.980 -0.8267  0.0542 -0.3306
 1397SOL    HW215825   1.225   2.304  14.112  0.4773 -1.5695 -1.3099
 1398SOL     OW15826   3.678   2.455  16.142  0.4395 -0.0540 -0.0463
 1398SOL    HW115827   3.706   2.516  16.210  0.4090 -1.2550  1.0507
 1398SOL    HW215828   3.737   2.475  16.069  0.1421  0.6194 -0.0934
 1399SOL     OW15829   3.239   3.026   9.893 -0.6151  0.3954 -0.1069
 1399SOL    HW115830   3.234   2.946   9.840 -0.0682  0.7220 -0.6427
 1399SOL    HW215831   3.252   2.998   9.984 -3.6555 -1.0471 -0.1117
 1400SOL     OW15832   3.195   1.539  14.179 -0.0043  0.1176  0.1844
 1400SOL    HW115833   3.119   1.483  14.197 -0.0301 -0.2644 -1.1222
 1400SOL    HW215834   3.246   1.522  14.258 -0.4123 -2.7198 -0.1952
 1401SOL     OW15835   0.481   2.907   4.774  0.3746  0.3241 -0.0904
 1401SOL    HW115836   0.390   2.897   4.747 -0.2301  0.9256  1.6759
 1401SOL    HW215837   0.538   2.910   4.697 -1.4424 -0.4762 -1.4535
 1402SOL     OW15838   3.991   3.603   9.802 -0.0235 -0.4497 -0.7031
 1402SOL    HW115839   4.025   3.676   9.749 -1.9223  0.7562 -0.2709
 1402SOL    HW215840   4.043   3.534   9.760  1.8218 -0.1208  1.0152
 1403SOL     OW15841   4.720   2.409   6.261 -0.3177 -0.3005 -0.2506
 1403SOL    HW115842   4.640   2.432   6.214 -1.0133 -1.4248  0.3937
 1403SOL    HW215843   4.712   2.314   6.266  1.9421 -0.2516  3.7886
 1404SOL     OW15844   0.821   1.702   6.938 -0.0928  0.1283 -0.0674
 1404SOL    HW115845   0.881   1.657   6.878 -2.7981 -1.8440 -1.2710
 1404SOL    HW215846   0.834   1.640   7.011 -1.2761  1.1579  1.0064
 1405SOL     OW15847   4.336   1.620   6.542  0.1528  0.7843 -0.1440
 1405SOL    HW115848   4.342   1.548   6.605 -0.0394  1.5826  0.7738
 1405SOL    HW215849   4.363   1.685   6.606  0.3520  0.4702  0.0914
 1406SOL     OW15850   1.926   3.009   4.069 -0.0124  0.0632  0.0683
 1406SOL    HW115851   1.994   3.021   4.003  0.7591 -1.9292  0.4776
 1406SOL    HW215852   1.974   2.941   4.117  0.4594 -1.6628 -2.8519
 1407SOL     OW15853   1.652   2.190   5.179 -0.4859 -0.0963  0.3414
 1407SOL    HW115854   1.729   2.133   5.189 -0.0985  0.5027  0.7511
 1407SOL    HW215855   1.610   2.186   5.265  2.2232 -1.1057  1.6271
 1408SOL     OW15856   4.096   2.645   3.144 -0.1201 -0.2023  0.3933
 1408SOL    HW115857   4.147   2.574   3.184 -0.6136 -0.2243  0.9801
 1408SOL    HW215858   4.026   2.649   3.209  0.6046 -0.2414  1.1899
 1409SOL     OW15859   4.241   2.590   1.285  0.0905 -0.3745  0.4735
 1409SOL    HW115860   4.298   2.652   1.240  2.2631 -1.9168  1.1506
 1409SOL    HW215861   4.160   2.642   1.280  0.4144  0.0579 -0.2485
 1410SOL     OW15862   0.304   3.472   4.245 -0.1021 -0.4117 -0.3603
 1410SOL    HW115863   0.287   3.385   4.279 -2.6539  0.3781  0.3654
 1410SOL    HW215864   0.291   3.542   4.309 -2.0661 -0.4501 -0.7042
 1411SOL     OW15865   1.008   4.553   0.516 -0.1690 -0.7625 -0.4393
 1411SOL    HW115866   1.077   4.521   0.459 -2.7024 -2.9900 -2.2439
 1411SOL    HW215867   0.992   4.641   0.480 -1.0596  0.1334  2.1456
 1412SOL     OW15868   4.254   4.493   6.448  0.2600  0.0030  0.0177
 1412SOL    HW115869   4.180   4.542   6.483  0.2058 -0.4899  0.5853
 1412SOL    HW215870   4.218   4.411   6.415  0.7722 -0.9381  1.8533
 1413SOL     OW15871   0.855   0.043  12.198  0.7405 -0.3806  0.3994
 1413SOL    HW115872   0.928   0.062  12.256 -2.2302  0.4414  3.8459
 1413SOL    HW215873   0.873   0.106  12.128 -0.5249  0.5723  0.9373
 1414SOL     OW15874   3.635   3.969   4.579 -0.3308 -0.2044  0.1824
 1414SOL    HW115875   3.579   4.025   4.632 -1.3626 -1.2164  0.1675
 1414SOL    HW215876   3.686   3.915   4.639  0.7184  0.4464 -0.1152
 1415SOL     OW15877   1.281   3.568   6.030 -0.1450  0.2207 -0.0911
 1415SOL    HW115878   1.219   3.573   5.957  1.0759  1.7555 -1.0202
 1415SOL    HW215879   1.239   3.497   6.079 -0.2261 -1.3334 -2.3998
 1416SOL     OW15880   4.644   2.279   5.917 -0.0159 -0.4434 -0.0050
 1416SOL    HW115881   4.649   2.341   5.844 -4.5377  0.6949  0.6886
 1416SOL    HW215882   4.733   2.283   5.951 -0.6223  1.7009  1.3536
 1417SOL     OW15883   2.421   1.733   0.131 -0.2098 -0.1860 -0.0881
 1417SOL    HW115884   2.436   1.750   0.224 -0.7274  0.1859 -0.0729
 1417SOL    HW215885   2.427   1.820   0.093  0.1078  0.1191  0.6590
 1418SOL     OW15886   3.644   1.286  11.905 -0.6429  0.3414 -0.1988
 1418SOL    HW115887   3.567   1.327  11.943 -1.0985  0.2818 -1.0489
 1418SOL    HW215888   3.599   1.208  11.873 -1.2711  0.1680  1.1083
 1419SOL     OW15889   2.457   1.079  12.228  0.0075 -0.5531 -0.5443
 1419SOL    HW115890   2.489   1.169  12.221  1.5565 -0.9765  1.1268
 1419SOL    HW215891   2.480   1.051  12.140 -0.7806 -0.2282 -0.8517
 1420SOL     OW15892   3.651   3.637   9.633  0.3001  0.4682  0.4388
 1420SOL    HW115893   3.589   3.564   9.634 -1.6927  2.1464  0.4013
 1420SOL    HW215894   3.601   3.707   9.675  0.3447  1.1163 -0.5914
 1421SOL     OW15895   4.680   2.112   0.171 -0.1046 -0.4199 -0.2968
 1421SOL    HW115896   4.665   2.195   0.125  1.3670 -0.3629 -0.6560
 1421SOL    HW215897   4.602   2.061   0.150 -0.9757  0.6611  0.2500
 1422SOL     OW15898   1.192   4.059   8.502 -0.5286 -0.5212 -0.3082
 1422SOL    HW115899   1.228   4.036   8.416  2.4165 -1.5082  1.2129
 1422SOL    HW215900   1.165   4.150   8.487 -0.6519 -0.0046  3.0079
 1423SOL     OW15901   1.401   0.017   7.413 -0.1860  0.2102  0.3218
 1423SOL    HW115902   1.363   0.047   7.331  0.1903  0.9488  0.4177
 1423SOL    HW215903   1.493   0.042   7.408 -0.0036 -0.3471  0.8593
 1424SOL     OW15904   2.563   0.122   4.920  0.3907 -0.7592 -0.3007
 1424SOL    HW115905   2.505   0.079   4.984  1.1583  0.4701  1.2418
 1424SOL    HW215906   2.625   0.055   4.892  1.8863 -0.3417  1.9674
 1425SOL     OW15907   3.287   3.721   8.163  0.5489  0.0874 -0.3710
 1425SOL    HW115908   3.219   3.662   8.195 -0.1734  1.4962  0.7238
 1425SOL    HW215909   3.352   3.659   8.130 -1.9274 -2.1455 -1.0123
 1426SOL     OW15910   0.731   1.386   0.077  0.0697 -0.2488 -0.2807
 1426SOL    HW115911   0.636   1.398   0.080  0.1300 -0.0403  0.6005
 1426SOL    HW215912   0.726   1.341  17.728 -0.4548 -0.6671 -0.0308
 1427SOL     OW15913   4.638   0.103   4.311 -0.0232  0.8059  0.2487
 1427SOL    HW115914   4.731   0.099   4.289 -1.1413 -0.6452 -4.1079
 1427SOL    HW215915   4.617   0.195   4.294 -0.4574  0.7808  0.6462
 1428SOL     OW15916   1.012   3.963   5.808  0.2486  0.6768 -0.1109
 1428SOL    HW115917   1.007   4.040   5.864 -1.0137  0.3492  0.2211
 1428SOL    HW215918   0.945   3.983   5.743  2.4050 -0.0198 -2.5519
 1429SOL     OW15919   4.552   0.068   2.543 -0.3418  0.2962  0.6057
 1429SOL    HW115920   4.611   0.096   2.473  0.1060  0.0928  0.9029
 1429SOL    HW215921   4.484   0.022   2.493  1.7069 -0.9462 -0.9982
 1430SOL     OW15922   0.899   4.020   8.579  0.4992 -0.2311 -0.0674
 1430SOL    HW115923   0.990   3.991   8.585  0.0151 -1.9761 -1.2118
 1430SOL    HW215924   0.906   4.094   8.519 -1.2339 -0.4867 -0.5687
 1431SOL     OW15925   4.554   4.439   7.341 -0.4588  0.7612 -0.1601
 1431SOL    HW115926   4.595   4.352   7.342  0.2514  1.0885 -2.1174
 1431SOL    HW215927   4.498   4.425   7.265  1.4820 -1.5549 -1.1496
 1432SOL     OW15928   0.854   1.244   3.280  0.1845 -0.1031 -0.0417
 1432SOL    HW115929   0.929   1.211   3.331  0.2688  3.3610  2.0945
 1432SOL    HW215930   0.784   1.181   3.300 -2.0206  1.9074 -1.4997
 1433SOL     OW15931   3.566   2.577   9.292  0.1044 -0.5324  0.9068
 1433SOL    HW115932   3.639   2.602   9.348  1.3527 -2.5189  0.1481
 1433SOL    HW215933   3.611   2.596   9.210 -0.8183 -0.9226  0.3078
 1434SOL     OW15934   4.314   1.360  12.452 -0.3694 -0.7346 -0.4519
 1434SOL    HW115935   4.271   1.407  12.523 -1.9318 -1.5011 -0.8982
 1434SOL    HW215936   4.364   1.432  12.415 -0.4005  0.6355  2.1685
 1435SOL     OW15937   2.126   0.363  12.622  0.0289 -0.1865  0.2709
 1435SOL    HW115938   2.148   0.455  12.629 -0.1364 -0.0288 -1.4953
 1435SOL    HW215939   2.192   0.332  12.560  0.3614  1.8443 -0.3636
 1436SOL     OW15940   1.432   2.835   4.206 -0.2307  0.0050  0.1230
 1436SOL    HW115941   1.523   2.817   4.230  0.6841  1.0616 -2.5133
 1436SOL    HW215942   1.432   2.930   4.202  0.3865 -0.1020 -2.2718
 1437SOL     OW15943   0.880   1.483  17.497  0.0168 -0.0450  0.4237
 1437SOL    HW115944   0.844   1.502  17.411 -1.5259  0.9794  1.2975
 1437SOL    HW215945   0.956   1.426  17.489 -2.4407 -3.4755  1.7270
 1438SOL     OW15946   1.409   1.598   7.427  0.6344 -0.2520  0.5917
 1438SOL    HW115947   1.440   1.508   7.423  1.7336  0.0517  2.4745
 1438SOL    HW215948   1.438   1.643   7.347  0.0083  0.0671  0.5406
 1439SOL     OW15949   2.395   1.129  14.647 -0.5064 -0.5619  0.1534
 1439SOL    HW115950   2.332   1.063  14.619  0.1367 -0.9089 -0.4768
 1439SOL    HW215951   2.332   1.194  14.678 -2.8426 -2.0894 -1.4165
 1440SOL     OW15952   1.228   2.033   6.454  0.1773  0.3389 -0.7729
 1440SOL    HW115953   1.150   2.074   6.491 -1.7243 -2.0479 -2.1216
 1440SOL    HW215954   1.216   1.939   6.466  2.0768 -0.0069 -1.6038
 1441SOL     OW15955   0.880   1.870   1.056  0.0190  0.6232  0.0119
 1441SOL    HW115956   0.824   1.890   0.982  1.0662  1.3156 -0.6028
 1441SOL    HW215957   0.818   1.838   1.121  0.3837  1.7359  0.9130
 1442SOL     OW15958   3.354   0.958   4.580 -0.2209 -0.1181 -0.1843
 1442SOL    HW115959   3.361   1.049   4.552  0.1129  0.2181  1.0062
 1442SOL    HW215960   3.410   0.913   4.517 -1.2085 -1.4629 -0.1094
 1443SOL     OW15961   2.121   2.416  13.487 -0.1286 -0.2059  0.3027
 1443SOL    HW115962   2.030   2.438  13.466  0.4475  0.9747 -0.9612
 1443SOL    HW215963   2.128   2.341  13.427  2.3005  0.0270  0.3078
 1444SOL     OW15964   0.696   4.433   2.342  0.1292 -0.0096  0.1048
 1444SOL    HW115965   0.664   4.518   2.313 -1.7381 -0.2970  1.2959
 1444SOL    HW215966   0.717   4.387   2.261 -0.3885 -1.9101  1.0384
 1445SOL     OW15967   4.216   3.868  17.117 -0.5339 -0.0062  0.1369
 1445SOL    HW115968   4.187   3.879  17.207  0.4786  1.2218  0.3136
 1445SOL    HW215969   4.311   3.863  17.123 -0.2383  0.3838 -3.6995
 1446SOL     OW15970   3.308   0.115  10.161 -0.1607 -0.5549  0.0916
 1446SOL    HW115971   3.331   0.176  10.090 -0.3668 -1.4401 -0.7356
 1446SOL    HW215972   3.283   0.049  10.096  1.5271 -1.0103 -0.0920
 1447SOL     OW15973   1.952   4.439   4.621  0.0131  0.1727  0.3872
 1447SOL    HW115974   1.915   4.394   4.544  0.9002  0.5674 -0.2668
 1447SOL    HW215975   1.906   4.522   4.609  3.3408  2.2089  2.0528
 1448SOL     OW15976   3.161   2.740  15.779 -0.2342  0.1449 -0.2654
 1448SOL    HW115977   3.149   2.833  15.794  0.3833  0.0034  1.1364
 1448SOL    HW215978   3.231   2.724  15.843  0.2125  0.5286 -0.6564
 1449SOL     OW15979   1.646   4.727  10.059  0.0321 -0.3558 -0.1071
 1449SOL    HW115980   1.634   4.632  10.056  0.7138 -0.4470 -0.1117
 1449SOL    HW215981   1.742   4.734  10.055 -0.0396  1.1372  0.8209
 1450SOL     OW15982   3.908   2.995   7.630  0.7006 -1.0858 -0.1691
 1450SOL    HW115983   3.973   2.937   7.591  2.3823  0.2629  0.6294
 1450SOL    HW215984   3.861   2.941   7.694  1.4800  1.3362  2.4461
 1451SOL     OW15985   4.040   3.604   8.888 -0.1797  0.3252 -0.0464
 1451SOL    HW115986   4.013   3.668   8.953  0.2388 -0.1117  0.5540
 1451SOL    HW215987   3.980   3.533   8.909  1.8104 -1.4682 -0.4012
 1452SOL     OW15988   0.967   0.768  16.663 -0.2452 -0.6669 -0.1241
 1452SOL    HW115989   0.990   0.843  16.717 -0.4544 -2.3666  2.2991
 1452SOL    HW215990   1.008   0.693  16.706  1.3240  0.3656  0.1626
 1453SOL     OW15991   4.676   1.648  13.492 -0.3806 -0.0729 -0.1170
 1453SOL    HW115992   0.002   1.715  13.526  2.0957 -2.9051  1.0581
 1453SOL    HW215993   4.715   1.570  13.531  1.8001  0.9573 -0.1748
 1454SOL     OW15994   3.868   4.337   0.587 -0.4187 -0.7846 -0.2431
 1454SOL    HW115995   3.915   4.314   0.507  0.8367  0.2814  0.1829
 1454SOL    HW215996   3.824   4.417   0.560  0.2009 -0.0900  0.8006
 1455SOL     OW15997   1.190   0.749   7.712 -0.5207  0.1656  0.1908
 1455SOL    HW115998   1.226   0.761   7.624  2.3108  1.3355  1.5088
 1455SOL    HW215999   1.272   0.760   7.760 -1.5913  1.2660  1.7422
 1456SOL     OW16000   3.568   4.121  11.818 -0.0565  0.1318  0.4384
 1456SOL    HW116001   3.631   4.050  11.830  0.3486  0.6861  1.5850
 1456SOL    HW216002   3.627   4.191  11.792  0.4747  0.2960  2.0858
 1457SOL     OW16003   4.272   2.808   7.739 -0.2732 -0.3367 -0.5248
 1457SOL    HW116004   4.191   2.812   7.689 -0.5514 -1.2845 -0.1536
 1457SOL    HW216005   4.279   2.713   7.748 -1.5450 -0.5406 -1.8854
 1458SOL     OW16006   4.014   2.778   3.684  0.3083  0.5003 -0.0919
 1458SOL    HW116007   4.064   2.749   3.760  1.1335 -2.0497 -1.6214
 1458SOL    HW216008   3.958   2.850   3.713  1.2910  0.9248  0.7574
 1459SOL     OW16009   1.441   4.445   8.484 -0.0679  0.0111  0.1559
 1459SOL    HW116010   1.451   4.407   8.397  2.0860  0.2277  0.3168
 1459SOL    HW216011   1.440   4.373   8.547  1.8222 -0.1086  0.0390
 1460SOL     OW16012   3.167   1.009   1.589  0.2111  0.0673 -0.3897
 1460SOL    HW116013   3.112   0.996   1.667 -1.2676  3.3728 -0.8790
 1460SOL    HW216014   3.208   1.094   1.604  0.6623 -0.1909 -0.1591
 1461SOL     OW16015   1.322   0.953   6.747 -0.6167 -0.0021 -0.0075
 1461SOL    HW116016   1.303   1.016   6.678  2.5631  0.8083 -0.1585
 1461SOL    HW216017   1.282   0.997   6.821  0.4085  2.6472 -1.0185
 1462SOL     OW16018   2.977   4.040   5.919 -0.0141 -0.3139  0.6423
 1462SOL    HW116019   2.919   4.016   5.991 -1.3051  1.5535  0.2341
 1462SOL    HW216020   2.959   3.968   5.860  1.1319 -0.2894  0.2619
 1463SOL     OW16021   0.127   4.264   1.935  0.1179 -0.0798  0.4619
 1463SOL    HW116022   0.067   4.272   2.010  0.8676  0.8942  0.9620
 1463SOL    HW216023   0.142   4.354   1.909  0.4707 -0.6059 -1.1386
 1464SOL     OW16024   1.324   3.397  14.109  0.3263  0.6249 -0.1473
 1464SOL    HW116025   1.308   3.307  14.136 -0.4476  0.7731 -0.1030
 1464SOL    HW216026   1.318   3.447  14.190  0.9197 -0.2716  0.4446
 1465SOL     OW16027   2.726   1.252  16.043 -0.1635 -0.3614  0.1972
 1465SOL    HW116028   2.752   1.239  16.134  1.5274  0.5904 -0.1451
 1465SOL    HW216029   2.769   1.184  15.992  0.4246 -0.3254  0.6362
 1466SOL     OW16030   4.006   0.688   7.130  0.1275 -0.0515  0.0130
 1466SOL    HW116031   4.087   0.658   7.086 -1.4673 -0.5392 -2.5889
 1466SOL    HW216032   3.977   0.599   7.151  0.9292 -0.2539  0.2790
 1467SOL     OW16033   2.047   0.853   2.512 -0.0840 -0.3263 -0.1417
 1467SOL    HW116034   2.095   0.929   2.477 -1.9485  1.5292  1.3360
 1467SOL    HW216035   2.118   0.795   2.538 -1.0543 -0.9186  1.1409
 1468SOL     OW16036   3.415   1.040  13.397 -0.5611  0.4984  0.1500
 1468SOL    HW116037   3.346   1.090  13.354  0.4127  1.8025  0.1198
 1468SOL    HW216038   3.483   1.071  13.337  0.3521 -2.5518 -0.4052
 1469SOL     OW16039   4.045   0.029   5.976 -0.3518  0.1648  0.0709
 1469SOL    HW116040   3.999   4.690   5.936  0.1409 -0.0101 -0.1776
 1469SOL    HW216041   4.012   0.042   6.065 -0.1556  1.6048 -0.0614
 1470SOL     OW16042   3.262   3.487   4.759  0.0561  0.2625 -0.1054
 1470SOL    HW116043   3.285   3.412   4.704  0.6188  0.0722  0.3802
 1470SOL    HW216044   3.266   3.565   4.705  0.0795  0.8214  0.6985
 1471SOL     OW16045   4.457   0.333   4.463  0.7430 -0.6237  0.6732
 1471SOL    HW116046   4.454   0.428   4.468 -1.4585 -0.6716  0.1581
 1471SOL    HW216047   4.430   0.300   4.549 -2.0743 -2.9372 -1.0828
 1472SOL     OW16048   4.414   0.476   7.605 -0.1425  0.2283 -0.1955
 1472SOL    HW116049   4.480   0.483   7.536 -0.3614 -0.8504 -0.5083
 1472SOL    HW216050   4.351   0.543   7.579 -0.1872  0.4203  0.4080
 1473SOL     OW16051   1.587   4.493  13.349  0.4257  0.4523 -0.4202
 1473SOL    HW116052   1.515   4.556  13.354 -0.4057 -0.6255  1.0186
 1473SOL    HW216053   1.639   4.540  13.415  1.0215  0.2536 -0.7497
 1474SOL     OW16054   1.912   1.522   7.135 -0.4787 -0.6254 -0.0797
 1474SOL    HW116055   1.890   1.565   7.053 -1.9820 -2.0075 -0.3977
 1474SOL    HW216056   1.959   1.593   7.180 -1.8628  0.6718 -0.7113
 1475SOL     OW16057   3.799   4.590  15.783 -0.1325  0.2218 -0.0069
 1475SOL    HW116058   3.837   4.613  15.698 -0.3510 -3.4262 -1.1045
 1475SOL    HW216059   3.737   4.523  15.754 -0.6950  1.2925 -1.3007
 1476SOL     OW16060   2.408   1.747   2.827 -0.2795  0.5621  0.4107
 1476SOL    HW116061   2.460   1.807   2.774  0.5691 -0.0490  0.5471
 1476SOL    HW216062   2.434   1.761   2.918  0.3406 -0.6581  0.4192
 1477SOL     OW16063   2.903   2.652  14.211 -0.3065 -0.1304 -0.1096
 1477SOL    HW116064   2.931   2.740  14.186  0.8419  0.4139  3.0955
 1477SOL    HW216065   2.964   2.634  14.283 -0.8833 -2.1712 -0.1130
 1478SOL     OW16066   3.469   0.543   4.635  0.1819 -0.6848 -0.2469
 1478SOL    HW116067   3.388   0.537   4.583 -0.2047 -0.2817  0.3066
 1478SOL    HW216068   3.529   0.530   4.562 -1.3578  1.0620 -1.8279
 1479SOL     OW16069   1.382   2.198   3.221 -0.1831  0.0569 -0.3159
 1479SOL    HW116070   1.322   2.165   3.155  0.1935 -2.1068  0.4406
 1479SOL    HW216071   1.454   2.238   3.172 -1.0844  1.7911 -0.2525
 1480SOL     OW16072   2.589   3.705   6.806  0.1676 -0.6269  0.6179
 1480SOL    HW116073   2.637   3.722   6.725 -1.6734  0.8184 -0.1662
 1480SOL    HW216074   2.567   3.614   6.792  3.6275 -1.2516 -0.8448
 1481SOL     OW16075   4.413   4.008   3.802  0.0074  0.0047  0.7806
 1481SOL    HW116076   4.448   4.094   3.823  0.1666 -0.2901  1.7163
 1481SOL    HW216077   4.344   4.038   3.742 -3.0019 -1.8764  3.3235
 1482SOL     OW16078   4.728   0.625   8.910 -0.6259  0.6939 -0.1254
 1482SOL    HW116079   4.715   0.534   8.936  1.0542  0.3329 -0.5539
 1482SOL    HW216080   4.674   0.617   8.831 -2.7029  1.2462  1.2382
 1483SOL     OW16081   2.537   4.326   6.975  0.3562 -0.0324 -0.2036
 1483SOL    HW116082   2.576   4.369   7.051  0.9043  0.8907 -1.0046
 1483SOL    HW216083   2.446   4.345   6.999 -0.1378  0.2053 -2.2769
 1484SOL     OW16084   3.747   2.117   5.791  0.7566 -0.0450  0.0181
 1484SOL    HW116085   3.696   2.043   5.824  1.5464 -0.9425 -0.7594
 1484SOL    HW216086   3.686   2.153   5.726  0.5392 -1.2873 -0.4711
 1485SOL     OW16087   1.520   0.531  16.969 -0.2894  0.6923  0.4695
 1485SOL    HW116088   1.608   0.494  16.957 -0.2885  1.4085 -1.6969
 1485SOL    HW216089   1.530   0.570  17.056  0.2443 -0.2851  0.8417
 1486SOL     OW16090   4.715   3.127   1.915 -0.3657  0.1115  0.5136
 1486SOL    HW116091   4.630   3.142   1.876  1.9501  1.3663 -4.0546
 1486SOL    HW216092   0.022   3.055   1.867  1.8738  0.8756  1.2466
 1487SOL     OW16093   3.967   2.465   8.800  0.6420  0.1350  0.1633
 1487SOL    HW116094   4.051   2.495   8.764  0.5483 -2.5888 -2.3782
 1487SOL    HW216095   3.959   2.502   8.888 -2.4267 -0.5844  0.1738
 1488SOL     OW16096   0.490   1.723   5.922 -0.0153 -0.2234  0.1217
 1488SOL    HW116097   0.585   1.731   5.913 -0.1775  0.2957 -1.1368
 1488SOL    HW216098   0.478   1.628   5.927  3.5003 -0.6753  0.1420
 1489SOL     OW16099   0.867   4.282   4.903  0.5692 -0.3325  0.9680
 1489SOL    HW116100   0.859   4.279   4.807  0.3561  4.4908  0.8398
 1489SOL    HW216101   0.918   4.203   4.918 -0.0753 -1.1005 -0.8288
 1490SOL     OW16102   0.597   0.006   1.398 -0.3685  0.4570 -0.9184
 1490SOL    HW116103   0.581   0.013   1.304 -0.8810  0.9649 -0.7923
 1490SOL    HW216104   0.521   4.690   1.426  0.7450 -2.6028 -3.3027
 1491SOL     OW16105   1.334   2.644   2.843  0.0489 -0.4582  0.2117
 1491SOL    HW116106   1.405   2.580   2.846  0.3481 -0.1245  0.1806
 1491SOL    HW216107   1.314   2.636   2.937  1.0019  1.4061  0.5585
 1492SOL     OW16108   0.694   0.161   6.081 -0.2627  0.8121 -0.6528
 1492SOL    HW116109   0.720   0.100   6.012 -0.7516  1.3152 -1.2915
 1492SOL    HW216110   0.655   0.101   6.145 -0.2382 -0.9550 -2.3066
 1493SOL     OW16111   2.165   3.524  15.881  0.2757  0.2280 -0.9046
 1493SOL    HW116112   2.084   3.497  15.837 -0.0632  1.9945 -1.3683
 1493SOL    HW216113   2.167   3.607  15.835 -1.2601 -0.2466 -1.8579
 1494SOL     OW16114   1.127   2.133   2.470 -0.2762  1.0577  0.2843
 1494SOL    HW116115   1.208   2.149   2.421  1.3368 -1.7628  2.0507
 1494SOL    HW216116   1.076   2.210   2.444  0.6564  1.5944  0.0345
 1495SOL     OW16117   1.216   0.638   3.700 -0.1414 -0.7371 -0.3182
 1495SOL    HW116118   1.269   0.716   3.684  0.9907 -1.4364  0.0375
 1495SOL    HW216119   1.273   0.573   3.740 -0.6297 -0.2817  1.1346
 1496SOL     OW16120   2.058   4.367  10.268  0.3194 -0.5174  0.2887
 1496SOL    HW116121   2.101   4.360  10.354  0.2739 -0.6376  0.3014
 1496SOL    HW216122   2.086   4.278  10.242 -1.8142 -1.2169  0.4250
 1497SOL     OW16123   0.240   1.127   1.390 -0.2180  0.7850 -0.3523
 1497SOL    HW116124   0.186   1.117   1.469  1.3160 -2.0352  0.3392
 1497SOL    HW216125   0.178   1.089   1.329 -0.3555  1.6567 -0.7626
 1498SOL     OW16126   2.464   0.829   5.322  0.4777  1.0304  0.0537
 1498SOL    HW116127   2.514   0.835   5.240 -0.8541  1.5483 -0.7161
 1498SOL    HW216128   2.384   0.788   5.290  0.6499 -0.2648  1.2752
 1499SOL     OW16129   4.630   2.143   7.014 -0.3032  0.4632  1.0545
 1499SOL    HW116130   4.644   2.049   7.005 -0.1830  0.5471  0.4147
 1499SOL    HW216131   4.562   2.140   7.081 -1.6442  3.1405 -0.2188
 1500SOL     OW16132   0.789   4.432   8.571  0.2322  0.1793 -0.0424
 1500SOL    HW116133   0.831   4.462   8.652  1.8376 -2.7077  0.1801
 1500SOL    HW216134   0.858   4.379   8.532 -1.1399 -0.7794 -1.1458
 1501SOL     OW16135   2.901   0.755  14.900 -0.0162 -0.7412 -0.3098
 1501SOL    HW116136   2.834   0.700  14.860 -0.1320 -0.4593 -0.5004
 1501SOL    HW216137   2.979   0.710  14.868  2.6421  2.2114  1.8091
 1502SOL     OW16138   1.348   0.159  10.528  0.2661  0.3748  0.5140
 1502SOL    HW116139   1.297   0.239  10.540  2.3313  1.9070 -0.9636
 1502SOL    HW216140   1.283   0.094  10.554  0.3718  0.1208  0.1592
 1503SOL     OW16141   2.883   1.136   1.426  0.1007  0.2017  0.3436
 1503SOL    HW116142   2.931   1.139   1.509 -0.5956  0.7711  0.7206
 1503SOL    HW216143   2.828   1.214   1.436 -1.6442 -0.5302 -3.3002
 1504SOL     OW16144   3.360   2.514   4.206  0.1982 -0.2275  0.6885
 1504SOL    HW116145   3.363   2.496   4.112  1.7935 -2.0895  1.1038
 1504SOL    HW216146   3.417   2.591   4.210 -1.6489  1.2227 -0.6506
 1505SOL     OW16147   4.295   2.809   8.389  0.8478  0.6723 -0.0381
 1505SOL    HW116148   4.353   2.870   8.343 -0.1174 -0.0924 -2.2470
 1505SOL    HW216149   4.315   2.828   8.481  0.0199  0.8575  0.1041
 1506SOL     OW16150   0.091   4.620  11.432 -0.0028 -0.1776 -0.4262
 1506SOL    HW116151   0.051   4.654  11.352 -0.1258  0.6968  0.0094
 1506SOL    HW216152   0.102   4.528  11.409 -0.0328 -0.2461 -0.1680
 1507SOL     OW16153   3.410   3.275   6.289  0.0155  0.1672 -0.3352
 1507SOL    HW116154   3.434   3.301   6.200  0.3402  1.3502  0.1104
 1507SOL    HW216155   3.390   3.182   6.275  2.2328 -0.2648 -0.7003
 1508SOL     OW16156   1.253   4.600   5.763  0.1255  0.2766 -0.0559
 1508SOL    HW116157   1.185   4.647   5.812 -1.5366 -3.4309  1.2551
 1508SOL    HW216158   1.327   4.618   5.821  0.1285 -0.8673  0.2983
 1509SOL     OW16159   2.742   4.191  15.534  0.4455  0.6100  0.2952
 1509SOL    HW116160   2.717   4.282  15.548 -0.4895  0.3968 -0.0234
 1509SOL    HW216161   2.807   4.207  15.466 -1.9376  2.4526 -1.4870
 1510SOL     OW16162   4.555   3.215   5.840  0.4727  0.4046 -0.1169
 1510SOL    HW116163   4.508   3.242   5.761  0.0811  0.0854  0.0105
 1510SOL    HW216164   4.586   3.303   5.862 -1.8671  1.3757 -0.7338
 1511SOL     OW16165   2.027   1.129   8.023 -0.4753  0.8303  0.1828
 1511SOL    HW116166   1.961   1.077   8.069  2.0396 -2.4860  0.0603
 1511SOL    HW216167   2.073   1.060   7.976 -1.5502  0.2879 -0.0887
 1512SOL     OW16168   2.883   3.423   1.681 -0.1382 -0.2141  0.2189
 1512SOL    HW116169   2.930   3.347   1.716 -1.7434  0.6773  4.3989
 1512SOL    HW216170   2.797   3.420   1.724  0.2518  0.4326  1.0572
 1513SOL     OW16171   4.248   3.703   1.344 -0.3044  0.1404 -0.0578
 1513SOL    HW116172   4.209   3.634   1.398  1.1041 -1.0369 -0.5518
 1513SOL    HW216173   4.191   3.679   1.271  0.9682  1.8907 -1.6015
 1514SOL     OW16174   4.432   3.427   6.224 -0.0851 -0.2527 -0.8459
 1514SOL    HW116175   4.359   3.377   6.188 -0.3937  0.2572 -0.9428
 1514SOL    HW216176   4.388   3.513   6.226  2.9641  1.2980 -0.4248
 1515SOL     OW16177   1.676   4.541   8.728 -0.6492  0.7273 -0.0857
 1515SOL    HW116178   1.710   4.480   8.663 -0.9388 -0.2893  0.7053
 1515SOL    HW216179   1.755   4.589   8.755 -0.7507  0.5141  0.5984
 1516SOL     OW16180   2.783   3.299  17.245  0.1687 -0.2130  0.0489
 1516SOL    HW116181   2.696   3.308  17.283  0.2609 -1.2635  0.5122
 1516SOL    HW216182   2.786   3.209  17.210  0.0707  0.1204 -0.8125
 1517SOL     OW16183   0.904   4.159  15.591  0.1311 -0.9132 -0.0333
 1517SOL    HW116184   0.908   4.073  15.633  1.3602 -1.1168 -0.5535
 1517SOL    HW216185   0.815   4.192  15.603  0.3960 -0.1963 -0.0626
 1518SOL     OW16186   3.606   3.893   7.556  0.4154 -0.3290  0.1953
 1518SOL    HW116187   3.608   3.797   7.554 -0.7513 -0.3939  2.1152
 1518SOL    HW216188   3.552   3.903   7.635  0.7761 -0.4733  0.4570
 1519SOL     OW16189   0.968   3.528  15.158  0.1429 -0.1642 -0.2145
 1519SOL    HW116190   0.913   3.452  15.174 -1.8891  1.1219 -1.0602
 1519SOL    HW216191   0.984   3.524  15.063  0.8198 -1.2206 -0.0588
 1520SOL     OW16192   4.210   0.596   9.489 -0.6391 -0.0575 -0.2401
 1520SOL    HW116193   4.223   0.681   9.448 -0.3346  2.2378  4.6683
 1520SOL    HW216194   4.216   0.621   9.581  0.9395 -0.7765 -0.1435
 1521SOL     OW16195   0.154   3.193   1.597 -0.2113  0.5284 -0.0143
 1521SOL    HW116196   0.168   3.218   1.506 -1.1927  0.7642 -0.0951
 1521SOL    HW216197   0.180   3.101   1.600  1.5653  1.0613  0.9548
 1522SOL     OW16198   3.139   1.846  15.003  0.2423 -0.2815  0.2180
 1522SOL    HW116199   3.132   1.905  15.079  1.3285  1.7259 -1.2572
 1522SOL    HW216200   3.129   1.761  15.045 -1.3273 -0.6283 -0.8700
 1523SOL     OW16201   2.564   4.704   2.005 -0.3385 -0.1018  0.4105
 1523SOL    HW116202   2.507   0.038   1.969 -1.4114 -1.7505 -1.0643
 1523SOL    HW216203   2.507   4.664   2.071  1.5245 -1.7004  1.0348
 1524SOL     OW16204   2.296   4.280   7.523  0.0361  0.3010 -0.3997
 1524SOL    HW116205   2.229   4.346   7.538 -0.4528 -0.3437  0.2718
 1524SOL    HW216206   2.297   4.279   7.428 -0.0418 -1.8685 -0.3968
 1525SOL     OW16207   3.860   1.632   3.029 -0.4240  0.5555  0.3495
 1525SOL    HW116208   3.790   1.697   3.025  0.3042  1.5099  3.0288
 1525SOL    HW216209   3.817   1.574   3.091 -3.8270  1.0330 -1.5455
 1526SOL     OW16210   2.652   1.075   3.473  0.5704 -0.1859 -0.2486
 1526SOL    HW116211   2.566   1.034   3.462  0.8527  0.1158 -3.7949
 1526SOL    HW216212   2.693   1.005   3.522  1.2695  0.5046  0.1380
 1527SOL     OW16213   0.273   2.381   7.117 -0.0599  0.2468  0.0397
 1527SOL    HW116214   0.251   2.343   7.202  1.2757 -0.9271 -0.1354
 1527SOL    HW216215   0.231   2.319   7.057 -3.5470  1.6668  0.9809
 1528SOL     OW16216   1.978   2.811   3.455  0.1046  0.1905  0.0945
 1528SOL    HW116217   2.064   2.819   3.414 -0.4223  0.8079 -0.8960
 1528SOL    HW216218   1.978   2.718   3.479 -1.1150  0.3533  0.7008
 1529SOL     OW16219   3.940   2.638   3.462 -0.0481 -0.4332 -0.0403
 1529SOL    HW116220   4.021   2.590   3.477  0.5355 -0.0979 -2.1335
 1529SOL    HW216221   3.953   2.708   3.527  1.0753  0.1801 -0.9359
 1530SOL     OW16222   1.738   2.331   3.849  0.0698 -0.2807  0.3258
 1530SOL    HW116223   1.684   2.408   3.867 -0.7440 -0.9868  0.8996
 1530SOL    HW216224   1.685   2.298   3.777  0.0460 -3.0278  1.5917
 1531SOL     OW16225   1.063   4.500   2.466 -0.2543 -0.8802 -0.1241
 1531SOL    HW116226   0.980   4.454   2.452 -0.5025 -0.0025 -1.6591
 1531SOL    HW216227   1.102   4.457   2.542  1.1141 -0.3328 -0.5186
 1532SOL     OW16228   4.313   3.502   3.499  0.3811 -0.3752 -0.0236
 1532SOL    HW116229   4.405   3.475   3.489  0.7567  1.1371 -0.7345
 1532SOL    HW216230   4.260   3.438   3.453 -2.2039  2.6868 -1.3172
 1533SOL     OW16231   0.883   3.066   3.830 -0.3286 -0.0645  0.1738
 1533SOL    HW116232   0.927   2.986   3.858  2.0838  1.0784 -0.3982
 1533SOL    HW216233   0.821   3.028   3.767 -0.7082  0.4790  0.2137
 1534SOL     OW16234   0.445   2.894   3.283  0.3086  0.0915 -0.0023
 1534SOL    HW116235   0.523   2.916   3.333  0.7936 -1.2165 -0.1923
 1534SOL    HW216236   0.469   2.925   3.195 -0.8348 -0.8504 -0.6516
 1535SOL     OW16237   0.102   4.390  12.241 -1.0593 -0.3707 -0.3264
 1535SOL    HW116238   0.032   4.443  12.203 -1.2677 -0.4136 -0.0065
 1535SOL    HW216239   0.066   4.302  12.236  0.4464 -1.0519  0.6234
 1536SOL     OW16240   2.005   1.813  14.585  0.3098  0.4651  0.3636
 1536SOL    HW116241   1.926   1.822  14.531 -1.4371 -2.0386  2.4654
 1536SOL    HW216242   2.002   1.899  14.627 -1.1289  1.3090 -1.4813
 1537SOL     OW16243   4.581   0.430   3.954  0.1605  0.1632 -0.5238
 1537SOL    HW116244   4.658   0.382   3.984 -1.4726 -2.4826 -0.5077
 1537SOL    HW216245   4.606   0.460   3.866  0.0288  0.1670 -0.5607
 1538SOL     OW16246   3.398   2.562  16.153  0.4492  0.0910 -0.0660
 1538SOL    HW116247   3.473   2.504  16.135  2.0571  1.8860  0.8578
 1538SOL    HW216248   3.420   2.599  16.238  0.2593 -1.2487  0.5729
 1539SOL     OW16249   2.467   2.441   8.918  0.1789 -0.2827  0.4954
 1539SOL    HW116250   2.411   2.399   8.853  0.7396  1.8272 -1.3423
 1539SOL    HW216251   2.410   2.454   8.993 -0.9585  0.9222 -0.5805
 1540SOL     OW16252   2.465   3.459   7.459  0.0352 -0.1806  1.0992
 1540SOL    HW116253   2.401   3.403   7.415 -0.0762 -0.5986  1.8082
 1540SOL    HW216254   2.533   3.491   7.400 -2.6158  1.7778 -0.9270
 1541SOL     OW16255   2.723   3.254   7.424  0.4203  0.0942  0.0835
 1541SOL    HW116256   2.635   3.266   7.462  0.0314 -0.6374 -0.5883
 1541SOL    HW216257   2.777   3.312   7.477  1.7177 -0.4348 -0.6808
 1542SOL     OW16258   4.289   3.690   9.550  0.3420 -0.7634  0.2839
 1542SOL    HW116259   4.367   3.745   9.560  1.3495 -2.3653  1.3134
 1542SOL    HW216260   4.221   3.755   9.569  0.1574 -0.4768 -1.4143
 1543SOL     OW16261   1.933   0.713   4.600 -0.4667  0.2675  0.7725
 1543SOL    HW116262   1.875   0.658   4.546  0.1835 -1.6270  2.0188
 1543SOL    HW216263   2.016   0.666   4.596  0.0685  1.2090  0.7945
 1544SOL     OW16264   3.360   3.573  13.302  0.2641  0.1006 -0.1809
 1544SOL    HW116265   3.420   3.527  13.362 -2.7659 -3.3220  0.2121
 1544SOL    HW216266   3.413   3.566  13.222  1.3995  0.9946  0.5021
 1545SOL     OW16267   3.623   1.511   8.643  0.0797 -0.1193  0.2357
 1545SOL    HW116268   3.626   1.533   8.737 -1.1429 -0.9773  0.4638
 1545SOL    HW216269   3.539   1.549   8.617 -0.2158 -0.2125  1.0377
 1546SOL     OW16270   2.081   4.213  11.071  0.2680  0.4203  0.1062
 1546SOL    HW116271   2.169   4.251  11.079  0.3055  0.1744  0.7872
 1546SOL    HW216272   2.022   4.288  11.076 -1.5608 -1.1417  1.9505
 1547SOL     OW16273   0.249   0.005   4.785  0.3960 -0.0671  0.3280
 1547SOL    HW116274   0.175   4.681   4.770  0.0238  0.9274 -1.6021
 1547SOL    HW216275   0.257   0.003   4.881  0.6938  1.3345  0.3334
 1548SOL     OW16276   4.288   3.438   3.779  0.3200 -0.0889  0.7111
 1548SOL    HW116277   4.288   3.479   3.866 -1.9476 -0.6777  1.0008
 1548SOL    HW216278   4.292   3.518   3.726  2.1185 -0.1939  0.6915
 1549SOL     OW16279   3.564   2.189   5.468  0.1017 -0.2462  0.4351
 1549SOL    HW116280   3.493   2.133   5.438 -0.1761  0.3614 -0.0402
 1549SOL    HW216281   3.524   2.223   5.548 -1.8086  0.3736 -0.7992
 1550SOL     OW16282   0.982   3.646   3.444  0.0568 -0.3556  0.3277
 1550SOL    HW116283   1.001   3.638   3.537 -1.4216  1.4406  0.7748
 1550SOL    HW216284   1.038   3.720   3.422 -1.1455  0.2585 -0.6457
 1551SOL     OW16285   1.760   0.782   4.805 -0.4790  0.0019  0.2045
 1551SOL    HW116286   1.810   0.787   4.887  0.2712 -1.3249 -0.1633
 1551SOL    HW216287   1.837   0.764   4.751 -0.9675  1.7501 -1.0875
 1552SOL     OW16288   1.366   3.292   8.088 -0.2996 -0.1176 -0.0605
 1552SOL    HW116289   1.459   3.273   8.098 -0.4381 -0.1689  1.1348
 1552SOL    HW216290   1.357   3.303   8.182 -0.5189 -0.3052 -0.0583
 1553SOL     OW16291   2.305   2.557   3.408  0.4759  0.4676  0.6553
 1553SOL    HW116292   2.344   2.624   3.464  2.2558  0.1467 -0.2001
 1553SOL    HW216293   2.376   2.527   3.351 -1.8273 -2.0514 -0.8883
 1554SOL     OW16294   2.757   0.807  11.825 -0.0885  0.7419  0.6398
 1554SOL    HW116295   2.681   0.826  11.881 -1.0125 -1.4946  0.1688
 1554SOL    HW216296   2.782   0.719  11.854 -0.1729  0.3499 -0.4826
 1555SOL     OW16297   0.199   2.438   3.781 -0.6738  0.0477  0.5977
 1555SOL    HW116298   0.124   2.415   3.726  0.3531 -1.1969 -0.3095
 1555SOL    HW216299   0.246   2.508   3.736  0.7307 -0.3402  1.4373
 1556SOL     OW16300   2.796   3.937  16.841  0.1146 -0.7864  0.2705
 1556SOL    HW116301   2.709   3.904  16.865  0.0541 -1.2065 -0.5408
 1556SOL    HW216302   2.778   3.938  16.747 -1.7856 -0.0529  0.6469
 1557SOL     OW16303   4.230   0.530   2.516 -0.1610 -0.0544  0.0565
 1557SOL    HW116304   4.135   0.541   2.508 -0.1855 -0.8828 -0.8872
 1557SOL    HW216305   4.265   0.606   2.471  1.4482 -0.5705  0.4263
 1558SOL     OW16306   3.087   4.298   6.517 -0.8381  0.3283  0.1739
 1558SOL    HW116307   3.048   4.369   6.568 -2.5943 -0.0908 -0.5988
 1558SOL    HW216308   3.122   4.345   6.442 -1.5633 -0.7726 -0.8497
 1559SOL     OW16309   3.628   0.100   2.326 -0.5365  0.4479 -0.7617
 1559SOL    HW116310   3.547   0.128   2.283 -1.9635  1.5901  2.7031
 1559SOL    HW216311   3.617   0.135   2.414  1.3961  0.8345 -0.6881
 1560SOL     OW16312   2.918   2.102   5.235 -0.0579 -0.3856  0.1136
 1560SOL    HW116313   2.945   2.173   5.176  0.7532  2.2403  3.6501
 1560SOL    HW216314   3.002   2.084   5.277 -0.8451  1.6178  2.5670
 1561SOL     OW16315   2.847   3.035  11.719  0.2741  0.9516  0.5782
 1561SOL    HW116316   2.834   3.112  11.664 -2.7596  1.1300  1.5374
 1561SOL    HW216317   2.860   2.962  11.658 -0.7216 -0.0523  1.5620
 1562SOL     OW16318   2.939   0.656   3.792  0.3004 -0.7907 -0.4263
 1562SOL    HW116319   2.961   0.601   3.866 -1.3722 -2.8950 -1.4844
 1562SOL    HW216320   2.861   0.609   3.763  0.4004  1.7050 -4.8553
 1563SOL     OW16321   2.118   2.528  13.770  0.2084 -0.1884 -0.3085
 1563SOL    HW116322   2.160   2.612  13.749 -1.5457  0.9120  0.5658
 1563SOL    HW216323   2.121   2.473  13.692  2.6569 -1.2884  0.5468
 1564SOL     OW16324   2.847   3.298   2.199 -0.0456 -0.3421  0.4149
 1564SOL    HW116325   2.799   3.342   2.269 -1.4206 -1.5780  0.2360
 1564SOL    HW216326   2.935   3.273   2.230 -0.1502 -0.2069  0.8248
 1565SOL     OW16327   2.511   2.676   4.872 -0.2235  0.2530 -0.0479
 1565SOL    HW116328   2.541   2.766   4.857  0.7483 -0.3636 -1.7304
 1565SOL    HW216329   2.427   2.675   4.825  0.5548 -1.0140 -1.4216
 1566SOL     OW16330   0.648   4.648   4.831  0.2321  0.0443 -0.1509
 1566SOL    HW116331   0.614   0.001   4.850  2.7333  1.2805 -1.2423
 1566SOL    HW216332   0.581   4.605   4.884  0.2713 -0.2140 -0.3134
 1567SOL     OW16333   4.344   0.698  16.213  0.1798  0.6428 -0.2606
 1567SOL    HW116334   4.364   0.789  16.233 -0.9282  1.3265 -2.2047
 1567SOL    HW216335   4.357   0.662  16.301  1.9111  0.0378 -0.7694
 1568SOL     OW16336   0.075   2.817  17.646 -0.6405 -0.2132  0.1598
 1568SOL    HW116337   0.165   2.815  17.678 -0.4042  0.6896 -0.4533
 1568SOL    HW216338   0.081   2.764  17.566 -1.4987 -0.7861  0.4666
 1569SOL     OW16339   2.300   3.959   3.946 -0.5758 -0.4027 -0.4442
 1569SOL    HW116340   2.236   3.890   3.932 -0.8990  0.3404 -2.6755
 1569SOL    HW216341   2.319   3.955   4.039 -1.0643 -0.7856 -0.3649
 1570SOL     OW16342   3.643   1.861  12.488  0.2437  0.0189  0.1117
 1570SOL    HW116343   3.651   1.900  12.575  3.4799 -2.1371  0.7483
 1570SOL    HW216344   3.681   1.778  12.514  2.5967  0.2087 -2.7960
 1571SOL     OW16345   0.513   2.517  11.269  0.0476 -0.0996 -0.0624
 1571SOL    HW116346   0.426   2.493  11.300  0.3515 -0.9293  0.1482
 1571SOL    HW216347   0.510   2.612  11.281  0.3260 -0.6373  4.3304
 1572SOL     OW16348   1.165   0.738  10.002 -0.0286  0.2065  0.4721
 1572SOL    HW116349   1.240   0.681  10.014 -0.1978 -0.3665 -1.1719
 1572SOL    HW216350   1.166   0.806  10.069  0.1647 -0.4978  1.1805
 1573SOL     OW16351   4.543   2.717   4.638 -0.0353 -0.0013  0.1842
 1573SOL    HW116352   4.628   2.702   4.680 -0.2455  0.5813  0.8099
 1573SOL    HW216353   4.540   2.811   4.624 -1.7328  0.0205  0.6211
 1574SOL     OW16354   4.328   3.253   4.424 -0.7993 -0.1677  0.7335
 1574SOL    HW116355   4.405   3.272   4.477 -0.6199  1.9804 -0.3110
 1574SOL    HW216356   4.272   3.326   4.449 -1.4621 -0.2208 -0.5784
 1575SOL     OW16357   0.543   2.261   8.291 -0.1175 -0.4917  0.1588
 1575SOL    HW116358   0.584   2.341   8.258  1.5769 -0.9730  1.1242
 1575SOL    HW216359   0.502   2.300   8.369  0.9857  0.6604  0.1563
 1576SOL     OW16360   0.756   3.968   0.674  0.0475 -0.0322 -0.1972
 1576SOL    HW116361   0.743   3.909   0.600 -1.0586  0.4507 -0.3885
 1576SOL    HW216362   0.764   4.054   0.632 -1.8289  0.4087  0.3625
 1577SOL     OW16363   4.715   4.504  13.529 -0.0112  0.1937  0.7491
 1577SOL    HW116364   4.628   4.495  13.565 -0.0884 -1.1937  0.2103
 1577SOL    HW216365   0.029   4.505  13.611  0.0180  0.4998  0.7317
 1578SOL     OW16366   1.200   0.562   1.729 -0.0870 -0.2564 -0.6670
 1578SOL    HW116367   1.161   0.617   1.660 -0.8820 -1.4562 -1.1661
 1578SOL    HW216368   1.144   0.485   1.723  0.1657 -0.3113 -2.4345
 1579SOL     OW16369   1.882   1.511  16.615 -0.8834  0.8144 -0.2085
 1579SOL    HW116370   1.965   1.529  16.572 -0.8683 -0.1731 -0.5972
 1579SOL    HW216371   1.867   1.418  16.598 -2.0751  0.6822  1.6191
 1580SOL     OW16372   2.966   3.024   6.503  0.2889 -0.3957 -0.1643
 1580SOL    HW116373   2.990   3.109   6.467 -0.6718 -0.0049  0.1301
 1580SOL    HW216374   2.906   2.987   6.437 -0.7710 -0.2416  0.7239
 1581SOL     OW16375   2.464   0.733   4.228  0.0345 -0.2586  0.0615
 1581SOL    HW116376   2.484   0.800   4.163 -1.2094 -0.2607 -0.3277
 1581SOL    HW216377   2.387   0.694   4.186  0.0436 -0.6858  0.4398
 1582SOL     OW16378   1.274   0.186   2.864  0.5832 -0.3572 -0.1065
 1582SOL    HW116379   1.282   0.242   2.786 -2.3602  0.9633  0.5563
 1582SOL    HW216380   1.324   0.235   2.930 -1.1464  2.1051 -0.6174
 1583SOL     OW16381   1.643   2.748   2.937  0.3431  0.0128  0.2748
 1583SOL    HW116382   1.613   2.657   2.930  0.4015 -0.0192  0.4589
 1583SOL    HW216383   1.694   2.734   3.016  0.1855 -1.7383  0.0675
 1584SOL     OW16384   0.527   1.762   7.701  0.3654  0.3203 -0.4128
 1584SOL    HW116385   0.512   1.724   7.788  0.3168 -1.4362 -1.1969
 1584SOL    HW216386   0.623   1.754   7.703  0.4843  1.7956 -0.5818
 1585SOL     OW16387   4.709   2.136   6.282  0.0182 -0.1528 -0.3899
 1585SOL    HW116388   0.038   2.095   6.222 -1.1589  0.6691 -2.1724
 1585SOL    HW216389   0.022   2.116   6.363 -2.0987  0.0476  0.8787
 1586SOL     OW16390   2.543   4.582   1.747  0.1471 -0.0082  0.2761
 1586SOL    HW116391   2.449   4.581   1.767 -0.1224 -0.5468 -1.0076
 1586SOL    HW216392   2.575   4.631   1.822  0.2981  1.0636 -0.4879
 1587SOL     OW16393   2.412   3.619  14.128  0.3296 -0.1517  0.7344
 1587SOL    HW116394   2.417   3.615  14.224  2.0197  0.3957  0.6627
 1587SOL    HW216395   2.457   3.703  14.119 -0.8900  0.8118  3.4324
 1588SOL     OW16396   3.533   2.764   0.872  0.2753 -0.1380 -0.3305
 1588SOL    HW116397   3.487   2.682   0.852 -1.7414  0.7110  0.8933
 1588SOL    HW216398   3.605   2.762   0.808 -0.5163  0.5427 -1.2448
 1589SOL     OW16399   4.356   4.677   7.449 -0.2450 -0.4317  0.1037
 1589SOL    HW116400   4.279   4.688   7.506 -0.9093 -0.0660 -0.8678
 1589SOL    HW216401   4.430   4.664   7.508  0.1758  1.1967 -0.0839
 1590SOL     OW16402   3.962   1.784   3.935  0.3908 -0.2895  0.2416
 1590SOL    HW116403   4.057   1.784   3.942  0.5647 -0.8636 -1.9234
 1590SOL    HW216404   3.952   1.768   3.841 -0.3949 -1.0073  0.4410
 1591SOL     OW16405   2.823   1.094   5.405 -0.3332  0.6933  0.3566
 1591SOL    HW116406   2.833   1.042   5.325  1.3703  2.2574 -0.4611
 1591SOL    HW216407   2.755   1.041   5.447 -0.0813 -1.7683 -2.3924
 1592SOL     OW16408   4.505   4.317   1.973  0.6994  0.2080 -0.0760
 1592SOL    HW116409   4.560   4.344   2.047 -0.8294 -0.5633  1.3476
 1592SOL    HW216410   4.446   4.392   1.970 -0.6488 -0.8902 -1.0214
 1593SOL     OW16411   4.017   0.394  13.489 -0.2383 -0.1567 -0.2672
 1593SOL    HW116412   4.015   0.489  13.500  0.0836 -0.1093 -0.6652
 1593SOL    HW216413   3.924   0.380  13.469 -0.2436  1.7028 -1.4745
 1594SOL     OW16414   1.906   1.951   8.655  0.4784 -0.2800 -0.4735
 1594SOL    HW116415   1.937   2.022   8.711 -0.4467 -0.9573  0.9031
 1594SOL    HW216416   1.835   1.991   8.604 -0.6453 -0.4624  0.9523
 1595SOL     OW16417   1.163   0.811   2.909 -0.0382 -0.3576 -0.6203
 1595SOL    HW116418   1.159   0.717   2.927 -2.5151  0.1003  1.3478
 1595SOL    HW216419   1.184   0.818   2.817 -0.7468 -0.9676 -0.8310
 1596SOL     OW16420   4.010   0.693   2.436 -0.3425  0.3331 -0.5928
 1596SOL    HW116421   4.034   0.784   2.418 -1.2062  0.4755 -1.0132
 1596SOL    HW216422   3.916   0.710   2.448 -0.3062 -0.4950  0.8959
 1597SOL     OW16423   3.868   0.980  16.618  0.3302  0.3092 -0.5093
 1597SOL    HW116424   3.833   1.040  16.684  0.9102 -0.5492  0.5711
 1597SOL    HW216425   3.888   1.045  16.550  0.2035  1.4569  0.5548
 1598SOL     OW16426   0.550   0.912   2.351 -0.4941  0.3611  0.2826
 1598SOL    HW116427   0.645   0.921   2.343 -0.4867  0.3044  0.3064
 1598SOL    HW216428   0.545   0.833   2.405  2.0667 -0.8740 -1.3187
 1599SOL     OW16429   2.972   0.017   8.569 -0.2239  0.2678  0.2228
 1599SOL    HW116430   2.919   0.031   8.648  0.2350  0.1671  0.5480
 1599SOL    HW216431   2.959   0.103   8.529  0.1443  0.9425  1.5499
 1600SOL     OW16432   4.086   2.055   5.283  0.0134  0.1442 -0.4649
 1600SOL    HW116433   4.013   2.008   5.324 -0.0962 -0.4377 -1.3287
 1600SOL    HW216434   4.076   2.144   5.317 -0.7477 -0.2650  0.3959
 1601SOL     OW16435   1.516   1.227   2.039  0.3555  0.3245 -0.2617
 1601SOL    HW116436   1.455   1.173   2.091 -0.9853  2.7559  0.7131
 1601SOL    HW216437   1.477   1.243   1.953 -0.2288 -0.1629 -0.0933
 1602SOL     OW16438   3.511   1.467   4.990 -0.4273 -0.6043  0.0344
 1602SOL    HW116439   3.591   1.439   5.034 -0.6170  0.6598  1.1878
 1602SOL    HW216440   3.442   1.418   5.035 -1.3607 -0.4436 -1.2085
 1603SOL     OW16441   2.182   0.644   3.641  0.1616 -0.8608 -0.3251
 1603SOL    HW116442   2.118   0.648   3.712  2.2015 -2.0294  1.5413
 1603SOL    HW216443   2.213   0.555   3.654  2.5620  0.0512  0.2719
 1604SOL     OW16444   1.420   3.581   1.738  0.9826 -0.5581  0.0629
 1604SOL    HW116445   1.326   3.595   1.730  1.2907 -0.0147 -2.5444
 1604SOL    HW216446   1.442   3.664   1.779 -0.1697  0.0914 -0.6166
 1605SOL     OW16447   1.604   2.127   0.820  0.4453  0.0803 -0.1176
 1605SOL    HW116448   1.530   2.184   0.841 -0.7677 -1.8702  1.0004
 1605SOL    HW216449   1.675   2.159   0.876  0.6782 -0.4625 -0.0937
 1606SOL     OW16450   2.209   3.456   1.105 -0.0990  0.0671 -0.4321
 1606SOL    HW116451   2.131   3.503   1.136 -0.0639 -0.6815  0.7965
 1606SOL    HW216452   2.232   3.403   1.181  1.2572  0.8212 -0.3360
 1607SOL     OW16453   2.265   3.925  11.135 -0.0978  0.0033  0.4293
 1607SOL    HW116454   2.274   4.004  11.081  1.6839 -0.8093 -0.4562
 1607SOL    HW216455   2.348   3.919  11.182  0.0349  1.1397  0.3369
 1608SOL     OW16456   1.472   3.213  11.576  0.4867  0.2243 -0.0541
 1608SOL    HW116457   1.531   3.209  11.501  0.3135 -2.0189 -0.0666
 1608SOL    HW216458   1.455   3.119  11.584 -1.9631  0.8102  1.5872
 1609SOL     OW16459   2.500   3.923  11.269  0.5803  0.1638  0.2992
 1609SOL    HW116460   2.498   3.902  11.363 -2.1298  1.1463  0.4676
 1609SOL    HW216461   2.588   3.960  11.257  1.5751 -2.0472  0.7436
 1610SOL     OW16462   4.690   2.006   1.823 -0.4414  0.4929 -0.0020
 1610SOL    HW116463   4.706   2.012   1.917  2.8888  0.5305 -0.5691
 1610SOL    HW216464   0.047   2.004   1.793 -0.9475 -2.1459 -1.3781
 1611SOL     OW16465   3.568   0.667   9.355  0.0316  0.5220  0.2719
 1611SOL    HW116466   3.488   0.654   9.303  0.2695 -1.2930  0.3447
 1611SOL    HW216467   3.597   0.754   9.328  1.0138  0.5798  1.5270
 1612SOL     OW16468   0.832   4.508   5.721  0.3859  0.2879  0.5067
 1612SOL    HW116469   0.743   4.510   5.686  0.8014  1.4338 -0.4997
 1612SOL    HW216470   0.878   4.463   5.650  2.2126 -0.0361  1.8784
 1613SOL     OW16471   3.460   0.405  15.604 -0.2699 -0.0207 -0.6458
 1613SOL    HW116472   3.401   0.340  15.642 -1.0522  1.1121  0.0770
 1613SOL    HW216473   3.546   0.368  15.622 -0.3017  1.5357  2.7747
 1614SOL     OW16474   0.355   3.023   9.749  0.8050 -0.1898 -0.5057
 1614SOL    HW116475   0.381   3.070   9.670 -0.8743  1.2670 -0.2106
 1614SOL    HW216476   0.348   3.094   9.814 -0.0261  1.6471 -2.5906
 1615SOL     OW16477   1.973   4.425   4.226 -0.3395  0.6098  0.2598
 1615SOL    HW116478   1.908   4.490   4.253 -0.3939 -0.1603  1.9909
 1615SOL    HW216479   1.958   4.363   4.297  2.0413 -0.1618  0.0887
 1616SOL     OW16480   2.926   2.518   9.362 -0.2620  0.6398 -0.0834
 1616SOL    HW116481   2.917   2.611   9.344  0.6450  0.4841 -1.3045
 1616SOL    HW216482   2.916   2.469   9.280  0.1126 -1.1250  0.9255
 1617SOL     OW16483   4.543   4.505  15.634  0.0902 -0.0059 -0.1757
 1617SOL    HW116484   4.506   4.418  15.647 -0.3494 -0.0548 -1.7484
 1617SOL    HW216485   4.575   4.530  15.721 -1.4131 -0.2079  0.4466
 1618SOL     OW16486   0.846   4.216  13.332 -0.3407  0.0794  0.0292
 1618SOL    HW116487   0.812   4.222  13.421  0.5505  0.1646  0.3537
 1618SOL    HW216488   0.873   4.304  13.307 -0.7930  0.3707  0.5769
 1619SOL     OW16489   1.038   0.180   1.409  0.4886 -0.2610 -0.3610
 1619SOL    HW116490   0.996   0.213   1.330  0.0910 -0.6339 -0.3035
 1619SOL    HW216491   1.112   0.142   1.362 -0.9697 -3.5284 -0.0335
 1620SOL     OW16492   2.048   0.274   4.777 -0.1208 -0.1867 -0.0052
 1620SOL    HW116493   2.022   0.344   4.837 -2.2366 -0.1947 -0.9351
 1620SOL    HW216494   2.101   0.217   4.833 -1.5550  1.0628  2.6502
 1621SOL     OW16495   1.171   2.864   6.102  0.5102 -0.2375  0.3184
 1621SOL    HW116496   1.215   2.779   6.090  0.5416 -0.1832  0.0487
 1621SOL    HW216497   1.077   2.856   6.088  0.6282 -0.1275 -0.5379
 1622SOL     OW16498   2.520   2.135  10.704 -0.2235  0.2970 -0.0730
 1622SOL    HW116499   2.596   2.172  10.660  0.7973  0.9553  2.2226
 1622SOL    HW216500   2.552   2.045  10.708 -1.6631 -0.2739 -1.1620
 1623SOL     OW16501   0.887   3.845   6.341 -0.2132  0.0650  0.0535
 1623SOL    HW116502   0.839   3.860   6.422  1.1587 -3.7304  1.6012
 1623SOL    HW216503   0.976   3.853   6.377 -0.0827 -1.3634  0.0450
 1624SOL     OW16504   4.385   4.404   5.847 -0.4596 -0.2457  0.6413
 1624SOL    HW116505   4.314   4.369   5.900 -1.2463  0.9726  0.3830
 1624SOL    HW216506   4.362   4.388   5.756 -3.3020 -0.2869  1.3691
 1625SOL     OW16507   4.068   2.428   6.239 -0.5659  0.0052 -0.0972
 1625SOL    HW116508   4.152   2.459   6.272 -0.7587  0.6130 -0.1744
 1625SOL    HW216509   4.097   2.401   6.152 -4.0460 -1.0053 -0.9404
 1626SOL     OW16510   3.130   3.566   1.382  0.5284  0.4062  0.1590
 1626SOL    HW116511   3.180   3.535   1.307  1.1761  3.2213 -0.5692
 1626SOL    HW216512   3.103   3.653   1.353 -1.1969  0.2051  1.1278
 1627SOL     OW16513   2.334   1.218   6.286  0.4240  0.8208  0.0202
 1627SOL    HW116514   2.274   1.223   6.361  0.7171 -2.3123  0.4614
 1627SOL    HW216515   2.295   1.274   6.219  1.7990 -1.3358 -2.5550
 1628SOL     OW16516   0.675   0.397   3.439 -0.6708  0.0317 -0.2061
 1628SOL    HW116517   0.674   0.440   3.524  1.3170  0.9336 -0.6550
 1628SOL    HW216518   0.749   0.441   3.397 -0.8479 -0.4279 -1.0043
 1629SOL     OW16519   3.891   4.225   9.752 -0.5121  0.2294 -0.3879
 1629SOL    HW116520   3.871   4.271   9.834  0.1310 -0.5369  0.2078
 1629SOL    HW216521   3.805   4.229   9.709 -0.0229 -0.3489 -1.4212
 1630SOL     OW16522   2.381   0.180   4.085 -0.0502  0.6287  0.1421
 1630SOL    HW116523   2.440   0.132   4.143 -0.7616  1.3408  1.4468
 1630SOL    HW216524   2.293   0.146   4.101  0.7731 -1.8731 -0.6069
 1631SOL     OW16525   3.778   2.807  12.042 -0.1362 -0.0236 -0.1665
 1631SOL    HW116526   3.697   2.847  12.073  1.3722 -0.0103  3.6905
 1631SOL    HW216527   3.810   2.764  12.121  0.2994  3.7501  1.6884
 1632SOL     OW16528   2.219   1.100   4.570  0.2864  0.0352  0.5120
 1632SOL    HW116529   2.205   1.049   4.650  1.3498 -0.5551  0.3176
 1632SOL    HW216530   2.272   1.038   4.519 -0.7948 -1.6019  1.3702
 1633SOL     OW16531   4.067   0.654  17.377 -0.4544  0.3511  0.0793
 1633SOL    HW116532   4.016   0.574  17.366 -0.1217  0.3748 -1.6934
 1633SOL    HW216533   4.008   0.705  17.433 -1.5494 -1.1702  0.3214
 1634SOL     OW16534   3.961   1.781  10.926 -0.3334 -0.0100 -0.0048
 1634SOL    HW116535   4.053   1.798  10.947 -0.8738  0.2193  2.1883
 1634SOL    HW216536   3.928   1.870  10.917 -0.8654 -0.1595  0.4930
 1635SOL     OW16537   1.511   2.974   2.863  0.7961  0.1867  0.1745
 1635SOL    HW116538   1.531   2.885   2.893  0.2904  0.9165  2.7442
 1635SOL    HW216539   1.439   2.986   2.926 -0.6521 -0.1962 -1.4110
 1636SOL     OW16540   3.964   2.656   6.044  0.2576 -0.2001  0.4647
 1636SOL    HW116541   3.958   2.749   6.065 -0.7881  0.5498 -3.1938
 1636SOL    HW216542   3.875   2.630   6.065  0.1533 -1.9326 -2.0695
 1637SOL     OW16543   0.360   3.290   2.043 -0.3976 -0.1280  0.3725
 1637SOL    HW116544   0.378   3.350   2.115  0.4290 -0.3860  0.3848
 1637SOL    HW216545   0.397   3.214   2.088 -2.4970 -0.6878  1.1612
 1638SOL     OW16546   0.598   2.671   3.571  0.2525 -0.0613 -0.1444
 1638SOL    HW116547   0.618   2.609   3.640  0.5600  0.0185 -0.1603
 1638SOL    HW216548   0.610   2.617   3.493  1.0372 -1.4646  0.9675
 1639SOL     OW16549   3.790   2.348   9.054 -0.0963  0.3974 -0.0896
 1639SOL    HW116550   3.862   2.310   9.105 -2.0978 -4.4829 -0.9462
 1639SOL    HW216551   3.804   2.443   9.056  0.8136  0.2890 -1.6047
 1640SOL     OW16552   3.771   0.508   9.300 -0.5570 -0.0719  0.1525
 1640SOL    HW116553   3.732   0.427   9.266  0.7636 -0.1630 -1.1518
 1640SOL    HW216554   3.694   0.565   9.300 -0.2075  0.4103 -0.7893
 1641SOL     OW16555   4.624   0.700   5.437 -0.2412 -0.4394 -0.1029
 1641SOL    HW116556   4.544   0.693   5.489 -1.0960 -0.6886 -1.4383
 1641SOL    HW216557   4.642   0.794   5.434  0.2497 -0.4169  3.2835
 1642SOL     OW16558   0.329   3.836   1.482 -0.2414 -0.1350 -0.4774
 1642SOL    HW116559   0.356   3.841   1.390 -0.5017  3.7985 -0.3573
 1642SOL    HW216560   0.240   3.870   1.479 -0.0735  0.2851 -0.6995
 1643SOL     OW16561   1.624   1.074   2.688  0.4284  0.2229 -0.4673
 1643SOL    HW116562   1.696   1.087   2.750  0.3692 -0.0288 -0.3475
 1643SOL    HW216563   1.657   1.001   2.636  0.6930  0.0054  0.0078
 1644SOL     OW16564   1.450   2.654   2.060  0.0711  0.4567 -0.1106
 1644SOL    HW116565   1.377   2.701   2.101 -0.4939 -3.0565  2.9100
 1644SOL    HW216566   1.400   2.588   2.012 -0.7980 -0.0638  1.5147
 1645SOL     OW16567   2.059   2.075   3.318 -0.3446  1.0840 -0.0875
 1645SOL    HW116568   2.045   2.110   3.406 -2.5736  1.0384 -0.4064
 1645SOL    HW216569   2.088   2.158   3.282  0.1499  2.0779  2.6669
 1646SOL     OW16570   4.422   3.428  14.418  0.0529 -0.3352 -0.0989
 1646SOL    HW116571   4.346   3.478  14.387  1.3493  1.5164 -0.2943
 1646SOL    HW216572   4.450   3.465  14.501 -0.1044  2.0671 -1.1263
 1647SOL     OW16573   4.639   0.366   5.802  0.2387  0.7684 -1.0046
 1647SOL    HW116574   4.557   0.316   5.812  0.7027 -0.0359 -1.1926
 1647SOL    HW216575   4.630   0.449   5.849 -0.0822 -0.4934  1.1523
 1648SOL     OW16576   3.043   3.226   4.230 -0.5052  0.1893  0.2493
 1648SOL    HW116577   3.001   3.215   4.145 -0.1877 -0.8203  0.2222
 1648SOL    HW216578   2.998   3.308   4.248  0.6615  0.8219  0.2763
 1649SOL     OW16579   4.613   2.249   6.695 -0.4784 -0.1853 -0.4713
 1649SOL    HW116580   4.529   2.285   6.725 -2.0268 -1.4485 -3.3971
 1649SOL    HW216581   4.597   2.156   6.686  2.3648 -0.8236  0.9530
 1650SOL     OW16582   1.595   4.209   7.997 -0.0840  0.1461 -0.0035
 1650SOL    HW116583   1.567   4.139   7.938 -1.9634 -0.0225  1.1059
 1650SOL    HW216584   1.661   4.170   8.054  1.7211  0.0575 -2.1440
 1651SOL     OW16585   4.133   0.690  16.915 -0.2726  0.0701  0.0570
 1651SOL    HW116586   4.095   0.636  16.846  0.1537 -1.4655  1.0328
 1651SOL    HW216587   4.219   0.711  16.878  0.9884  1.0515  3.4562
 1652SOL     OW16588   1.332   0.587  13.130  0.6968 -0.1179 -0.2110
 1652SOL    HW116589   1.376   0.653  13.076  0.1355  0.4110 -0.0160
 1652SOL    HW216590   1.344   0.633  13.213  2.4336  1.3052 -1.2409
 1653SOL     OW16591   0.933   1.800   5.194  0.0876 -0.0263 -0.2194
 1653SOL    HW116592   0.838   1.794   5.205 -0.0482  1.1579 -0.7106
 1653SOL    HW216593   0.953   1.707   5.203  0.9276  0.1323 -0.4491
 1654SOL     OW16594   3.162   3.378   2.496  0.4754  0.0011 -0.2475
 1654SOL    HW116595   3.243   3.375   2.445 -1.9624 -1.9195 -4.0031
 1654SOL    HW216596   3.134   3.287   2.496 -1.7938  0.7141  2.5219
 1655SOL     OW16597   4.397   0.454   9.157 -0.3512 -0.4242  0.0792
 1655SOL    HW116598   4.456   0.448   9.232  1.5754 -0.2351 -1.4192
 1655SOL    HW216599   4.456   0.444   9.082  1.5021  1.2057  1.3407
 1656SOL     OW16600   0.176   2.654   1.960 -0.4315  0.2840 -0.3032
 1656SOL    HW116601   0.133   2.575   1.993 -1.8759  1.0769 -0.2548
 1656SOL    HW216602   0.260   2.619   1.932  0.4905  1.0731  1.5268
 1657SOL     OW16603   4.455   2.410  14.009  0.2929  0.6349  0.5592
 1657SOL    HW116604   4.369   2.414  14.050 -1.6645  1.8750 -3.6542
 1657SOL    HW216605   4.511   2.440  14.081  0.9969 -1.2498  0.7904
 1658SOL     OW16606   3.882   3.984   9.521  0.1863  0.1030  0.3381
 1658SOL    HW116607   3.819   3.974   9.450 -0.6340 -2.3265  1.3901
 1658SOL    HW216608   3.828   4.041   9.575  0.7660  0.9922 -0.0156
 1659SOL     OW16609   1.664   4.189   9.085 -0.1628 -0.1623  0.8058
 1659SOL    HW116610   1.592   4.220   9.031  1.7248 -0.5938 -1.9138
 1659SOL    HW216611   1.688   4.274   9.123  0.1309 -0.1559  0.6011
 1660SOL     OW16612   2.835   0.133   2.984  0.1494 -0.3746 -0.8012
 1660SOL    HW116613   2.897   0.206   2.979  0.1315 -0.3159 -0.2141
 1660SOL    HW216614   2.891   0.058   2.965 -2.3559 -2.3343 -0.4311
 1661SOL     OW16615   0.407   4.248   2.795  0.6776  0.1696  0.3283
 1661SOL    HW116616   0.403   4.312   2.724 -3.6123  0.6100  0.9454
 1661SOL    HW216617   0.424   4.310   2.866 -1.1802  0.3476  0.6188
 1662SOL     OW16618   4.611   2.879  10.210 -0.3603  0.3951  0.3413
 1662SOL    HW116619   4.703   2.881  10.235 -0.0660  0.6187 -0.7802
 1662SOL    HW216620   4.600   2.795  10.166  3.1933 -0.6138  1.3633
 1663SOL     OW16621   3.654   1.818   3.004 -0.5391  0.1133 -0.2118
 1663SOL    HW116622   3.567   1.856   2.991 -2.3206 -3.2003  1.9077
 1663SOL    HW216623   3.697   1.896   3.039  1.5342 -1.4929  0.7576
 1664SOL     OW16624   4.081   2.794   7.557 -0.1162  0.0470 -0.3054
 1664SOL    HW116625   4.112   2.711   7.520 -0.1173 -0.6503  1.2636
 1664SOL    HW216626   4.119   2.861   7.500 -0.0508  0.9272  0.7515
 1665SOL     OW16627   4.247   1.894   3.347  0.1462 -0.0247  0.5015
 1665SOL    HW116628   4.279   1.980   3.320  1.0069 -0.1109  1.2307
 1665SOL    HW216629   4.190   1.876   3.272  0.4160 -2.9905  1.0067
 1666SOL     OW16630   1.447   3.726  12.177  0.7306 -0.5227 -0.4664
 1666SOL    HW116631   1.529   3.775  12.175 -0.1520  0.9474 -0.5180
 1666SOL    HW216632   1.473   3.662  12.242  0.5750 -0.9945 -0.8645
 1667SOL     OW16633   3.910   2.750  12.490  0.0017 -0.1352 -0.1619
 1667SOL    HW116634   3.972   2.822  12.500  1.1230 -1.0223 -0.7539
 1667SOL    HW216635   3.962   2.679  12.527  0.5661  0.3285 -0.0674
 1668SOL     OW16636   1.839   0.492  13.940 -0.1091 -0.0564  0.0487
 1668SOL    HW116637   1.881   0.464  14.021 -1.4647 -0.0365  0.7597
 1668SOL    HW216638   1.918   0.509  13.888  0.1451  0.5887  0.6448
 1669SOL     OW16639   1.528   0.185   4.629 -0.4602  0.3796  0.1354
 1669SOL    HW116640   1.531   0.270   4.674  1.8687 -0.4189  1.4990
 1669SOL    HW216641   1.605   0.146   4.670  1.2678  2.2938 -1.2408
 1670SOL     OW16642   0.984   1.114  15.446  0.2808  0.4187  0.4915
 1670SOL    HW116643   1.002   1.188  15.389  2.9469 -0.7707 -0.2226
 1670SOL    HW216644   0.894   1.121  15.477  0.4680  0.8736  0.9499
 1671SOL     OW16645   3.675   2.309   0.419 -0.1700 -0.0558  0.3119
 1671SOL    HW116646   3.740   2.295   0.350 -0.1647  0.2703  0.2474
 1671SOL    HW216647   3.653   2.218   0.436  2.0982 -0.5150  0.7652
 1672SOL     OW16648   2.265   0.506  14.952 -0.7553 -0.0515  0.0958
 1672SOL    HW116649   2.206   0.496  15.027  0.5457  1.4858  1.3289
 1672SOL    HW216650   2.348   0.477  14.988 -1.6458 -1.4494  1.0316
 1673SOL     OW16651   0.783   3.480   5.149  0.2712 -0.2992  0.1057
 1673SOL    HW116652   0.704   3.425   5.149  0.0264  0.0596 -1.0693
 1673SOL    HW216653   0.831   3.447   5.225  2.0109 -2.4007 -1.9192
 1674SOL     OW16654   0.223   4.003  11.199  0.0414  0.0932 -0.8733
 1674SOL    HW116655   0.288   3.941  11.233  0.3789  0.3746 -1.0005
 1674SOL    HW216656   0.145   3.962  11.237  0.7504  2.0021  2.7013
 1675SOL     OW16657   0.536   0.824   1.779 -0.0103  0.1366  0.3126
 1675SOL    HW116658   0.495   0.892   1.726  1.1356  0.6770  0.1153
 1675SOL    HW216659   0.626   0.823   1.746  0.3655  0.6514  1.3345
 1676SOL     OW16660   1.847   0.901   3.989 -0.8420 -0.3301 -0.4672
 1676SOL    HW116661   1.907   0.975   3.996 -0.4225 -0.6499 -0.6856
 1676SOL    HW216662   1.830   0.872   4.079 -0.5099 -0.0880 -0.3274
 1677SOL     OW16663   0.889   2.542   8.066 -0.3581  0.7586 -0.3457
 1677SOL    HW116664   0.820   2.563   8.128 -1.8967  0.7064 -2.0294
 1677SOL    HW216665   0.858   2.457   8.035 -0.8239  0.6709  0.3581
 1678SOL     OW16666   0.800   1.064   6.133 -0.3502 -0.0451  0.6650
 1678SOL    HW116667   0.798   0.968   6.138 -0.0560 -0.0322  1.0760
 1678SOL    HW216668   0.883   1.079   6.088  0.4895 -1.4413  1.7279
 1679SOL     OW16669   0.966   3.561   1.136  0.4358  0.5231  0.1751
 1679SOL    HW116670   0.936   3.651   1.122 -0.0314  0.4481  0.6541
 1679SOL    HW216671   1.050   3.575   1.179  1.3515  2.3274 -2.2827
 1680SOL     OW16672   4.698   0.842   6.990  0.2113  0.0436  0.6656
 1680SOL    HW116673   4.656   0.928   6.995  1.4344  0.6393  0.6615
 1680SOL    HW216674   4.633   0.794   7.041 -2.4073  0.2692 -2.4760
 1681SOL     OW16675   4.064   2.383   7.769 -0.2404  0.0152  0.2929
 1681SOL    HW116676   4.132   2.329   7.809 -0.1798 -0.9237 -1.0525
 1681SOL    HW216677   4.060   2.344   7.681 -1.0431 -1.9883  1.1946
 1682SOL     OW16678   3.901   0.536   6.861 -0.0874  0.0346 -0.0420
 1682SOL    HW116679   3.983   0.582   6.845 -0.1572  0.6139  1.2249
 1682SOL    HW216680   3.931   0.448   6.887  0.0145  0.1014  0.0707
 1683SOL     OW16681   0.688   4.661  17.693  0.9849  0.1550  0.2053
 1683SOL    HW116682   0.666   4.728  17.628  1.6770  0.6182  0.4457
 1683SOL    HW216683   0.764   4.619  17.651  0.5648  1.6581 -2.0935
 1684SOL     OW16684   2.097   0.711   7.810 -0.0132  0.5484 -0.0525
 1684SOL    HW116685   2.092   0.627   7.856  1.1147  0.7860  0.4913
 1684SOL    HW216686   2.163   0.684   7.747 -0.4933 -1.0998  0.1279
 1685SOL     OW16687   3.303   3.281  14.258  0.0341  0.3234 -0.2840
 1685SOL    HW116688   3.390   3.263  14.222  0.3485  0.8868  0.1919
 1685SOL    HW216689   3.295   3.376  14.264  0.1685  0.2235  1.4517
 1686SOL     OW16690   2.318   1.220   8.971  0.3051 -0.1316  0.5190
 1686SOL    HW116691   2.317   1.126   8.990  0.1827 -0.3700 -0.6894
 1686SOL    HW216692   2.225   1.236   8.983  0.2280 -0.5212  0.4473
 1687SOL     OW16693   4.352   4.101   6.827  0.1001  0.4833  0.2778
 1687SOL    HW116694   4.394   4.106   6.912  0.6922  1.9966 -0.1043
 1687SOL    HW216695   4.298   4.025   6.851  2.1403 -0.9213  0.4002
 1688SOL     OW16696   1.776   3.427   3.660  0.1865 -0.2571  0.2376
 1688SOL    HW116697   1.756   3.473   3.579  1.5302 -2.7850 -1.5486
 1688SOL    HW216698   1.748   3.494   3.723  0.2894 -0.8293  0.9019
 1689SOL     OW16699   0.259   0.051   2.894 -0.1037  0.0480  0.2975
 1689SOL    HW116700   0.311   0.093   2.962  0.6672 -1.6290  0.7442
 1689SOL    HW216701   0.327   4.722   2.868 -1.4467 -0.3941 -2.0902
 1690SOL     OW16702   4.482   1.721   6.342 -0.0968 -0.1071  0.2152
 1690SOL    HW116703   4.435   1.800   6.316 -1.4189  0.0030  2.8427
 1690SOL    HW216704   4.413   1.674   6.390 -1.7318  2.7832  0.7002
 1691SOL     OW16705   0.817   2.178  17.347  0.1701  0.3461  0.3940
 1691SOL    HW116706   0.745   2.210  17.292 -1.4777  0.7039  2.8105
 1691SOL    HW216707   0.791   2.217  17.430  0.2457 -2.8753  1.9321
 1692SOL     OW16708   2.324   3.600   4.867  0.2789 -0.2975 -0.4174
 1692SOL    HW116709   2.245   3.653   4.878  0.5192  0.3070 -1.6110
 1692SOL    HW216710   2.396   3.661   4.852  0.0988  0.2102  0.7551
 1693SOL     OW16711   3.960   0.819   3.239 -0.4856 -0.4257  0.2958
 1693SOL    HW116712   3.956   0.729   3.271 -1.2553 -0.9282 -1.1861
 1693SOL    HW216713   3.943   0.797   3.147  0.1915 -0.1775  0.1116
 1694SOL     OW16714   1.209   3.182   4.330  0.0244 -0.7153  0.3226
 1694SOL    HW116715   1.130   3.173   4.277  0.4458 -0.3153 -0.3705
 1694SOL    HW216716   1.236   3.269   4.302 -0.9076 -0.9617 -1.3697
 1695SOL     OW16717   0.889   0.231   8.546 -0.0957  0.4600 -0.1708
 1695SOL    HW116718   0.920   0.267   8.629  0.3424 -1.7788  0.6404
 1695SOL    HW216719   0.794   0.240   8.556  0.0176 -1.0804  2.4866
 1696SOL     OW16720   0.805   2.912  14.454 -0.0609  0.1279  0.2422
 1696SOL    HW116721   0.750   2.929  14.378  1.0878  1.3988 -0.3222
 1696SOL    HW216722   0.802   2.817  14.468  1.2317  0.1630  0.8360
 1697SOL     OW16723   4.630   0.452   1.380  0.0550 -0.2852  0.3514
 1697SOL    HW116724   4.617   0.525   1.440 -0.9697  1.3132 -1.7987
 1697SOL    HW216725   4.568   0.387   1.414 -0.2782 -1.7315 -3.0179
 1698SOL     OW16726   4.115   0.419   5.278 -0.1020 -0.3089 -0.1991
 1698SOL    HW116727   4.203   0.383   5.289 -0.4953 -1.1129  0.3261
 1698SOL    HW216728   4.108   0.456   5.366 -1.1874  0.0572 -0.4440
 1699SOL     OW16729   0.790   0.569   2.602 -0.2094  0.4375  0.2689
 1699SOL    HW116730   0.722   0.562   2.669 -0.5565  0.8651 -0.0369
 1699SOL    HW216731   0.741   0.537   2.525 -0.5525 -0.0857  0.7009
 1700SOL     OW16732   1.768   0.774  10.270 -0.3321 -1.0938  0.5246
 1700SOL    HW116733   1.723   0.704  10.317  2.1700 -3.3362 -0.3868
 1700SOL    HW216734   1.854   0.773  10.313 -1.0365  0.2100  1.9847
 1701SOL     OW16735   3.638   1.223   2.162  0.1101  0.7329 -0.1609
 1701SOL    HW116736   3.584   1.244   2.085  1.8817  1.4918 -1.1870
 1701SOL    HW216737   3.658   1.308   2.201 -0.4381  0.7889 -0.0063
 1702SOL     OW16738   1.507   3.530  12.356 -0.3416 -0.0627  0.1272
 1702SOL    HW116739   1.542   3.444  12.378 -1.0240 -0.7858 -1.6313
 1702SOL    HW216740   1.524   3.573  12.440  1.6089  3.0739 -1.9020
 1703SOL     OW16741   0.325   4.671  11.171 -0.1205 -0.3831 -0.2335
 1703SOL    HW116742   0.379   4.593  11.181  0.0572 -0.2401 -0.0674
 1703SOL    HW216743   0.334   4.696  11.079 -4.3609  0.3851 -0.4088
 1704SOL     OW16744   0.995   0.965  16.888 -0.2389 -0.0492 -0.3978
 1704SOL    HW116745   1.010   1.059  16.897 -0.5144  0.0671 -1.1807
 1704SOL    HW216746   1.085   0.935  16.903 -0.1220  0.5795  0.1539
 1705SOL     OW16747   3.140   2.482   6.398  0.1489  0.4563 -0.4660
 1705SOL    HW116748   3.167   2.529   6.319 -0.1209 -0.1327 -0.9099
 1705SOL    HW216749   3.194   2.403   6.391  1.2300  1.3218 -1.7802
 1706SOL     OW16750   2.778   2.192   4.891 -0.5363  0.4334  0.1849
 1706SOL    HW116751   2.726   2.266   4.861 -1.2346  0.5615  1.7192
 1706SOL    HW216752   2.708   2.140   4.929  1.8923 -2.2170  1.0417
 1707SOL     OW16753   1.194   2.316   4.620 -0.0512  0.2699  0.2191
 1707SOL    HW116754   1.241   2.311   4.704  0.2721 -1.3257 -0.0535
 1707SOL    HW216755   1.115   2.368   4.632 -0.0671  0.1520  0.6296
 1708SOL     OW16756   3.465   2.762  11.777  0.1169 -0.4497 -0.0016
 1708SOL    HW116757   3.441   2.709  11.701  1.9843  0.9214 -1.5437
 1708SOL    HW216758   3.416   2.707  11.838  1.0653 -1.6541 -0.3321
 1709SOL     OW16759   3.297   1.763   6.647  0.1664 -0.2148 -0.2668
 1709SOL    HW116760   3.390   1.741   6.644 -0.1627 -1.7402  0.6601
 1709SOL    HW216761   3.297   1.827   6.719 -1.2747 -1.0935  0.5106
 1710SOL     OW16762   2.055   1.195  14.658  0.0791  0.3385  0.3209
 1710SOL    HW116763   1.967   1.172  14.688 -0.1911 -0.0565 -0.7634
 1710SOL    HW216764   2.093   1.115  14.621  1.2177  0.0184  2.2194
 1711SOL     OW16765   0.797   2.104  16.222  0.3189  0.3001 -0.0622
 1711SOL    HW116766   0.719   2.053  16.244  1.0407 -0.7225  0.1660
 1711SOL    HW216767   0.859   2.048  16.269 -0.4991  1.1916  2.0923
 1712SOL     OW16768   2.512   2.088   1.952  0.0381 -0.3063  0.1544
 1712SOL    HW116769   2.509   2.153   1.881 -1.3131 -2.7649 -2.0143
 1712SOL    HW216770   2.606   2.075   1.957 -0.0478 -0.8684  0.2779
 1713SOL     OW16771   0.766   2.235   4.996 -0.5000  0.0332 -0.0938
 1713SOL    HW116772   0.716   2.165   4.954  0.9430 -0.7324 -0.5260
 1713SOL    HW216773   0.831   2.183   5.042 -1.1886  0.4967  1.3844
 1714SOL     OW16774   0.892   3.959  12.641 -0.1006 -0.1993 -1.0888
 1714SOL    HW116775   0.845   3.982  12.721  2.7064 -0.4728  0.6556
 1714SOL    HW216776   0.983   3.972  12.666 -0.9322 -0.2333  2.0107
 1715SOL     OW16777   2.064   3.220  11.062  0.2466 -0.2963 -0.4771
 1715SOL    HW116778   2.025   3.169  11.133 -0.9354 -1.2907 -1.8299
 1715SOL    HW216779   2.016   3.303  11.067  0.3036 -0.2557 -0.5864
 1716SOL     OW16780   0.073   0.087   6.423 -0.3880 -0.1806 -0.2348
 1716SOL    HW116781   0.055   0.136   6.342  2.5213  3.1991  1.1426
 1716SOL    HW216782   4.729   0.115   6.471  1.1309  2.7719  0.5531
 1717SOL     OW16783   0.542   0.370   2.660  0.4639  0.5585  0.5760
 1717SOL    HW116784   0.448   0.356   2.656  0.4751  1.2857 -2.2782
 1717SOL    HW216785   0.591   0.289   2.671 -0.1163  0.2091  0.5578
 1718SOL     OW16786   4.134   4.403   6.912  0.1503 -0.4117  0.2399
 1718SOL    HW116787   4.212   4.398   6.856  1.0286  0.3973  1.3935
 1718SOL    HW216788   4.089   4.319   6.902  1.6931 -1.2536  0.4016
 1719SOL     OW16789   1.170   4.105   2.232  0.0156 -0.1974  0.3563
 1719SOL    HW116790   1.218   4.077   2.154  0.8838 -0.1207  0.8710
 1719SOL    HW216791   1.225   4.169   2.277  0.1118  0.2673 -0.4225
 1720SOL     OW16792   2.239   1.332   1.771 -0.1972 -0.0651  0.0306
 1720SOL    HW116793   2.161   1.277   1.763 -0.8373  0.7469  0.6474
 1720SOL    HW216794   2.207   1.414   1.734  0.2245 -0.3840 -1.0184
 1721SOL     OW16795   0.811   2.937   2.803  0.1297  0.1465  0.0085
 1721SOL    HW116796   0.798   3.031   2.817 -0.2780  0.0564  0.2439
 1721SOL    HW216797   0.898   2.931   2.843  1.4244  0.2943 -2.8105
 1722SOL     OW16798   0.094   4.184   8.060  0.1765 -0.1747  0.0848
 1722SOL    HW116799   0.002   4.197   8.036  0.5539  1.4606 -0.4776
 1722SOL    HW216800   0.083   4.098   8.101  1.3049  0.4615  1.6660
 1723SOL     OW16801   4.642   0.315   7.000  0.0571  0.4629  0.1655
 1723SOL    HW116802   4.657   0.234   6.951 -1.9025  0.1355  0.0785
 1723SOL    HW216803   4.646   0.382   6.931  0.9027 -0.7434 -0.9507
 1724SOL     OW16804   4.080   4.371   0.727 -0.0961 -0.3393 -0.1499
 1724SOL    HW116805   4.076   4.298   0.788 -4.2189  0.8809  1.0528
 1724SOL    HW216806   4.010   4.349   0.666  0.0769  2.4268 -1.3336
 1725SOL     OW16807   3.568   1.758   6.676 -0.1649  0.8646  0.2122
 1725SOL    HW116808   3.645   1.749   6.619  1.5164  1.7689  2.3642
 1725SOL    HW216809   3.604   1.784   6.760 -0.6937 -0.2129  0.7727
 1726SOL     OW16810   2.290   0.093  13.895 -0.0985  0.3778  0.6112
 1726SOL    HW116811   2.337   0.175  13.913  0.7491 -0.3663  1.7317
 1726SOL    HW216812   2.316   0.036  13.967 -0.8268 -0.2246  0.3937
 1727SOL     OW16813   1.807   1.487   8.444  0.8235 -0.6188 -0.2113
 1727SOL    HW116814   1.791   1.574   8.480 -0.6007 -1.0617  0.2067
 1727SOL    HW216815   1.893   1.496   8.401  0.9648 -2.8134 -0.3671
 1728SOL     OW16816   4.616   0.514   8.102 -0.1951  0.0489 -0.0629
 1728SOL    HW116817   4.679   0.445   8.123  0.0592  0.3020  0.0036
 1728SOL    HW216818   4.633   0.513   8.008 -1.3293 -1.1359 -0.2551
 1729SOL     OW16819   4.253   0.432   1.479 -0.3370  0.2587 -0.3045
 1729SOL    HW116820   4.311   0.356   1.489 -1.3984 -0.4654  0.3459
 1729SOL    HW216821   4.296   0.482   1.409 -1.0549  1.7060  0.2988
 1730SOL     OW16822   2.223   3.979   7.910 -0.2008  0.7006  0.6696
 1730SOL    HW116823   2.215   4.013   7.821 -0.6672 -0.9105  0.1071
 1730SOL    HW216824   2.235   3.886   7.891  0.4736  0.9016  0.1337
 1731SOL     OW16825   2.108   4.169   2.292  0.1430 -0.3896  0.1839
 1731SOL    HW116826   2.173   4.177   2.223 -0.2954  3.7681  0.2843
 1731SOL    HW216827   2.023   4.183   2.250  0.4154  0.3680 -0.1057
 1732SOL     OW16828   1.290   1.202   4.756 -0.1429 -0.3057  0.4244
 1732SOL    HW116829   1.293   1.212   4.851  0.7315 -3.2766  0.7372
 1732SOL    HW216830   1.202   1.216   4.722 -0.0659  1.9594  1.2109
 1733SOL     OW16831   1.884   3.217   1.896 -1.0763  0.2479 -1.1149
 1733SOL    HW116832   1.863   3.303   1.933  1.8485  0.2556  0.5448
 1733SOL    HW216833   1.861   3.151   1.961 -2.2980  1.2759 -0.5169
 1734SOL     OW16834   1.346   0.744   8.821 -0.0410  0.5094 -0.6404
 1734SOL    HW116835   1.383   0.826   8.787 -1.6163  1.3041 -0.4292
 1734SOL    HW216836   1.268   0.788   8.855  0.4178 -0.6751  1.9634
 1735SOL     OW16837   0.025   3.473   6.848  0.0014  0.2890 -0.7038
 1735SOL    HW116838   4.685   3.502   6.901  1.2451  1.4188  0.4163
 1735SOL    HW216839   4.711   3.404   6.803 -0.2353 -1.4820  2.2679
 1736SOL     OW16840   0.199   0.083   0.812 -0.6420 -0.1800  0.2196
 1736SOL    HW116841   0.266   0.101   0.746  0.5469 -0.1416  1.4442
 1736SOL    HW216842   0.211   4.723   0.825 -1.5600  0.0196  2.4487
 1737SOL     OW16843   1.639   0.181   3.336  0.1157  0.0034 -0.5525
 1737SOL    HW116844   1.705   0.250   3.333  1.2988 -1.1547 -1.2793
 1737SOL    HW216845   1.681   0.099   3.309  1.1825 -0.3062  2.0638
 1738SOL     OW16846   0.778   0.862   1.689  0.2735 -0.0565  0.2725
 1738SOL    HW116847   0.789   0.767   1.698  1.2728  0.2946  2.7232
 1738SOL    HW216848   0.825   0.892   1.767 -1.2919 -0.0010  1.1976
 1739SOL     OW16849   3.655   2.366   3.917  0.1191 -0.1334  0.0042
 1739SOL    HW116850   3.660   2.323   4.003 -1.6008  0.1312  0.2512
 1739SOL    HW216851   3.673   2.282   3.874  1.8861 -0.7655  1.9788
 1740SOL     OW16852   4.133   2.174   4.815 -0.1880  0.0380  0.0826
 1740SOL    HW116853   4.198   2.148   4.750 -0.3482 -1.7549  0.6434
 1740SOL    HW216854   4.107   2.088   4.846  1.2082 -0.5496 -0.3968
 1741SOL     OW16855   2.712   0.252   7.749 -0.6143 -0.7960  0.4219
 1741SOL    HW116856   2.715   0.302   7.831 -2.9833  2.7514 -1.6594
 1741SOL    HW216857   2.782   0.187   7.760  0.3855  0.0570 -0.8633
 1742SOL     OW16858   3.229   2.047   9.031  0.5546  0.4257  0.1835
 1742SOL    HW116859   3.263   2.073   8.945  1.9743  1.1666  0.9640
 1742SOL    HW216860   3.139   2.079   9.027  0.7770  0.8917 -1.5397
 1743SOL     OW16861   1.842   1.321   9.172 -0.3361  0.7135  0.1840
 1743SOL    HW116862   1.764   1.375   9.188 -1.6178 -0.8072 -0.9113
 1743SOL    HW216863   1.822   1.241   9.220  1.2785  1.5857  2.2741
 1744SOL     OW16864   3.961   0.836   6.893 -0.7129  0.1246  0.2052
 1744SOL    HW116865   3.868   0.819   6.876 -0.0981 -3.0354  0.1203
 1744SOL    HW216866   3.973   0.785   6.972  1.1177  1.3611  0.7207
 1745SOL     OW16867   1.279   1.163   5.049  0.4674  0.4761 -0.1664
 1745SOL    HW116868   1.247   1.083   5.092  0.3106  0.6707  0.0785
 1745SOL    HW216869   1.371   1.171   5.073  0.2668 -0.9204  1.1114
 1746SOL     OW16870   4.165   1.060   9.652  0.9104  0.2604  0.3786
 1746SOL    HW116871   4.197   1.060   9.562 -1.1141  1.5412 -0.3249
 1746SOL    HW216872   4.101   1.131   9.652  0.9728  0.3158 -1.2172
 1747SOL     OW16873   3.157   3.590   1.955  0.4362  0.1721  0.4462
 1747SOL    HW116874   3.147   3.577   1.861  1.6998  0.9290  0.2032
 1747SOL    HW216875   3.225   3.658   1.960  0.5988 -0.1947  3.1832
 1748SOL     OW16876   0.940   1.610   4.567 -0.5934  0.5433 -0.1669
 1748SOL    HW116877   0.956   1.614   4.472  0.0701 -0.7593 -0.1094
 1748SOL    HW216878   0.888   1.691   4.571  1.4112  1.7800  1.0671
 1749SOL     OW16879   3.192   1.621   7.185  0.3630  0.4319  0.1609
 1749SOL    HW116880   3.233   1.535   7.197  1.4501  1.2803  2.4045
 1749SOL    HW216881   3.158   1.613   7.096  0.6447  1.5115 -0.0462
 1750SOL     OW16882   3.189   2.420   4.752  0.3116  0.4534  0.3028
 1750SOL    HW116883   3.094   2.427   4.742  0.1900  0.2524  1.3189
 1750SOL    HW216884   3.206   2.373   4.834 -1.1008  1.7183  1.3160
 1751SOL     OW16885   1.276   2.578   3.629 -1.0955 -0.3061  0.4719
 1751SOL    HW116886   1.284   2.568   3.724  1.8564 -1.4785  0.1000
 1751SOL    HW216887   1.239   2.665   3.613  0.2380  0.6343  2.4402
 1752SOL     OW16888   3.061   1.923   5.999  0.5721 -0.4052 -0.2459
 1752SOL    HW116889   3.137   1.958   5.951  0.8724 -2.4981 -1.2904
 1752SOL    HW216890   3.103   1.882   6.075  0.4533 -0.7392 -0.3656
 1753SOL     OW16891   1.782   3.747   3.991 -0.1843  0.2996 -0.1935
 1753SOL    HW116892   1.864   3.704   4.015 -1.4596 -1.2155  1.4467
 1753SOL    HW216893   1.792   3.841   4.002 -1.3182  0.5646 -1.4136
 1754SOL     OW16894   4.616   0.711   0.003 -0.2396  0.4188  0.2326
 1754SOL    HW116895   4.620   0.784   0.064  0.4478  0.9958 -0.5008
 1754SOL    HW216896   4.522   0.691  17.734  0.1712 -1.1478 -1.8201
 1755SOL     OW16897   2.763   4.509  12.632  0.2550  0.2156  0.1226
 1755SOL    HW116898   2.771   4.471  12.544 -3.1594  2.0596 -0.9700
 1755SOL    HW216899   2.671   4.533  12.624 -0.2221 -1.1007  1.6962
 1756SOL     OW16900   0.659   3.992  17.297 -0.3475 -0.2596 -0.1811
 1756SOL    HW116901   0.742   4.033  17.321 -0.0877 -0.9951  0.1770
 1756SOL    HW216902   0.694   3.908  17.266  0.4229  0.3884 -1.0466
 1757SOL     OW16903   4.611   4.216   2.759 -0.3113 -0.2581  0.2447
 1757SOL    HW116904   4.693   4.165   2.758  0.9719  1.8039  0.7828
 1757SOL    HW216905   4.549   4.168   2.704 -0.9861 -0.2155  0.9669
 1758SOL     OW16906   1.802   2.777   8.531 -0.1457  0.4361 -0.1456
 1758SOL    HW116907   1.761   2.713   8.589  1.7880  0.4661  1.2236
 1758SOL    HW216908   1.784   2.740   8.444  0.0034  0.1015 -0.0348
 1759SOL     OW16909   3.428   0.277   9.414  0.3952 -0.2883  0.2628
 1759SOL    HW116910   3.470   0.281   9.328 -2.3741  0.4291 -1.0437
 1759SOL    HW216911   3.495   0.228   9.462  2.5000  2.6754  0.3046
 1760SOL     OW16912   4.541   3.815  13.125  0.2303 -0.1683 -0.3639
 1760SOL    HW116913   4.573   3.896  13.086 -1.5733  0.6802 -0.0778
 1760SOL    HW216914   4.448   3.815  13.101 -0.3344 -1.5175  1.8462
 1761SOL     OW16915   2.473   1.131   5.419  0.4399  1.0226 -0.1971
 1761SOL    HW116916   2.541   1.087   5.471  1.0632 -0.0442 -1.9412
 1761SOL    HW216917   2.458   1.065   5.352  2.4159  0.1017  0.2654
 1762SOL     OW16918   4.199   1.188  14.782  0.0157  0.6982  0.0576
 1762SOL    HW116919   4.277   1.207  14.834  0.1402 -1.4826  0.6817
 1762SOL    HW216920   4.215   1.226  14.696 -0.9852  2.1946  0.5457
 1763SOL     OW16921   3.803   1.603   7.461 -0.5229 -0.0791 -0.5037
 1763SOL    HW116922   3.716   1.591   7.422  0.2250 -0.8309 -1.8955
 1763SOL    HW216923   3.808   1.513   7.493 -2.2207  0.5340  1.5939
 1764SOL     OW16924   4.453   4.095   3.425  0.7569  0.4086 -0.0832
 1764SOL    HW116925   4.444   4.128   3.336 -0.6047  1.0867  0.3130
 1764SOL    HW216926   4.531   4.039   3.420  0.7648  0.2944  1.2732
 1765SOL     OW16927   3.575   2.866   6.461 -0.3603  0.0468 -0.0398
 1765SOL    HW116928   3.670   2.873   6.448 -0.2262 -1.6069 -0.0514
 1765SOL    HW216929   3.564   2.772   6.476 -0.5594  0.1387  0.3714
 1766SOL     OW16930   3.608   0.967   2.232 -0.0550  0.0210 -0.1751
 1766SOL    HW116931   3.616   1.045   2.178  0.4781  1.2851  1.7456
 1766SOL    HW216932   3.516   0.964   2.256 -0.3476  2.6516 -0.9682
 1767SOL     OW16933   1.218   1.923   4.913  0.1734 -0.4119 -0.0037
 1767SOL    HW116934   1.230   1.846   4.968  4.6719  0.0118 -0.3380
 1767SOL    HW216935   1.300   1.971   4.926 -1.9339  2.2809  3.0599
 1768SOL     OW16936   3.298   0.063  15.003 -0.2000 -0.4294 -0.4395
 1768SOL    HW116937   3.254   4.712  14.997 -0.0390 -0.5982  0.6485
 1768SOL    HW216938   3.245   0.104  15.072  0.0594 -1.3268  0.2901
 1769SOL     OW16939   2.170   2.455   8.492  0.9448 -0.0547 -0.6967
 1769SOL    HW116940   2.126   2.497   8.566  1.7806 -1.1681  0.4325
 1769SOL    HW216941   2.103   2.448   8.424  0.7115  0.9751 -0.5667
 1770SOL     OW16942   1.630   4.126  10.931  0.5351  0.1820 -0.4040
 1770SOL    HW116943   1.658   4.068  11.001 -0.0218  1.1424  0.6050
 1770SOL    HW216944   1.632   4.207  10.982 -2.6254  0.2964 -0.4449
 1771SOL     OW16945   3.419   2.000   6.781  0.1399  0.1729 -0.1852
 1771SOL    HW116946   3.504   2.044   6.776  0.9980 -1.3206  1.1204
 1771SOL    HW216947   3.403   2.012   6.875  1.3784 -0.0805  0.0581
 1772SOL     OW16948   2.912   4.275   1.539  0.9772  0.0434  0.0481
 1772SOL    HW116949   2.879   4.339   1.603  1.1964 -1.2509  1.4595
 1772SOL    HW216950   3.004   4.274   1.567  1.5963 -1.4280 -2.1028
 1773SOL     OW16951   0.466   4.255   4.898  0.0320  0.8351 -0.2889
 1773SOL    HW116952   0.501   4.314   4.831 -0.4012  1.1864 -0.2082
 1773SOL    HW216953   0.372   4.271   4.886 -0.0722  1.1025  0.9108
 1774SOL     OW16954   3.802   4.683   1.843 -0.1330 -0.3631 -0.3647
 1774SOL    HW116955   3.714   4.647   1.854  0.3417 -1.2271  0.5649
 1774SOL    HW216956   3.775   0.015   1.779 -0.8237 -1.6361 -1.3899
 1775SOL     OW16957   2.932   0.772   8.107 -0.1351  0.2920 -0.2315
 1775SOL    HW116958   2.842   0.785   8.139 -0.4341 -0.0836 -0.9099
 1775SOL    HW216959   2.989   0.823   8.165  0.2710 -0.1699 -0.2314
 1776SOL     OW16960   0.157   2.738   8.539  0.3650 -0.1699  0.3294
 1776SOL    HW116961   0.095   2.811   8.534  0.9471  0.3170  0.2814
 1776SOL    HW216962   0.118   2.672   8.596 -0.8457  0.4082  0.1723
 1777SOL     OW16963   3.184   4.444  15.089  0.0222 -0.3428 -0.1066
 1777SOL    HW116964   3.127   4.518  15.070 -1.7620 -1.4751  0.8012
 1777SOL    HW216965   3.254   4.469  15.029 -0.6474 -0.5486 -0.9767
 1778SOL     OW16966   3.113   4.515   0.453  0.2762 -0.2338  0.1014
 1778SOL    HW116967   3.179   4.568   0.409 -0.5637 -0.0755 -0.9620
 1778SOL    HW216968   3.145   4.425   0.458 -0.4671 -0.4171  1.5371
 1779SOL     OW16969   1.035   0.285  12.326  0.4535  0.6029  0.0612
 1779SOL    HW116970   0.957   0.330  12.357 -0.7113 -1.4570  0.1232
 1779SOL    HW216971   1.069   0.237  12.401 -1.8056 -1.9692 -0.5305
 1780SOL     OW16972   4.005   1.754   5.456 -0.2345  0.0068  0.0638
 1780SOL    HW116973   3.958   1.820   5.405 -1.1777  0.2166  1.2104
 1780SOL    HW216974   4.057   1.819   5.503  0.5823 -0.5647 -0.0490
 1781SOL     OW16975   2.686   2.147   6.921  0.4585  0.1079 -0.2993
 1781SOL    HW116976   2.653   2.166   6.833  0.1312 -0.3551 -0.2744
 1781SOL    HW216977   2.657   2.229   6.961  2.0162  1.5190 -2.0562
 1782SOL     OW16978   0.551   0.229   2.295 -0.7896 -0.3253 -0.4783
 1782SOL    HW116979   0.470   0.274   2.272  0.4132  2.3594  0.6085
 1782SOL    HW216980   0.601   0.245   2.215 -1.0816  0.3912 -0.5099
 1783SOL     OW16981   3.748   3.087   8.356  0.1233  0.1473 -0.4147
 1783SOL    HW116982   3.791   3.127   8.431 -1.0569 -0.4554  0.5879
 1783SOL    HW216983   3.750   2.994   8.376  0.6812  0.6143  1.6896
 1784SOL     OW16984   2.029   3.273   3.623 -0.2720 -0.4812  1.0094
 1784SOL    HW116985   1.941   3.304   3.601 -0.3162 -2.7722 -1.9977
 1784SOL    HW216986   2.080   3.310   3.550 -2.2659 -0.3927 -0.3559
 1785SOL     OW16987   1.406   1.086   6.068  0.5697  0.4403  0.0382
 1785SOL    HW116988   1.389   1.000   6.106 -1.7357  0.7837 -0.2335
 1785SOL    HW216989   1.497   1.106   6.092  0.8762 -0.8518 -0.0313
 1786SOL     OW16990   4.557   0.062   4.582  0.1169  0.2678 -0.2089
 1786SOL    HW116991   4.551   0.117   4.504 -0.7553 -0.2397 -0.4968
 1786SOL    HW216992   4.487   0.096   4.638 -1.9255 -0.7781 -2.1339
 1787SOL     OW16993   3.036   3.661   5.964 -0.4544  0.3687  0.5599
 1787SOL    HW116994   3.038   3.721   5.890  1.1489  0.2894  0.5328
 1787SOL    HW216995   3.048   3.572   5.931  0.9115  0.7153  0.1099
 1788SOL     OW16996   3.742   3.245   1.629  0.3816 -0.0555  0.1729
 1788SOL    HW116997   3.681   3.253   1.702 -3.2825  1.2890 -3.0924
 1788SOL    HW216998   3.751   3.337   1.604  3.9571 -0.5420 -0.4127
 1789SOL     OW16999   2.693   3.643   3.309 -0.4104  0.0405  0.4653
 1789SOL    HW117000   2.714   3.661   3.217  1.2643 -2.4508  0.3727
 1789SOL    HW217001   2.597   3.640   3.308 -0.4387  1.0215 -0.5534
 1790SOL     OW17002   1.191   4.339   8.660 -0.1989 -0.0051 -0.1122
 1790SOL    HW117003   1.272   4.287   8.656  0.7773  1.1693  5.0585
 1790SOL    HW217004   1.193   4.389   8.741  1.4350  1.3294 -0.9663
 1791SOL     OW17005   4.094   2.627  12.649  0.5780  0.0134  0.0472
 1791SOL    HW117006   4.148   2.677  12.711 -2.3571  0.4623  2.2538
 1791SOL    HW217007   4.088   2.543  12.695  1.1223 -0.7087 -1.2105
 1792SOL     OW17008   2.735   4.670   3.761  0.1179  0.0361  0.3388
 1792SOL    HW117009   2.646   4.697   3.783  0.0631  1.7467 -2.0841
 1792SOL    HW217010   2.745   4.674   3.666 -0.7130  2.9083  0.3798
 1793SOL     OW17011   1.439   1.001   7.150  0.4878  0.3665  0.7500
 1793SOL    HW117012   1.506   0.990   7.217  2.2713  1.2424 -0.9272
 1793SOL    HW217013   1.417   1.094   7.141 -2.1104 -0.3354 -0.2766
 1794SOL     OW17014   3.302   3.386   3.932 -0.6704  0.7024 -0.7137
 1794SOL    HW117015   3.305   3.308   3.876  1.9307  0.3000 -0.0410
 1794SOL    HW217016   3.344   3.446   3.870 -1.2510  1.6008 -0.2232
 1795SOL     OW17017   3.879   0.495   9.035  0.1911 -0.2657  0.0961
 1795SOL    HW117018   3.891   0.434   8.962  1.7472  1.9473 -1.4844
 1795SOL    HW217019   3.970   0.512   9.059  1.2902 -2.7962 -2.2077
 1796SOL     OW17020   2.814   0.035   7.355  0.3114 -0.0087  0.3742
 1796SOL    HW117021   2.909   0.021   7.358  0.2944  0.0211  0.9932
 1796SOL    HW217022   2.779   4.680   7.343 -2.3665  0.9988  0.8314
 1797SOL     OW17023   1.853   0.333   6.891  0.0108  0.1728  0.3606
 1797SOL    HW117024   1.785   0.340   6.959  0.7640  2.4434  0.8816
 1797SOL    HW217025   1.809   0.345   6.806 -0.0119 -1.5984  0.1135
 1798SOL     OW17026   0.570   4.283   8.608 -0.0626  0.3125 -0.0237
 1798SOL    HW117027   0.607   4.260   8.693 -1.6585 -2.1492  0.0068
 1798SOL    HW217028   0.650   4.316   8.568 -0.5172  0.3481 -0.9079
 1799SOL     OW17029   2.194   1.363   6.109 -0.3693  0.2942  0.2508
 1799SOL    HW117030   2.206   1.366   6.015  0.6383 -1.9691  0.3032
 1799SOL    HW217031   2.158   1.451   6.124  0.6001  0.8004 -0.4256
 1800SOL     OW17032   1.773   4.437   2.293 -0.2151 -0.3467 -0.1864
 1800SOL    HW117033   1.752   4.515   2.344 -0.4905 -1.2194  1.0664
 1800SOL    HW217034   1.810   4.392   2.370 -0.4925 -1.4573 -0.6979
 1801SOL     OW17035   1.225   2.193  16.282 -0.2562 -0.0545 -0.0659
 1801SOL    HW117036   1.186   2.159  16.362 -1.3249  2.0116  0.2955
 1801SOL    HW217037   1.252   2.109  16.245  0.5240  0.2058 -0.0965
 1802SOL     OW17038   3.420   2.321   8.570 -0.0667 -0.0969 -0.1147
 1802SOL    HW117039   3.465   2.390   8.620  0.9501 -0.0202 -1.1400
 1802SOL    HW217040   3.494   2.291   8.517  0.6834 -2.1036  2.0429
 1803SOL     OW17041   3.755   1.320  13.970  0.6901  0.3937 -0.2066
 1803SOL    HW117042   3.739   1.325  13.876 -0.7987 -1.6583 -0.0720
 1803SOL    HW217043   3.786   1.410  13.981  1.0032  0.5578 -2.4980
 1804SOL     OW17044   4.586   2.939  16.114  0.1118  0.0430  0.1503
 1804SOL    HW117045   4.679   2.958  16.102 -0.0977 -0.2335 -1.9057
 1804SOL    HW217046   4.577   2.893  16.197 -0.7471 -1.2379 -0.6609
 1805SOL     OW17047   3.761   3.489   4.625  0.2496  0.4462  0.1964
 1805SOL    HW117048   3.843   3.520   4.664 -0.1598 -1.6269  2.7038
 1805SOL    HW217049   3.790   3.500   4.534 -0.7312 -0.1488 -0.1889
 1806SOL     OW17050   1.398   4.346   6.579 -0.0523 -0.1089 -0.5453
 1806SOL    HW117051   1.459   4.283   6.618  0.1777 -0.4643 -1.4807
 1806SOL    HW217052   1.391   4.413   6.647 -0.5897  0.8107 -1.4970
 1807SOL     OW17053   4.275   0.546   5.885  0.2492  0.6427 -0.0277
 1807SOL    HW117054   4.325   0.465   5.874 -0.9053 -0.1168  0.4188
 1807SOL    HW217055   4.344   0.612   5.877 -0.5527  1.5573  0.5778
 1808SOL     OW17056   3.547   4.378   0.683  0.5943 -0.1755  0.4581
 1808SOL    HW117057   3.597   4.438   0.739  0.1037  1.3398 -0.7267
 1808SOL    HW217058   3.573   4.419   0.600 -1.5868  0.7586  0.2286
 1809SOL     OW17059   3.731   1.931   8.521  0.0441  0.0620  0.1011
 1809SOL    HW117060   3.692   1.972   8.443  1.1459 -0.2664 -0.6084
 1809SOL    HW217061   3.798   1.879   8.478  0.8234  1.1957 -0.0731
 1810SOL     OW17062   0.414   3.464  15.411 -0.7289  0.0960 -0.0566
 1810SOL    HW117063   0.420   3.417  15.494  1.1523  2.1894  1.0036
 1810SOL    HW217064   0.487   3.522  15.432  0.1613 -0.8763 -0.4560
 1811SOL     OW17065   4.269   0.373   9.702 -0.2373 -0.4739  0.3183
 1811SOL    HW117066   4.333   0.438   9.732 -0.1516 -0.1187 -0.6375
 1811SOL    HW217067   4.235   0.334   9.782  1.4648 -0.5061  1.0450
 1812SOL     OW17068   1.729   2.492   6.666 -0.1936  0.0541 -0.1984
 1812SOL    HW117069   1.683   2.418   6.625  0.1820 -0.1847 -0.1920
 1812SOL    HW217070   1.798   2.505   6.601  0.0991 -1.3669 -0.1797
 1813SOL     OW17071   2.753   2.473  10.744 -0.1753  0.1450 -0.5298
 1813SOL    HW117072   2.766   2.488  10.651 -0.2575 -1.1079 -0.7424
 1813SOL    HW217073   2.841   2.493  10.776  0.3522 -0.7220 -1.4374
 1814SOL     OW17074   0.128   1.834   2.999 -0.0479 -0.0043  0.2202
 1814SOL    HW117075   0.126   1.842   2.903 -0.0476  2.6427  0.4369
 1814SOL    HW217076   0.036   1.833   3.023  0.0147 -2.7350  0.3454
 1815SOL     OW17077   0.489   3.115   0.072 -0.5729 -0.0634  0.3310
 1815SOL    HW117078   0.559   3.146   0.015  0.7372  0.4301  2.2031
 1815SOL    HW217079   0.404   3.135   0.033 -0.2523 -0.8415 -0.7641
 1816SOL     OW17080   4.102   2.987   9.572  0.4967 -0.1568  0.1104
 1816SOL    HW117081   4.056   2.938   9.641  1.7884 -0.9547  0.4093
 1816SOL    HW217082   4.153   2.914   9.537  1.1315 -0.2447  1.2147
 1817SOL     OW17083   1.041   2.930   6.692  0.3571  0.4399  0.0588
 1817SOL    HW117084   1.033   3.023   6.673 -3.7626  0.2395  0.7997
 1817SOL    HW217085   0.949   2.913   6.712  0.5753 -1.0475 -0.2171
 1818SOL     OW17086   2.822   2.569   1.748 -0.0612  0.1196 -0.4696
 1818SOL    HW117087   2.748   2.593   1.805 -0.0745 -0.4255 -0.2598
 1818SOL    HW217088   2.889   2.635   1.764 -0.9794  1.0376 -0.3848
 1819SOL     OW17089   3.089   0.791   6.693 -0.5474  0.5803  0.3547
 1819SOL    HW117090   3.152   0.813   6.624 -0.8271  1.5204  0.3885
 1819SOL    HW217091   3.011   0.793   6.637 -0.9694 -0.5810  0.9164
 1820SOL     OW17092   2.128   2.737   6.682 -0.2888 -0.5252 -0.3860
 1820SOL    HW117093   2.045   2.784   6.679 -0.3472 -0.5390  0.8661
 1820SOL    HW217094   2.145   2.729   6.588  1.3809  1.2194 -0.2206
 1821SOL     OW17095   4.498   2.114   2.224  0.0624 -0.2749  0.0108
 1821SOL    HW117096   4.516   2.046   2.159 -1.4611 -1.2180  0.5621
 1821SOL    HW217097   4.453   2.176   2.168 -0.0681  1.4495  2.0327
 1822SOL     OW17098   3.158   3.608   0.788 -0.0673 -0.3293 -0.0234
 1822SOL    HW117099   3.248   3.615   0.754 -0.2375 -2.4213 -0.9254
 1822SOL    HW217100   3.166   3.649   0.874  1.0749 -1.7617  0.5672
 1823SOL     OW17101   2.569   0.925   5.945 -0.4970  0.0240  0.3867
 1823SOL    HW117102   2.621   1.004   5.930 -0.8614 -0.0124 -1.1407
 1823SOL    HW217103   2.482   0.954   5.915  0.4247  0.4604 -1.8779
 1824SOL     OW17104   4.422   2.585   3.524  0.1524 -0.1253  1.0217
 1824SOL    HW117105   4.404   2.630   3.441  0.6942 -0.6928  0.5924
 1824SOL    HW217106   4.513   2.616   3.528 -0.1963  1.1671 -0.8496
 1825SOL     OW17107   0.148   3.482  17.411  0.3342 -0.2632 -0.7978
 1825SOL    HW117108   0.073   3.541  17.395 -0.7115 -0.7655  2.2910
 1825SOL    HW217109   0.166   3.456  17.321 -0.4926 -0.8363 -0.8010
 1826SOL     OW17110   2.774   4.122   8.480 -0.3316 -0.6458 -0.0740
 1826SOL    HW117111   2.807   4.166   8.558  1.2065 -0.4247 -0.8380
 1826SOL    HW217112   2.704   4.183   8.456  0.7995  1.0786  0.9805
 1827SOL     OW17113   0.175   0.043   3.422  0.1414  0.1712 -0.5334
 1827SOL    HW117114   0.124   0.100   3.364 -0.3615  0.7078  0.4325
 1827SOL    HW217115   0.238   0.106   3.457  0.3787  0.0529 -0.7490
 1828SOL     OW17116   3.395   0.268   2.933 -0.6331  0.0880  0.0464
 1828SOL    HW117117   3.423   0.178   2.918 -1.4841 -0.2951  0.7563
 1828SOL    HW217118   3.410   0.306   2.846  1.9935  1.8029  1.2554
 1829SOL     OW17119   0.536   1.266   2.885 -0.1335  0.2670  0.1409
 1829SOL    HW117120   0.599   1.338   2.878 -0.1716  0.3145  0.2968
 1829SOL    HW217121   0.575   1.200   2.829 -1.2258 -0.9827  0.8720
 1830SOL     OW17122   3.482   2.348  15.674 -0.0723  0.0058 -0.6192
 1830SOL    HW117123   3.459   2.324  15.763 -1.4471  0.0466 -0.9524
 1830SOL    HW217124   3.432   2.430  15.670 -0.0052  0.0127 -1.3744
 1831SOL     OW17125   0.996   2.722   7.854 -0.1210 -0.3466 -0.3321
 1831SOL    HW117126   0.943   2.689   7.926 -1.8678  0.7514 -1.0935
 1831SOL    HW217127   0.961   2.804   7.818  1.0653  1.4367  2.6225
 1832SOL     OW17128   0.269   1.911   3.448  0.6459  0.4888  0.1825
 1832SOL    HW117129   0.330   1.979   3.420 -1.0388  1.5809 -0.8416
 1832SOL    HW217130   0.274   1.853   3.372  0.0644 -0.7210  1.0649
 1833SOL     OW17131   3.759   1.189   4.539  0.4899  0.5218  0.0493
 1833SOL    HW117132   3.745   1.095   4.551  0.3359  0.3792 -1.1986
 1833SOL    HW217133   3.668   1.218   4.545  0.1036 -0.2120 -2.1923
 1834SOL     OW17134   1.827   2.252   6.566 -0.3576  0.1016 -0.0526
 1834SOL    HW117135   1.780   2.175   6.598 -0.6633  0.2244 -0.2092
 1834SOL    HW217136   1.914   2.233   6.604 -0.8633 -1.5385  0.3101
 1835SOL     OW17137   2.717   2.231   6.252 -0.0392  0.0174 -0.0872
 1835SOL    HW117138   2.767   2.151   6.266 -1.1472 -0.6324  0.1416
 1835SOL    HW217139   2.793   2.276   6.212  1.8588 -1.2736  2.0740
 1836SOL     OW17140   2.256   2.217   1.830 -0.2772  0.5542  0.5260
 1836SOL    HW117141   2.345   2.244   1.808 -0.5370  0.8441 -0.1464
 1836SOL    HW217142   2.209   2.296   1.804 -0.8462 -0.1059 -0.4246
 1837SOL     OW17143   0.407   2.702   9.996  0.2135 -0.3727 -0.4789
 1837SOL    HW117144   0.495   2.732   9.973  1.3385 -2.0390  1.5961
 1837SOL    HW217145   0.347   2.764   9.956  1.8051 -0.1676 -2.5224
 1838SOL     OW17146   1.367   1.905   2.000  0.8271 -0.7406  0.0710
 1838SOL    HW117147   1.363   1.833   2.064 -1.7030  1.0439  1.8967
 1838SOL    HW217148   1.304   1.964   2.040  0.5782 -1.4804  0.7908
 1839SOL     OW17149   4.713   3.761   6.714  0.3898 -0.0768 -0.1318
 1839SOL    HW117150   4.733   3.772   6.807  0.3302  1.9951 -0.3756
 1839SOL    HW217151   0.007   3.670   6.705 -2.1727 -0.9839  0.9873
 1840SOL     OW17152   1.286   2.036   6.887  0.4266 -0.5368  0.0814
 1840SOL    HW117153   1.195   2.062   6.905  0.7158  0.0812  0.6319
 1840SOL    HW217154   1.317   2.115   6.844 -1.5096  0.4150  0.4116
 1841SOL     OW17155   0.942   0.027  11.740 -0.1289  0.5550 -0.3202
 1841SOL    HW117156   0.954   4.713  11.822 -0.2317 -0.3814 -0.8591
 1841SOL    HW217157   0.940   4.691  11.675 -0.3765  1.2425 -1.0583
 1842SOL     OW17158   3.243   0.893   9.259  0.2578  0.2465  0.9289
 1842SOL    HW117159   3.296   0.930   9.330  1.1954  1.2402 -0.2752
 1842SOL    HW217160   3.285   0.809   9.241  1.8715  1.6203 -1.6545
 1843SOL     OW17161   0.887   3.287   5.000  0.1062  0.3690  0.1345
 1843SOL    HW117162   0.950   3.332   4.944  0.8731 -1.0010 -0.0874
 1843SOL    HW217163   0.852   3.361   5.051 -1.8173 -2.1515  2.4581
 1844SOL     OW17164   1.931   0.902  11.233 -0.0781 -0.1508  0.2860
 1844SOL    HW117165   1.955   0.871  11.320 -1.1225  2.4917  1.4946
 1844SOL    HW217166   2.021   0.929  11.215  0.0052 -0.6840 -0.1030
 1845SOL     OW17167   4.638   1.655   4.163 -0.2513 -0.0996  0.1486
 1845SOL    HW117168   4.660   1.637   4.072 -0.6714  3.2464 -0.5941
 1845SOL    HW217169   4.694   1.729   4.188 -1.0743  0.9000 -0.9820
 1846SOL     OW17170   2.303   0.632   7.625 -0.3381  0.7628 -0.1022
 1846SOL    HW117171   2.392   0.633   7.591 -0.1221 -0.0277  0.4572
 1846SOL    HW217172   2.253   0.634   7.543  0.4768  1.4787 -0.5877
 1847SOL     OW17173   2.761   3.019  13.462 -0.8764 -0.6721 -0.3770
 1847SOL    HW117174   2.742   2.958  13.533 -0.9665 -1.2100 -0.8626
 1847SOL    HW217175   2.683   3.074  13.450 -1.2060 -1.0857 -0.1518
 1848SOL     OW17176   0.043   0.930  15.416 -0.4202  0.1290  0.1583
 1848SOL    HW117177   4.709   0.984  15.376  1.3434  1.5363 -0.9711
 1848SOL    HW217178   0.111   0.918  15.349  0.0337  0.0223  0.6421
 1849SOL     OW17179   4.097   4.387   4.305  0.6648 -0.0133  0.4026
 1849SOL    HW117180   4.132   4.476   4.308 -1.3141  0.7599  0.6917
 1849SOL    HW217181   4.143   4.358   4.227  0.3409  0.2006  0.1319
 1850SOL     OW17182   1.612   0.906   5.296 -0.5891  0.5223 -0.3123
 1850SOL    HW117183   1.605   0.941   5.385  0.5897  0.4159 -0.1766
 1850SOL    HW217184   1.594   0.986   5.247  0.9417  0.9038 -0.2521
 1851SOL     OW17185   1.054   0.319   1.803 -1.1628  0.1249 -0.1245
 1851SOL    HW117186   1.070   0.307   1.896 -2.6567  2.1860  0.3672
 1851SOL    HW217187   1.079   0.233   1.768 -0.1650  0.8757 -1.2478
 1852SOL     OW17188   3.964   3.942   1.589  0.2075  0.1145  0.1495
 1852SOL    HW117189   3.928   3.854   1.597  0.8051 -0.0342  1.2860
 1852SOL    HW217190   4.029   3.925   1.521 -0.3346  1.2448 -0.6594
 1853SOL     OW17191   3.297   0.629   6.770  0.4976  0.1717  0.5968
 1853SOL    HW117192   3.246   0.591   6.842 -0.3515 -0.0234 -0.1046
 1853SOL    HW217193   3.224   0.647   6.710 -0.7690 -1.6887  1.5786
 1854SOL     OW17194   4.151   3.888   0.833 -1.1554  0.5087 -0.3991
 1854SOL    HW117195   4.106   3.812   0.871  0.9044  0.2707  1.5479
 1854SOL    HW217196   4.233   3.888   0.881 -2.0111  0.9597  1.0396
 1855SOL     OW17197   1.908   2.173   4.986 -0.6559  0.7608 -0.4456
 1855SOL    HW117198   1.918   2.256   5.033  0.3933  1.6398 -2.2127
 1855SOL    HW217199   1.883   2.121   5.062  0.0442 -0.0453 -0.7689
 1856SOL     OW17200   0.786   0.295   8.113  0.2879 -0.3366 -0.8019
 1856SOL    HW117201   0.778   0.206   8.146 -4.0692 -0.5204 -2.2904
 1856SOL    HW217202   0.701   0.303   8.069 -0.3761 -1.8663  0.2086
 1857SOL     OW17203   0.702   4.581   6.422  0.4927 -0.5167 -0.1640
 1857SOL    HW117204   0.700   4.500   6.473 -1.3251 -1.3669 -1.5753
 1857SOL    HW217205   0.786   4.617   6.448  1.1784 -0.2085 -2.8546
 1858SOL     OW17206   2.717   0.668   7.587  0.1447  0.2704  0.7856
 1858SOL    HW117207   2.774   0.741   7.565 -0.2911  0.6592  0.9492
 1858SOL    HW217208   2.751   0.662   7.676 -1.4781 -3.7152  1.1543
 1859SOL     OW17209   4.033   1.267   4.288  0.7882 -0.2347 -0.2583
 1859SOL    HW117210   4.000   1.354   4.265 -0.4205 -0.9372 -1.1476
 1859SOL    HW217211   4.032   1.223   4.203  1.0600 -0.0190 -0.3775
 1860SOL     OW17212   4.045   2.442   2.151  0.4928 -0.4734 -0.2849
 1860SOL    HW117213   3.982   2.394   2.204 -0.0318  0.9946  0.4444
 1860SOL    HW217214   4.078   2.370   2.098 -1.2926 -0.5498 -1.3048
 1861SOL     OW17215   4.037   1.206   4.561  0.5772  0.2389 -0.2598
 1861SOL    HW117216   3.945   1.234   4.561  0.4479 -0.2747  3.2052
 1861SOL    HW217217   4.049   1.229   4.468  2.0671  0.1247 -0.0847
 1862SOL     OW17218   3.427   3.314  16.528  0.4401  0.4431 -0.0138
 1862SOL    HW117219   3.380   3.361  16.596  0.1744 -1.3813  1.0592
 1862SOL    HW217220   3.518   3.344  16.532  0.3642  0.3918  2.1382
 1863SOL     OW17221   4.662   2.609   9.077  0.4436 -0.2135 -0.1438
 1863SOL    HW117222   4.651   2.568   8.991  1.1045  2.7202 -1.6170
 1863SOL    HW217223   4.723   2.558   9.130  3.9195  3.6210 -0.5288
 1864SOL     OW17224   2.542   4.267   8.651  0.0224  0.1388 -0.1794
 1864SOL    HW117225   2.593   4.333   8.603  1.5321 -1.1978 -0.4126
 1864SOL    HW217226   2.469   4.251   8.591 -0.3130 -2.4290  0.9149
 1865SOL     OW17227   2.193   4.674   2.127  0.5041 -0.5974  0.1348
 1865SOL    HW117228   2.109   4.660   2.169 -1.0802  0.0723 -2.8263
 1865SOL    HW217229   2.198   0.035   2.112 -1.4552 -0.7047 -1.1326
 1866SOL     OW17230   4.018   4.048   0.485 -0.3350  0.1542 -0.1371
 1866SOL    HW117231   3.929   4.020   0.462 -0.9466  3.2610 -1.4827
 1866SOL    HW217232   4.031   4.135   0.449 -2.0673  0.0393 -1.0426
 1867SOL     OW17233   2.101   4.406   7.320 -0.5272 -0.3473  0.3926
 1867SOL    HW117234   2.146   4.322   7.315 -0.4003 -0.1267 -1.8318
 1867SOL    HW217235   2.066   4.397   7.409  0.4668 -1.6027  0.6535
 1868SOL     OW17236   1.112   3.304  17.414  1.0237  0.3838  0.4807
 1868SOL    HW117237   1.177   3.233  17.417 -0.1553 -0.7141 -0.1496
 1868SOL    HW217238   1.145   3.358  17.486 -0.0681 -0.4646  1.6156
 1869SOL     OW17239   3.383   3.275   4.633  0.3358  0.1780  0.2492
 1869SOL    HW117240   3.358   3.183   4.634  1.9520 -0.2813 -2.1215
 1869SOL    HW217241   3.466   3.281   4.679  0.6396 -1.0407 -0.1321
 1870SOL     OW17242   2.698   2.377  12.574  0.5150 -0.8354  0.3103
 1870SOL    HW117243   2.781   2.393  12.619 -0.9573 -0.9950  3.0780
 1870SOL    HW217244   2.730   2.403  12.487 -0.2808  2.2244  0.9464
 1871SOL     OW17245   0.549   4.506   7.088 -0.4045 -0.3765  0.1404
 1871SOL    HW117246   0.498   4.428   7.109 -1.2460  0.3003  0.6340
 1871SOL    HW217247   0.509   4.538   7.007  0.3099 -1.5693 -0.6730
 1872SOL     OW17248   3.893   2.265   0.773  0.0632  0.2281 -0.3553
 1872SOL    HW117249   3.816   2.216   0.745  1.5928 -3.0974  1.2703
 1872SOL    HW217250   3.859   2.300   0.855  2.0402 -1.3505  1.1335
 1873SOL     OW17251   4.545   3.608   3.279  0.3211  0.2079  0.1380
 1873SOL    HW117252   4.564   3.546   3.350 -2.1262 -1.0166 -0.2774
 1873SOL    HW217253   4.498   3.557   3.213  0.5871  2.5672 -1.8746
 1874SOL     OW17254   2.921   1.367   7.569 -0.3184 -0.1865  0.4854
 1874SOL    HW117255   2.918   1.455   7.608 -0.7150 -0.2284  0.5469
 1874SOL    HW217256   2.904   1.393   7.478  0.6865  0.5387  0.5077
 1875SOL     OW17257   1.850   0.132   3.886  0.1273  1.1119 -0.2349
 1875SOL    HW117258   1.817   0.120   3.975  1.9951 -0.1990  0.2986
 1875SOL    HW217259   1.781   0.176   3.836 -1.4540 -0.3741  0.6514
 1876SOL     OW17260   4.554   2.900   5.439  0.3092 -0.5896  0.6033
 1876SOL    HW117261   4.500   2.831   5.476  0.4443 -1.6627 -1.2174
 1876SOL    HW217262   4.542   2.863   5.351  0.2649  0.2929  0.2355
 1877SOL     OW17263   4.222   2.668  12.381 -0.9238  0.0000 -0.0394
 1877SOL    HW117264   4.269   2.701  12.305  0.4074  0.7724  1.1372
 1877SOL    HW217265   4.211   2.750  12.430 -0.6701 -0.7480  1.2704
 1878SOL     OW17266   2.458   1.231  16.886  0.1956  0.2221  0.2296
 1878SOL    HW117267   2.546   1.247  16.919  0.0495 -0.9818  1.1703
 1878SOL    HW217268   2.421   1.319  16.873 -0.7724 -0.8468 -4.3691
 1879SOL     OW17269   1.679   1.511   4.117 -0.6045 -0.1450  0.2803
 1879SOL    HW117270   1.632   1.485   4.038  0.9066  0.3826 -0.8068
 1879SOL    HW217271   1.766   1.526   4.079 -1.0238  0.5806 -0.3883
 1880SOL     OW17272   2.671   1.337   6.919  0.1951  0.7140 -0.6191
 1880SOL    HW117273   2.685   1.253   6.963  1.9629  1.5656  0.4600
 1880SOL    HW217274   2.649   1.316   6.828  0.8015  1.2772 -0.8950
 1881SOL     OW17275   0.078   2.926   7.024 -0.2119  0.8140 -0.3757
 1881SOL    HW117276   0.060   3.015   6.992  0.9553  1.3382  0.4277
 1881SOL    HW217277   0.146   2.891   6.967 -2.0931 -0.2187 -1.9968
 1882SOL     OW17278   0.824   2.601  10.624 -0.3916 -0.4318 -0.0801
 1882SOL    HW117279   0.770   2.523  10.612 -0.1735 -0.7346  0.9379
 1882SOL    HW217280   0.882   2.588  10.550 -1.4918  0.3976 -1.0983
 1883SOL     OW17281   0.174   2.205  17.732 -0.1840 -0.1911 -0.1317
 1883SOL    HW117282   0.263   2.176   0.014 -0.5759 -1.2161  0.2249
 1883SOL    HW217283   0.130   2.215   0.081  1.8087 -4.3830  1.4069
 1884SOL     OW17284   4.724   4.646   4.933  0.2857  0.3172 -0.7831
 1884SOL    HW117285   4.644   4.599   4.958  0.8701 -0.6936 -0.8095
 1884SOL    HW217286   4.680   4.728   4.912  1.2650  0.6633 -1.5101
 1885SOL     OW17287   1.576   3.994  17.682 -0.2163  0.5030 -0.1441
 1885SOL    HW117288   1.652   4.030  17.728  0.0322  0.3679 -0.4406
 1885SOL    HW217289   1.560   4.061  17.616  1.9036 -1.1185 -2.3129
 1886SOL     OW17290   4.373   2.941   2.653 -0.4449  0.7168 -0.3196
 1886SOL    HW117291   4.433   2.868   2.672  0.9467  2.0243  0.2834
 1886SOL    HW217292   4.439   2.993   2.607  0.8242  0.8171  1.6104
 1887SOL     OW17293   3.529   1.591   2.866 -0.5748  0.6137 -0.6784
 1887SOL    HW117294   3.559   1.668   2.914  2.1696 -0.5301 -0.5297
 1887SOL    HW217295   3.553   1.611   2.776 -1.4267  2.2166 -0.5558
 1888SOL     OW17296   2.826   3.912   8.324 -0.2807  0.0923  0.0612
 1888SOL    HW117297   2.805   3.984   8.385  0.0020 -1.1786  1.6658
 1888SOL    HW217298   2.919   3.931   8.312 -0.2833  0.4993  0.6709
 1889SOL     OW17299   2.360   1.548   8.406  0.0861  0.7007 -0.0329
 1889SOL    HW117300   2.424   1.497   8.454 -1.4699  1.0171  2.4052
 1889SOL    HW217301   2.366   1.509   8.319 -0.4047 -0.5309  0.4958
 1890SOL     OW17302   2.929   4.270   9.354  0.0494  0.5885 -0.1725
 1890SOL    HW117303   2.973   4.306   9.431  0.8188  0.2971 -0.4684
 1890SOL    HW217304   2.914   4.188   9.401  1.7573 -1.3516 -3.0520
 1891SOL     OW17305   3.462   2.629   3.963  0.0278 -0.4556 -0.7572
 1891SOL    HW117306   3.548   2.650   3.999  0.0550 -0.1973 -0.9739
 1891SOL    HW217307   3.479   2.642   3.869  1.6556  1.5113 -0.1847
 1892SOL     OW17308   3.051   0.191   3.650 -0.4569  0.1740  0.7237
 1892SOL    HW117309   3.043   0.285   3.631  1.4941  0.5207  1.6137
 1892SOL    HW217310   3.028   0.195   3.743  0.2913  1.9063  0.8444
 1893SOL     OW17311   1.679   4.378   3.784  0.6390 -0.1366 -0.2681
 1893SOL    HW117312   1.739   4.452   3.775  0.1847  0.0450 -1.7894
 1893SOL    HW217313   1.643   4.363   3.697 -1.5826 -3.1167  1.1777
 1894SOL     OW17314   2.204   3.323   6.075  0.2199  0.4165  0.0436
 1894SOL    HW117315   2.161   3.249   6.119 -0.2720 -0.1857 -1.4614
 1894SOL    HW217316   2.231   3.290   5.989 -1.6708  3.4558 -1.6944
 1895SOL     OW17317   2.325   1.954   0.337  0.0659 -0.1350 -0.0383
 1895SOL    HW117318   2.347   1.960   0.244 -0.3199 -0.4806 -0.1520
 1895SOL    HW217319   2.264   2.028   0.340  2.6280  1.8954  1.9973
 1896SOL     OW17320   1.938   2.476   9.112  0.4176 -0.5786 -0.2416
 1896SOL    HW117321   1.988   2.414   9.058  0.5105 -0.8562  0.1644
 1896SOL    HW217322   1.978   2.469   9.199  2.6714 -0.7313 -1.2784
 1897SOL     OW17323   4.308   1.691   3.505  0.4672  0.9077  0.0609
 1897SOL    HW117324   4.391   1.735   3.487  0.2816  0.6616 -1.4035
 1897SOL    HW217325   4.259   1.743   3.442  0.9743  0.3983 -0.7562
 1898SOL     OW17326   1.770   4.714   2.461  0.0399 -0.0329  0.0475
 1898SOL    HW117327   1.687   4.695   2.505 -0.0222 -0.5181 -0.2773
 1898SOL    HW217328   1.805   0.060   2.501 -2.2544  0.5728  0.8358
 1899SOL     OW17329   2.615   0.465  15.974  0.1644 -0.1486  0.1701
 1899SOL    HW117330   2.693   0.410  15.963  2.6037  3.5094 -0.7524
 1899SOL    HW217331   2.622   0.522  15.897  2.7421 -0.1177  0.4226
 1900SOL     OW17332   1.916   3.086  11.522 -0.1699  0.4059 -0.5543
 1900SOL    HW117333   1.989   3.148  11.513  0.9755 -1.1516 -2.1801
 1900SOL    HW217334   1.908   3.058  11.430 -2.0912 -0.2189 -0.2015
 1901SOL     OW17335   2.071   0.387   7.555  0.4837 -0.4073  0.1196
 1901SOL    HW117336   2.049   0.343   7.637 -1.3169 -1.5997 -1.0139
 1901SOL    HW217337   2.004   0.455   7.547 -0.5306 -1.2267  1.6359
 1902SOL     OW17338   4.010   2.869  10.714 -0.1699 -0.0740 -0.4861
 1902SOL    HW117339   4.040   2.790  10.670  2.3822  0.2095  0.7917
 1902SOL    HW217340   3.988   2.913  10.631 -0.2310 -0.3752 -0.6314
 1903SOL     OW17341   3.817   1.139   5.520 -0.1798 -0.3087  1.1946
 1903SOL    HW117342   3.903   1.110   5.489  0.0671  0.4006  1.2141
 1903SOL    HW217343   3.826   1.229   5.551  3.1099 -0.7674  1.5728
 1904SOL     OW17344   3.338   2.110   9.263  0.0744  0.2477 -0.2669
 1904SOL    HW117345   3.338   2.205   9.249 -2.0649  0.2332 -0.2853
 1904SOL    HW217346   3.298   2.078   9.182 -0.4722  0.4386 -0.0736
 1905SOL     OW17347   2.891   2.803   0.812 -0.5954 -0.1207  0.0432
 1905SOL    HW117348   2.870   2.891   0.778 -2.9145 -1.0482 -0.9272
 1905SOL    HW217349   2.804   2.763   0.811  0.8732 -3.2885  0.3023
 1906SOL     OW17350   3.656   3.233   3.890  0.6067  0.0229  0.2114
 1906SOL    HW117351   3.616   3.160   3.936 -0.2338 -0.3088 -1.0398
 1906SOL    HW217352   3.750   3.220   3.905  0.0242 -2.1976  1.9135
 1907SOL     OW17353   1.786   3.494  15.596 -0.9104  0.4745 -0.1757
 1907SOL    HW117354   1.802   3.513  15.503 -1.3502  0.0536 -0.3387
 1907SOL    HW217355   1.694   3.472  15.588 -0.3347 -1.4994 -1.2968
 1908SOL     OW17356   3.620   2.209   4.139  0.0183 -0.0088 -0.3001
 1908SOL    HW117357   3.710   2.208   4.172  0.2425 -0.4596 -0.9290
 1908SOL    HW217358   3.573   2.168   4.211 -0.0241  0.1505 -0.2375
 1909SOL     OW17359   0.916   0.162   9.560 -0.0609 -0.2157 -0.4551
 1909SOL    HW117360   1.011   0.175   9.563  0.1660 -1.2768 -3.9324
 1909SOL    HW217361   0.914   0.126   9.472  3.2315 -0.5917 -0.3525
 1910SOL     OW17362   1.847   3.566   5.180 -0.0156 -0.1308  0.2121
 1910SOL    HW117363   1.802   3.650   5.172  1.3075  0.5099 -0.4046
 1910SOL    HW217364   1.897   3.552   5.100  0.4475  0.0829  0.4582
 1911SOL     OW17365   4.421   1.070   5.585  0.3963 -0.4714  0.6642
 1911SOL    HW117366   4.448   1.023   5.664  0.0778 -2.7267 -0.5636
 1911SOL    HW217367   4.333   1.102   5.604 -0.5723 -2.0757 -1.1195
 1912SOL     OW17368   3.664   0.401   5.124  0.4702  0.3881  0.5260
 1912SOL    HW117369   3.745   0.411   5.175  0.7290 -0.7278  0.3360
 1912SOL    HW217370   3.653   0.495   5.113 -1.1468  0.0780 -0.4018
 1913SOL     OW17371   0.776   0.983   7.807 -0.4411 -0.5923  0.3058
 1913SOL    HW117372   0.871   0.992   7.820 -0.1939 -1.5931 -0.8725
 1913SOL    HW217373   0.745   1.061   7.853 -2.2584 -0.8412 -0.5370
 1914SOL     OW17374   4.604   0.069   6.590  0.0087  0.2171  0.0773
 1914SOL    HW117375   4.522   0.079   6.543  0.4355  3.3404 -0.0647
 1914SOL    HW217376   4.594   4.709   6.600  0.7762  0.0571 -0.7122
 1915SOL     OW17377   0.973   3.055   2.085  0.0402 -0.3761  0.3012
 1915SOL    HW117378   1.066   3.048   2.104  0.4351 -0.5449 -1.7567
 1915SOL    HW217379   0.970   2.987   2.017  0.6519  0.8686 -0.9726
 1916SOL     OW17380   2.317   0.898   5.056 -0.4897  0.1366  0.1706
 1916SOL    HW117381   2.246   0.844   5.092 -1.3010  1.3991  0.4526
 1916SOL    HW217382   2.296   0.894   4.962  0.8925 -1.9597 -0.0668
 1917SOL     OW17383   0.969   3.343   8.244 -0.1849 -0.2485  0.4762
 1917SOL    HW117384   0.954   3.432   8.213 -1.9327 -0.1721  1.5687
 1917SOL    HW217385   1.001   3.348   8.334 -0.2107  2.5484  0.3193
 1918SOL     OW17386   2.264   0.874   3.083 -0.5350 -0.1290 -0.6331
 1918SOL    HW117387   2.335   0.811   3.092  1.5235  2.2888 -0.0356
 1918SOL    HW217388   2.264   0.918   3.168  1.0217  0.3322 -0.8792
 1919SOL     OW17389   3.955   3.794   0.655 -0.4356  0.1584 -0.1265
 1919SOL    HW117390   3.937   3.858   0.586  0.5770  1.8089  1.1274
 1919SOL    HW217391   4.017   3.845   0.708 -2.2688  1.8111  0.4284
 1920SOL     OW17392   2.225   1.325   3.332  0.1564 -0.2989  0.1344
 1920SOL    HW117393   2.287   1.383   3.288 -0.2074  0.3098  0.4177
 1920SOL    HW217394   2.191   1.272   3.260 -0.0652 -3.3905  2.5049
 1921SOL     OW17395   4.088   3.660  12.520  0.8461 -0.0428  0.2218
 1921SOL    HW117396   4.009   3.659  12.466  0.9885  2.8076 -0.0413
 1921SOL    HW217397   4.048   3.680  12.604 -0.1803  1.3358 -0.6091
 1922SOL     OW17398   4.583   2.419   8.880 -0.1738 -0.4658  0.0240
 1922SOL    HW117399   4.501   2.391   8.921 -0.5519 -1.7347 -1.5921
 1922SOL    HW217400   4.577   2.363   8.802  0.0613 -0.1008 -0.2564
 1923SOL     OW17401   4.409   2.245   4.646  0.5707  0.1409  0.2245
 1923SOL    HW117402   4.328   2.227   4.598  1.0429 -0.2137 -0.4437
 1923SOL    HW217403   4.399   2.335   4.676  2.2867 -0.6213  3.0545
 1924SOL     OW17404   4.446   2.638   1.945  0.1145 -0.6139  0.9344
 1924SOL    HW117405   4.360   2.663   1.979 -0.6462 -2.0418  0.0479
 1924SOL    HW217406   4.413   2.560   1.901  0.4129 -0.1495 -0.1129
 1925SOL     OW17407   3.100   3.253   9.538 -0.1088  0.0314  0.0487
 1925SOL    HW117408   3.134   3.237   9.626 -2.2965  0.9351  1.0607
 1925SOL    HW217409   3.087   3.163   9.508  2.1307  0.3289 -1.8479
 1926SOL     OW17410   0.909   3.759   0.808 -0.1734 -0.4075  0.2327
 1926SOL    HW117411   0.881   3.761   0.900  0.1785 -1.1166  0.3514
 1926SOL    HW217412   0.869   3.839   0.775 -1.2460 -1.3884 -0.8112
 1927SOL     OW17413   4.101   0.883   8.333 -0.0392  0.4003 -0.0519
 1927SOL    HW117414   4.156   0.937   8.391  1.2987  0.6467 -1.5566
 1927SOL    HW217415   4.015   0.894   8.373 -0.1020 -0.7670  0.1203
 1928SOL     OW17416   3.697   3.833  13.849 -0.5307 -0.5410 -0.2060
 1928SOL    HW117417   3.743   3.910  13.816  1.1582 -0.8065  1.4518
 1928SOL    HW217418   3.732   3.833  13.939  1.7631  0.0483 -1.0914
 1929SOL     OW17419   2.584   1.168  12.778  0.6718  0.6483  0.1111
 1929SOL    HW117420   2.519   1.099  12.769  0.3109  1.1319 -1.0023
 1929SOL    HW217421   2.660   1.116  12.804 -0.3833 -1.5382 -1.1277
 1930SOL     OW17422   1.526   2.622   4.756  0.0153  0.0583 -0.3297
 1930SOL    HW117423   1.469   2.597   4.684 -1.4120 -0.4879  0.9919
 1930SOL    HW217424   1.470   2.590   4.827 -0.6817  0.6595 -0.6120
 1931SOL     OW17425   1.313   4.194   4.444 -0.3422 -0.3477  0.0927
 1931SOL    HW117426   1.363   4.117   4.417  1.7587  1.5599 -1.4203
 1931SOL    HW217427   1.238   4.163   4.495  2.4935 -0.1564  4.2995
 1932SOL     OW17428   3.126   0.922   6.208  0.3688 -0.5800  0.0859
 1932SOL    HW117429   3.208   0.959   6.176 -0.5026  0.3593 -1.0149
 1932SOL    HW217430   3.105   0.855   6.143  0.9914 -2.6970  2.0345
 1933SOL     OW17431   1.693   3.101   7.290 -0.1612  0.2480 -0.0775
 1933SOL    HW117432   1.752   3.039   7.333 -2.2065 -2.6328 -1.4380
 1933SOL    HW217433   1.663   3.053   7.213 -2.9607 -1.1693  1.9193
 1934SOL     OW17434   1.831   3.553   8.602  0.3207 -0.4148 -0.2345
 1934SOL    HW117435   1.848   3.473   8.552  0.6689 -0.1360 -0.5649
 1934SOL    HW217436   1.829   3.520   8.691  2.2045 -1.6989 -0.6607
 1935SOL     OW17437   1.721   0.903   1.945  0.2908 -0.6669  0.3729
 1935SOL    HW117438   1.724   0.984   1.893 -0.0377  1.3470  3.4629
 1935SOL    HW217439   1.629   0.903   1.971  0.4398  0.3413  0.9274
 1936SOL     OW17440   0.716   2.322   2.994 -0.1498  0.3956 -0.8003
 1936SOL    HW117441   0.622   2.312   2.980 -0.3918  0.4410  0.8639
 1936SOL    HW217442   0.717   2.402   2.941 -0.2466  0.2799 -0.9785
 1937SOL     OW17443   2.578   2.960   9.246 -0.1636  0.7788 -0.4802
 1937SOL    HW117444   2.620   2.874   9.244 -0.1441  0.7710  0.1632
 1937SOL    HW217445   2.646   3.023   9.224  0.4945  0.0366 -0.5989
 1938SOL     OW17446   2.376   2.144   8.291 -0.0012 -0.5779  0.4442
 1938SOL    HW117447   2.464   2.124   8.324 -0.1394  0.5848  1.5535
 1938SOL    HW217448   2.319   2.072   8.318  0.4634 -1.5941 -1.3128
 1939SOL     OW17449   0.607   3.464   4.518  0.0376  0.3110  0.0969
 1939SOL    HW117450   0.578   3.372   4.517 -2.3550  1.0480  1.9529
 1939SOL    HW217451   0.597   3.482   4.612  1.2479  0.5133  0.1856
 1940SOL     OW17452   0.860   0.471   1.923  0.8300 -0.3451 -0.2562
 1940SOL    HW117453   0.914   0.414   1.868  1.1950 -1.3328  1.1276
 1940SOL    HW217454   0.842   0.533   1.853  2.5014  1.8295  1.2370
 1941SOL     OW17455   1.537   4.350   8.913  0.2248 -0.5886 -0.2611
 1941SOL    HW117456   1.540   4.396   8.997 -1.3683 -0.5263 -0.2282
 1941SOL    HW217457   1.548   4.428   8.858  0.3607 -0.4947 -0.1023
 1942SOL     OW17458   2.574   2.634   2.287 -0.4821 -0.2347  0.7554
 1942SOL    HW117459   2.630   2.711   2.281  2.0446 -2.0582  0.9340
 1942SOL    HW217460   2.493   2.684   2.300 -1.9991 -2.5826  0.2142
 1943SOL     OW17461   2.032   3.754  17.297 -0.1936  0.5673 -0.2645
 1943SOL    HW117462   2.125   3.756  17.317  0.1244  0.4978 -1.7395
 1943SOL    HW217463   2.016   3.664  17.267 -1.4292  0.5977  0.2955
 1944SOL     OW17464   0.071   1.313   4.488 -0.5457  0.8236 -0.3157
 1944SOL    HW117465   0.019   1.350   4.417 -0.4890  0.8885 -0.3226
 1944SOL    HW217466   0.104   1.386   4.540  1.3241 -1.3933  1.6282
 1945SOL     OW17467   1.020   1.635   3.427 -0.0811  0.4209 -0.5924
 1945SOL    HW117468   1.037   1.710   3.370  1.4061  0.0220 -0.6948
 1945SOL    HW217469   0.930   1.641   3.459  0.2726 -2.4656  0.9299
 1946SOL     OW17470   2.445   1.337   7.096  0.3306 -0.2090  0.3992
 1946SOL    HW117471   2.464   1.278   7.169  0.2398 -0.6756  0.0448
 1946SOL    HW217472   2.527   1.342   7.046  0.8661 -2.4001  1.0244
 1947SOL     OW17473   3.162   4.556   8.812  0.0053  0.9710  0.3560
 1947SOL    HW117474   3.144   4.648   8.831 -1.8648  0.9801 -1.5411
 1947SOL    HW217475   3.141   4.507   8.892 -1.6152 -1.6135 -1.6895
 1948SOL     OW17476   3.568   4.513   7.676  0.1860 -0.3016  0.2967
 1948SOL    HW117477   3.620   4.448   7.629  0.1314  0.2431 -0.5204
 1948SOL    HW217478   3.637   4.567   7.717 -0.0168 -0.8569  1.3805
 1949SOL     OW17479   1.016   0.690   6.043  0.4995 -0.1734  0.3764
 1949SOL    HW117480   0.990   0.598   6.049 -0.0035 -0.1207 -1.1786
 1949SOL    HW217481   0.977   0.722   5.962  1.4093 -3.0642 -1.1682
 1950SOL     OW17482   4.428   3.340   8.529  0.2077  0.0042  0.0182
 1950SOL    HW117483   4.469   3.419   8.494  0.1615 -0.1515 -0.3933
 1950SOL    HW217484   4.476   3.273   8.479  0.3162  0.5580 -0.6240
 1951SOL     OW17485   4.234   3.282   8.291 -0.3854 -0.0416 -0.2932
 1951SOL    HW117486   4.175   3.225   8.241  0.3603  0.3133 -1.5709
 1951SOL    HW217487   4.168   3.329   8.342 -0.1476 -0.2107  0.1741
 1952SOL     OW17488   1.276   1.046   3.807  0.1737 -0.6783 -0.0077
 1952SOL    HW117489   1.364   1.081   3.822 -0.1657  0.1884 -0.0032
 1952SOL    HW217490   1.286   0.981   3.737  0.1076  1.1295 -1.7110
 1953SOL     OW17491   0.278   0.096   1.260  0.3855 -0.5445  0.1834
 1953SOL    HW117492   0.303   0.098   1.352  1.5011 -1.1485 -0.1050
 1953SOL    HW217493   0.212   0.165   1.251  0.1694 -0.5840  1.5474
 1954SOL     OW17494   2.160   3.076   7.312  0.0276  0.0182  0.8146
 1954SOL    HW117495   2.183   3.169   7.311 -0.9313  0.2722  1.4098
 1954SOL    HW217496   2.155   3.054   7.405 -0.3917  0.2126  0.8426
 1955SOL     OW17497   1.660   2.166   7.772  0.6897  0.5643  0.2415
 1955SOL    HW117498   1.634   2.254   7.797  1.2705  1.0365 -0.8135
 1955SOL    HW217499   1.754   2.182   7.759  0.5054  1.1460 -0.3457
 1956SOL     OW17500   3.061   4.527   1.630 -0.1983  0.2094  0.0169
 1956SOL    HW117501   3.151   4.530   1.663  0.7279  2.8622 -2.8538
 1956SOL    HW217502   3.006   4.542   1.707  0.7334 -0.0466  0.7373
 1957SOL     OW17503   4.001   1.230   2.166  0.1428  0.4891  0.6173
 1957SOL    HW117504   3.934   1.200   2.227  0.7545 -1.6732  0.2348
 1957SOL    HW217505   4.042   1.147   2.141 -2.5822 -0.4506 -0.8029
 1958SOL     OW17506   1.040   3.948   7.047  0.6378 -0.2091  0.3670
 1958SOL    HW117507   1.086   3.872   7.010 -0.6149 -0.2538 -1.0818
 1958SOL    HW217508   0.955   3.913   7.073 -0.2039  1.3913 -0.2078
 1959SOL     OW17509   0.904   1.995   2.350  1.2134  0.1250 -0.1657
 1959SOL    HW117510   0.959   2.028   2.421  1.0922  0.5891 -0.2886
 1959SOL    HW217511   0.831   2.055   2.360  1.7790  0.7863  0.0149
 1960SOL     OW17512   3.685   2.071  12.690 -0.6962 -1.1122 -0.1092
 1960SOL    HW117513   3.778   2.091  12.684 -0.6072 -1.6621 -0.5106
 1960SOL    HW217514   3.676   2.076  12.785  1.1400  2.0079 -0.0960
 1961SOL     OW17515   2.539   4.635   5.788  0.1752 -0.4269 -0.1046
 1961SOL    HW117516   2.612   4.622   5.727 -0.3587  1.6718 -1.2231
 1961SOL    HW217517   2.491   4.553   5.775  1.4071 -1.2560  0.5900
 1962SOL     OW17518   2.196   0.972   7.860  0.2163 -0.2467  0.4088
 1962SOL    HW117519   2.165   0.886   7.833 -1.2541 -0.1801  1.8774
 1962SOL    HW217520   2.290   0.956   7.865  0.1700 -1.3680 -2.1373
 1963SOL     OW17521   0.149   2.913   1.853 -0.4528 -0.0611 -0.8393
 1963SOL    HW117522   0.199   2.839   1.820 -0.1504 -0.2416  0.0213
 1963SOL    HW217523   0.135   2.887   1.944 -0.7467  1.5049 -0.4324
 1964SOL     OW17524   1.381   3.461   5.662  0.3857 -0.3402  0.0238
 1964SOL    HW117525   1.423   3.503   5.737  0.9546 -2.3695  0.8404
 1964SOL    HW217526   1.397   3.371   5.689  1.7074  0.0084  0.4104
 1965SOL     OW17527   3.234   4.033   4.945 -0.8888  0.4957  0.1520
 1965SOL    HW117528   3.297   4.036   5.017 -0.9241 -0.9105  0.2492
 1965SOL    HW217529   3.221   3.939   4.929 -0.3165  0.3663  0.4529
 1966SOL     OW17530   4.177   2.517   9.123 -0.2014 -0.1195  0.6616
 1966SOL    HW117531   4.184   2.596   9.070 -0.8360 -0.6762 -0.2366
 1966SOL    HW217532   4.268   2.518   9.152 -0.0340 -2.0181  0.1742
 1967SOL     OW17533   0.417   3.904   7.038 -0.2855 -0.0784  0.3098
 1967SOL    HW117534   0.393   3.979   6.984  1.8872  1.6150  1.6805
 1967SOL    HW217535   0.447   3.831   6.985  2.0535  0.3557  1.0585
 1968SOL     OW17536   4.093   1.760   7.592 -0.4791 -0.0839 -0.4995
 1968SOL    HW117537   4.036   1.820   7.639 -2.1124 -1.4186 -0.7723
 1968SOL    HW217538   4.165   1.820   7.571  0.1463 -0.4715  0.5212
 1969SOL     OW17539   2.742   3.578   8.031 -0.3141 -0.1143  0.1559
 1969SOL    HW117540   2.663   3.523   8.029 -0.8723  0.6624  0.9512
 1969SOL    HW217541   2.728   3.622   8.115  0.5317  0.0919  0.1905
 1970SOL     OW17542   3.477   2.797   3.242  0.0770  0.2571 -0.3665
 1970SOL    HW117543   3.495   2.864   3.175 -1.1681  1.2231  0.2609
 1970SOL    HW217544   3.566   2.799   3.277  1.4429  0.9445 -3.8173
 1971SOL     OW17545   3.665   2.287   8.425  0.5257  0.2193 -0.4439
 1971SOL    HW117546   3.698   2.223   8.363  0.7516  0.9493 -1.0745
 1971SOL    HW217547   3.736   2.293   8.489 -0.0230  0.9728  0.0973
 1972SOL     OW17548   0.961   2.071   5.095 -0.2172  0.7128 -0.1240
 1972SOL    HW117549   0.955   2.108   5.183  1.5800  0.9337 -0.0953
 1972SOL    HW217550   0.950   1.978   5.115  0.6285  0.4230 -0.9920
 1973SOL     OW17551   3.891   0.277   3.869 -0.5111  0.0862 -0.3574
 1973SOL    HW117552   3.930   0.210   3.814  1.0521  0.6356  0.0857
 1973SOL    HW217553   3.966   0.286   3.928 -1.5249 -0.1288  0.9648
 1974SOL     OW17554   3.294   0.596   7.544 -0.0319  0.2164 -0.1982
 1974SOL    HW117555   3.304   0.686   7.512  0.5428 -0.0440 -0.7484
 1974SOL    HW217556   3.213   0.569   7.502 -0.2396 -0.0756  0.4009
 1975SOL     OW17557   1.845   0.378   2.018 -0.2499  0.0605 -0.4493
 1975SOL    HW117558   1.840   0.433   1.940  0.9220  0.4339 -0.2644
 1975SOL    HW217559   1.756   0.369   2.051  0.4238 -1.1858  1.0497
 1976SOL     OW17560   1.681   0.772  10.021  0.6481  0.1267  0.0394
 1976SOL    HW117561   1.737   0.722   9.962 -2.7571 -2.4521 -1.0016
 1976SOL    HW217562   1.743   0.779  10.093  0.0113 -0.5760  0.6574
 1977SOL     OW17563   1.086   2.370   0.113 -0.3646 -0.1425 -0.2239
 1977SOL    HW117564   1.177   2.385   0.139 -1.1120  1.0032  1.7630
 1977SOL    HW217565   1.061   2.458   0.086  2.8791  1.2911  1.3947
 1978SOL     OW17566   1.776   2.684  14.643  0.0833 -0.7007  0.2325
 1978SOL    HW117567   1.690   2.692  14.685  1.1665  1.3853  2.0747
 1978SOL    HW217568   1.773   2.590  14.626  3.2980 -0.9678  1.1687
 1979SOL     OW17569   3.834   2.348   9.454 -0.0770 -0.3935  0.8010
 1979SOL    HW117570   3.925   2.342   9.482  0.2522 -2.6167 -0.7643
 1979SOL    HW217571   3.785   2.300   9.521 -1.0930 -0.5652 -0.0660
 1980SOL     OW17572   4.619   2.140   7.466  0.2215  0.0233  0.1032
 1980SOL    HW117573   4.644   2.210   7.406  3.3690 -0.1780  1.1996
 1980SOL    HW217574   4.683   2.161   7.533  0.5113 -0.7183  0.0643
 1981SOL     OW17575   3.433   3.899   4.030  0.4816 -0.8830 -0.3319
 1981SOL    HW117576   3.467   3.868   4.114 -0.8672 -2.7829 -0.4983
 1981SOL    HW217577   3.501   3.861   3.974  0.2606  0.3602 -1.4314
 1982SOL     OW17578   2.850   3.019  12.647  0.1430 -0.1956  0.1497
 1982SOL    HW117579   2.773   2.977  12.686  0.4886 -0.8698  0.1091
 1982SOL    HW217580   2.881   2.953  12.584  1.4368 -0.0265  0.6137
 1983SOL     OW17581   1.120   1.375  17.401 -0.4613  0.2121 -0.0581
 1983SOL    HW117582   1.075   1.320  17.337 -1.3020 -0.4299  1.0918
 1983SOL    HW217583   1.212   1.373  17.377 -0.5348 -1.6349 -0.1751
 1984SOL     OW17584   1.491   2.348  10.918  0.1494 -0.2799  0.4736
 1984SOL    HW117585   1.547   2.373  10.991 -0.9524 -1.4195  1.7209
 1984SOL    HW217586   1.513   2.256  10.906 -2.4026 -0.9928  1.2132
 1985SOL     OW17587   1.709   3.419   5.406 -0.7273 -0.0904  0.2057
 1985SOL    HW117588   1.728   3.471   5.328 -1.8162  0.1031  0.0612
 1985SOL    HW217589   1.686   3.328   5.386 -0.2588 -0.1424 -0.0743
 1986SOL     OW17590   3.267   2.620   8.638  0.5423  0.1136 -0.0772
 1986SOL    HW117591   3.202   2.690   8.651  0.4814 -0.3674  2.2623
 1986SOL    HW217592   3.252   2.551   8.702 -0.0767  0.4700  0.1651
 1987SOL     OW17593   4.458   2.802   6.393 -0.0729 -0.5714 -0.3478
 1987SOL    HW117594   4.510   2.725   6.415 -0.3572  0.0177  2.2916
 1987SOL    HW217595   4.522   2.869   6.370 -0.2419  0.0313  0.9497
 1988SOL     OW17596   1.834   0.394   1.596 -0.8075 -0.5353  0.0316
 1988SOL    HW117597   1.848   0.312   1.550  0.2378 -0.0339 -0.5460
 1988SOL    HW217598   1.768   0.381   1.665 -0.2554 -0.0565  0.6485
 1989SOL     OW17599   2.870   3.117   6.126  0.0268 -0.2981 -0.1728
 1989SOL    HW117600   2.864   3.183   6.195  3.0043  0.7054 -0.8832
 1989SOL    HW217601   2.823   3.046   6.170  1.6967 -1.3548 -0.0885
 1990SOL     OW17602   4.267   3.809  16.739  0.0025 -0.0924  0.0907
 1990SOL    HW117603   4.189   3.830  16.687 -0.2222 -1.3559 -0.0876
 1990SOL    HW217604   4.232   3.762  16.815 -0.0165 -1.9185 -1.0633
 1991SOL     OW17605   2.289   0.917   6.873 -0.3449  0.1539  0.1826
 1991SOL    HW117606   2.244   0.934   6.955 -1.5958  0.6745 -0.6158
 1991SOL    HW217607   2.381   0.931   6.896 -0.4256  0.0233  0.5877
 1992SOL     OW17608   3.636   4.295   3.361  0.2345 -0.4063 -0.1446
 1992SOL    HW117609   3.650   4.240   3.438 -0.1555  1.0880  0.9931
 1992SOL    HW217610   3.697   4.365   3.382 -0.6778  0.7427 -1.2673
 1993SOL     OW17611   1.368   2.495  11.319 -0.0759  0.6519  0.3187
 1993SOL    HW117612   1.396   2.441  11.393  0.8899 -0.3067 -0.7383
 1993SOL    HW217613   1.278   2.462  11.314  0.4525 -0.7230 -0.2043
 1994SOL     OW17614   1.743   4.277   4.137 -0.3060  0.0669 -0.5967
 1994SOL    HW117615   1.692   4.348   4.098  1.3238  1.9835  0.7412
 1994SOL    HW217616   1.831   4.305   4.111  0.5269  0.8186  2.9168
 1995SOL     OW17617   0.700   1.924  15.308 -0.0430  0.0777  0.1124
 1995SOL    HW117618   0.637   1.963  15.248  1.0123  2.2658  0.4299
 1995SOL    HW217619   0.779   1.928  15.255 -0.0909 -0.6098 -0.0212
 1996SOL     OW17620   0.311   0.304   6.096 -0.4158 -0.4010 -0.0134
 1996SOL    HW117621   0.275   0.375   6.149  0.3211  0.1989 -0.3069
 1996SOL    HW217622   0.239   0.298   6.032 -0.0387 -0.9167 -0.3876
 1997SOL     OW17623   0.020   0.818   0.558  1.0508 -0.2322  0.1482
 1997SOL    HW117624   4.733   0.896   0.507 -0.9668 -1.4486 -0.8850
 1997SOL    HW217625   4.732   0.746   0.500 -1.0950  0.7511 -0.2559
 1998SOL     OW17626   0.416   0.239   5.054  0.0461 -0.1829 -0.4637
 1998SOL    HW117627   0.403   0.316   5.109  1.1462 -0.6680  0.4831
 1998SOL    HW217628   0.345   0.260   4.993 -1.1971 -0.3514  0.9317
 1999SOL     OW17629   2.877   3.844   6.933  0.1135  0.5380  0.5765
 1999SOL    HW117630   2.927   3.795   6.998 -0.6972 -2.0214 -0.7299
 1999SOL    HW217631   2.786   3.826   6.956  0.2581 -3.2123 -1.8038
 2000SOL     OW17632   0.196   3.105  10.226 -0.5528  0.0008 -0.0563
 2000SOL    HW117633   0.237   3.025  10.259  0.4740  0.3957 -0.3942
 2000SOL    HW217634   0.262   3.129  10.162  0.7644  0.0629  1.3266
 2001SOL     OW17635   4.132   3.485   2.119 -0.2677 -0.0263  0.9961
 2001SOL    HW117636   4.055   3.465   2.067 -0.0459 -0.5407  0.8743
 2001SOL    HW217637   4.099   3.466   2.207 -0.5126 -0.6767  0.7620
 2002SOL     OW17638   1.896   0.719   2.114  0.6117  0.0373 -0.2841
 2002SOL    HW117639   1.930   0.794   2.065  0.4583 -0.2058 -0.7657
 2002SOL    HW217640   1.857   0.655   2.055 -0.3219  0.4811 -0.1519
 2003SOL     OW17641   3.122   1.618   5.701 -0.0876 -0.3099 -0.4155
 2003SOL    HW117642   3.133   1.584   5.612  1.0676  0.4647 -0.5691
 2003SOL    HW217643   3.050   1.680   5.693 -0.2573 -0.3300  1.0131
 2004SOL     OW17644   0.760   0.915   4.852 -0.2633 -0.0414  0.0945
 2004SOL    HW117645   0.768   0.841   4.791  0.9018  2.3764 -2.6664
 2004SOL    HW217646   0.762   0.999   4.807  1.4506 -0.5766 -0.8066
 2005SOL     OW17647   2.164   2.112   2.243 -0.1739 -0.3660 -0.1706
 2005SOL    HW117648   2.079   2.125   2.286 -0.4918  0.5984 -1.0887
 2005SOL    HW217649   2.155   2.040   2.180  1.0932 -0.5733 -0.1070
 2006SOL     OW17650   4.301   2.718   4.252 -0.1388 -0.2200  0.1773
 2006SOL    HW117651   4.370   2.677   4.305 -0.4547  1.6254  2.0455
 2006SOL    HW217652   4.343   2.803   4.237 -2.8200  1.1142  0.1940
 2007SOL     OW17653   0.748   4.107  10.044  0.2230 -0.4548 -0.5953
 2007SOL    HW117654   0.709   4.140   9.963 -0.1009 -3.1000 -1.5232
 2007SOL    HW217655   0.722   4.015  10.049 -0.0827 -0.3811 -0.8243
 2008SOL     OW17656   0.621   3.727   5.907  0.0406  0.2430 -0.0582
 2008SOL    HW117657   0.697   3.753   5.958 -0.0541 -2.3316  1.4062
 2008SOL    HW217658   0.560   3.800   5.918  0.7513  0.7951  0.1342
 2009SOL     OW17659   0.635   4.716   2.256 -0.1144  0.1988  0.1547
 2009SOL    HW117660   0.587   0.062   2.278 -0.6377 -0.6277  2.0236
 2009SOL    HW217661   0.615   4.714   2.162 -0.3896  0.2312  0.2136
 2010SOL     OW17662   3.234   3.943  16.008 -0.1342 -0.0189  0.1465
 2010SOL    HW117663   3.291   4.009  15.970  0.3666 -0.8505 -0.5522
 2010SOL    HW217664   3.163   3.954  15.945 -0.5770 -0.7943  0.5047
 2011SOL     OW17665   1.832   0.380   3.323  0.0694 -0.0596  0.6789
 2011SOL    HW117666   1.901   0.445   3.314 -1.0422  0.9156 -0.8940
 2011SOL    HW217667   1.833   0.387   3.418 -0.5299  0.6470  0.6350
 2012SOL     OW17668   1.386   3.703   9.636 -0.1941  0.0645  0.3342
 2012SOL    HW117669   1.291   3.718   9.635 -0.4183 -1.1507  2.5970
 2012SOL    HW217670   1.409   3.781   9.688  2.1526 -1.3292  1.3777
 2013SOL     OW17671   4.730   4.539   0.167 -0.1841  0.1658 -0.5789
 2013SOL    HW117672   0.001   4.521   0.073 -0.0012  0.1576 -0.5676
 2013SOL    HW217673   0.040   4.624   0.178  0.0066 -0.2104  1.7501
 2014SOL     OW17674   2.828   2.996   9.665  0.1794 -0.5464  0.5795
 2014SOL    HW117675   2.834   2.902   9.681 -2.0601 -0.4672  1.8577
 2014SOL    HW217676   2.736   3.018   9.680 -0.1586 -1.7474  0.2476
 2015SOL     OW17677   0.890   4.353  17.421  1.1084  0.0034 -0.2345
 2015SOL    HW117678   0.870   4.419  17.487  0.1661  0.1661 -0.6858
 2015SOL    HW217679   0.851   4.389  17.341  2.2663 -1.4819 -1.4662
 2016SOL     OW17680   1.407   1.918  15.127  0.6434 -0.0574 -0.1648
 2016SOL    HW117681   1.446   1.855  15.068  0.3423 -0.4772  0.0805
 2016SOL    HW217682   1.396   1.866  15.207 -1.2149 -1.1231 -1.1196
 2017SOL     OW17683   2.679   1.468  10.863 -0.2695  0.2813 -0.6583
 2017SOL    HW117684   2.739   1.400  10.831  0.7126  0.5315  0.6667
 2017SOL    HW217685   2.650   1.430  10.946  1.2866  1.6101  0.4840
 2018SOL     OW17686   0.290   0.987  16.604 -0.1188  0.5658  0.5030
 2018SOL    HW117687   0.339   0.908  16.581 -0.1136  1.0182 -1.0769
 2018SOL    HW217688   0.222   0.944  16.655  0.2402  1.2925  1.5926
 2019SOL     OW17689   0.616   2.255   3.827 -0.3959 -1.0234  0.6214
 2019SOL    HW117690   0.623   2.181   3.767  1.7488 -0.6499  0.4091
 2019SOL    HW217691   0.638   2.217   3.912  0.8124 -0.3801  0.6041
 2020SOL     OW17692   3.585   3.185   7.792  0.0267 -0.0454  0.2840
 2020SOL    HW117693   3.651   3.239   7.836 -0.2896  2.3095 -2.1303
 2020SOL    HW217694   3.598   3.208   7.700  0.1363  0.4366  0.4230
 2021SOL     OW17695   3.453   4.054  13.823  0.3296  0.2856 -0.4691
 2021SOL    HW117696   3.370   4.007  13.819  1.1823 -1.1840 -0.8929
 2021SOL    HW217697   3.516   3.983  13.837 -1.6835 -1.1872  1.1390
 2022SOL     OW17698   0.311   1.821   2.330  0.2002  0.2271  0.2102
 2022SOL    HW117699   0.331   1.761   2.258  0.3250  0.2784  0.2009
 2022SOL    HW217700   0.258   1.760   2.380  1.7573  0.1416  1.7628
 2023SOL     OW17701   4.069   2.820   4.325 -0.0010 -0.0107 -0.2360
 2023SOL    HW117702   4.083   2.915   4.321  0.2480 -0.0295  0.1634
 2023SOL    HW217703   4.151   2.785   4.291  0.5707  0.6827  0.4039
 2024SOL     OW17704   2.425   4.617   0.531 -0.2868 -0.1669  0.0269
 2024SOL    HW117705   2.501   4.565   0.558  0.6549  1.8300  1.1866
 2024SOL    HW217706   2.452   4.665   0.453 -0.0892  0.3120  0.3927
 2025SOL     OW17707   2.466   4.251   9.963  1.0865 -0.1256  0.0427
 2025SOL    HW117708   2.394   4.306   9.992  1.5090 -0.7980  2.3774
 2025SOL    HW217709   2.543   4.302   9.989  1.7574 -0.3460 -1.4997
 2026SOL     OW17710   2.730   4.115   7.938  0.3328  0.2411 -0.2686
 2026SOL    HW117711   2.650   4.166   7.935 -0.8589 -1.8478 -4.7425
 2026SOL    HW217712   2.708   4.060   8.013 -1.7304 -0.7195 -1.5825
 2027SOL     OW17713   4.427   3.925   5.652  0.4886 -0.3148 -0.3126
 2027SOL    HW117714   4.479   3.973   5.587  0.0434 -0.5480 -0.8336
 2027SOL    HW217715   4.469   3.935   5.738 -0.6814 -1.3307  0.3642
 2028SOL     OW17716   0.662   3.026  10.655 -0.3276 -0.9246 -0.9913
 2028SOL    HW117717   0.637   2.947  10.608 -1.4858 -1.6191  0.7739
 2028SOL    HW217718   0.613   3.019  10.738 -0.1284  0.1533 -0.7873
 2029SOL     OW17719   0.424   4.571   6.852  0.3840  0.6126  0.0602
 2029SOL    HW117720   0.484   4.635   6.811 -0.5525  1.8459  0.6137
 2029SOL    HW217721   0.344   4.583   6.800  0.3834 -0.7810 -0.2674
 2030SOL     OW17722   2.899   0.865   5.661 -0.1732 -0.1698  0.4703
 2030SOL    HW117723   2.978   0.878   5.609 -0.1112 -0.6969  0.4321
 2030SOL    HW217724   2.941   0.841   5.743  0.4467 -0.4558  0.0686
 2031SOL     OW17725   1.893   2.144   8.290  0.1019 -0.1184 -0.0962
 2031SOL    HW117726   1.848   2.151   8.374 -1.0406 -2.1467 -0.5463
 2031SOL    HW217727   1.889   2.049   8.274  0.4336 -0.2923  0.8560
 2032SOL     OW17728   0.669   4.159  12.161 -0.1856 -0.3962 -0.4587
 2032SOL    HW117729   0.608   4.145  12.233  0.8356 -0.5713  0.3745
 2032SOL    HW217730   0.712   4.073  12.156 -0.2213 -0.4834  0.6463
 2033SOL     OW17731   2.237   2.999   2.107 -0.2033 -0.5540 -0.2233
 2033SOL    HW117732   2.312   3.059   2.103  0.3975 -1.3113 -0.4433
 2033SOL    HW217733   2.180   3.041   2.171  0.8496 -1.3953  1.2749
 2034SOL     OW17734   3.860   1.165  16.853 -0.0298  0.0001  0.1642
 2034SOL    HW117735   3.911   1.170  16.934  0.5183 -0.7128 -0.1359
 2034SOL    HW217736   3.776   1.197  16.887 -1.3478  0.0239 -3.1052
 2035SOL     OW17737   0.774   2.473  14.483 -0.5360 -0.2279 -0.2126
 2035SOL    HW117738   0.864   2.481  14.453 -0.0279  3.9451  2.3675
 2035SOL    HW217739   0.742   2.394  14.440 -0.2784  1.0088 -2.6592
 2036SOL     OW17740   3.315   1.098   6.357 -0.1848 -0.0876 -0.5979
 2036SOL    HW117741   3.253   1.170   6.347 -0.2942  0.2751  2.5393
 2036SOL    HW217742   3.359   1.084   6.273 -1.8333  1.7344 -1.7504
 2037SOL     OW17743   0.468   3.796   1.961 -0.2083 -0.6768  0.0882
 2037SOL    HW117744   0.440   3.741   1.888  1.6438 -1.2260 -0.2100
 2037SOL    HW217745   0.497   3.737   2.030  0.5601  0.8621  1.0925
 2038SOL     OW17746   3.445   0.176   3.989  0.1587  0.1501  0.1949
 2038SOL    HW117747   3.457   0.198   3.896 -5.9632  0.8854 -0.4057
 2038SOL    HW217748   3.491   0.093   3.997 -2.0115 -0.8572  2.0891
 2039SOL     OW17749   2.333   4.118   7.286 -0.3333  0.0360 -0.3150
 2039SOL    HW117750   2.427   4.102   7.295 -0.3304  1.4519  2.0714
 2039SOL    HW217751   2.317   4.071   7.204 -1.7740 -0.7022  0.3965
 2040SOL     OW17752   1.496   2.141   7.439  0.1534 -0.0350  0.2802
 2040SOL    HW117753   1.420   2.093   7.408  0.4521  1.0577 -2.1075
 2040SOL    HW217754   1.505   2.093   7.522  0.8895 -1.5064 -0.6445
 2041SOL     OW17755   4.513   2.673  15.919  0.5505  0.3273 -0.6803
 2041SOL    HW117756   4.560   2.754  15.935  1.3340  0.1392 -2.0531
 2041SOL    HW217757   4.556   2.618  15.986  1.1315  1.2772 -0.2778
 2042SOL     OW17758   4.053   1.766  14.515 -0.0373 -0.2972  0.2079
 2042SOL    HW117759   3.983   1.701  14.506 -0.2362 -0.2356  1.3161
 2042SOL    HW217760   4.120   1.731  14.457 -0.6285 -2.0379  0.5773
 2043SOL     OW17761   2.802   3.277  10.660 -0.1001 -0.2038  0.0676
 2043SOL    HW117762   2.749   3.263  10.739 -0.2822 -1.2335 -0.2269
 2043SOL    HW217763   2.808   3.371  10.672 -2.7746 -0.0634  0.3087
 2044SOL     OW17764   4.113   1.973   2.363 -0.4700  0.1455 -0.2899
 2044SOL    HW117765   4.080   1.972   2.273  0.6920  0.5728 -0.7221
 2044SOL    HW217766   4.029   1.978   2.409 -1.3244 -0.7583 -1.7409
 2045SOL     OW17767   1.527   0.989   1.342  0.3259 -0.5301  0.0058
 2045SOL    HW117768   1.518   1.062   1.404  1.2560  0.8481 -1.4851
 2045SOL    HW217769   1.445   0.941   1.357 -0.2369  0.6052  0.5823
 2046SOL     OW17770   0.582   4.290   7.763  0.2040 -0.1298 -0.1907
 2046SOL    HW117771   0.578   4.195   7.763  0.7384 -0.1446  3.1682
 2046SOL    HW217772   0.527   4.312   7.838 -0.4709  0.8201 -0.9611
 2047SOL     OW17773   3.095   3.724  16.112  0.0429  0.1536 -0.0563
 2047SOL    HW117774   3.104   3.783  16.037  0.3088  2.4178  1.7430
 2047SOL    HW217775   3.177   3.676  16.104  0.0795  0.3703 -0.9913
 2048SOL     OW17776   2.268   0.391   3.719  0.1697 -0.2740 -0.0873
 2048SOL    HW117777   2.182   0.382   3.761  1.1999  0.2337  2.1322
 2048SOL    HW217778   2.287   0.301   3.694 -1.0081 -0.6186  0.2542
 2049SOL     OW17779   1.753   4.727   8.497  0.0210  0.1458  0.1862
 2049SOL    HW117780   1.741   4.636   8.471  2.6037 -0.2526  0.3906
 2049SOL    HW217781   1.682   0.030   8.445 -1.7715  1.1277  3.3148
 2050SOL     OW17782   0.589   2.638  14.582 -0.2686  0.7504 -0.0019
 2050SOL    HW117783   0.550   2.652  14.496 -0.8317  0.1255  0.1467
 2050SOL    HW217784   0.652   2.571  14.557 -0.9194  0.1743 -0.1156
 2051SOL     OW17785   1.931   2.054   7.486 -0.5609  0.3724  0.3203
 2051SOL    HW117786   1.997   2.124   7.486 -0.0462 -0.1126  0.6121
 2051SOL    HW217787   1.891   2.058   7.399  1.0610 -0.3121 -0.4740
 2052SOL     OW17788   1.875   0.598   9.885  0.6151 -0.4210 -0.4132
 2052SOL    HW117789   1.866   0.635   9.797  0.9288 -0.0636 -0.2936
 2052SOL    HW217790   1.869   0.504   9.867  1.5384 -0.3473 -1.1191
 2053SOL     OW17791   1.715   1.013   3.130 -0.2737 -0.0222 -0.2218
 2053SOL    HW117792   1.634   0.970   3.105 -1.4759  0.6616  2.5654
 2053SOL    HW217793   1.696   1.067   3.207  1.9343  3.8272 -2.4130
 2054SOL     OW17794   2.825   3.090   4.565  0.1856 -0.1108  0.2876
 2054SOL    HW117795   2.768   3.030   4.517  0.1014  1.5637 -1.6959
 2054SOL    HW217796   2.760   3.143   4.611 -0.3955  0.3669 -1.0935
 2055SOL     OW17797   2.872   4.438   6.618 -0.2105  0.3998  0.0495
 2055SOL    HW117798   2.788   4.447   6.665  0.2081  1.3221  0.6227
 2055SOL    HW217799   2.872   4.348   6.585 -0.6006  1.1480 -1.9622
 2056SOL     OW17800   0.188   1.808   6.491  0.1119 -0.6399 -0.4597
 2056SOL    HW117801   0.191   1.786   6.398 -0.2802  0.1060 -0.6445
 2056SOL    HW217802   0.094   1.800   6.503  0.0388  0.6556 -0.2431
 2057SOL     OW17803   2.396   4.411   5.753  0.1048 -0.0519  0.1098
 2057SOL    HW117804   2.357   4.326   5.777 -0.6830  0.7500  1.6547
 2057SOL    HW217805   2.344   4.433   5.676 -0.6035 -0.3140  0.5188
 2058SOL     OW17806   1.324   0.004   9.121  0.1898  0.4419 -0.7058
 2058SOL    HW117807   1.410   4.725   9.162 -1.3741  1.1469  2.7877
 2058SOL    HW217808   1.270   0.040   9.192  0.6456 -0.0635 -0.1008
 2059SOL     OW17809   3.154   0.255   6.452 -0.1991 -0.4028 -0.1562
 2059SOL    HW117810   3.105   0.269   6.371 -1.8123 -1.2908  0.6637
 2059SOL    HW217811   3.244   0.282   6.430 -0.4207 -0.7980 -1.5439
 2060SOL     OW17812   3.844   4.704   9.632 -0.5228  0.1926 -0.4261
 2060SOL    HW117813   3.907   4.655   9.685 -1.9809 -1.4370 -0.2271
 2060SOL    HW217814   3.906   4.730   9.563 -0.8704 -0.3988 -0.9508
 2061SOL     OW17815   0.190   2.513  16.871  0.4528 -0.2295  0.3392
 2061SOL    HW117816   0.201   2.585  16.933 -1.0504  0.0892  0.2308
 2061SOL    HW217817   0.100   2.481  16.876  0.4480 -0.2129  0.3623
 2062SOL     OW17818   0.485   2.348   2.829  0.3780  1.4265 -0.9581
 2062SOL    HW117819   0.472   2.440   2.808 -1.8878  1.1344 -0.8565
 2062SOL    HW217820   0.404   2.320   2.871  1.9854  1.7008  2.2912
 2063SOL     OW17821   4.435   0.438   7.138 -0.7165 -0.3411  0.4308
 2063SOL    HW117822   4.513   0.396   7.102 -0.1313  0.9373  0.2077
 2063SOL    HW217823   4.418   0.369   7.202  0.2532 -0.0585  1.0005
 2064SOL     OW17824   3.916   3.507  15.511 -0.5889  0.5694 -0.6611
 2064SOL    HW117825   4.002   3.496  15.470 -0.1301  0.0036  0.4759
 2064SOL    HW217826   3.874   3.423  15.492  0.9141 -0.5701  1.0931
 2065SOL     OW17827   4.564   3.042   8.719  0.2181 -0.4202 -0.0824
 2065SOL    HW117828   4.618   3.098   8.663 -1.0921 -0.2909 -1.2180
 2065SOL    HW217829   4.604   3.050   8.805  3.1771  1.1973 -1.5923
 2066SOL     OW17830   1.629   1.429   7.142 -0.0688 -0.6575  0.0675
 2066SOL    HW117831   1.607   1.437   7.235  1.4854 -3.3048  0.6879
 2066SOL    HW217832   1.720   1.400   7.144  0.4989  0.9989 -2.3581
 2067SOL     OW17833   0.630   1.103   3.357 -0.2016 -0.3061 -0.3416
 2067SOL    HW117834   0.551   1.138   3.399  0.5789 -2.0998  2.6209
 2067SOL    HW217835   0.606   1.011   3.360  0.2274 -0.4055 -0.0858
 2068SOL     OW17836   0.349   2.013   9.600 -0.0098 -0.7831  0.5222
 2068SOL    HW117837   0.390   2.096   9.624 -2.1202  0.5759 -0.5104
 2068SOL    HW217838   0.290   2.044   9.531 -0.4844 -1.4362  0.6305
 2069SOL     OW17839   0.091   1.020   3.970 -0.3553 -0.0974  0.1343
 2069SOL    HW117840   0.077   0.941   3.918  0.7071  0.1940 -0.5920
 2069SOL    HW217841   0.053   0.990   4.053 -0.7276 -1.8674 -0.6817
 2070SOL     OW17842   3.410   2.151  14.641  0.3521  0.3390  0.2802
 2070SOL    HW117843   3.381   2.068  14.679 -2.6180  0.6013 -1.4619
 2070SOL    HW217844   3.461   2.124  14.565 -0.3653 -0.7040  0.1747
 2071SOL     OW17845   1.564   3.898  13.006  0.0258 -0.2417 -0.0771
 2071SOL    HW117846   1.633   3.963  13.022  0.0527 -0.2555 -0.1364
 2071SOL    HW217847   1.580   3.872  12.915 -0.8917  0.3301 -0.4068
 2072SOL     OW17848   2.170   0.933  16.212 -0.3655 -0.1024  0.0328
 2072SOL    HW117849   2.084   0.891  16.205 -0.8864  0.4916  2.7214
 2072SOL    HW217850   2.218   0.850  16.217 -1.6088 -0.7683  0.9372
 2073SOL     OW17851   4.479   1.242   8.627  0.1197 -0.0701  0.2063
 2073SOL    HW117852   4.463   1.302   8.701 -1.3418 -1.7296  1.2303
 2073SOL    HW217853   4.575   1.249   8.625  0.3203 -1.7589  3.4108
 2074SOL     OW17854   4.500   3.906   5.911  0.3055  0.4067  0.3130
 2074SOL    HW117855   4.535   3.829   5.956  1.5668  0.4162 -0.6684
 2074SOL    HW217856   4.530   3.978   5.966  0.4069  0.0013  0.7932
 2075SOL     OW17857   3.769   2.722   6.931 -0.5398 -0.3405  0.1069
 2075SOL    HW117858   3.733   2.806   6.959  0.2505 -0.3910  1.2646
 2075SOL    HW217859   3.714   2.666   6.986 -0.3950  0.9961  1.5957
 2076SOL     OW17860   1.515   0.214  10.013 -0.5262  0.2526  0.0743
 2076SOL    HW117861   1.558   0.135  10.045 -1.1916 -0.5912 -1.1451
 2076SOL    HW217862   1.450   0.230  10.082  0.7153  1.0215  1.0739
 2077SOL     OW17863   4.186   2.267  12.192  0.1754  0.1188  0.2976
 2077SOL    HW117864   4.256   2.275  12.257 -0.2691  1.3285  0.6229
 2077SOL    HW217865   4.231   2.206  12.133  2.5642  0.1849  2.0124
 2078SOL     OW17866   0.488   1.128   7.422  0.3248  0.3024  0.4794
 2078SOL    HW117867   0.537   1.045   7.414  0.8892  0.6523  0.3275
 2078SOL    HW217868   0.516   1.159   7.508 -2.7678  1.0681  1.1905
 2079SOL     OW17869   3.024   0.150   7.050 -0.0383 -0.2535  0.3295
 2079SOL    HW117870   3.095   0.178   7.108 -0.2425  0.2380  0.3407
 2079SOL    HW217871   3.059   0.195   6.972 -1.7249 -0.0949 -0.3545
 2080SOL     OW17872   2.440   2.105   7.752 -0.1942 -0.0767  0.2734
 2080SOL    HW117873   2.535   2.108   7.762 -0.0384 -2.0582 -0.5149
 2080SOL    HW217874   2.434   2.122   7.658 -0.3778  1.6005  0.5846
 2081SOL     OW17875   2.559   2.391   1.480 -0.5591 -0.1502 -0.2398
 2081SOL    HW117876   2.472   2.351   1.484 -1.4974  1.7556 -1.3766
 2081SOL    HW217877   2.581   2.391   1.387  0.3375  2.0682 -0.0385
 2082SOL     OW17878   3.597   2.997   3.074  0.3815  0.7357 -0.1589
 2082SOL    HW117879   3.690   2.976   3.076  0.8752  2.7112 -1.3145
 2082SOL    HW217880   3.587   3.084   3.034 -1.5577  0.2299 -0.7675
 2083SOL     OW17881   4.619   4.178   9.000 -0.0131 -0.4127  0.3138
 2083SOL    HW117882   4.526   4.155   8.999 -0.0153 -0.3828 -0.7077
 2083SOL    HW217883   4.658   4.111   8.944 -0.1424 -0.2231 -0.0082
 2084SOL     OW17884   1.564   2.907  15.420 -0.1019 -0.0660 -0.2929
 2084SOL    HW117885   1.592   2.870  15.504  1.1030  0.4624 -0.4569
 2084SOL    HW217886   1.640   2.963  15.403 -1.2042  0.9222 -1.9191
 2085SOL     OW17887   4.672   3.314   4.073 -0.0830  0.3544 -0.4114
 2085SOL    HW117888   4.685   3.249   4.142 -0.2668  1.1545  0.3758
 2085SOL    HW217889   4.602   3.273   4.022  0.6015  0.8021 -1.7062
 2086SOL     OW17890   1.064   3.469  16.977 -0.4608 -0.2070 -0.3919
 2086SOL    HW117891   1.000   3.472  16.906  2.0101  1.2114 -2.5728
 2086SOL    HW217892   1.129   3.529  16.942  2.2444 -3.2234 -0.5773
 2087SOL     OW17893   3.613   0.045   3.555  0.5546  0.4058  0.0501
 2087SOL    HW117894   3.646   0.080   3.473 -1.7744  1.7840 -0.2885
 2087SOL    HW217895   3.622   4.685   3.540  1.3184  0.1253  2.2586
 2088SOL     OW17896   2.981   3.592   5.149 -0.0019  0.2147 -0.1097
 2088SOL    HW117897   3.005   3.602   5.056 -0.3210  3.3349  0.1186
 2088SOL    HW217898   2.910   3.656   5.146  0.0589  0.2453 -0.9649
 2089SOL     OW17899   1.839   0.639   1.837  0.1083  0.8357 -0.5335
 2089SOL    HW117900   1.807   0.728   1.848 -1.6140  0.3656 -1.7494
 2089SOL    HW217901   1.774   0.610   1.773 -1.6905  0.8214  1.2842
 2090SOL     OW17902   2.290   2.876   6.461 -0.4215  0.0785  0.5938
 2090SOL    HW117903   2.241   2.937   6.516 -1.0989  0.7293 -0.7375
 2090SOL    HW217904   2.226   2.870   6.391 -0.3734  1.5441  0.4334
 2091SOL     OW17905   2.246   4.339   1.822  0.1308  0.7338  0.2005
 2091SOL    HW117906   2.266   4.432   1.831  0.7674  0.7260 -1.1528
 2091SOL    HW217907   2.229   4.347   1.728 -0.7641 -2.7749  0.0368
 2092SOL     OW17908   0.467   1.822   4.749  0.4299 -0.6099 -0.1677
 2092SOL    HW117909   0.425   1.902   4.781  3.8357  1.4456 -0.7751
 2092SOL    HW217910   0.560   1.845   4.744 -0.0170  1.1268 -0.5739
 2093SOL     OW17911   1.007   3.224   2.558 -0.7662 -0.3376  0.3945
 2093SOL    HW117912   1.054   3.147   2.528  1.4359  0.4585  1.8428
 2093SOL    HW217913   0.914   3.203   2.547  0.3578 -2.2680 -5.0534
 2094SOL     OW17914   1.161   0.064   5.201  0.2993 -0.2311  0.6878
 2094SOL    HW117915   1.172   4.726   5.264  0.8104  0.8247  1.7909
 2094SOL    HW217916   1.132   0.134   5.259 -0.5413  0.8017 -0.9766
 2095SOL     OW17917   0.210   3.998   2.985 -0.4230 -0.5255 -0.5059
 2095SOL    HW117918   0.166   3.929   2.935  0.1020 -2.0212  1.0469
 2095SOL    HW217919   0.304   3.983   2.973 -0.1341  0.7587  0.2188
 2096SOL     OW17920   2.992   0.681   4.598  0.4146 -0.8758 -0.3963
 2096SOL    HW117921   3.037   0.682   4.682  0.8552 -0.5366 -0.6394
 2096SOL    HW217922   3.010   0.767   4.558  1.5389 -0.5305  0.8636
 2097SOL     OW17923   2.560   4.732   4.493  0.5150  0.3283 -0.1737
 2097SOL    HW117924   2.590   0.083   4.524  1.8206 -0.7337  1.4627
 2097SOL    HW217925   2.572   4.683   4.574  0.6996 -0.3562 -0.6055
 2098SOL     OW17926   4.593   0.128   0.098  0.0680 -0.2634  0.3084
 2098SOL    HW117927   4.643   0.190   0.151  0.2513 -2.7734  3.0704
 2098SOL    HW217928   4.517   0.186   0.092 -1.9072 -2.4975  3.6253
 2099SOL     OW17929   1.858   3.476   4.491 -0.3620 -0.2860  0.1884
 2099SOL    HW117930   1.841   3.498   4.399 -2.6502 -3.5635 -0.1973
 2099SOL    HW217931   1.884   3.384   4.480  0.4260  0.0164 -0.4261
 2100SOL     OW17932   2.241   4.011   7.597 -0.2428 -0.3617 -0.7619
 2100SOL    HW117933   2.318   3.954   7.593  0.3652  0.2015  2.8257
 2100SOL    HW217934   2.266   4.101   7.576 -3.2601  1.4433  3.3488
 2101SOL     OW17935   2.100   1.863  14.285  0.0167  0.0807 -0.5570
 2101SOL    HW117936   2.191   1.855  14.314  0.1275 -0.2484 -0.9955
 2101SOL    HW217937   2.106   1.807  14.208 -1.8424  0.9014 -1.2980
 2102SOL     OW17938   4.260   0.588   7.009  0.8055 -1.2234 -0.7896
 2102SOL    HW117939   4.311   0.528   7.064  0.8565 -0.8002 -0.3745
 2102SOL    HW217940   4.283   0.554   6.923  0.7580 -0.5206 -1.0825
 2103SOL     OW17941   1.059   0.153   4.946  0.2682 -0.3486  0.3433
 2103SOL    HW117942   1.074   0.123   5.035  0.4379 -2.2353 -0.3177
 2103SOL    HW217943   1.007   0.079   4.911 -0.6074  0.3435  0.1776
 2104SOL     OW17944   0.548   1.383   7.337 -0.6117  0.1531 -0.0625
 2104SOL    HW117945   0.629   1.352   7.295 -0.0672  0.9078  0.4198
 2104SOL    HW217946   0.505   1.299   7.349 -0.6036 -0.0576 -1.5097
 2105SOL     OW17947   4.679   1.531   6.359  1.1291  0.5090  0.0326
 2105SOL    HW117948   4.599   1.582   6.366  0.3063 -0.8288  0.4475
 2105SOL    HW217949   4.646   1.445   6.385 -1.0732  2.2228  2.9508
 2106SOL     OW17950   0.112   1.966   8.501 -0.3572  0.4568 -0.2944
 2106SOL    HW117951   0.118   1.877   8.467  0.5547  1.0378 -1.6861
 2106SOL    HW217952   0.157   2.020   8.436 -0.7278 -0.1299 -1.0442
 2107SOL     OW17953   0.135   3.408   5.777  0.1518 -0.4696 -0.0447
 2107SOL    HW117954   0.121   3.496   5.743  0.7122 -0.7639 -1.0570
 2107SOL    HW217955   0.109   3.419   5.868  0.8755  0.5201  0.0424
 2108SOL     OW17956   1.383   1.581   2.930 -0.1652 -0.7456  0.0712
 2108SOL    HW117957   1.471   1.610   2.903 -0.8201  0.5439 -0.6664
 2108SOL    HW217958   1.339   1.573   2.846 -0.0141  0.1617 -0.0932
 2109SOL     OW17959   2.217   1.934   6.150 -0.3432 -0.3181  0.0383
 2109SOL    HW117960   2.152   1.897   6.210 -3.8129  0.8126 -3.0218
 2109SOL    HW217961   2.283   1.865   6.146  0.5196  0.5639 -0.8945
 2110SOL     OW17962   1.959   4.209   7.996 -0.1830  0.0604 -0.1473
 2110SOL    HW117963   2.010   4.147   8.048 -1.1479  0.1826  0.9149
 2110SOL    HW217964   1.921   4.255   8.070  1.6888  0.3492  0.6334
 2111SOL     OW17965   0.495   2.570   2.151 -0.1015  0.1174 -0.1008
 2111SOL    HW117966   0.469   2.613   2.233  1.0412  0.9027 -0.1520
 2111SOL    HW217967   0.488   2.639   2.086 -1.8760 -1.0412 -1.1704
 2112SOL     OW17968   0.847   4.529   8.317 -0.6855 -0.3265 -0.0166
 2112SOL    HW117969   0.931   4.543   8.360 -0.2118 -1.2472 -0.6246
 2112SOL    HW217970   0.795   4.484   8.384  0.3516  0.7140  1.4707
 2113SOL     OW17971   4.013   1.569   5.258  0.1944  0.2211  0.1919
 2113SOL    HW117972   4.105   1.554   5.280  0.6315  1.0271 -1.0948
 2113SOL    HW217973   4.000   1.643   5.318  0.8013 -0.4588  1.1671
 2114SOL     OW17974   2.352   1.876   1.979 -0.0194  0.2639  0.1041
 2114SOL    HW117975   2.413   1.948   1.968  0.7205 -0.3722 -0.0081
 2114SOL    HW217976   2.271   1.924   1.963 -0.2905  0.1512  1.1524
 2115SOL     OW17977   0.945   2.553   6.595  0.2058  0.1318 -0.0410
 2115SOL    HW117978   1.003   2.600   6.535  1.6897  0.0913  1.3968
 2115SOL    HW217979   1.006   2.488   6.631  0.7941  0.7155  0.0005
 2116SOL     OW17980   1.313   2.941   1.953  0.3620 -0.2138  0.4583
 2116SOL    HW117981   1.265   2.916   1.874  1.4927  0.0707 -0.3230
 2116SOL    HW217982   1.403   2.948   1.921  0.1619  1.5962  0.2985
 2117SOL     OW17983   2.319   0.918   5.580  0.0605  0.2124  1.0609
 2117SOL    HW117984   2.378   0.859   5.533 -1.5062 -0.9158  0.5088
 2117SOL    HW217985   2.269   0.961   5.511  0.2516 -1.7296 -0.2761
 2118SOL     OW17986   0.117   4.389   0.384 -0.1424  0.3161 -0.1525
 2118SOL    HW117987   0.147   4.313   0.336 -2.0605  0.8114 -2.1071
 2118SOL    HW217988   0.059   4.428   0.319  0.7061 -2.1096 -2.3349
 2119SOL     OW17989   4.302   0.658  12.701 -0.3129  0.2248  0.5722
 2119SOL    HW117990   4.385   0.680  12.745 -0.0377  1.3149 -0.5091
 2119SOL    HW217991   4.257   0.596  12.757  0.1706  1.3826  2.2652
 2120SOL     OW17992   3.299   0.948   8.493  0.8185  0.4776 -0.3467
 2120SOL    HW117993   3.349   1.019   8.454  2.5556  0.1390  1.2415
 2120SOL    HW217994   3.250   0.996   8.560 -2.4273 -0.9198 -1.7259
 2121SOL     OW17995   4.234   2.854   2.364  0.6544  0.2426  0.5468
 2121SOL    HW117996   4.213   2.928   2.308 -2.3722 -0.2583  1.0312
 2121SOL    HW217997   4.254   2.903   2.444  3.4851 -1.5174  0.9101
 2122SOL     OW17998   2.355   0.192   9.963  0.4629 -0.5000  0.1584
 2122SOL    HW117999   2.422   0.211  10.029 -0.5327  1.0407  0.7221
 2122SOL    HW218000   2.387   0.256   9.898  0.4794 -0.8520 -0.1782
 2123SOL     OW18001   4.439   1.083  11.798  0.0890  0.3496 -0.1176
 2123SOL    HW118002   4.510   1.109  11.856 -0.7448  0.3805  0.8981
 2123SOL    HW218003   4.369   1.082  11.863 -1.2936  1.4467 -1.5961
 2124SOL     OW18004   3.265   1.997   5.753  0.3127 -0.1868  0.0516
 2124SOL    HW118005   3.173   2.019   5.741  0.5488  0.0231 -1.3058
 2124SOL    HW218006   3.288   2.071   5.808 -2.7390  1.1401 -0.4491
 2125SOL     OW18007   0.558   0.428   7.359  0.2474 -0.1015  0.0960
 2125SOL    HW118008   0.607   0.371   7.300  1.3552  1.6084 -0.6336
 2125SOL    HW218009   0.472   0.386   7.367  0.8179 -1.1356  0.7778
 2126SOL     OW18010   3.817   2.466   4.306  0.7216 -0.4071  0.3213
 2126SOL    HW118011   3.878   2.530   4.270 -1.5814  1.4056 -0.3824
 2126SOL    HW218012   3.730   2.506   4.300 -0.0265 -1.8912  1.1642
 2127SOL     OW18013   1.193   1.983   0.618  0.5080  0.0850  0.5444
 2127SOL    HW118014   1.172   2.015   0.706 -1.7013 -0.0639  0.0630
 2127SOL    HW218015   1.108   1.990   0.574  0.8722 -0.3141 -0.2181
 2128SOL     OW18016   1.980   1.142  15.762 -0.0275 -0.3993  0.0577
 2128SOL    HW118017   2.045   1.102  15.820 -2.6982 -0.4566  2.9632
 2128SOL    HW218018   1.966   1.221  15.814  1.8863  0.4061 -0.6522
 2129SOL     OW18019   2.180   2.926  14.456 -0.0264 -0.1966 -0.0381
 2129SOL    HW118020   2.202   2.844  14.413  1.8286  0.6135 -0.6245
 2129SOL    HW218021   2.154   2.892  14.542  1.8531  0.5693  0.8201
 2130SOL     OW18022   3.586   0.674   0.132 -0.6841 -0.2855  0.0938
 2130SOL    HW118023   3.563   0.710   0.046  1.2791  2.2162  0.5938
 2130SOL    HW218024   3.662   0.632   0.094 -1.7371 -3.3917  1.4481
 2131SOL     OW18025   3.029   1.513  11.019  0.1364 -0.0988  0.1300
 2131SOL    HW118026   2.946   1.561  11.017  0.4684  0.3085 -3.0611
 2131SOL    HW218027   3.087   1.589  11.027  0.4541 -0.2514 -0.7597
 2132SOL     OW18028   0.442   4.626   4.419  0.1639  0.2957 -0.0984
 2132SOL    HW118029   0.457   4.719   4.435 -1.0568  0.5501 -0.3896
 2132SOL    HW218030   0.499   4.588   4.485 -2.5905 -0.8077  1.6615
 2133SOL     OW18031   1.106   1.052  10.991  0.3341  0.2118  0.1740
 2133SOL    HW118032   1.052   1.109  11.045 -0.7337 -1.2513  0.6324
 2133SOL    HW218033   1.193   1.051  11.031  0.7879  2.5095 -0.7556
 2134SOL     OW18034   3.542   3.066  11.236  0.1085  0.3276  0.8535
 2134SOL    HW118035   3.619   3.083  11.290  0.2056  0.3420  0.7102
 2134SOL    HW218036   3.485   3.035  11.306  0.3844 -1.9161  0.0653
 2135SOL     OW18037   2.118   4.379   3.591 -0.1187 -0.0110 -0.6627
 2135SOL    HW118038   2.213   4.388   3.595 -0.2828  1.8497 -0.5970
 2135SOL    HW218039   2.096   4.342   3.676 -3.2320  1.2746 -0.8834
 2136SOL     OW18040   4.339   0.273   3.121 -0.2555 -0.1038 -0.5302
 2136SOL    HW118041   4.391   0.283   3.201 -0.7975  2.2422 -0.4665
 2136SOL    HW218042   4.408   0.278   3.055 -0.0572 -2.4707 -0.4991
 2137SOL     OW18043   3.172   3.668   5.625  0.1884  0.3398  0.9033
 2137SOL    HW118044   3.184   3.587   5.575 -1.2044 -0.5517  1.9874
 2137SOL    HW218045   3.170   3.730   5.552 -1.7476 -0.2677  0.4431
 2138SOL     OW18046   0.500   3.213   4.558 -0.2349 -0.5975 -0.6554
 2138SOL    HW118047   0.573   3.161   4.591 -0.6699 -0.8630 -0.0939
 2138SOL    HW218048   0.472   3.163   4.481 -1.2784  0.4684 -0.9721
 2139SOL     OW18049   2.845   0.785   6.550  0.6773  0.2827 -0.0964
 2139SOL    HW118050   2.801   0.714   6.596  0.9072  0.1448 -0.0907
 2139SOL    HW218051   2.882   0.737   6.476  0.7598  1.1112 -0.6004
 2140SOL     OW18052   1.638   0.287   1.757 -0.0694 -0.0741 -0.3374
 2140SOL    HW118053   1.580   0.338   1.813 -0.3597 -2.0745  1.1344
 2140SOL    HW218054   1.584   0.259   1.683 -0.6890  0.4364 -0.0762
 2141SOL     OW18055   0.854   3.327   8.555  0.0044 -1.0003  0.3463
 2141SOL    HW118056   0.857   3.422   8.561 -0.4190 -0.8688 -1.3579
 2141SOL    HW218057   0.803   3.323   8.474  1.4673 -0.2366 -0.6243
 2142SOL     OW18058   3.078   3.730   2.484  0.4345  0.2884 -0.2125
 2142SOL    HW118059   3.110   3.685   2.405 -1.4418 -0.9046 -0.2748
 2142SOL    HW218060   3.084   3.817   2.443  1.4837  0.8895  1.2010
 2143SOL     OW18061   2.087   3.634   6.770  0.0446 -0.0534 -0.3516
 2143SOL    HW118062   2.158   3.578   6.801 -1.4792 -1.5568  0.4063
 2143SOL    HW218063   2.027   3.654   6.842 -1.4628 -0.5556 -1.4719
 2144SOL     OW18064   1.096   0.463   5.222  0.2750  0.6615  0.1900
 2144SOL    HW118065   1.005   0.475   5.197  0.6987 -0.8997 -2.1026
 2144SOL    HW218066   1.092   0.389   5.283 -3.6964  1.1749  0.5444
 2145SOL     OW18067   3.856   3.531   7.643 -0.3790  0.1996 -0.5189
 2145SOL    HW118068   3.873   3.448   7.688  1.1611  0.7314 -0.1340
 2145SOL    HW218069   3.869   3.597   7.711  0.9822 -0.5999 -0.0147
 2146SOL     OW18070   3.187   0.227   6.849 -0.5760 -0.6724 -0.3743
 2146SOL    HW118071   3.174   0.162   6.779 -0.3756 -0.1872 -0.8626
 2146SOL    HW218072   3.279   0.253   6.841 -1.3320  1.4347 -2.0303
 2147SOL     OW18073   1.170   2.720   6.802 -0.2223  0.5131 -0.0341
 2147SOL    HW118074   1.122   2.797   6.770  2.1467  2.1893  0.5074
 2147SOL    HW218075   1.105   2.678   6.858  1.0321 -1.1554  0.1393
 2148SOL     OW18076   0.161   0.356   0.830 -0.2538  0.0175 -0.6042
 2148SOL    HW118077   0.166   0.261   0.845 -2.6694 -0.0563 -0.2688
 2148SOL    HW218078   0.088   0.361   0.768  0.6980 -1.6783 -1.8435
 2149SOL     OW18079   3.970   0.061  11.250  0.1391  0.0982  0.1341
 2149SOL    HW118080   4.014   0.142  11.224  0.8523  0.7897  3.5087
 2149SOL    HW218081   3.877   0.076  11.234  0.0453 -1.9720 -1.2947
 2150SOL     OW18082   0.451   1.812   8.293  0.1183 -0.3402 -0.4269
 2150SOL    HW118083   0.515   1.879   8.267 -0.2263  0.2157  0.1377
 2150SOL    HW218084   0.413   1.860   8.367 -0.9496 -1.1345 -0.4659
 2151SOL     OW18085   0.305   4.596  16.361  1.0001  0.4167  0.1527
 2151SOL    HW118086   0.285   4.678  16.316  0.3099 -0.5534 -1.3147
 2151SOL    HW218087   0.236   4.599  16.427 -0.2992  1.1496 -1.2348
 2152SOL     OW18088   1.862   0.418  12.682 -0.0723 -0.0239 -0.5402
 2152SOL    HW118089   1.811   0.356  12.735 -0.3687  1.0552  0.4599
 2152SOL    HW218090   1.939   0.365  12.661  0.2998  0.9660 -1.6770
 2153SOL     OW18091   0.075   2.312   1.805 -0.7654 -0.2978  0.0301
 2153SOL    HW118092   4.719   2.289   1.782 -0.2527 -2.2300 -0.0480
 2153SOL    HW218093   0.115   2.303   1.719 -0.0792  1.4185  0.1723
 2154SOL     OW18094   2.460   0.490   7.972  0.3890 -0.2362  0.7158
 2154SOL    HW118095   2.544   0.466   7.934  0.8232  0.1316  1.4555
 2154SOL    HW218096   2.479   0.579   8.002 -0.2318  0.9978 -2.4765
 2155SOL     OW18097   0.568   2.570   8.597 -0.6247  0.1129 -0.3774
 2155SOL    HW118098   0.565   2.664   8.616 -1.3050  0.2019 -0.9511
 2155SOL    HW218099   0.623   2.558   8.519 -3.1751 -0.3497 -2.0869
 2156SOL     OW18100   2.376   1.336   4.047  0.5331  0.2082  0.1108
 2156SOL    HW118101   2.359   1.282   3.970  0.5845 -1.6084  1.3584
 2156SOL    HW218102   2.322   1.290   4.112  2.1394 -3.1182 -0.8891
 2157SOL     OW18103   1.245   2.244  11.022  0.3355 -0.0694 -0.4549
 2157SOL    HW118104   1.323   2.292  10.995  0.4371  2.4926  4.5431
 2157SOL    HW218105   1.273   2.153  11.037 -1.4613 -0.2236  2.0164
 2158SOL     OW18106   1.870   4.178   2.076  0.0324  0.4653 -0.3502
 2158SOL    HW118107   1.779   4.161   2.049 -0.0593 -0.1794  0.3515
 2158SOL    HW218108   1.894   4.256   2.028  0.8909  0.6205  0.3417
 2159SOL     OW18109   2.806   2.073   4.377  0.7233  0.1049  0.3132
 2159SOL    HW118110   2.861   2.150   4.361  0.4466 -0.1857 -2.0592
 2159SOL    HW218111   2.848   2.044   4.459  0.9952  0.3003  0.2427
 2160SOL     OW18112   2.150   4.069   6.754  0.3641 -0.1834 -0.0486
 2160SOL    HW118113   2.209   4.044   6.825  2.6940  1.6187 -1.3380
 2160SOL    HW218114   2.132   4.160   6.777 -0.1015 -0.4827  0.7878
 2161SOL     OW18115   0.473   1.108  11.900  0.5937  0.2952  0.0845
 2161SOL    HW118116   0.380   1.108  11.922  0.9107  0.9344  1.4216
 2161SOL    HW218117   0.494   1.201  11.896 -1.1934  0.7335  0.6926
 2162SOL     OW18118   0.211   1.663   8.757 -0.1861 -0.1481  0.5355
 2162SOL    HW118119   0.192   1.753   8.783 -1.6256  0.0439 -1.1794
 2162SOL    HW218120   0.130   1.628   8.719 -0.0469  0.6301 -0.4536
 2163SOL     OW18121   2.226   2.230   2.508 -0.1793  0.5814  0.1738
 2163SOL    HW118122   2.196   2.318   2.488  0.3730  1.1207  1.7344
 2163SOL    HW218123   2.224   2.196   2.418  1.5688 -0.6283  0.5890
 2164SOL     OW18124   1.704   2.171   2.913 -0.0523 -0.4899 -0.6290
 2164SOL    HW118125   1.701   2.081   2.947 -0.6499 -1.0409 -2.0945
 2164SOL    HW218126   1.614   2.187   2.883  0.7818  0.5218 -2.5940
 2165SOL     OW18127   0.792   2.742   5.406 -0.5631 -0.4129 -0.6825
 2165SOL    HW118128   0.714   2.745   5.351  0.1446  0.8352 -1.6107
 2165SOL    HW218129   0.858   2.781   5.349 -0.4225  0.3161 -0.0201
 2166SOL     OW18130   3.964   0.484   5.677 -0.6251  0.0784  0.6821
 2166SOL    HW118131   3.872   0.503   5.656 -1.6138 -4.5485  0.7885
 2166SOL    HW218132   3.966   0.389   5.681 -3.4252 -0.0449 -0.3373
 2167SOL     OW18133   2.893   4.236   4.984  0.1327 -0.1535  0.2028
 2167SOL    HW118134   2.979   4.251   5.025  0.9762  0.7680 -1.9016
 2167SOL    HW218135   2.926   4.227   4.894  1.2661  2.9099  0.2746
 2168SOL     OW18136   4.018   2.405   4.897 -0.3188 -0.7169  0.6289
 2168SOL    HW118137   4.041   2.316   4.869 -2.3051 -0.7814 -0.8634
 2168SOL    HW218138   3.957   2.388   4.969 -1.4920  1.4834  0.1565
 2169SOL     OW18139   4.120   1.403  14.589 -1.0568  0.2053  0.2542
 2169SOL    HW118140   4.039   1.439  14.551  0.5919  0.6164 -2.9301
 2169SOL    HW218141   4.161   1.393  14.503 -0.9223  0.7781  0.2468
 2170SOL     OW18142   0.922   3.625   8.536  0.9709  0.8369  0.0527
 2170SOL    HW118143   0.900   3.581   8.618 -0.5109 -0.6170 -1.1571
 2170SOL    HW218144   1.006   3.588   8.509 -0.5287 -0.1579 -3.2363
 2171SOL     OW18145   2.856   2.671   6.235  1.0526  0.2835  0.2673
 2171SOL    HW118146   2.825   2.646   6.149 -0.9608  1.4278  0.6607
 2171SOL    HW218147   2.807   2.620   6.300  3.6598 -2.5360  0.0426
 2172SOL     OW18148   1.126   3.693   5.836 -0.3209 -0.2009 -0.5149
 2172SOL    HW118149   1.069   3.768   5.817  0.2399  0.2705 -0.3345
 2172SOL    HW218150   1.125   3.636   5.758 -0.3986 -1.7358  0.6018
 2173SOL     OW18151   1.080   3.160   2.934  0.5510 -0.2020 -0.4160
 2173SOL    HW118152   1.149   3.192   2.993 -0.5011 -0.8245  1.1609
 2173SOL    HW218153   1.007   3.221   2.948  0.9256  0.1032  0.2539
 2174SOL     OW18154   3.264   2.466   0.872  0.3603  0.0128  0.8411
 2174SOL    HW118155   3.201   2.525   0.830  2.2462  2.6592  1.6499
 2174SOL    HW218156   3.204   2.414   0.924  2.4829 -1.0619  2.2078
 2175SOL     OW18157   3.997   0.910   5.556  0.2648 -0.3300  0.5130
 2175SOL    HW118158   4.054   0.959   5.615  1.7496  0.8538 -1.9192
 2175SOL    HW218159   3.970   0.835   5.610  0.4601  0.9207  2.3257
 2176SOL     OW18160   0.825   3.744  12.486  0.2194  0.0053  0.3239
 2176SOL    HW118161   0.853   3.810  12.549  0.7273  0.1541 -0.0638
 2176SOL    HW218162   0.903   3.733  12.431 -0.7527 -0.3878 -0.9857
 2177SOL     OW18163   2.805   4.444   1.733  0.1312  0.4709  0.0112
 2177SOL    HW118164   2.812   4.401   1.817  0.3903  0.3159 -0.0896
 2177SOL    HW218165   2.723   4.493   1.738 -1.5723 -2.2584 -1.3302
 2178SOL     OW18166   2.156   0.091   8.036  0.6563 -0.0434 -0.0887
 2178SOL    HW118167   2.226   0.154   8.022 -0.5633  0.4427 -4.2140
 2178SOL    HW218168   2.176   0.054   8.122  1.5615  0.8470  0.0709
 2179SOL     OW18169   0.575   3.328   3.690 -0.0963  0.0874 -0.1346
 2179SOL    HW118170   0.514   3.265   3.728 -1.4650  0.7284 -1.2616
 2179SOL    HW218171   0.559   3.410   3.737  0.9201 -0.8027  1.7735
 2180SOL     OW18172   2.030   0.936   1.992 -0.3680 -0.1504 -0.1403
 2180SOL    HW118173   2.106   0.984   1.958 -0.0092  1.2945  2.7117
 2180SOL    HW218174   1.976   0.923   1.914 -1.8346 -1.9484  1.1819
 2181SOL     OW18175   0.769   2.324   6.301  0.3718  0.4838  0.0233
 2181SOL    HW118176   0.830   2.254   6.281 -1.2699  0.0970 -3.5715
 2181SOL    HW218177   0.821   2.400   6.276 -3.4359  2.6021 -1.3939
 2182SOL     OW18178   0.965   1.540   5.237 -0.0988  0.0107  0.5464
 2182SOL    HW118179   1.018   1.518   5.313  1.0432  1.2815  0.1048
 2182SOL    HW218180   0.976   1.468   5.174 -2.1869  0.1237  0.0257
 2183SOL     OW18181   4.531   1.633  14.539 -0.1428  0.0821  0.4760
 2183SOL    HW118182   4.527   1.553  14.592 -0.2821 -1.4983 -1.9320
 2183SOL    HW218183   4.438   1.647  14.521  0.5931  1.0871 -2.4918
 2184SOL     OW18184   1.971   0.124   1.570 -0.2047 -0.6439  0.0221
 2184SOL    HW118185   2.016   0.111   1.653 -0.7415 -1.1730  0.2269
 2184SOL    HW218186   2.031   0.182   1.522  0.4412 -0.9162  0.4992
 2185SOL     OW18187   0.221   2.687  12.577  0.0978  0.5156 -0.2352
 2185SOL    HW118188   0.184   2.679  12.664 -0.0556 -0.5169 -0.4005
 2185SOL    HW218189   0.145   2.718  12.527 -0.0890 -1.6503 -1.2822
 2186SOL     OW18190   0.279   4.713   7.829  0.1815 -0.0766 -0.1478
 2186SOL    HW118191   0.266   4.620   7.843 -0.0617 -0.1532 -0.9008
 2186SOL    HW218192   0.364   4.715   7.784  0.5945 -2.3827  0.5352
 2187SOL     OW18193   0.594   0.104   1.131  0.5146 -0.1644 -0.0234
 2187SOL    HW118194   0.586   0.128   1.039  0.2175 -0.6206 -0.1188
 2187SOL    HW218195   0.561   0.186   1.167  2.5775  1.8560 -2.7510
 2188SOL     OW18196   4.304   2.464   0.560  0.2080 -0.2376  0.5787
 2188SOL    HW118197   4.255   2.395   0.606 -0.5039 -1.2455 -1.7306
 2188SOL    HW218198   4.330   2.414   0.483 -1.5664  0.7853 -0.6542
 2189SOL     OW18199   4.111   1.042  16.954 -0.3661  0.4310 -0.0143
 2189SOL    HW118200   4.137   1.118  17.006  1.1164  0.6421 -1.0492
 2189SOL    HW218201   4.095   0.978  17.023  1.6107 -0.4885 -0.3927
 2190SOL     OW18202   3.282   0.918   3.710  0.5777  0.3049  0.3486
 2190SOL    HW118203   3.239   0.953   3.788  0.4430 -0.6883  0.7137
 2190SOL    HW218204   3.267   0.825   3.728  0.2903  0.0050 -1.4747
 2191SOL     OW18205   3.111   1.912   2.984  0.2165  0.2530 -0.7833
 2191SOL    HW118206   3.059   1.993   2.981 -1.4132 -0.7804 -0.6461
 2191SOL    HW218207   3.062   1.843   3.029  0.9773  0.8445  0.9699
 2192SOL     OW18208   1.583   0.559   6.892 -0.4426 -0.0658  0.0514
 2192SOL    HW118209   1.590   0.472   6.932  0.1662  0.9384  2.1079
 2192SOL    HW218210   1.491   0.571   6.913 -0.0553 -0.9334  2.2109
 2193SOL     OW18211   2.458   2.655   6.447  0.2540  0.3513  0.1138
 2193SOL    HW118212   2.502   2.650   6.532  2.1044  1.1359 -0.7959
 2193SOL    HW218213   2.409   2.737   6.450  2.8519  1.8887  0.2296
 2194SOL     OW18214   3.990   0.650  13.572 -0.4188 -0.0871  0.0864
 2194SOL    HW118215   3.970   0.674  13.662 -0.4806  0.0318  0.0415
 2194SOL    HW218216   3.921   0.701  13.529  0.5617 -0.5428 -2.0312
 2195SOL     OW18217   3.732   3.929   6.811 -0.5305 -0.4743 -0.4361
 2195SOL    HW118218   3.749   3.901   6.721 -0.5535  2.3449 -1.3303
 2195SOL    HW218219   3.675   4.002   6.787  0.4864  1.1433  2.0712
 2196SOL     OW18220   2.283   4.616   1.848 -0.3388  0.3750  0.0791
 2196SOL    HW118221   2.232   4.693   1.822 -0.2377  1.2119  2.3346
 2196SOL    HW218222   2.270   4.612   1.943 -0.0422 -1.7127  0.0333
 2197SOL     OW18223   1.837   0.953  12.650 -0.0947 -0.4098  0.3082
 2197SOL    HW118224   1.871   0.952  12.740  2.6024 -2.2499 -0.7422
 2197SOL    HW218225   1.820   0.859  12.642  2.5797 -0.8563 -0.1442
 2198SOL     OW18226   4.692   3.893   2.889 -0.2662  0.2667  0.2837
 2198SOL    HW118227   4.693   3.964   2.954  1.1691  0.1774  0.3641
 2198SOL    HW218228   4.658   3.820   2.940 -0.0812 -0.6680 -0.9252
 2199SOL     OW18229   4.323   1.110  12.606  0.8233 -0.1800  0.1945
 2199SOL    HW118230   4.237   1.121  12.646  2.1649  0.3051  2.9749
 2199SOL    HW218231   4.345   1.189  12.557 -1.0485  0.8758  1.0618
 2200SOL     OW18232   1.112   4.656  13.257  0.2006  0.3571  0.0861
 2200SOL    HW118233   1.107   4.692  13.346  0.4098 -1.8957  1.0353
 2200SOL    HW218234   1.207   4.643  13.251  0.1862 -0.5223  1.7081
 2201SOL     OW18235   4.440   4.686  10.953 -0.0272  0.4419  0.1631
 2201SOL    HW118236   4.370   4.630  10.919  0.4496 -0.4303  0.6311
 2201SOL    HW218237   4.509   4.623  10.973 -0.8704 -0.2196  0.9680
 2202SOL     OW18238   4.328   3.455   2.567 -0.7419  0.3031 -0.2978
 2202SOL    HW118239   4.253   3.511   2.587 -0.1194  2.0886 -3.0618
 2202SOL    HW218240   4.321   3.400   2.645  0.5327  0.1017 -0.3183
 2203SOL     OW18241   2.760   4.506   5.661  0.0695 -0.2197  0.1526
 2203SOL    HW118242   2.825   4.562   5.703  1.8267 -0.9187 -1.5909
 2203SOL    HW218243   2.772   4.527   5.568 -0.6544 -1.6766 -0.2711
 2204SOL     OW18244   1.630   0.310  12.509 -0.0254 -0.0900  0.4867
 2204SOL    HW118245   1.679   0.229  12.492 -0.5049 -0.2836  0.0318
 2204SOL    HW218246   1.695   0.379  12.521  1.6370 -1.6810  0.7666
 2205SOL     OW18247   4.064   3.941   3.318  0.0930 -0.3583 -0.2703
 2205SOL    HW118248   4.108   3.864   3.281 -0.2548 -0.3319 -0.7326
 2205SOL    HW218249   4.028   3.905   3.399 -0.8235  0.4972 -0.3043
 2206SOL     OW18250   0.978   4.264   4.621  0.0189  0.9863  0.3080
 2206SOL    HW118251   0.921   4.263   4.544  0.9434  0.8183 -0.3722
 2206SOL    HW218252   1.042   4.194   4.609 -1.5297 -1.0170  4.0308
 2207SOL     OW18253   4.022   2.714   1.217  0.0599 -0.0131  0.2413
 2207SOL    HW118254   3.992   2.690   1.129  1.7625 -1.1508 -0.0270
 2207SOL    HW218255   3.938   2.730   1.261 -0.7767 -1.5561 -0.7722
 2208SOL     OW18256   1.078   0.207   4.554  0.5130  0.6768 -0.6737
 2208SOL    HW118257   1.148   0.158   4.597  0.8392  0.6105 -1.2912
 2208SOL    HW218258   1.005   0.160   4.594  1.0441  0.2263 -0.2347
 2209SOL     OW18259   2.984   3.017   9.448  0.4914  0.4808 -0.3655
 2209SOL    HW118260   2.936   3.006   9.530  2.5500 -1.5637  0.5541
 2209SOL    HW218261   2.906   3.018   9.392  0.7366  0.7372 -0.7035
 2210SOL     OW18262   0.791   2.939   6.820 -0.1415  0.4259  0.0110
 2210SOL    HW118263   0.776   2.877   6.891 -2.0423  0.5029 -0.3032
 2210SOL    HW218264   0.765   3.025   6.855 -0.2796 -0.4030  1.9553
 2211SOL     OW18265   1.361   0.801   9.424 -0.7627 -0.1372 -0.4596
 2211SOL    HW118266   1.393   0.884   9.388 -0.2186 -0.2389 -0.2024
 2211SOL    HW218267   1.413   0.792   9.504 -0.9924 -0.0798 -0.3012
 2212SOL     OW18268   2.424   3.543  14.420 -0.2981  0.1624 -0.2363
 2212SOL    HW118269   2.465   3.457  14.412  1.7960  0.5645  5.7763
 2212SOL    HW218270   2.370   3.526  14.498  0.1755 -0.7014 -0.0929
 2213SOL     OW18271   0.903   1.344   6.971 -0.3871  0.9959 -0.0699
 2213SOL    HW118272   0.905   1.375   6.881  0.0578  2.5710  0.4655
 2213SOL    HW218273   0.981   1.293   6.992 -0.6655  1.0968  1.2560
 2214SOL     OW18274   3.501   0.709   3.453  0.1626  0.2226 -0.0388
 2214SOL    HW118275   3.596   0.715   3.463 -0.0702  0.7569  1.8040
 2214SOL    HW218276   3.474   0.798   3.473 -1.4535 -0.2976  0.0577
 2215SOL     OW18277   2.295   3.742  17.340  0.3036 -0.1375 -0.1827
 2215SOL    HW118278   2.306   3.747  17.435 -0.6633 -0.3635 -0.0563
 2215SOL    HW218279   2.388   3.746  17.319  0.5585  0.4883  1.0811
 2216SOL     OW18280   0.558   3.757  12.451  0.3588  0.2565  0.1521
 2216SOL    HW118281   0.651   3.749  12.469  0.3382  0.9920  0.6260
 2216SOL    HW218282   0.554   3.719  12.364 -1.3015  1.9484 -0.5208
 2217SOL     OW18283   1.664   0.756  11.124 -0.3905 -0.8239 -0.4964
 2217SOL    HW118284   1.619   0.826  11.076 -0.1159 -0.3034  0.0070
 2217SOL    HW218285   1.751   0.796  11.130  0.3774 -2.0553 -3.4043
 2218SOL     OW18286   1.881   2.010   7.069 -0.1292  0.2669 -0.1928
 2218SOL    HW118287   1.953   2.074   7.063  0.3862 -0.2754  0.1920
 2218SOL    HW218288   1.817   2.059   7.121 -0.7107 -0.2266 -0.4522
 2219SOL     OW18289   4.232   4.208   2.628 -0.0308 -0.2747 -0.3869
 2219SOL    HW118290   4.317   4.178   2.595  0.8188 -0.1066  1.6409
 2219SOL    HW218291   4.234   4.299   2.599 -0.0740 -0.7795 -1.9334
 2220SOL     OW18292   4.233   2.713   9.474 -0.1872  0.2147  0.0521
 2220SOL    HW118293   4.268   2.795   9.440 -0.1490  0.1117 -0.1565
 2220SOL    HW218294   4.309   2.690   9.527 -0.1767 -0.1119 -0.1070
 2221SOL     OW18295   4.692   3.399  15.040  0.1160  0.2378  0.1068
 2221SOL    HW118296   4.597   3.383  15.038 -0.0345  1.0977  0.4046
 2221SOL    HW218297   4.731   3.313  15.051  1.5735  0.8224 -0.4666
 2222SOL     OW18298   2.565   3.684   4.737  0.4561  0.6821  0.3943
 2222SOL    HW118299   2.615   3.765   4.729  0.4653  0.8607  2.1473
 2222SOL    HW218300   2.488   3.696   4.682  1.1346  0.2576 -0.6383
 2223SOL     OW18301   1.404   2.308  14.142  0.4753 -0.0533  0.4779
 2223SOL    HW118302   1.412   2.276  14.052 -0.9375 -2.8445  1.3329
 2223SOL    HW218303   1.484   2.360  14.146 -0.1728  0.8886  1.2133
 2224SOL     OW18304   0.716   0.139   4.610 -0.1662 -0.0070 -0.0163
 2224SOL    HW118305   0.685   0.149   4.700 -0.0072 -0.8123  0.1257
 2224SOL    HW218306   0.747   0.048   4.613  0.5955  0.3139  2.0110
 2225SOL     OW18307   1.124   1.171  15.675 -0.3079  0.3440  0.1467
 2225SOL    HW118308   1.137   1.265  15.659  1.7419  0.3500  1.8557
 2225SOL    HW218309   1.063   1.144  15.607 -1.0866  1.7542  0.2783
 2226SOL     OW18310   3.255   2.687   4.868  0.0055  0.3154  0.0135
 2226SOL    HW118311   3.236   2.623   4.800 -1.0933 -0.9956  1.5748
 2226SOL    HW218312   3.202   2.753   4.824 -0.2901  0.3615  0.4493
 2227SOL     OW18313   4.518   1.558   7.247  0.0822  0.5093 -0.0931
 2227SOL    HW118314   4.460   1.498   7.201 -0.8042  1.0026  0.3782
 2227SOL    HW218315   4.503   1.532   7.338  0.7917  1.3287  0.2594
 2228SOL     OW18316   3.065   0.429   6.700 -0.3364  0.1464 -0.9763
 2228SOL    HW118317   3.110   0.384   6.771 -2.1497  1.2893  0.8915
 2228SOL    HW218318   3.143   0.437   6.645  0.8482  0.2670  0.7327
 2229SOL     OW18319   3.474   0.597   3.195  0.3009 -0.0965 -0.1554
 2229SOL    HW118320   3.481   0.630   3.284  1.1152  1.5039 -0.8187
 2229SOL    HW218321   3.439   0.674   3.151  0.0452  1.8222  3.4485
 2230SOL     OW18322   2.821   1.675   4.867 -0.4280  0.5928 -0.5224
 2230SOL    HW118323   2.839   1.581   4.863  0.8116  0.8538 -1.2747
 2230SOL    HW218324   2.896   1.709   4.916  0.2177 -1.5505 -0.0353
 2231SOL     OW18325   2.678   0.815   4.804  0.7369 -0.0163  0.4100
 2231SOL    HW118326   2.693   0.823   4.710  2.7516  2.6245  0.9806
 2231SOL    HW218327   2.592   0.856   4.797  1.9532  2.4726  0.0995
 2232SOL     OW18328   0.289   1.416   8.370 -0.0757  0.4193 -0.0623
 2232SOL    HW118329   0.361   1.371   8.415  1.0866  1.8678 -0.4709
 2232SOL    HW218330   0.319   1.436   8.282  1.2493 -0.6375  0.1542
 2233SOL     OW18331   2.964   3.100  17.102 -0.5494 -0.0608 -0.2323
 2233SOL    HW118332   2.943   3.025  17.046 -1.7486  0.5384 -0.5938
 2233SOL    HW218333   3.034   3.067  17.158 -0.3485 -0.6011 -0.8068
 2234SOL     OW18334   0.471   0.379   3.209  0.3868  0.8130  0.1727
 2234SOL    HW118335   0.523   0.415   3.282 -0.0473  0.9262  0.4272
 2234SOL    HW218336   0.545   0.347   3.158  1.0210  0.1956  1.4594
 2235SOL     OW18337   0.063   1.555   7.315  0.5187  0.6472  0.2253
 2235SOL    HW118338   4.727   1.521   7.258  0.9291 -0.7999  0.6113
 2235SOL    HW218339   0.046   1.506   7.395  0.0410  1.2956  0.5243
 2236SOL     OW18340   4.483   0.677   5.775 -0.0522 -0.3602 -0.7715
 2236SOL    HW118341   4.563   0.642   5.815 -0.2319  1.4694  1.1679
 2236SOL    HW218342   4.516   0.767   5.771 -1.1290  0.1190  1.7355
 2237SOL     OW18343   4.027   3.980   8.279  0.2907 -0.2340  0.0441
 2237SOL    HW118344   3.932   3.974   8.287  0.5157 -1.0024  2.0752
 2237SOL    HW218345   4.056   3.928   8.354 -3.1972  1.6216  2.6825
 2238SOL     OW18346   0.319   1.192   0.820  0.3706  0.3258 -0.3257
 2238SOL    HW118347   0.411   1.212   0.802  0.8519 -0.7534  0.9091
 2238SOL    HW218348   0.335   1.122   0.883  0.5769 -1.2436 -2.1235
 2239SOL     OW18349   3.635   3.978  10.210 -0.5166 -0.5993  0.0556
 2239SOL    HW118350   3.650   3.885  10.194 -1.2920 -0.9056  1.0685
 2239SOL    HW218351   3.679   3.981  10.295  1.0498 -1.7821 -0.7128
 2240SOL     OW18352   4.121   1.630   7.849 -0.5786  0.1573  0.4324
 2240SOL    HW118353   4.115   1.682   7.769 -1.9949 -1.8403 -0.7815
 2240SOL    HW218354   4.135   1.693   7.920 -1.4697  0.9857 -0.1266
 2241SOL     OW18355   0.688   4.617  10.894 -0.1351  0.4008  0.6071
 2241SOL    HW118356   0.668   4.524  10.908 -1.2659  0.2691 -1.7949
 2241SOL    HW218357   0.664   4.638  10.804  0.3299 -1.9576 -0.0671
 2242SOL     OW18358   3.428   3.789   7.061 -0.7013 -0.6189  0.7605
 2242SOL    HW118359   3.399   3.824   6.977  0.3071  1.3523  1.2246
 2242SOL    HW218360   3.343   3.752   7.083 -2.0218  1.6822 -0.5175
 2243SOL     OW18361   1.303   0.502  16.772  0.1097 -0.5510  0.1148
 2243SOL    HW118362   1.389   0.517  16.813  0.1485  1.1918 -0.5977
 2243SOL    HW218363   1.312   0.413  16.739  0.4016 -0.2632 -0.5700
 2244SOL     OW18364   1.581   0.245   9.472 -0.4599 -0.1413  0.3813
 2244SOL    HW118365   1.591   0.238   9.567 -0.0313 -0.8915  0.2775
 2244SOL    HW218366   1.623   0.165   9.441 -3.2447 -1.1524 -0.7044
 2245SOL     OW18367   4.559   0.078   9.814  0.2680  0.8598 -0.2928
 2245SOL    HW118368   4.612   0.016   9.863 -0.1695 -0.3280 -1.2996
 2245SOL    HW218369   4.484   0.020   9.808  0.7881 -0.1306  3.1399
 2246SOL     OW18370   3.449   0.455   4.920  0.1295  0.3859  0.4326
 2246SOL    HW118371   3.535   0.426   4.951 -0.3536  0.3007  1.6560
 2246SOL    HW218372   3.451   0.460   4.824  3.6233  3.6129  0.6781
 2247SOL     OW18373   1.062   1.769   6.180  0.0474  0.5129  0.0221
 2247SOL    HW118374   0.973   1.799   6.169 -0.9299 -1.8895  1.2576
 2247SOL    HW218375   1.104   1.833   6.122  1.4575 -0.2221  0.2202
 2248SOL     OW18376   3.532   0.741   4.818 -0.2157  0.0928  0.1010
 2248SOL    HW118377   3.506   0.670   4.760 -0.4426 -0.2524  0.6220
 2248SOL    HW218378   3.581   0.790   4.752 -1.8106 -0.2461 -1.3206
 2249SOL     OW18379   0.450   4.163   3.959 -0.8544 -0.1316 -0.3276
 2249SOL    HW118380   0.440   4.248   4.000  1.5036 -1.1101  2.2734
 2249SOL    HW218381   0.464   4.178   3.865  1.0506  0.3360  0.0265
 2250SOL     OW18382   3.593   0.247   7.164  0.1183  0.2466  0.4652
 2250SOL    HW118383   3.636   0.162   7.172 -0.1699  0.2265  1.7539
 2250SOL    HW218384   3.514   0.213   7.122  0.3179  0.9106 -0.4451
 2251SOL     OW18385   1.268   3.188   1.415 -0.0488 -0.2771  0.0284
 2251SOL    HW118386   1.332   3.146   1.473 -0.5428 -2.5571 -1.0663
 2251SOL    HW218387   1.257   3.124   1.345 -0.1352  1.2385 -1.3354
 2252SOL     OW18388   2.649   3.375   6.191  0.1300 -0.2696 -0.7289
 2252SOL    HW118389   2.635   3.389   6.097 -0.3587 -3.2294 -1.0935
 2252SOL    HW218390   2.563   3.360   6.228 -0.4336  0.0529 -1.9110
 2253SOL     OW18391   2.001   4.580   6.643 -0.3360 -0.0981  0.7183
 2253SOL    HW118392   1.947   4.577   6.722  0.9253 -1.1903  1.5468
 2253SOL    HW218393   2.087   4.553   6.678 -0.3954 -1.2853 -0.0657
 2254SOL     OW18394   4.371   3.400  14.144  0.2675  0.3295  0.5097
 2254SOL    HW118395   4.281   3.431  14.154  0.9218  2.7500 -1.1212
 2254SOL    HW218396   4.385   3.352  14.226 -0.0820  0.9135  0.9148
 2255SOL     OW18397   0.475   2.059  16.110 -0.7057 -0.3842 -0.1052
 2255SOL    HW118398   0.502   2.151  16.119 -0.1052 -0.7184  1.3938
 2255SOL    HW218399   0.527   2.012  16.176 -0.6239  0.5553  0.5012
 2256SOL     OW18400   1.647   0.590   7.402  0.4041 -0.1266  0.3612
 2256SOL    HW118401   1.583   0.523   7.377 -1.1766  1.0210  1.3653
 2256SOL    HW218402   1.699   0.603   7.323 -0.5460 -0.5977 -0.3394
 2257SOL     OW18403   0.777   3.986   7.306 -0.1753 -0.2285  0.3465
 2257SOL    HW118404   0.756   3.931   7.231 -3.3814  1.9891 -0.3848
 2257SOL    HW218405   0.796   3.913   7.365  0.7941 -0.4287 -0.2183
 2258SOL     OW18406   1.666   0.043   1.856  0.0684  0.8938 -0.3052
 2258SOL    HW118407   1.698   4.718   1.788  1.3789  0.0385  1.0583
 2258SOL    HW218408   1.651   0.128   1.814 -1.3105  2.2534  2.9577
 2259SOL     OW18409   1.079   4.687  13.529  0.4263  0.0818  0.2141
 2259SOL    HW118410   1.066   4.605  13.576 -1.6592 -0.1068 -0.6883
 2259SOL    HW218411   1.000   0.001  13.555 -1.0397 -2.5607  0.7034
 2260SOL     OW18412   3.751   2.853  16.708  0.3127  0.3141  1.0001
 2260SOL    HW118413   3.663   2.837  16.675  0.1228  0.6077  1.3643
 2260SOL    HW218414   3.749   2.815  16.796  1.2010  0.4346  1.0715
 2261SOL     OW18415   4.274   1.872  14.694 -0.3598 -0.0107  0.2915
 2261SOL    HW118416   4.294   1.919  14.613  0.7778 -0.4050  0.3445
 2261SOL    HW218417   4.308   1.927  14.764  0.2670 -1.4387  1.1130
 2262SOL     OW18418   1.644   4.112   5.835  0.2579  0.2069 -0.4626
 2262SOL    HW118419   1.671   4.162   5.912  1.0889  1.1339 -1.3672
 2262SOL    HW218420   1.712   4.046   5.822  0.9136  0.8324 -0.2262
 2263SOL     OW18421   2.096   0.106  17.718 -0.0659 -0.4492 -0.7049
 2263SOL    HW118422   2.030   0.066   0.040  0.6484  2.5837  2.2651
 2263SOL    HW218423   2.084   0.197   0.010  1.5320 -0.2868 -0.5434
 2264SOL     OW18424   3.953   4.008  11.949 -0.1389 -0.4795 -0.1377
 2264SOL    HW118425   3.917   4.071  11.887 -4.6658 -1.1688  1.8120
 2264SOL    HW218426   4.015   4.065  11.996  0.3984 -0.7127 -0.5621
 2265SOL     OW18427   3.102   2.718  10.700 -0.2618 -0.0324 -0.3060
 2265SOL    HW118428   3.060   2.655  10.758 -0.4187  1.3037  1.0226
 2265SOL    HW218429   3.177   2.745  10.752  0.5148  0.5681 -1.7227
 2266SOL     OW18430   1.490   3.620   2.830 -0.4650  0.6284  0.4695
 2266SOL    HW118431   1.399   3.626   2.860 -1.3946 -0.4818 -2.1132
 2266SOL    HW218432   1.516   3.546   2.885 -0.2326  0.1721 -0.2618
 2267SOL     OW18433   1.474   4.606   5.173 -0.0753 -0.1016 -0.3229
 2267SOL    HW118434   1.505   4.515   5.172  1.5250  0.4618 -1.5336
 2267SOL    HW218435   1.386   4.597   5.138 -0.1140  2.1049 -0.7932
 2268SOL     OW18436   0.258   0.997  12.103 -0.3628  0.3225 -0.2564
 2268SOL    HW118437   0.169   1.004  12.138 -0.4054 -0.0097 -0.2913
 2268SOL    HW218438   0.310   1.018  12.181 -3.1130 -3.9169  2.7892
 2269SOL     OW18439   0.095   4.164   1.441 -0.0207 -0.2853 -0.4648
 2269SOL    HW118440   0.008   4.202   1.457  0.9128  1.4693  0.4644
 2269SOL    HW218441   0.116   4.215   1.363  2.4242  0.8202  0.9285
 2270SOL     OW18442   0.112   1.380   0.836  0.3010 -0.3297 -0.4476
 2270SOL    HW118443   0.172   1.314   0.802  1.5293  0.5952 -0.0733
 2270SOL    HW218444   0.057   1.328   0.894  0.7478 -2.7011 -2.1706
 2271SOL     OW18445   2.935   0.787   5.363 -0.3141 -0.1472 -0.0253
 2271SOL    HW118446   2.969   0.784   5.273  0.2514  1.5737  0.1321
 2271SOL    HW218447   2.985   0.862   5.395 -1.2891  0.0512  1.0223
 2272SOL     OW18448   2.805   2.439  10.488 -0.2711 -0.5402 -0.1858
 2272SOL    HW118449   2.834   2.519  10.442 -0.9796  0.3028  0.8475
 2272SOL    HW218450   2.779   2.392  10.409 -1.6085 -0.3249  0.1232
 2273SOL     OW18451   0.603   0.128   9.186 -0.8231  0.4762 -0.0772
 2273SOL    HW118452   0.617   0.097   9.097 -2.2074 -0.4506  0.0459
 2273SOL    HW218453   0.508   0.126   9.195 -0.9132  0.4801 -1.0557
 2274SOL     OW18454   0.313   2.895   8.286 -0.1369  0.0522 -0.6092
 2274SOL    HW118455   0.282   2.818   8.238 -3.9232  1.0584  0.1729
 2274SOL    HW218456   0.238   2.954   8.277 -1.3498 -1.4339 -0.3938
 2275SOL     OW18457   4.074   0.324   8.655  0.0073 -0.1256  0.6349
 2275SOL    HW118458   4.088   0.413   8.623 -0.1243  0.6643  2.7607
 2275SOL    HW218459   4.105   0.347   8.743 -1.4491 -0.2303  1.1813
 2276SOL     OW18460   0.948   2.247   8.311  0.1024 -0.2070 -0.5848
 2276SOL    HW118461   0.972   2.168   8.262  0.4563 -0.2656 -0.3234
 2276SOL    HW218462   1.035   2.273   8.343 -0.5125 -1.9394  2.5232
 2277SOL     OW18463   3.978   0.129   0.909 -0.0134 -0.5024  0.0824
 2277SOL    HW118464   4.067   0.100   0.931  0.5913 -0.0027 -1.6941
 2277SOL    HW218465   3.933   0.053   0.945 -0.3461 -0.5712 -0.4754
 2278SOL     OW18466   0.250   3.993   3.621 -0.3003 -0.5707  0.1190
 2278SOL    HW118467   0.235   4.080   3.585 -0.4880 -0.6682 -0.0357
 2278SOL    HW218468   0.224   3.934   3.551  0.9586 -1.0510  0.0574
 2279SOL     OW18469   0.036   0.277   8.704  0.0080  0.1531 -0.0512
 2279SOL    HW118470   0.123   0.240   8.693 -0.1192 -0.0369 -0.4411
 2279SOL    HW218471   0.012   0.258   8.795  0.1253  2.4605  0.4453
 2280SOL     OW18472   3.204   4.096   6.246  0.8126 -0.2951 -0.0659
 2280SOL    HW118473   3.280   4.147   6.275  1.1526 -0.9487  0.2026
 2280SOL    HW218474   3.157   4.084   6.328  0.0264  2.4705 -0.1045
 2281SOL     OW18475   3.331   4.041   6.560 -0.3128  0.9009  0.3080
 2281SOL    HW118476   3.274   3.966   6.549  1.3244  0.0635 -2.5327
 2281SOL    HW218477   3.363   4.017   6.647  0.7493 -1.9016 -0.8640
 2282SOL     OW18478   0.871   1.959   9.036  0.3409 -0.8971 -0.5430
 2282SOL    HW118479   0.898   1.979   8.946 -0.6117 -0.3718 -0.7095
 2282SOL    HW218480   0.874   2.044   9.079  1.1514 -0.1698 -2.0189
 2283SOL     OW18481   3.522   2.294  15.268  0.0349 -0.0169 -0.0587
 2283SOL    HW118482   3.459   2.222  15.281 -2.1611  2.1129  1.0640
 2283SOL    HW218483   3.557   2.277  15.181 -0.7281  0.1847 -0.4118
 2284SOL     OW18484   2.577   3.753  16.561  0.5243  0.3637  0.0140
 2284SOL    HW118485   2.535   3.668  16.575 -1.2130  0.8085 -2.4355
 2284SOL    HW218486   2.630   3.720  16.489  0.4037  0.1996  0.0014
 2285SOL     OW18487   0.636   2.656   6.923  0.2937 -0.4237  0.4409
 2285SOL    HW118488   0.675   2.634   6.838  0.2328  1.9010 -0.2076
 2285SOL    HW218489   0.544   2.664   6.897  0.2088 -2.2889  0.1379
 2286SOL     OW18490   0.392   4.535   8.720  0.4309  0.2004  0.2786
 2286SOL    HW118491   0.457   4.581   8.666  1.9568 -1.6264  0.5644
 2286SOL    HW218492   0.314   4.588   8.701  0.5139  0.4910  0.7538
 2287SOL     OW18493   1.825   4.460   8.510  0.3637 -0.3699  0.6785
 2287SOL    HW118494   1.829   4.366   8.495 -0.0670  0.0512 -2.0794
 2287SOL    HW218495   1.909   4.484   8.549 -0.5415  0.8809  1.8681
 2288SOL     OW18496   1.619   1.640  13.955 -0.7971 -0.0051  0.3138
 2288SOL    HW118497   1.637   1.632  14.049 -0.9898 -0.6586  0.2919
 2288SOL    HW218498   1.550   1.575  13.948  1.2802 -2.3253  1.3754
 2289SOL     OW18499   2.178   0.931  12.723  0.1432 -0.5519  0.7815
 2289SOL    HW118500   2.272   0.948  12.732 -0.1925  1.8068 -0.5328
 2289SOL    HW218501   2.139   1.015  12.702 -0.0662 -0.8727 -0.0951
 2290SOL     OW18502   1.666   0.327   6.032 -0.2791 -0.2124 -0.2907
 2290SOL    HW118503   1.603   0.359   5.966  0.6462  1.0162 -0.5772
 2290SOL    HW218504   1.719   0.272   5.974  0.3280  0.1473 -0.0770
 2291SOL     OW18505   2.194   1.359   7.343 -0.8133  0.1231  0.1868
 2291SOL    HW118506   2.264   1.311   7.387  0.8781  1.2575 -1.2513
 2291SOL    HW218507   2.247   1.420   7.291 -0.0968 -0.6002  0.0771
 2292SOL     OW18508   3.094   1.358   7.216  0.1532  0.1690  0.2240
 2292SOL    HW118509   3.020   1.418   7.210  1.0769  1.2470 -0.2762
 2292SOL    HW218510   3.072   1.282   7.271 -0.5398  0.2860  0.1083
 2293SOL     OW18511   0.893   4.606  17.551 -0.4835  0.4693 -0.7521
 2293SOL    HW118512   0.964   4.643  17.604 -0.7841 -0.0149 -0.0081
 2293SOL    HW218513   0.894   4.680  17.490  2.6779  0.1828 -1.0076
 2294SOL     OW18514   4.233   3.938   5.886  0.0452 -0.8921 -0.2792
 2294SOL    HW118515   4.316   3.898   5.862  0.1145 -0.3368 -0.9721
 2294SOL    HW218516   4.195   3.932   5.799  0.1976 -0.2368 -0.3937
 2295SOL     OW18517   1.573   0.662  14.738  0.0014 -0.3634 -0.7888
 2295SOL    HW118518   1.568   0.725  14.810 -0.1264 -0.9256 -0.3072
 2295SOL    HW218519   1.662   0.637  14.762 -0.3285 -1.0535 -0.3031
 2296SOL     OW18520   2.377   3.544  14.971 -0.3904  0.4252  0.2016
 2296SOL    HW118521   2.284   3.522  14.971 -0.0726 -0.8969 -2.5855
 2296SOL    HW218522   2.391   3.581  15.058  1.3193  0.8995 -0.2904
 2297SOL     OW18523   3.836   2.398  10.525 -0.2379  0.2893 -0.7140
 2297SOL    HW118524   3.822   2.488  10.553 -0.4224 -0.3601  1.2711
 2297SOL    HW218525   3.780   2.350  10.587 -0.0968 -1.3659 -1.8778
 2298SOL     OW18526   1.667   1.963   3.492  0.3622 -0.6043 -0.3901
 2298SOL    HW118527   1.683   2.028   3.561  1.5805 -2.1080  0.7626
 2298SOL    HW218528   1.577   1.992   3.484  0.4343 -0.9735 -2.3742
 2299SOL     OW18529   1.133   4.234   6.398 -0.3510  0.2482  0.2263
 2299SOL    HW118530   1.065   4.281   6.350  0.0811  1.6977  1.0164
 2299SOL    HW218531   1.213   4.276   6.367  0.9576 -2.1976  0.3361
 2300SOL     OW18532   4.197   3.136   3.321  0.3635  0.8431  0.2602
 2300SOL    HW118533   4.218   3.059   3.268 -2.8425 -0.0070  0.2531
 2300SOL    HW218534   4.240   3.205   3.269  0.6105 -1.0714 -2.0949
 2301SOL     OW18535   0.858   3.035   2.346 -0.2967 -0.3541 -0.3710
 2301SOL    HW118536   0.931   3.032   2.283 -0.6594  0.4123 -0.8196
 2301SOL    HW218537   0.831   3.125   2.331  0.8537 -0.0995 -0.9932
 2302SOL     OW18538   4.272   3.506   4.052  0.4390 -0.0173 -0.4747
 2302SOL    HW118539   4.209   3.521   4.123  0.4656 -2.5759  0.0921
 2302SOL    HW218540   4.355   3.543   4.083 -0.0775  0.9476 -0.2642
 2303SOL     OW18541   0.133   4.148   2.726  0.3656 -0.0142  0.2271
 2303SOL    HW118542   0.200   4.162   2.793  0.5600 -0.2999  0.0903
 2303SOL    HW218543   0.170   4.091   2.659  3.8976  0.6177  1.6707
 2304SOL     OW18544   1.477   0.147   3.560 -0.0007  0.0173 -0.2965
 2304SOL    HW118545   1.398   0.102   3.530 -0.2554  0.2889 -0.0322
 2304SOL    HW218546   1.521   0.179   3.481 -1.4835  0.7290 -0.8326
 2305SOL     OW18547   3.136   1.282  16.806 -0.3612 -0.7875  0.1195
 2305SOL    HW118548   3.094   1.353  16.758  1.6122  1.2535  1.3894
 2305SOL    HW218549   3.122   1.208  16.747 -0.3716 -0.3707 -0.3955
 2306SOL     OW18550   1.988   3.037  10.372  0.0073 -0.4995 -0.4587
 2306SOL    HW118551   1.931   3.101  10.413  1.8086  2.0544 -1.9754
 2306SOL    HW218552   1.944   2.957  10.400 -3.6526  1.7618  0.2509
 2307SOL     OW18553   0.986   2.861   3.140 -0.3876 -0.1053 -0.4079
 2307SOL    HW118554   1.045   2.858   3.215 -1.4878  1.8977  0.5215
 2307SOL    HW218555   1.048   2.856   3.067  0.3527 -2.7802  0.3816
 2308SOL     OW18556   1.371   4.283  15.777  0.1451 -0.1139  0.5926
 2308SOL    HW118557   1.379   4.350  15.845 -1.2970 -0.9341  1.5760
 2308SOL    HW218558   1.335   4.208  15.825 -1.6685 -0.2531 -0.9682
 2309SOL     OW18559   0.283   2.520   5.722  0.1213  0.4763  0.4011
 2309SOL    HW118560   0.240   2.471   5.792 -0.0295 -0.4771 -0.3543
 2309SOL    HW218561   0.250   2.609   5.732 -0.5046  0.3855 -0.8881
 2310SOL     OW18562   0.684   3.757  10.188 -0.3802  0.2056 -0.2229
 2310SOL    HW118563   0.699   3.759  10.094  0.3671 -2.7736 -0.1667
 2310SOL    HW218564   0.775   3.745  10.216  0.0257  1.5443 -0.9896
 2311SOL     OW18565   3.462   2.637   2.906  0.1824  0.3597 -0.3430
 2311SOL    HW118566   3.511   2.608   2.982  2.0933 -1.4226 -2.2444
 2311SOL    HW218567   3.523   2.691   2.856  0.5516  1.9486  1.8353
 2312SOL     OW18568   0.990   1.425   2.536 -0.1700 -0.0783 -0.3226
 2312SOL    HW118569   0.962   1.508   2.497 -0.6262 -0.7484 -1.4278
 2312SOL    HW218570   0.908   1.377   2.544 -0.5546  0.5606 -0.3577
 2313SOL     OW18571   0.695   2.706   5.761  0.5492  0.0003  0.1226
 2313SOL    HW118572   0.777   2.738   5.723  0.0569 -0.1940 -1.1262
 2313SOL    HW218573   0.675   2.760   5.838  0.8098  0.7861 -0.3509
 2314SOL     OW18574   0.379   1.969  17.435 -0.5725 -0.0453  0.6588
 2314SOL    HW118575   0.375   2.059  17.401 -0.3169  0.0534  0.8947
 2314SOL    HW218576   0.292   1.968  17.477 -0.1433  0.1001  1.5561
 2315SOL     OW18577   3.427   2.192   2.965  0.1262  0.1501 -0.1382
 2315SOL    HW118578   3.375   2.262   3.003  2.7548  3.0782 -1.9527
 2315SOL    HW218579   3.517   2.223   2.974  0.5691 -0.7635 -1.3331
 2316SOL     OW18580   1.565   4.147   0.988 -0.5289 -0.1869 -0.0927
 2316SOL    HW118581   1.610   4.137   1.072  2.0908  2.6446 -1.1923
 2316SOL    HW218582   1.633   4.178   0.929  1.7067 -2.1904  1.4411
 2317SOL     OW18583   1.158   1.677  15.208  0.3841 -0.4791  0.0154
 2317SOL    HW118584   1.144   1.650  15.118 -0.0665 -2.6218  0.7397
 2317SOL    HW218585   1.240   1.632  15.231  0.8716  1.7053  2.6027
 2318SOL     OW18586   2.806   2.932   9.039 -0.2065 -0.3739 -0.0842
 2318SOL    HW118587   2.802   2.895   8.951 -0.5652 -1.8361  0.5447
 2318SOL    HW218588   2.826   3.024   9.028  0.7504 -0.6963 -1.0353
 2319SOL     OW18589   0.168   0.032   4.142  0.7166  0.3056 -0.0476
 2319SOL    HW118590   0.263   0.037   4.146  0.7043  1.5766 -0.9580
 2319SOL    HW218591   0.148   4.676   4.166  0.7551  0.5395  0.8744
 2320SOL     OW18592   2.758   0.498   9.005  0.6404  0.1695  0.2163
 2320SOL    HW118593   2.724   0.551   9.077  2.4536  0.3880  0.9088
 2320SOL    HW218594   2.696   0.518   8.934  1.9257  1.2266 -0.6084
 2321SOL     OW18595   2.715   0.907  10.296 -0.0797 -0.0834  0.2856
 2321SOL    HW118596   2.693   0.914  10.389 -0.3100 -2.0477  0.3866
 2321SOL    HW218597   2.632   0.906  10.248 -0.1860 -1.7529  0.4792
 2322SOL     OW18598   3.581   3.270   1.840 -0.2922 -0.5062  0.1750
 2322SOL    HW118599   3.546   3.358   1.857  0.6224 -0.0645 -0.1883
 2322SOL    HW218600   3.555   3.202   1.902 -2.0324 -0.1273 -0.1403
 2323SOL     OW18601   1.215   3.653  12.631 -0.8866  0.4583 -0.5041
 2323SOL    HW118602   1.203   3.737  12.675 -1.2904  0.1296  0.0162
 2323SOL    HW218603   1.203   3.593  12.705 -0.3945 -0.3373 -1.0681
 2324SOL     OW18604   2.363   0.941   8.751  0.1401  0.0133 -0.3535
 2324SOL    HW118605   2.269   0.938   8.732  0.2340  0.4354 -0.8800
 2324SOL    HW218606   2.391   0.857   8.714 -0.1895 -0.2149 -0.0949
 2325SOL     OW18607   2.828   1.194  16.291  0.0085 -0.0029 -0.2376
 2325SOL    HW118608   2.910   1.200  16.339 -0.4734  1.8391  0.3811
 2325SOL    HW218609   2.773   1.142  16.348  1.1452  0.1500  0.9833
 2326SOL     OW18610   2.177   3.355   7.661 -0.8722  0.1741  0.0761
 2326SOL    HW118611   2.170   3.397   7.575 -0.5990 -2.0533 -1.0137
 2326SOL    HW218612   2.175   3.263   7.635 -1.1428 -0.2391  1.5575
 2327SOL     OW18613   0.373   2.220   2.519 -0.3432 -0.5439 -0.5249
 2327SOL    HW118614   0.419   2.303   2.511 -3.2401  1.0092 -1.2031
 2327SOL    HW218615   0.372   2.184   2.430 -1.6355  1.1823 -1.2037
 2328SOL     OW18616   2.625   2.819  14.084 -0.1158 -0.4211 -0.2057
 2328SOL    HW118617   2.608   2.807  13.990 -0.6609 -0.7557 -0.0652
 2328SOL    HW218618   2.548   2.812  14.140 -0.5871  4.4192 -0.2893
 2329SOL     OW18619   4.049   3.579   1.787  0.2528 -0.0316  0.2059
 2329SOL    HW118620   4.004   3.621   1.713  0.2910  1.4478  1.0243
 2329SOL    HW218621   4.138   3.600   1.759 -0.1921 -2.4436 -3.0339
 2330SOL     OW18622   1.803   2.964   2.028 -0.0897  0.2219  0.4051
 2330SOL    HW118623   1.774   2.875   2.044 -4.0013  1.6589  1.1648
 2330SOL    HW218624   1.723   3.004   1.995 -0.9831 -0.9560  1.1845
 2331SOL     OW18625   0.520   2.835   9.300  0.0007  0.4371  0.0200
 2331SOL    HW118626   0.563   2.755   9.331 -2.4382 -0.8202  0.1691
 2331SOL    HW218627   0.532   2.899   9.369  2.1600  1.1508 -1.0403
 2332SOL     OW18628   1.156   1.637   8.743 -0.0852 -0.6577  0.2756
 2332SOL    HW118629   1.162   1.615   8.836  0.7254  0.7295  0.5416
 2332SOL    HW218630   1.249   1.642   8.720 -0.4906 -0.5483 -1.3473
 2333SOL     OW18631   1.855   0.737   6.615 -0.6775  0.6580 -0.0167
 2333SOL    HW118632   1.833   0.649   6.645  1.7214 -0.1974 -0.8165
 2333SOL    HW218633   1.773   0.760   6.571 -1.7469 -1.4423  0.8969
 2334SOL     OW18634   3.880   1.118   9.489 -0.3204  0.1155 -0.3550
 2334SOL    HW118635   3.798   1.074   9.513  0.1302 -0.3618  0.3038
 2334SOL    HW218636   3.897   1.170   9.568 -1.1958  1.4017 -1.0098
 2335SOL     OW18637   1.398   0.435   1.868  0.3533 -0.0558 -0.0152
 2335SOL    HW118638   1.338   0.500   1.831 -0.1610 -0.5447 -0.0427
 2335SOL    HW218639   1.334   0.375   1.905  0.4090 -1.5872 -2.4024
 2336SOL     OW18640   1.434   3.086   2.607  0.1666 -0.1949 -0.0516
 2336SOL    HW118641   1.468   3.030   2.677 -1.9909 -1.1397  0.2489
 2336SOL    HW218642   1.402   3.155   2.664 -0.6025 -1.0640  0.5657
 2337SOL     OW18643   3.152   2.954   8.525 -0.5113 -0.1646 -0.4544
 2337SOL    HW118644   3.227   2.946   8.585  0.0056 -0.0984 -1.0901
 2337SOL    HW218645   3.140   3.049   8.523 -0.5804 -0.2005 -1.5541
 2338SOL     OW18646   1.700   1.336   2.317  0.3196  0.4808 -0.3531
 2338SOL    HW118647   1.619   1.304   2.357  0.8293 -0.8366 -0.3465
 2338SOL    HW218648   1.745   1.255   2.292 -0.1968  0.7340 -2.0452
 2339SOL     OW18649   4.384   1.663  10.666 -0.0048  0.2149 -0.6319
 2339SOL    HW118650   4.437   1.664  10.745 -3.2519  4.0960  1.5234
 2339SOL    HW218651   4.341   1.578  10.668  0.3115  0.0330 -1.6557
 2340SOL     OW18652   3.462   4.340   5.009  0.2402 -0.1545 -0.0866
 2340SOL    HW118653   3.492   4.332   4.918  0.8064 -0.4089  0.1294
 2340SOL    HW218654   3.502   4.423   5.037 -0.8493 -0.4675  2.3493
 2341SOL     OW18655   0.189   4.681   2.172 -0.4442  0.1600  0.9924
 2341SOL    HW118656   0.181   4.614   2.240  1.5194  0.9957  2.0579
 2341SOL    HW218657   0.217   4.635   2.094  2.9739  1.5581  1.4075
 2342SOL     OW18658   3.694   4.688   5.281 -0.5097  0.2071  0.2312
 2342SOL    HW118659   3.752   4.627   5.235 -0.4345 -0.0551  0.6715
 2342SOL    HW218660   3.614   4.656   5.239 -0.3030  0.6930 -0.5268
 2343SOL     OW18661   1.518   1.078   7.826 -0.1395 -0.2407  0.2616
 2343SOL    HW118662   1.553   1.004   7.875  3.5655  0.8545 -0.7018
 2343SOL    HW218663   1.592   1.081   7.765 -2.2062  1.1023 -2.1623
 2344SOL     OW18664   2.504   0.732   8.089 -0.0318 -0.1416 -0.1930
 2344SOL    HW118665   2.580   0.778   8.125 -0.8260  1.3900 -0.4823
 2344SOL    HW218666   2.431   0.773   8.135 -0.6571 -0.7150 -0.6623
 2345SOL     OW18667   4.208   2.894  12.538 -0.7982 -0.3225  0.7477
 2345SOL    HW118668   4.216   2.929  12.627  2.7056  0.1822  0.2404
 2345SOL    HW218669   4.151   2.963  12.504  1.6715  1.8114  0.9364
 2346SOL     OW18670   1.923   1.259   5.384 -0.0732 -0.0311  0.0552
 2346SOL    HW118671   1.950   1.342   5.423  0.1271  0.6345 -1.5068
 2346SOL    HW218672   2.000   1.208   5.410 -0.3644 -0.6471 -0.2890
 2347SOL     OW18673   1.576   2.936   7.116  0.1678  0.2278 -0.5021
 2347SOL    HW118674   1.517   2.922   7.042  1.4535 -1.2245 -1.2575
 2347SOL    HW218675   1.527   2.898   7.189 -0.0880 -3.3188 -2.5118
 2348SOL     OW18676   2.571   4.432  16.757  0.2970  0.7627  0.1670
 2348SOL    HW118677   2.505   4.441  16.826 -0.9551 -1.2216 -0.8148
 2348SOL    HW218678   2.537   4.497  16.696 -1.4746  0.8918  1.2758
 2349SOL     OW18679   4.150   0.488   1.076  0.1572 -0.6125  0.4197
 2349SOL    HW118680   4.199   0.488   0.995 -2.0108  0.4335 -0.8888
 2349SOL    HW218681   4.170   0.402   1.114  4.3033  0.4747  0.6635
 2350SOL     OW18682   0.398   2.272  10.984  0.4612  0.3160 -0.2617
 2350SOL    HW118683   0.476   2.220  10.967 -0.7293 -1.0069 -1.6512
 2350SOL    HW218684   0.360   2.245  10.900  2.0346 -1.2233 -0.4688
 2351SOL     OW18685   4.150   0.158   2.388  0.8808  0.0031  0.1204
 2351SOL    HW118686   4.149   0.162   2.484 -0.8259 -0.0029  0.1102
 2351SOL    HW218687   4.067   0.111   2.375 -0.5625  2.8535 -0.8852
 2352SOL     OW18688   0.594   0.889  13.925  0.4986  0.1573  0.1854
 2352SOL    HW118689   0.579   0.805  13.882  1.9986  0.1427 -0.3253
 2352SOL    HW218690   0.516   0.907  13.976 -0.0640  0.3521 -0.7386
 2353SOL     OW18691   2.274   4.651   9.962  0.0499  0.2624  0.0426
 2353SOL    HW118692   2.214   4.640   9.888  0.6707  1.3372 -0.6270
 2353SOL    HW218693   2.307   0.006   9.952 -2.6597  1.4998  2.3096
 2354SOL     OW18694   0.581   2.759   8.310  0.0128  0.3065 -0.5765
 2354SOL    HW118695   0.485   2.753   8.309 -0.1275  2.4318  0.2078
 2354SOL    HW218696   0.597   2.808   8.391  0.6974  0.0519 -0.5603
 2355SOL     OW18697   0.410   2.779  12.196  0.1558 -0.3211  0.1768
 2355SOL    HW118698   0.382   2.822  12.277  0.2802  1.3051 -0.6238
 2355SOL    HW218699   0.411   2.686  12.215 -0.2348 -0.4357 -0.3561
 2356SOL     OW18700   4.327   0.740   2.862 -0.3890  0.6935  0.3642
 2356SOL    HW118701   4.397   0.803   2.878  0.4126  0.6612 -3.2539
 2356SOL    HW218702   4.380   0.660   2.857 -0.8511  0.5755 -2.6194
 2357SOL     OW18703   2.378   0.246   1.759  0.1600 -0.0268 -0.2130
 2357SOL    HW118704   2.449   0.292   1.804  1.4985 -1.9045 -0.3815
 2357SOL    HW218705   2.308   0.305   1.787 -0.8001 -1.6382  0.8141
 2358SOL     OW18706   3.705   0.942   6.475  0.2199  0.4342 -0.2546
 2358SOL    HW118707   3.613   0.955   6.500 -0.2030 -0.5609 -1.2966
 2358SOL    HW218708   3.754   0.928   6.556  0.0843 -1.4963 -0.5224
 2359SOL     OW18709   3.570   3.315   3.641 -0.1087 -0.2397 -0.0988
 2359SOL    HW118710   3.553   3.391   3.698  1.7664 -1.0209  1.4966
 2359SOL    HW218711   3.587   3.250   3.710 -0.8162 -0.4480 -0.1173
 2360SOL     OW18712   4.266   3.034  14.599 -0.2513 -0.0822 -0.0921
 2360SOL    HW118713   4.314   2.977  14.659 -0.6603  0.3198  0.6178
 2360SOL    HW218714   4.275   3.001  14.510  1.9562  0.3522 -0.0166
 2361SOL     OW18715   3.686   3.148   2.133  0.0707 -0.2851 -0.0064
 2361SOL    HW118716   3.646   3.075   2.180 -2.4710  0.2650 -1.3304
 2361SOL    HW218717   3.604   3.190   2.109  0.7776  0.0296 -1.8603
 2362SOL     OW18718   0.032   2.540   3.089  0.5087 -0.2774 -0.6953
 2362SOL    HW118719   4.687   2.510   3.043 -1.2888  1.2335  1.4400
 2362SOL    HW218720   0.099   2.550   3.021  1.2962  0.8602  0.2615
 2363SOL     OW18721   4.353   2.326   6.748 -0.0826  0.7946 -0.2122
 2363SOL    HW118722   4.309   2.340   6.831  0.2830  1.2638 -0.0947
 2363SOL    HW218723   4.320   2.395   6.691  0.1999  1.5003  0.4822
 2364SOL     OW18724   0.455   1.938   5.525 -0.0796 -0.4462 -0.1140
 2364SOL    HW118725   0.529   1.887   5.494  0.0817 -0.0649 -0.3552
 2364SOL    HW218726   0.496   2.021   5.551  0.3705  0.2821 -3.2249
 2365SOL     OW18727   3.509   1.812   3.491 -0.4285 -0.7656  0.3872
 2365SOL    HW118728   3.579   1.870   3.460 -1.7324 -0.2549 -1.5875
 2365SOL    HW218729   3.480   1.782   3.405 -0.9849 -0.0324  0.3170
 2366SOL     OW18730   0.213   3.963  16.074 -0.0083  0.2427  0.0251
 2366SOL    HW118731   0.214   4.058  16.064  3.4720  0.2986  0.8358
 2366SOL    HW218732   0.158   3.945  16.150 -4.3237 -1.4799 -3.5215
 2367SOL     OW18733   2.936   4.724  16.436  0.1030  0.6191  0.3229
 2367SOL    HW118734   2.919   0.028  16.349 -1.1514 -1.7383 -0.4617
 2367SOL    HW218735   2.851   0.000  16.477  0.0266  0.0612  0.3039
 2368SOL     OW18736   1.209   4.502   7.214 -0.1132 -0.1972 -0.1822
 2368SOL    HW118737   1.254   4.444   7.153  2.8757  1.7562  0.1629
 2368SOL    HW218738   1.168   4.435   7.269 -0.7178 -0.2130 -0.6633
 2369SOL     OW18739   4.700   2.549   3.886 -0.4831  0.2007 -0.2771
 2369SOL    HW118740   4.690   2.560   3.980  3.3503  1.5055 -0.0282
 2369SOL    HW218741   0.044   2.494   3.891  0.0543  1.0273  0.3185
 2370SOL     OW18742   1.726   1.799  11.429  0.0730 -0.1021 -0.1201
 2370SOL    HW118743   1.741   1.855  11.352 -0.1722 -1.6263 -1.2779
 2370SOL    HW218744   1.812   1.772  11.460 -0.1055 -0.8241 -0.2556
 2371SOL     OW18745   4.456   4.076   2.553  0.5346 -0.1520 -0.6233
 2371SOL    HW118746   4.481   3.989   2.585  1.1162 -0.0341 -0.7478
 2371SOL    HW218747   4.499   4.076   2.467 -0.6163  0.5152 -1.1857
 2372SOL     OW18748   4.556   3.633   8.394 -0.3517 -0.5274  0.2546
 2372SOL    HW118749   4.522   3.582   8.320  0.8340 -1.3438  0.2658
 2372SOL    HW218750   4.646   3.654   8.368 -0.3962 -2.8701 -1.8560
 2373SOL     OW18751   0.218   3.038   6.084  0.3201  0.6799  0.3888
 2373SOL    HW118752   0.167   3.047   6.003 -2.0857 -2.3371  1.5558
 2373SOL    HW218753   0.299   3.080   6.053 -0.0035  1.4516  0.5991
 2374SOL     OW18754   2.515   3.844   7.879 -0.6057 -0.8567  0.2188
 2374SOL    HW118755   2.490   3.754   7.903 -0.9913 -0.6417  0.6082
 2374SOL    HW218756   2.512   3.890   7.962  2.4879  0.4536 -0.4106
 2375SOL     OW18757   2.964   3.340   5.269  0.1488 -0.1504 -0.2313
 2375SOL    HW118758   2.974   3.434   5.253  0.5463  0.1360  1.6883
 2375SOL    HW218759   3.050   3.301   5.258 -0.3431 -1.5228  0.8320
 2376SOL     OW18760   0.619   2.500  16.081 -0.0693 -0.1026  0.2798
 2376SOL    HW118761   0.548   2.556  16.049  0.2443 -1.0182 -1.9604
 2376SOL    HW218762   0.581   2.424  16.039  0.7731 -0.4031  0.0622
 2377SOL     OW18763   2.460   2.560   8.101 -0.2854 -0.4071  0.5411
 2377SOL    HW118764   2.427   2.471   8.095 -2.1646  0.4800 -2.6075
 2377SOL    HW218765   2.504   2.580   8.018  1.5433 -1.4895  1.2538
 2378SOL     OW18766   4.542   4.050   5.430 -0.3154  0.1277  0.7988
 2378SOL    HW118767   4.548   4.124   5.490  1.0779  1.2413 -0.7426
 2378SOL    HW218768   4.623   4.004   5.451 -0.3577  0.3515  1.4516
 2379SOL     OW18769   1.976   2.214   8.767  0.6961 -0.2527  0.7356
 2379SOL    HW118770   2.041   2.222   8.697 -1.1617 -1.6524 -1.1619
 2379SOL    HW218771   1.950   2.301   8.795  0.8534  0.4877 -1.4241
 2380SOL     OW18772   4.017   4.680   1.447 -0.0082  0.4835  0.7817
 2380SOL    HW118773   3.924   4.671   1.471  0.2694 -0.5538  1.4433
 2380SOL    HW218774   4.048   4.607   1.500  0.2616 -0.7693 -1.0925
 2381SOL     OW18775   1.939   0.177   8.401 -0.0054  0.2600  0.2399
 2381SOL    HW118776   1.945   0.216   8.488 -0.2525 -1.1682  0.9007
 2381SOL    HW218777   1.879   0.110   8.432  0.2325 -0.5258 -0.9922
 2382SOL     OW18778   1.372   0.694   4.930 -0.3247  0.3924 -0.2357
 2382SOL    HW118779   1.458   0.661   4.907 -0.9866 -1.0674 -0.6132
 2382SOL    HW218780   1.342   0.622   4.987 -0.0304  1.1785  0.9151
 2383SOL     OW18781   0.710   3.227   2.532  0.5399  1.0603 -0.0263
 2383SOL    HW118782   0.641   3.162   2.529  1.9042 -0.3898 -0.1746
 2383SOL    HW218783   0.711   3.269   2.446  0.0756 -1.0958 -1.0667
 2384SOL     OW18784   3.522   0.509   0.996  0.1469 -0.2759 -0.1204
 2384SOL    HW118785   3.503   0.598   1.024  0.3609  0.5438 -2.5365
 2384SOL    HW218786   3.453   0.516   0.930  1.2784 -1.0642 -1.3893
 2385SOL     OW18787   2.557   2.608   8.343 -0.2542  0.2136 -0.5830
 2385SOL    HW118788   2.566   2.517   8.368 -0.2402 -0.0466 -1.5165
 2385SOL    HW218789   2.530   2.604   8.251  2.1749  2.1153 -1.3621
 2386SOL     OW18790   2.339   4.177   3.053  0.8153 -0.7036  0.2656
 2386SOL    HW118791   2.429   4.209   3.052  1.3338 -2.2698 -2.0568
 2386SOL    HW218792   2.359   4.088   3.080  2.1102 -0.8496 -1.1527
 2387SOL     OW18793   0.033   3.054   4.166  0.1146 -0.8555 -0.0024
 2387SOL    HW118794   0.032   2.959   4.180  0.3165 -0.7585  0.6902
 2387SOL    HW218795   0.083   3.088   4.241  1.8566 -0.7688 -1.2086
 2388SOL     OW18796   2.341   0.960   0.564  0.2375 -0.6727  0.6215
 2388SOL    HW118797   2.331   0.885   0.506  0.4403 -0.3148  0.1178
 2388SOL    HW218798   2.301   1.034   0.518 -1.7055 -2.9775 -1.3485
 2389SOL     OW18799   2.655   1.326   7.682  0.1240 -0.1654 -0.3543
 2389SOL    HW118800   2.612   1.384   7.619  0.3525  0.5156  0.1122
 2389SOL    HW218801   2.745   1.327   7.648 -0.0958 -4.1682 -1.0665
 2390SOL     OW18802   1.596   2.399  11.161 -0.1972 -1.0920 -0.3755
 2390SOL    HW118803   1.606   2.325  11.221  0.3154 -0.7248 -0.0044
 2390SOL    HW218804   1.538   2.447  11.220 -0.8570 -0.6073 -1.4218
 2391SOL     OW18805   2.068   4.347   5.180 -0.0469  0.4275 -0.3145
 2391SOL    HW118806   1.975   4.360   5.163 -1.1431 -3.9977  2.2383
 2391SOL    HW218807   2.086   4.408   5.252  0.2343 -1.9821  1.6645
 2392SOL     OW18808   3.882   1.334  11.297  0.2095  0.0229 -0.0142
 2392SOL    HW118809   3.875   1.411  11.241  2.6288  1.2071  1.2702
 2392SOL    HW218810   3.976   1.315  11.291 -0.4965 -3.2262 -0.7418
 2393SOL     OW18811   2.298   2.806   7.587 -0.7610  0.0846  0.0738
 2393SOL    HW118812   2.301   2.799   7.492  1.3411 -1.1099  0.2146
 2393SOL    HW218813   2.386   2.835   7.610 -1.0481  0.6119  0.4892
 2394SOL     OW18814   3.123   2.734   7.006 -0.2778 -0.0870  0.1887
 2394SOL    HW118815   3.192   2.737   7.073 -1.0213 -1.1564  0.9987
 2394SOL    HW218816   3.103   2.827   6.992  0.9215 -0.0699 -1.4285
 2395SOL     OW18817   2.751   4.337   1.980  0.4725  0.3939  0.2722
 2395SOL    HW118818   2.735   4.404   2.047  2.1010  0.8636  0.2089
 2395SOL    HW218819   2.688   4.271   2.008 -1.3041  2.1575  0.5028
 2396SOL     OW18820   3.213   1.344   8.722 -0.3541 -0.0939 -0.3457
 2396SOL    HW118821   3.306   1.334   8.741 -0.2111 -1.2471 -1.6773
 2396SOL    HW218822   3.184   1.259   8.757  1.6710 -0.8504 -0.5302
 2397SOL     OW18823   0.545   2.825   9.805  0.2566  0.0450 -0.1382
 2397SOL    HW118824   0.623   2.839   9.751  0.4281 -3.6452 -0.8306
 2397SOL    HW218825   0.480   2.884   9.766  1.4954  0.4718 -1.6132
 2398SOL     OW18826   0.862   4.462  15.250  0.5078 -0.3603  0.7668
 2398SOL    HW118827   0.919   4.429  15.320  0.2380 -0.0009  1.1592
 2398SOL    HW218828   0.928   4.482  15.184  1.2111  1.2943  1.9698
 2399SOL     OW18829   3.102   0.651  14.758  0.2722 -0.1439 -0.3560
 2399SOL    HW118830   3.124   0.559  14.767  0.6741 -0.2352 -2.4382
 2399SOL    HW218831   3.124   0.674  14.668 -0.0784  1.3176 -0.0672
 2400SOL     OW18832   0.231   4.468   6.598  0.8013 -0.1658 -0.1146
 2400SOL    HW118833   0.297   4.517   6.549  1.7510 -0.4766  0.8657
 2400SOL    HW218834   0.186   4.541   6.640  1.0654  1.0368 -1.9288
 2401SOL     OW18835   0.414   0.986   0.981 -0.0510  0.0285 -0.4007
 2401SOL    HW118836   0.503   0.951   0.982 -0.2207 -0.4048 -0.3894
 2401SOL    HW218837   0.380   0.953   1.064  2.0677 -0.5650  0.2109
 2402SOL     OW18838   2.432   4.495   6.052  0.4825  0.0544  1.0274
 2402SOL    HW118839   2.418   4.486   5.958  1.1335  0.6696  0.8721
 2402SOL    HW218840   2.527   4.506   6.060  0.4241  0.0262  1.7922
 2403SOL     OW18841   3.972   4.550  14.641 -0.1216  0.5950  0.5072
 2403SOL    HW118842   4.066   4.554  14.626 -0.1944 -1.1457 -0.3788
 2403SOL    HW218843   3.971   4.632  14.692 -0.2781  1.7704 -1.4052
 2404SOL     OW18844   0.600   1.491   9.680 -0.0113  0.5884 -0.0950
 2404SOL    HW118845   0.667   1.427   9.699 -1.7748 -0.8997  1.1560
 2404SOL    HW218846   0.643   1.570   9.713 -0.4013 -0.1213  2.1339
 2405SOL     OW18847   0.253   0.597   4.041 -0.5463  0.0793  0.6259
 2405SOL    HW118848   0.314   0.641   4.099  0.5340  0.0040 -0.4613
 2405SOL    HW218849   0.294   0.510   4.042 -1.0508 -0.1741  0.1228
 2406SOL     OW18850   4.093   1.514   1.778 -0.0617  0.3227 -0.4259
 2406SOL    HW118851   4.180   1.481   1.756 -0.7574 -2.5918  1.1046
 2406SOL    HW218852   4.068   1.543   1.691 -2.5572 -0.4811  0.0020
 2407SOL     OW18853   4.475   2.797   8.607 -0.2727 -1.0723 -0.4665
 2407SOL    HW118854   4.521   2.766   8.685  1.1099  2.3976  0.0826
 2407SOL    HW218855   4.504   2.888   8.599 -0.5416 -0.8059  1.8036
 2408SOL     OW18856   3.220   2.251   7.499  0.1629  0.0302  0.0021
 2408SOL    HW118857   3.132   2.287   7.488  0.4493  0.3198 -1.4025
 2408SOL    HW218858   3.234   2.180   7.436 -1.2209 -1.9429  1.9342
 2409SOL     OW18859   4.700   0.473  17.708  0.1625  0.1343  0.0023
 2409SOL    HW118860   4.683   0.566  17.720  0.1101 -0.0488  1.3250
 2409SOL    HW218861   4.626   0.448  17.654  0.6093  1.3115 -1.1401
 2410SOL     OW18862   1.481   0.635   5.243  0.3472  0.1690  0.2050
 2410SOL    HW118863   1.522   0.597   5.321 -1.4795 -3.4279 -0.5376
 2410SOL    HW218864   1.529   0.717   5.234  0.8642 -0.0674  0.7851
 2411SOL     OW18865   4.445   1.553   2.129 -0.6519  0.1025 -0.6668
 2411SOL    HW118866   4.454   1.626   2.067  0.0821 -0.3794 -1.1254
 2411SOL    HW218867   4.406   1.487   2.072 -1.9297  0.8109 -0.6263
 2412SOL     OW18868   2.550   3.740  10.581  0.4130 -0.2632  0.3924
 2412SOL    HW118869   2.478   3.787  10.623  0.3159  1.3756 -1.5862
 2412SOL    HW218870   2.554   3.665  10.640 -0.6015  0.1115  0.9407
 2413SOL     OW18871   0.368   1.279  17.282 -0.4845 -0.0879 -0.5611
 2413SOL    HW118872   0.361   1.344  17.212 -1.1647  0.1819 -0.2449
 2413SOL    HW218873   0.331   1.200  17.243  0.1253 -0.5946 -0.1106
 2414SOL     OW18874   3.734   3.983   6.249  0.3685 -0.4064  0.3071
 2414SOL    HW118875   3.672   4.033   6.302 -1.1025 -0.2564 -1.5772
 2414SOL    HW218876   3.785   3.956   6.326  1.3834  0.3260 -0.1108
 2415SOL     OW18877   4.367   2.749  15.525  0.5462 -0.2799 -0.5949
 2415SOL    HW118878   4.286   2.767  15.478  0.0919  0.6787  0.5512
 2415SOL    HW218879   4.344   2.670  15.574 -0.5785  2.4355  3.2544
 2416SOL     OW18880   2.533   2.843   5.760 -0.2092 -0.7529 -0.0517
 2416SOL    HW118881   2.590   2.903   5.807  0.7606 -0.5104 -1.5248
 2416SOL    HW218882   2.497   2.783   5.826  2.5447 -0.2496  1.8681
 2417SOL     OW18883   0.579   2.214   0.642 -0.1422 -0.3843 -0.1106
 2417SOL    HW118884   0.599   2.139   0.586 -0.4359 -0.8064  0.3527
 2417SOL    HW218885   0.592   2.169   0.725 -1.1189 -0.1177  0.1833
 2418SOL     OW18886   0.593   2.833   6.396 -0.3380  0.0096  0.1502
 2418SOL    HW118887   0.540   2.766   6.440  1.2351 -1.0906  0.3705
 2418SOL    HW218888   0.539   2.843   6.318  1.0312 -1.0328 -0.9259
 2419SOL     OW18889   1.532   0.740   1.172  0.0019 -0.2303 -0.4043
 2419SOL    HW118890   1.509   0.806   1.107 -2.6027 -0.0489  0.6870
 2419SOL    HW218891   1.607   0.696   1.132 -0.4442 -2.0305  0.7180
 2420SOL     OW18892   0.379   1.473   8.099 -0.0718  0.6034  0.0191
 2420SOL    HW118893   0.469   1.499   8.083  0.0174 -1.2537 -2.5752
 2420SOL    HW218894   0.326   1.520   8.035  0.4853  1.4806  0.2105
 2421SOL     OW18895   1.057   2.584   4.319 -0.1811 -0.6941  0.2755
 2421SOL    HW118896   1.097   2.670   4.309 -0.0418 -0.7331  0.4883
 2421SOL    HW218897   0.997   2.599   4.246  1.7885 -1.1283 -1.4257
 2422SOL     OW18898   0.282   0.129  16.249  0.6214 -0.3635 -0.4992
 2422SOL    HW118899   0.267   0.215  16.208 -1.5694 -0.1829  0.7034
 2422SOL    HW218900   0.376   0.132  16.269  0.6907  1.2131 -1.0318
 2423SOL     OW18901   2.940   0.887   9.417  0.7918 -0.8044  0.5718
 2423SOL    HW118902   2.934   0.982   9.425 -1.2775 -0.8131 -0.5879
 2423SOL    HW218903   2.860   0.851   9.456  1.1419 -2.5818 -0.3364
 2424SOL     OW18904   0.040   1.796   5.203 -0.0135  0.0538 -0.6210
 2424SOL    HW118905   0.112   1.799   5.267  0.7956 -0.7230 -1.5069
 2424SOL    HW218906   0.040   1.890   5.182 -0.7682 -0.2585 -2.0143
 2425SOL     OW18907   2.183   2.186  11.054  0.1925 -0.5014 -0.3113
 2425SOL    HW118908   2.127   2.180  10.977 -1.7882  1.1321  1.0193
 2425SOL    HW218909   2.256   2.245  11.036  0.2541 -0.9776 -1.6054
 2426SOL     OW18910   2.611   2.207   2.477  0.0427  0.3930  0.2592
 2426SOL    HW118911   2.590   2.297   2.453  0.2716  0.5041  0.4685
 2426SOL    HW218912   2.574   2.188   2.564 -1.7280 -0.1959 -0.6161
 2427SOL     OW18913   3.018   0.130   4.261  0.2361 -0.0879  0.7547
 2427SOL    HW118914   3.054   0.102   4.345  2.0123 -1.0362 -0.3071
 2427SOL    HW218915   3.093   0.145   4.203 -1.8616  2.5694 -1.2676
 2428SOL     OW18916   1.502   4.626   5.916  0.2079 -0.3827  0.2199
 2428SOL    HW118917   1.481   4.533   5.927  0.6376 -0.5840 -0.7030
 2428SOL    HW218918   1.566   4.614   5.846  1.7701 -1.1977  1.7640
 2429SOL     OW18919   0.671   3.874   0.404 -0.5754 -0.1407 -0.0166
 2429SOL    HW118920   0.602   3.809   0.390 -1.7664  1.5222 -1.8947
 2429SOL    HW218921   0.725   3.869   0.325  1.2495  2.2516  1.0475
 2430SOL     OW18922   1.150   4.690   6.010 -0.6079 -0.1428 -0.0059
 2430SOL    HW118923   1.120   4.679   6.100 -0.0878 -0.7416  0.0878
 2430SOL    HW218924   1.201   0.037   6.019  0.3933 -1.1488  3.2239
 2431SOL     OW18925   4.530   3.967   0.536 -0.0240 -0.0410  0.0003
 2431SOL    HW118926   4.439   3.991   0.555 -0.2421 -0.2368 -0.8188
 2431SOL    HW218927   4.534   3.991   0.444 -0.6181  0.6175  0.1479
 2432SOL     OW18928   4.166   0.352   0.439  0.0196  0.6399 -0.3869
 2432SOL    HW118929   4.148   0.318   0.527 -0.7975 -1.7126 -1.4801
 2432SOL    HW218930   4.171   0.446   0.453 -1.1945  0.6469  0.0397
 2433SOL     OW18931   2.372   3.884   6.829 -0.1355  0.0584  0.5613
 2433SOL    HW118932   2.437   3.814   6.839 -1.2049 -1.0780 -0.4174
 2433SOL    HW218933   2.417   3.931   6.759 -2.5610  1.4432 -0.0721
 2434SOL     OW18934   4.618   1.366   5.076 -0.4483  0.4495  0.1696
 2434SOL    HW118935   4.528   1.352   5.045  0.1144 -1.2075 -0.7204
 2434SOL    HW218936   4.669   1.388   4.998 -2.8834  1.2386 -1.1995
 2435SOL     OW18937   4.277   1.835  13.530 -0.9377  1.2299 -0.1533
 2435SOL    HW118938   4.320   1.899  13.473  0.2312  1.8165  1.4051
 2435SOL    HW218939   4.346   1.818  13.593 -0.3776  1.7610 -0.6201
 2436SOL     OW18940   0.143   4.163   6.206  0.1828  0.3674 -0.3973
 2436SOL    HW118941   0.051   4.146   6.186  0.4196 -1.0748 -0.3126
 2436SOL    HW218942   0.174   4.161   6.115 -1.3561 -0.1636 -0.9163
 2437SOL     OW18943   2.847   4.405  15.855 -0.0263  0.0728 -0.2321
 2437SOL    HW118944   2.900   4.458  15.915  0.8696 -1.7254  0.5858
 2437SOL    HW218945   2.913   4.392  15.787  1.3486 -0.4943  1.2078
 2438SOL     OW18946   0.679   3.405   8.346 -0.1966 -0.2281  0.0641
 2438SOL    HW118947   0.645   3.384   8.259 -1.5851 -0.0229  0.5574
 2438SOL    HW218948   0.617   3.472   8.377  0.9921  0.6548  0.5408
 2439SOL     OW18949   1.837   0.541   6.086  0.3725  0.2456  0.3454
 2439SOL    HW118950   1.872   0.540   5.996 -2.0977 -0.9641 -0.6001
 2439SOL    HW218951   1.799   0.453   6.089 -2.3384  1.5495  3.3661
 2440SOL     OW18952   3.549   2.556   2.200 -0.1358 -0.3461 -0.4338
 2440SOL    HW118953   3.474   2.600   2.160  0.3848 -0.3394 -1.4227
 2440SOL    HW218954   3.549   2.581   2.292 -0.4464 -0.3151 -0.4426
 2441SOL     OW18955   2.349   2.844   7.301 -0.4038  0.4647 -0.4257
 2441SOL    HW118956   2.335   2.817   7.210 -0.9702 -2.0073  0.4088
 2441SOL    HW218957   2.332   2.938   7.294  0.1475  0.5888 -0.1252
 2442SOL     OW18958   3.909   2.372   3.328  0.2455  0.9450 -0.5662
 2442SOL    HW118959   3.875   2.458   3.353 -2.2059 -0.0705 -0.3876
 2442SOL    HW218960   3.989   2.393   3.280  1.1780 -0.8753  0.2011
 2443SOL     OW18961   1.152   0.579   9.107  0.2124 -0.2071  0.1300
 2443SOL    HW118962   1.155   0.581   9.202  1.1869  2.7563  0.0246
 2443SOL    HW218963   1.179   0.670   9.098 -1.1800  0.2799  0.8877
 2444SOL     OW18964   1.012   2.254   6.476  0.1095 -0.1334 -0.3378
 2444SOL    HW118965   0.940   2.191   6.484 -0.7973  0.6954 -1.9325
 2444SOL    HW218966   0.983   2.332   6.523  0.6480 -0.4129  0.4424
 2445SOL     OW18967   4.514   1.698   5.277  0.7746 -0.2262 -0.0190
 2445SOL    HW118968   4.601   1.721   5.244  1.2634  0.4474  1.7253
 2445SOL    HW218969   4.510   1.746   5.359  1.6187  0.2807 -0.2770
 2446SOL     OW18970   2.048   3.371  15.515 -0.0429  0.4880  0.1812
 2446SOL    HW118971   2.030   3.458  15.551 -1.5591 -0.2050  1.1258
 2446SOL    HW218972   1.960   3.333  15.508 -0.4886  1.2505  1.6931
 2447SOL     OW18973   3.794   3.501  12.331  0.6418  0.4164 -0.4081
 2447SOL    HW118974   3.779   3.534  12.420  2.3814  0.3355 -0.0787
 2447SOL    HW218975   3.790   3.589  12.294  1.0771  0.2724 -0.7961
 2448SOL     OW18976   0.123   4.345  17.728  0.0468  0.0526  0.3969
 2448SOL    HW118977   0.178   4.303   0.059  2.7277  0.2068 -1.7418
 2448SOL    HW218978   0.148   4.295  17.650 -1.6146  1.2917 -0.9232
 2449SOL     OW18979   2.626   2.141  11.608 -0.3319 -0.0947  0.0679
 2449SOL    HW118980   2.621   2.062  11.662  0.9342 -0.3427 -0.1671
 2449SOL    HW218981   2.555   2.124  11.546 -1.8527 -0.5783  1.9446
 2450SOL     OW18982   4.413   3.402   9.422  0.1014  0.2586  0.3995
 2450SOL    HW118983   4.370   3.333   9.473  1.6469  0.1633  1.5711
 2450SOL    HW218984   4.495   3.365   9.390  0.7940  1.6156  0.6300
 2451SOL     OW18985   1.830   3.956   8.392  0.1711  0.5499 -0.2161
 2451SOL    HW118986   1.810   3.898   8.465  0.7215 -1.9166 -2.0561
 2451SOL    HW218987   1.798   3.908   8.316 -0.3778  1.0189 -0.2895
 2452SOL     OW18988   2.760   0.848   0.855  0.5769 -0.1777 -0.0566
 2452SOL    HW118989   2.761   0.877   0.946 -2.8097  2.7765 -0.9665
 2452SOL    HW218990   2.807   0.916   0.807  3.1822 -0.6690  1.8364
 2453SOL     OW18991   0.869   1.508   3.164  0.5788 -0.2767  0.1504
 2453SOL    HW118992   0.928   1.508   3.240 -0.8874 -0.4099  1.3017
 2453SOL    HW218993   0.845   1.415   3.165  0.2144 -0.1979 -1.2703
 2454SOL     OW18994   2.899   3.777   8.601 -0.0278 -0.2953  0.1189
 2454SOL    HW118995   2.822   3.811   8.647  0.6504  1.2339  0.1352
 2454SOL    HW218996   2.882   3.811   8.513  1.5384 -0.7902 -0.3668
 2455SOL     OW18997   4.707   0.308  11.247  0.0485 -0.1647 -0.0382
 2455SOL    HW118998   0.052   0.254  11.247 -1.1939 -1.9677 -1.3178
 2455SOL    HW218999   4.695   0.317  11.153 -2.2559  0.6893  0.3385
 2456SOL     OW19000   3.941   3.343   1.861 -0.0366 -0.4403  0.5060
 2456SOL    HW119001   3.977   3.432   1.857  0.2383 -0.7588 -3.7519
 2456SOL    HW219002   3.973   3.305   1.779  3.0447  0.7563  1.1299
 2457SOL     OW19003   0.256   1.192   5.717  0.3364  0.5209 -0.3289
 2457SOL    HW119004   0.331   1.235   5.676 -0.9070  1.2394 -1.8327
 2457SOL    HW219005   0.241   1.111   5.668  0.9977 -1.4369  2.6856
 2458SOL     OW19006   2.442   0.116   1.520 -0.1603 -0.2564  0.0993
 2458SOL    HW119007   2.535   0.141   1.522 -0.1747 -0.1875 -0.1454
 2458SOL    HW219008   2.414   0.159   1.601 -0.8556 -0.3507 -0.0988
 2459SOL     OW19009   3.333   1.440   6.752  0.3140 -0.3360  0.6765
 2459SOL    HW119010   3.339   1.491   6.671 -0.0426 -0.5574  0.5126
 2459SOL    HW219011   3.403   1.375   6.747 -1.2934 -2.0540  0.0245
 2460SOL     OW19012   4.366   2.055   5.331 -0.5768 -0.2099 -0.2957
 2460SOL    HW119013   4.271   2.059   5.321 -0.7916 -3.4422  0.4214
 2460SOL    HW219014   4.393   2.043   5.240  2.2292 -1.0510  0.6578
 2461SOL     OW19015   3.761   2.111  12.939 -0.2620 -0.5370  0.4025
 2461SOL    HW119016   3.693   2.110  13.006  0.0587  0.1982  0.7337
 2461SOL    HW219017   3.829   2.152  12.992 -1.8278  0.8037  1.3294
 2462SOL     OW19018   4.544   3.267   6.421 -0.2294 -0.5624 -0.2665
 2462SOL    HW119019   4.626   3.251   6.374  0.9943  0.2201  1.5968
 2462SOL    HW219020   4.490   3.316   6.359 -1.6275 -0.8839  0.7047
 2463SOL     OW19021   0.065   4.247   8.347 -0.0946  0.0477 -0.5351
 2463SOL    HW119022   0.065   4.153   8.364  1.5129  0.2092  0.4202
 2463SOL    HW219023   4.708   4.266   8.368  0.4178  2.0697 -0.1130
 2464SOL     OW19024   3.869   0.311   9.750  0.0031  0.9783  0.4225
 2464SOL    HW119025   3.960   0.283   9.743 -0.5573 -0.5240 -0.9530
 2464SOL    HW219026   3.852   0.297   9.843  0.2111 -2.3974 -0.0501
 2465SOL     OW19027   3.380   4.338   8.802 -0.7978  0.1382  0.0649
 2465SOL    HW119028   3.389   4.326   8.896  0.0761 -1.5960 -0.2550
 2465SOL    HW219029   3.305   4.398   8.799 -1.9815 -1.3967 -1.1978
 2466SOL     OW19030   1.329   3.351  15.076  0.0309  0.6588  0.4675
 2466SOL    HW119031   1.323   3.260  15.107 -2.7490  0.0604 -1.7820
 2466SOL    HW219032   1.309   3.349  14.982 -1.2437  1.9994  0.7193
 2467SOL     OW19033   0.620   0.544   3.939  0.3594  0.5757  0.2873
 2467SOL    HW119034   0.592   0.465   3.985 -0.0673 -0.8313 -2.3755
 2467SOL    HW219035   0.660   0.593   4.010  0.2183  2.1318 -0.7056
 2468SOL     OW19036   2.807   4.304   2.712  0.6264 -0.0228  0.0314
 2468SOL    HW119037   2.716   4.315   2.687  0.6434 -0.1298 -0.0776
 2468SOL    HW219038   2.838   4.263   2.631 -1.9781 -1.5023 -0.2237
 2469SOL     OW19039   1.106   3.172   3.366  0.2581 -0.2194 -0.5073
 2469SOL    HW119040   1.095   3.261   3.332  2.5732 -0.8308 -2.9178
 2469SOL    HW219041   1.074   3.193   3.454  1.4313  0.8682 -0.3230
 2470SOL     OW19042   1.159   2.749   4.814 -0.2273  0.2095 -0.4558
 2470SOL    HW119043   1.156   2.653   4.819 -1.7239  0.1136 -3.0133
 2470SOL    HW219044   1.204   2.757   4.729 -0.1309  0.0031 -0.4261
 2471SOL     OW19045   3.291   2.550   9.941  0.5115  0.8130 -0.0105
 2471SOL    HW119046   3.374   2.506   9.927 -0.9335 -2.5009  1.7404
 2471SOL    HW219047   3.278   2.525  10.033 -1.6441  0.6711 -0.3456
 2472SOL     OW19048   4.122   3.103   0.685  0.3750 -0.4337  0.4752
 2472SOL    HW119049   4.161   3.080   0.600 -1.0017 -0.7484 -0.0774
 2472SOL    HW219050   4.031   3.123   0.662  0.9227 -0.4001 -1.6751
 2473SOL     OW19051   2.031   0.517  12.347  0.2303 -0.3251 -0.3185
 2473SOL    HW119052   2.085   0.575  12.401  0.4070 -1.6640  0.9236
 2473SOL    HW219053   2.074   0.432  12.340  1.3909  0.0119  3.1094
 2474SOL     OW19054   0.896   4.641   5.241 -0.3775  0.2034 -0.6779
 2474SOL    HW119055   0.964   4.708   5.237  0.1400 -0.3745 -1.5128
 2474SOL    HW219056   0.933   4.573   5.185 -0.7910 -0.0385 -0.6540
 2475SOL     OW19057   2.230   0.005  16.633  0.4418 -0.0520  0.1493
 2475SOL    HW119058   2.190   0.083  16.672 -4.0675 -0.8548 -2.8485
 2475SOL    HW219059   2.198   0.020  16.544  0.5191 -0.7658 -0.0001
 2476SOL     OW19060   2.599   4.565  15.855  0.0268  0.3074  0.0001
 2476SOL    HW119061   2.679   4.526  15.890 -1.6489 -0.3610  3.0730
 2476SOL    HW219062   2.527   4.542  15.913  0.2930  1.7442  0.9203
 2477SOL     OW19063   4.320   4.607   9.830 -0.5137  0.0185  0.2135
 2477SOL    HW119064   4.275   4.620   9.746  0.6320  0.7082 -0.2876
 2477SOL    HW219065   4.274   4.530   9.864 -1.3087  0.4657  0.1591
 2478SOL     OW19066   1.768   1.191   2.910  0.4996  0.0854  0.3131
 2478SOL    HW119067   1.792   1.135   2.984  3.9627  0.5910 -0.4179
 2478SOL    HW219068   1.714   1.252   2.961  1.9200  0.0089  1.9235
 2479SOL     OW19069   2.047   3.713   8.393 -0.1227  0.4467 -0.6997
 2479SOL    HW119070   1.967   3.707   8.445 -0.5357  0.5729 -1.3132
 2479SOL    HW219071   2.057   3.808   8.381  1.8076  0.1505 -1.4735
 2480SOL     OW19072   1.538   2.459   8.972  0.5377  0.2833  0.3187
 2480SOL    HW119073   1.488   2.393   8.925  1.7235  0.0575 -0.6225
 2480SOL    HW219074   1.614   2.403   8.984  0.2069 -0.7517 -2.5274
 2481SOL     OW19075   2.165   0.082  16.390 -0.0961  0.2487  1.1409
 2481SOL    HW119076   2.201   0.026  16.322 -1.3022 -0.2561  0.9084
 2481SOL    HW219077   2.210   0.165  16.376  1.5957 -0.9055 -0.1669
 2482SOL     OW19078   1.623   3.026   2.377  0.0686 -0.1966 -0.4130
 2482SOL    HW119079   1.543   2.992   2.416 -0.0479 -0.3482 -0.7795
 2482SOL    HW219080   1.594   3.116   2.365 -0.9510 -0.9720 -3.8166
 2483SOL     OW19081   4.518   3.968   6.624 -0.4760 -0.3852 -0.3417
 2483SOL    HW119082   4.437   4.014   6.645  0.7464  1.2841  0.7787
 2483SOL    HW219083   4.577   4.006   6.689 -0.3010 -0.0781 -0.6798
 2484SOL     OW19084   2.715   4.093   4.176 -0.2623 -0.3735 -0.1999
 2484SOL    HW119085   2.635   4.143   4.162  0.7620  1.0487 -0.9643
 2484SOL    HW219086   2.762   4.163   4.222 -0.6921  2.1106 -3.5345
 2485SOL     OW19087   2.314   1.701   9.093 -0.4324  0.4870 -0.4461
 2485SOL    HW119088   2.329   1.697   8.998 -0.6304 -0.7898 -0.4250
 2485SOL    HW219089   2.300   1.608   9.110  0.6093  0.5256  0.6182
 2486SOL     OW19090   1.088   4.500   8.477  0.0315 -0.0240 -0.4061
 2486SOL    HW119091   1.144   4.574   8.504 -0.0804  1.1403 -3.3136
 2486SOL    HW219092   1.116   4.442   8.547 -0.9455  0.0183  0.0094
 2487SOL     OW19093   4.306   2.199   6.347 -0.4703  0.0185 -0.2719
 2487SOL    HW119094   4.287   2.291   6.362 -4.4281 -0.6566 -1.0235
 2487SOL    HW219095   4.292   2.165   6.435 -1.5180 -2.1210 -1.2765
 2488SOL     OW19096   2.966   1.456   4.777 -0.2314 -0.4011 -0.2837
 2488SOL    HW119097   2.961   1.443   4.682 -0.9824  1.3802 -0.4836
 2488SOL    HW219098   3.039   1.401   4.807  1.5231  1.7276 -0.6528
 2489SOL     OW19099   2.514   1.089   5.071 -0.0343 -0.3414  0.0915
 2489SOL    HW119100   2.457   1.019   5.040  0.6456 -1.2793  0.9844
 2489SOL    HW219101   2.589   1.043   5.109  1.2174  0.5785 -1.2285
 2490SOL     OW19102   4.459   1.806   1.944  0.6192 -0.1834 -0.1030
 2490SOL    HW119103   4.514   1.878   1.912  1.6824 -1.1576 -0.4570
 2490SOL    HW219104   4.376   1.843   1.975  0.6100 -0.2843 -0.0063
 2491SOL     OW19105   3.183   3.959  14.439  0.5400 -0.0844  0.5490
 2491SOL    HW119106   3.163   4.050  14.417  1.7688  0.2340  0.7699
 2491SOL    HW219107   3.228   3.916  14.367 -1.9867 -0.1509 -0.9815
 2492SOL     OW19108   0.386   0.155   4.621  0.4298  0.1444 -0.3356
 2492SOL    HW119109   0.340   0.083   4.665  2.8944 -0.5745  1.0507
 2492SOL    HW219110   0.460   0.165   4.680 -3.1319  0.5274  4.0887
 2493SOL     OW19111   2.406   2.902   2.879 -0.4237 -0.0956  0.0344
 2493SOL    HW119112   2.493   2.941   2.866  0.7312 -2.0496  1.8678
 2493SOL    HW219113   2.410   2.861   2.966 -3.3744  0.0856  0.2485
 2494SOL     OW19114   4.420   1.108   1.174  0.5835  0.4931  0.6438
 2494SOL    HW119115   4.464   1.077   1.253  0.2156 -2.1507 -0.2180
 2494SOL    HW219116   4.351   1.160   1.216 -1.6942 -1.2013 -1.0167
 2495SOL     OW19117   2.219   2.654   8.229 -0.0419  0.1816 -0.6166
 2495SOL    HW119118   2.224   2.559   8.235 -0.2671  0.3720  2.5570
 2495SOL    HW219119   2.281   2.667   8.158 -1.8382 -3.6330 -2.8452
 2496SOL     OW19120   2.632   0.397   1.861 -0.4019  0.6262  0.5134
 2496SOL    HW119121   2.592   0.467   1.811 -0.9665 -0.0637  0.0011
 2496SOL    HW219122   2.723   0.421   1.880 -0.2724  0.9864 -0.6151
 2497SOL     OW19123   2.861   1.249   9.046  0.0572 -0.0138  0.1218
 2497SOL    HW119124   2.848   1.344   9.046  2.2521  0.2702  1.2866
 2497SOL    HW219125   2.919   1.229   9.119  1.6319  0.9519 -0.8595
 2498SOL     OW19126   0.362   0.368   8.843 -0.1249 -0.9910  0.6588
 2498SOL    HW119127   0.340   0.300   8.907 -2.0703 -0.3218  0.7183
 2498SOL    HW219128   0.451   0.337   8.830  0.3703  0.6866  0.0044
 2499SOL     OW19129   0.264   1.497   5.480  0.2950 -0.9665  0.4290
 2499SOL    HW119130   0.191   1.477   5.421 -0.5168  2.0601  0.3945
 2499SOL    HW219131   0.224   1.534   5.559  0.0123 -0.4692  0.0552
 2500SOL     OW19132   4.406   1.815   8.510  0.1756 -0.2750  0.2094
 2500SOL    HW119133   4.438   1.900   8.539 -0.6456  0.0406  0.1813
 2500SOL    HW219134   4.319   1.845   8.483  0.8110  0.2018 -1.3484
 2501SOL     OW19135   1.393   0.356  12.240  0.0091 -0.1119  0.1927
 2501SOL    HW119136   1.352   0.443  12.233  0.4565  0.1723  1.1983
 2501SOL    HW219137   1.326   0.300  12.199 -0.4269  0.2484  0.4127
 2502SOL     OW19138   2.168   2.197  13.292  0.1844  0.0348  0.1029
 2502SOL    HW119139   2.109   2.125  13.316 -0.8306  1.8174  2.8328
 2502SOL    HW219140   2.163   2.193  13.196  1.0345 -0.0261  0.0568
 2503SOL     OW19141   1.663   0.769  14.009 -0.2205 -0.2697  0.2173
 2503SOL    HW119142   1.751   0.741  13.982 -0.9228 -2.0630 -0.1948
 2503SOL    HW219143   1.660   0.853  13.963  0.0413 -0.4029 -0.0468
 2504SOL     OW19144   3.880   4.449   1.701  0.2359  0.3739 -0.1231
 2504SOL    HW119145   3.873   4.379   1.766 -1.1338 -1.0664 -1.8349
 2504SOL    HW219146   3.869   4.528   1.755  0.3236 -1.1719  2.1715
 2505SOL     OW19147   4.616   4.255   0.091 -0.7918 -0.6020  0.5086
 2505SOL    HW119148   4.701   4.278   0.053 -1.1056  1.6645  1.1766
 2505SOL    HW219149   4.562   4.329   0.065 -1.5866 -0.6420  2.0087
 2506SOL     OW19150   0.518   2.188   5.268 -0.3951  0.0873  0.2733
 2506SOL    HW119151   0.513   2.282   5.250 -1.0952 -0.6453 -3.2864
 2506SOL    HW219152   0.442   2.150   5.225 -0.5276 -0.5791  1.1004
 2507SOL     OW19153   0.268   3.797   5.124 -0.1387  0.1416  0.1667
 2507SOL    HW119154   0.331   3.729   5.149  0.4953  0.2368 -1.1760
 2507SOL    HW219155   0.295   3.874   5.174 -0.9799  0.1239  0.6480
 2508SOL     OW19156   0.299   0.676   2.620  0.3233 -0.1540  0.0814
 2508SOL    HW119157   0.323   0.702   2.531  1.5944  0.2984  0.5618
 2508SOL    HW219158   0.224   0.735   2.634 -0.4155 -1.5984  2.2799
 2509SOL     OW19159   4.236   2.855  14.357 -0.2452  0.2189 -0.2196
 2509SOL    HW119160   4.273   2.818  14.277  0.1243 -0.2060  0.1448
 2509SOL    HW219161   4.141   2.849  14.347 -0.1102 -1.4844 -0.4817
 2510SOL     OW19162   1.036   4.038   9.428 -0.2657  0.3890 -0.2813
 2510SOL    HW119163   1.057   4.063   9.518  0.7929 -0.6558 -0.2352
 2510SOL    HW219164   0.951   3.993   9.436  0.0166  0.0267  0.7176
 2511SOL     OW19165   0.293   2.876   3.927 -0.2332 -0.8752  0.2062
 2511SOL    HW119166   0.313   2.829   4.008 -0.9479  0.1821  0.9972
 2511SOL    HW219167   0.243   2.810   3.879 -1.5534 -0.2128  0.6601
 2512SOL     OW19168   2.361   0.437  12.085 -0.0931 -0.3912  0.6133
 2512SOL    HW119169   2.276   0.430  12.042 -0.5031  1.0566  1.1984
 2512SOL    HW219170   2.408   0.358  12.057 -1.2749 -1.3636  1.4334
 2513SOL     OW19171   1.159   3.518   1.772  0.0433 -0.2951  0.2327
 2513SOL    HW119172   1.200   3.434   1.752  1.0045  0.2865 -0.2028
 2513SOL    HW219173   1.097   3.492   1.840  1.0754  1.3309  1.7875
 2514SOL     OW19174   3.819   3.943   5.312  0.0382 -0.2530  0.2632
 2514SOL    HW119175   3.849   4.008   5.377  0.1698 -1.5739  1.5238
 2514SOL    HW219176   3.727   3.969   5.314  0.4860  1.3686 -0.0071
 2515SOL     OW19177   2.529   2.479   9.814  0.4890  0.3445 -0.0999
 2515SOL    HW119178   2.504   2.445   9.728 -1.1928 -1.2912  1.0424
 2515SOL    HW219179   2.500   2.410   9.873  0.3428 -0.3179 -0.9322
 2516SOL     OW19180   2.829   1.407   5.672  0.5994  0.1131 -0.0148
 2516SOL    HW119181   2.843   1.324   5.718  0.0149  0.7547  1.3248
 2516SOL    HW219182   2.917   1.445   5.666  0.7220 -0.2855 -0.7460
 2517SOL     OW19183   4.059   1.157  14.008  0.3574 -0.0393 -0.1104
 2517SOL    HW119184   4.097   1.245  14.012  0.0571 -0.0859  3.4517
 2517SOL    HW219185   4.136   1.101  14.012 -2.0065 -3.2446  0.1503
 2518SOL     OW19186   2.681   1.952   8.644  0.1583  0.2763  0.2369
 2518SOL    HW119187   2.766   1.908   8.636 -0.9529 -1.7173 -0.6338
 2518SOL    HW219188   2.675   1.969   8.738 -1.8173  0.6769  0.0465
 2519SOL     OW19189   4.138   0.716  16.621 -0.2660 -0.4212 -0.0833
 2519SOL    HW119190   4.043   0.708  16.619 -0.4659  2.3553 -1.4580
 2519SOL    HW219191   4.142   0.804  16.659  2.1137 -0.2634 -0.6843
 2520SOL     OW19192   2.248   2.562  13.265 -0.2431 -0.0616  0.0772
 2520SOL    HW119193   2.321   2.503  13.285 -0.3688  0.1202  1.0439
 2520SOL    HW219194   2.231   2.599  13.351 -1.1965 -1.7078  0.5897
 2521SOL     OW19195   0.261   0.226  12.324  0.9306  0.0829  0.1106
 2521SOL    HW119196   0.352   0.198  12.321  1.2290  1.1717 -1.1297
 2521SOL    HW219197   0.269   0.321  12.333  0.5216  0.1454 -0.1805
 2522SOL     OW19198   1.281   3.781   6.205  0.1041  0.3769  0.6038
 2522SOL    HW119199   1.281   3.703   6.150 -0.4037 -0.0270  1.1813
 2522SOL    HW219200   1.242   3.853   6.155  0.1952 -0.5736 -0.8384
 2523SOL     OW19201   2.082   4.332   8.844 -0.3324  0.1776  0.1106
 2523SOL    HW119202   2.104   4.417   8.804  1.1170  0.1164  0.7901
 2523SOL    HW219203   2.143   4.284   8.788 -1.1287  1.2489 -1.6830
 2524SOL     OW19204   4.531   2.117   8.279  0.1068  0.2457 -0.3080
 2524SOL    HW119205   4.509   2.092   8.369  1.4390  0.6366  0.1152
 2524SOL    HW219206   4.462   2.181   8.259 -2.6252 -2.4010  0.5467
 2525SOL     OW19207   4.687   0.503   3.700 -0.1475  0.1582 -0.1020
 2525SOL    HW119208   4.687   0.590   3.659 -1.4166 -0.3712 -1.2490
 2525SOL    HW219209   4.726   0.450   3.630 -1.2927  1.5090 -1.7728
 2526SOL     OW19210   0.591   4.057   3.034  0.3593  0.2057 -0.0814
 2526SOL    HW119211   0.591   3.975   2.985  1.4371 -0.0239  0.3036
 2526SOL    HW219212   0.545   4.034   3.114  0.9112 -2.0465 -0.4168
 2527SOL     OW19213   4.038   2.067  11.760  0.2998  0.0680 -0.1095
 2527SOL    HW119214   4.073   1.977  11.760  0.0465 -0.0298 -1.4794
 2527SOL    HW219215   3.952   2.034  11.784 -0.2665  1.2223 -0.5854
 2528SOL     OW19216   4.511   0.385   4.777 -0.7811  0.4792 -0.6912
 2528SOL    HW119217   4.465   0.383   4.861 -0.8800  0.0361 -0.7556
 2528SOL    HW219218   4.551   0.298   4.777 -1.6630  0.0896  1.1767
 2529SOL     OW19219   1.295   1.337   8.082 -0.7868  0.3406 -0.4637
 2529SOL    HW119220   1.318   1.409   8.023  0.2527 -0.0717 -0.5711
 2529SOL    HW219221   1.285   1.265   8.021 -0.9051 -0.0829  0.0565
 2530SOL     OW19222   0.714   4.543   1.889  0.2558  0.0955  0.5501
 2530SOL    HW119223   0.713   4.532   1.794  0.6950 -0.1974  0.5843
 2530SOL    HW219224   0.641   4.602   1.909  0.6908 -0.2251  3.0505
 2531SOL     OW19225   3.163   3.671   6.971 -0.3726  0.6799 -0.6090
 2531SOL    HW119226   3.136   3.714   7.052  0.5723  0.8797 -0.3937
 2531SOL    HW219227   3.086   3.687   6.916  2.2883  1.0526 -4.2121
 2532SOL     OW19228   1.145   2.013  15.047  0.1990 -0.0712  0.4015
 2532SOL    HW119229   1.232   1.995  15.082  0.5557  0.8285 -0.0250
 2532SOL    HW219230   1.162   2.080  14.981 -0.2481 -0.1112  0.2468
 2533SOL     OW19231   2.477   3.019   1.830  0.2688  0.4823 -0.2162
 2533SOL    HW119232   2.397   2.974   1.803  0.0198  0.9030 -0.1954
 2533SOL    HW219233   2.516   2.945   1.876 -1.4817 -2.0469 -2.7776
 2534SOL     OW19234   0.318   2.902  10.373  0.1574 -0.1424 -0.1364
 2534SOL    HW119235   0.228   2.883  10.401  1.0801 -2.6666  1.1404
 2534SOL    HW219236   0.345   2.943  10.455  2.5044  0.4144 -1.1852
 2535SOL     OW19237   4.242   3.637   6.275 -0.4395  0.0265 -0.4065
 2535SOL    HW119238   4.192   3.698   6.221  2.1369  1.2005 -1.5058
 2535SOL    HW219239   4.233   3.678   6.361 -1.1354  0.1657 -0.5454
 2536SOL     OW19240   0.036   2.939   1.343 -0.2521 -0.0165  0.3370
 2536SOL    HW119241   4.675   2.941   1.337 -0.1924 -0.7678 -0.7392
 2536SOL    HW219242   0.049   3.033   1.358 -2.8116  0.7218 -1.9608
 2537SOL     OW19243   3.361   4.198   5.493 -0.4185 -0.0471  0.0944
 2537SOL    HW119244   3.396   4.215   5.581 -1.2217 -1.8053  0.7502
 2537SOL    HW219245   3.277   4.165   5.525  0.8437 -3.3249  0.0253
 2538SOL     OW19246   3.235   0.637  15.322 -0.1141 -0.1613  0.3873
 2538SOL    HW119247   3.267   0.625  15.232 -0.6417 -1.1783  0.3360
 2538SOL    HW219248   3.320   0.661  15.359 -0.0115 -1.5868  1.0875
 2539SOL     OW19249   1.285   0.801   7.029  0.0584 -0.0316 -0.1001
 2539SOL    HW119250   1.343   0.871   7.057 -0.1131  0.0535  0.0395
 2539SOL    HW219251   1.199   0.839   7.046  0.5659  2.3411 -2.7310
 2540SOL     OW19252   0.867   4.451   0.707  0.2642 -0.1974  0.0009
 2540SOL    HW119253   0.790   4.495   0.672  1.6184  2.0927 -0.0914
 2540SOL    HW219254   0.932   4.498   0.656  2.2348 -2.4892  0.3862
 2541SOL     OW19255   3.119   3.117   3.026  0.2647 -0.5496  0.2162
 2541SOL    HW119256   3.173   3.048   2.990  2.9549  0.7528  1.7531
 2541SOL    HW219257   3.174   3.132   3.103  1.4325 -0.5906 -0.6229
 2542SOL     OW19258   2.286   1.875   4.036  0.4444 -0.4456 -0.0197
 2542SOL    HW119259   2.209   1.931   4.027  0.8882 -0.3373 -3.0936
 2542SOL    HW219260   2.348   1.947   4.044  0.6637 -0.6745  0.3307
 2543SOL     OW19261   4.401   2.368   5.646 -0.1924  0.0276 -0.2880
 2543SOL    HW119262   4.489   2.405   5.655 -0.1761 -0.0164 -0.2655
 2543SOL    HW219263   4.361   2.409   5.723  0.1494  1.5273 -0.9263
 2544SOL     OW19264   4.606   2.203  15.429  0.1347 -0.6929  0.4491
 2544SOL    HW119265   4.587   2.293  15.454 -1.0995 -0.8326  0.0340
 2544SOL    HW219266   4.701   2.208  15.436  0.2314 -2.0408  0.1899
 2545SOL     OW19267   2.633   1.009   5.607  0.2369  0.3152  0.2275
 2545SOL    HW119268   2.651   0.915   5.613 -0.6108 -0.0103 -2.2583
 2545SOL    HW219269   2.692   1.044   5.673 -2.1336  2.4938  1.1884
 2546SOL     OW19270   2.706   0.732   5.519  0.4137  0.0784 -0.5502
 2546SOL    HW119271   2.734   0.735   5.427 -1.3372 -0.3008 -1.0972
 2546SOL    HW219272   2.791   0.751   5.558  0.3631 -1.2441  0.2036
 2547SOL     OW19273   2.864   3.308   6.353  0.2207  0.6039 -0.0190
 2547SOL    HW119274   2.826   3.303   6.441 -0.3408  1.7937 -0.1970
 2547SOL    HW219275   2.793   3.330   6.293 -0.1097 -3.2861 -1.0462
 2548SOL     OW19276   1.719   3.018  14.014  0.2553  0.4658  0.5653
 2548SOL    HW119277   1.728   3.105  14.052  1.5767  1.0670 -1.0934
 2548SOL    HW219278   1.628   3.002  14.037  0.3218 -2.4955 -1.2032
 2549SOL     OW19279   1.004   4.612   7.956  0.7808  0.3848  0.2215
 2549SOL    HW119280   1.080   4.649   8.000  1.9062 -0.0048 -1.3699
 2549SOL    HW219281   0.931   4.615   8.018  1.7711  3.5150  1.1908
 2550SOL     OW19282   0.095   2.776   4.261  0.2285  0.2809  0.4029
 2550SOL    HW119283   0.185   2.768   4.230 -0.5417  0.6894 -1.8939
 2550SOL    HW219284   0.102   2.745   4.352 -1.4186 -1.1106  0.0516
 2551SOL     OW19285   1.587   2.167   5.441  0.0464 -0.4181 -0.1310
 2551SOL    HW119286   1.626   2.190   5.526 -2.2809  3.6268 -0.1864
 2551SOL    HW219287   1.559   2.078   5.464  1.6188 -0.7776  0.3869
 2552SOL     OW19288   4.279   1.343   1.651  0.2536 -0.5834  0.1105
 2552SOL    HW119289   4.296   1.400   1.576 -0.7706  0.0825  0.3899
 2552SOL    HW219290   4.303   1.261   1.609  0.3271 -0.8760  0.7236
 2553SOL     OW19291   2.797   2.464   5.424  0.5323  0.4353  0.2252
 2553SOL    HW119292   2.848   2.529   5.376 -0.1823  0.4472 -0.5073
 2553SOL    HW219293   2.775   2.395   5.361  0.2652  0.2315  0.5404
 2554SOL     OW19294   3.370   4.492   5.764  0.0790  0.2764  0.1648
 2554SOL    HW119295   3.348   4.449   5.681 -0.6215  0.9796 -0.0145
 2554SOL    HW219296   3.341   4.426   5.827 -0.5188 -1.2220 -1.6523
 2555SOL     OW19297   2.857   3.682   2.768  0.6330 -0.0657 -0.2450
 2555SOL    HW119298   2.851   3.755   2.706  0.4750 -0.5550 -0.8189
 2555SOL    HW219299   2.949   3.688   2.793 -0.0329 -1.4599  2.5463
 2556SOL     OW19300   3.628   0.208   6.045  0.0337 -0.1459 -0.4259
 2556SOL    HW119301   3.676   0.228   5.965 -1.7573  1.4272 -1.0896
 2556SOL    HW219302   3.538   0.213   6.012 -0.0724  1.0133  0.0445
 2557SOL     OW19303   3.736   3.651   7.866 -0.2806  0.6787  0.1916
 2557SOL    HW119304   3.723   3.704   7.944 -1.8840 -1.5637  1.4426
 2557SOL    HW219305   3.717   3.564   7.901 -0.6553 -0.2481 -2.2795
 2558SOL     OW19306   3.712   4.527   0.862 -0.0993  0.1162  0.1380
 2558SOL    HW119307   3.802   4.540   0.890  0.0068  1.1594 -0.6779
 2558SOL    HW219308   3.668   4.566   0.938  0.3379  1.4823 -0.3122
 2559SOL     OW19309   2.079   0.513  13.770  0.2988 -0.1924 -0.2534
 2559SOL    HW119310   2.104   0.472  13.687  0.5471  0.8175 -0.6857
 2559SOL    HW219311   2.075   0.604  13.740 -1.6649 -0.5382 -1.0416
 2560SOL     OW19312   0.748   3.268   7.302  0.5090 -0.4100  0.0214
 2560SOL    HW119313   0.822   3.277   7.243 -0.9104 -0.6602 -1.7970
 2560SOL    HW219314   0.671   3.304   7.258 -0.6048 -3.5355 -0.6072
 2561SOL     OW19315   3.530   2.353  12.951 -0.2323  0.0312 -0.2142
 2561SOL    HW119316   3.477   2.363  13.030  0.3269  3.3093 -0.2935
 2561SOL    HW219317   3.596   2.420  12.966  1.2734 -1.3972 -0.3772
 2562SOL     OW19318   1.555   4.201   6.745 -0.3043 -0.7713  0.2171
 2562SOL    HW119319   1.530   4.191   6.836 -0.0818 -0.1671  0.3449
 2562SOL    HW219320   1.649   4.190   6.760  0.3832  1.4713 -2.2192
 2563SOL     OW19321   3.542   4.360  16.636  0.1699 -0.2741  0.3249
 2563SOL    HW119322   3.600   4.285  16.621  0.5541  0.1408 -0.2802
 2563SOL    HW219323   3.484   4.330  16.705  0.5551 -0.4300  0.5800
 2564SOL     OW19324   3.794   4.647  14.009 -0.5124 -0.6454 -0.2359
 2564SOL    HW119325   3.742   4.579  14.052 -1.7620  0.9869  0.7897
 2564SOL    HW219326   3.750   4.647  13.924  0.0916  1.4035 -0.5499
 2565SOL     OW19327   0.143   0.774   0.793 -0.1477  0.3004 -0.2590
 2565SOL    HW119328   0.081   0.779   0.721 -0.8864 -0.0426  0.3502
 2565SOL    HW219329   0.088   0.784   0.872 -1.8605  0.8277 -1.5058
 2566SOL     OW19330   0.494   4.072  12.875 -0.3715 -0.3962  0.3628
 2566SOL    HW119331   0.414   4.076  12.822 -1.1609  2.0052  1.7488
 2566SOL    HW219332   0.463   4.070  12.966 -0.5125  0.8841  0.3368
 2567SOL     OW19333   1.733   3.359   7.219  0.6544  0.4337 -0.0986
 2567SOL    HW119334   1.824   3.356   7.188  1.2761 -0.6855  1.8354
 2567SOL    HW219335   1.724   3.267   7.244  0.0936  0.4673 -0.1809
 2568SOL     OW19336   0.455   0.203  17.230  0.1121 -0.0584  0.2314
 2568SOL    HW119337   0.483   0.132  17.172 -1.4017  0.9409 -1.7418
 2568SOL    HW219338   0.366   0.175  17.252 -0.1284  1.2835  0.9550
 2569SOL     OW19339   1.172   1.683   0.655 -0.1775 -0.4067  0.3238
 2569SOL    HW119340   1.220   1.764   0.634  2.4159 -1.9359  0.4038
 2569SOL    HW219341   1.086   1.716   0.682 -0.7468  0.0187 -1.9898
 2570SOL     OW19342   4.346   4.076   4.187  0.5844 -0.2289 -0.3089
 2570SOL    HW119343   4.439   4.099   4.186  0.6027 -0.2851  0.3789
 2570SOL    HW219344   4.332   4.049   4.278  2.7557  0.0529  0.0906
 2571SOL     OW19345   0.910   2.377   5.276  0.0160  0.5680 -0.5614
 2571SOL    HW119346   0.977   2.442   5.255  0.4705  0.0683 -0.6496
 2571SOL    HW219347   0.860   2.417   5.347  1.5055  0.8352  0.3240
 2572SOL     OW19348   0.740   2.425  15.830 -0.0387  0.2635  0.6474
 2572SOL    HW119349   0.816   2.482  15.839  0.5395 -0.3902 -0.1542
 2572SOL    HW219350   0.759   2.352  15.888 -1.8682 -0.5166  0.2583
 2573SOL     OW19351   0.879   2.969   5.246 -0.3503  0.0201 -0.6036
 2573SOL    HW119352   0.857   2.974   5.153 -0.8608  0.8115 -0.4476
 2573SOL    HW219353   0.806   3.011   5.294 -0.0908  0.5980 -0.7134
 2574SOL     OW19354   2.567   1.702   0.707  0.2124 -0.0067  0.1194
 2574SOL    HW119355   2.530   1.719   0.621 -2.1515 -0.8372  0.9725
 2574SOL    HW219356   2.618   1.625   0.681 -0.4628 -0.4158  0.0190
 2575SOL     OW19357   2.760   0.015   2.596 -0.1749 -0.1378  0.0742
 2575SOL    HW119358   2.681   4.695   2.592  0.0288 -0.4642  0.4725
 2575SOL    HW219359   2.802   4.709   2.672 -0.4157  0.3892  0.4849
 2576SOL     OW19360   0.016   4.696   2.921  0.3165 -0.5212  0.2071
 2576SOL    HW119361   4.704   0.022   2.862 -0.9215 -1.5726  0.0933
 2576SOL    HW219362   0.107   4.720   2.905 -0.2174  1.8383  0.6709
 2577SOL     OW19363   4.384   2.885   1.507  0.0943  0.2885 -0.9094
 2577SOL    HW119364   4.319   2.946   1.541 -0.1640  0.9582 -2.6314
 2577SOL    HW219365   4.420   2.926   1.429  0.4370  1.0383 -0.3557
 2578SOL     OW19366   2.208   0.187   1.395  0.1690  0.6812 -0.0597
 2578SOL    HW119367   2.299   0.158   1.403  0.5175  1.8607  0.2904
 2578SOL    HW219368   2.211   0.267   1.447  0.7475  0.2623  0.5391
 2579SOL     OW19369   0.392   0.201   6.811  0.4168  0.4030  0.0723
 2579SOL    HW119370   0.455   0.207   6.883  1.3257 -2.0093 -0.5304
 2579SOL    HW219371   0.430   0.130   6.760 -0.4580  1.5280 -2.1230
 2580SOL     OW19372   0.346   1.959   4.369 -0.2832 -0.9763 -0.3227
 2580SOL    HW119373   0.313   2.016   4.300 -1.1954 -1.3351 -0.1730
 2580SOL    HW219374   0.334   1.999   4.455  0.7700 -1.3665  0.0079
 2581SOL     OW19375   1.631   3.770   7.872 -0.2695 -0.0420  0.2169
 2581SOL    HW119376   1.677   3.846   7.907  0.0820 -0.0891 -0.1351
 2581SOL    HW219377   1.570   3.819   7.817 -0.0581 -0.5401 -0.4616
 2582SOL     OW19378   1.137   1.254   7.348 -0.7281 -0.3228 -0.0464
 2582SOL    HW119379   1.206   1.233   7.286  0.1164 -0.3264  0.8837
 2582SOL    HW219380   1.187   1.247   7.430 -2.3004 -1.8013  0.7806
 2583SOL     OW19381   0.839   3.176   4.391  0.0414  0.2761 -0.4590
 2583SOL    HW119382   0.908   3.118   4.424 -1.9412 -2.2442 -0.6904
 2583SOL    HW219383   0.793   3.116   4.332  1.0460 -2.3491  1.4313
 2584SOL     OW19384   1.622   3.355   6.649 -0.5518  0.7277 -0.3365
 2584SOL    HW119385   1.527   3.346   6.650 -0.8424  3.4819 -1.3933
 2584SOL    HW219386   1.644   3.419   6.581  0.5469  0.1988 -0.4763
 2585SOL     OW19387   2.360   1.594   1.935  0.2646 -0.1395  0.1843
 2585SOL    HW119388   2.347   1.688   1.946  1.6402  0.2090 -1.1483
 2585SOL    HW219389   2.410   1.569   2.013 -1.0282 -0.3569  0.9334
 2586SOL     OW19390   3.133   1.046   7.929  0.0090 -0.2651  0.0395
 2586SOL    HW119391   3.044   1.082   7.928  0.3696  0.6382  0.1750
 2586SOL    HW219392   3.139   1.019   8.020 -0.3627 -0.8372 -0.1057
 2587SOL     OW19393   2.766   0.906   2.433 -0.0077 -0.4434  0.1126
 2587SOL    HW119394   2.725   0.823   2.457 -0.7462 -0.3516 -0.8576
 2587SOL    HW219395   2.717   0.975   2.480  0.1300 -0.6275  0.5247
 2588SOL     OW19396   0.725   0.642   7.342 -0.2482  0.4027 -0.1555
 2588SOL    HW119397   0.777   0.628   7.263  0.9590  0.9557  0.5463
 2588SOL    HW219398   0.653   0.581   7.327  0.6722 -0.4809 -0.9870
 2589SOL     OW19399   0.682   0.001   3.967  0.1436  0.1027 -0.0205
 2589SOL    HW119400   0.605   4.680   3.984  0.4076  0.1295  1.2613
 2589SOL    HW219401   0.724   4.726   4.053  0.9953 -0.6554 -0.5265
 2590SOL     OW19402   3.587   2.200   8.098 -0.3162 -0.8970 -0.0941
 2590SOL    HW119403   3.549   2.288   8.101 -1.6223 -1.4434 -0.8884
 2590SOL    HW219404   3.549   2.150   8.026  0.1219  1.0501 -1.6983
 2591SOL     OW19405   4.396   4.271   0.706 -0.1063 -0.2254  0.7483
 2591SOL    HW119406   4.358   4.202   0.652  0.4029  0.5336 -0.5926
 2591SOL    HW219407   4.319   4.298   0.755 -0.8631 -1.3970  0.1940
 2592SOL     OW19408   1.871   2.914  14.740 -0.0779  0.0835 -0.1960
 2592SOL    HW119409   1.847   2.836  14.690 -0.6720 -0.2544  0.6107
 2592SOL    HW219410   1.852   2.896  14.832  0.8739  0.1980  0.0210
 2593SOL     OW19411   3.303   3.369   5.508 -0.1960  0.2926  0.0392
 2593SOL    HW119412   3.336   3.415   5.431  0.2008  0.1363  0.1182
 2593SOL    HW219413   3.270   3.283   5.479  1.3806 -0.0971 -0.5872
 2594SOL     OW19414   0.188   3.405   3.996  0.0134 -0.4653  0.5331
 2594SOL    HW119415   0.212   3.442   4.081  0.0990  0.2920  0.1693
 2594SOL    HW219416   0.098   3.377   4.010  0.5372 -2.1601  0.5411
 2595SOL     OW19417   0.567   2.236   0.323 -0.4517 -0.0321  0.0797
 2595SOL    HW119418   0.639   2.294   0.349  0.8316 -1.5053 -0.1926
 2595SOL    HW219419   0.486   2.264   0.367  0.4142 -0.1230  1.7457
 2596SOL     OW19420   4.482   0.471   8.477  0.0238 -0.0176 -0.7951
 2596SOL    HW119421   4.430   0.538   8.432 -0.1103 -1.2259 -2.4128
 2596SOL    HW219422   4.423   0.397   8.489 -2.8213  2.1389 -1.2372
 2597SOL     OW19423   2.285   1.603   6.377 -0.1479 -0.0759 -0.6274
 2597SOL    HW119424   2.205   1.551   6.367  0.8261 -1.8257  0.7680
 2597SOL    HW219425   2.284   1.649   6.293 -2.3085  2.1930  0.6350
 2598SOL     OW19426   4.573   4.248   1.587  0.7753 -0.2131 -0.3671
 2598SOL    HW119427   4.551   4.195   1.664 -0.4494 -0.5505 -0.9397
 2598SOL    HW219428   4.485   4.273   1.557  1.1905  2.4937  0.7372
 2599SOL     OW19429   0.574   2.061  10.931 -0.0917 -0.1650  0.1889
 2599SOL    HW119430   0.563   2.063  11.026 -0.1154 -2.9114  0.2501
 2599SOL    HW219431   0.618   1.977  10.916  0.8671  0.4793 -0.5874
 2600SOL     OW19432   0.572   3.365   9.340 -0.2892 -0.2348  0.0961
 2600SOL    HW119433   0.521   3.439   9.308  1.7081  2.0116  2.0866
 2600SOL    HW219434   0.643   3.349   9.278 -0.4444 -0.5544 -0.0021
 2601SOL     OW19435   0.773   1.118   1.606 -0.2113  0.3942 -0.4596
 2601SOL    HW119436   0.794   1.025   1.615  0.3732  0.6062  0.3716
 2601SOL    HW219437   0.845   1.159   1.654 -0.4718 -0.1133  0.3811
 2602SOL     OW19438   2.600   2.401   2.115 -0.4578 -0.1626 -0.4756
 2602SOL    HW119439   2.529   2.347   2.148  0.6964 -0.8346  0.9231
 2602SOL    HW219440   2.587   2.494   2.132 -0.9533 -0.3559  0.1910
 2603SOL     OW19441   1.188   2.129   1.414  0.0234  0.2030  0.0325
 2603SOL    HW119442   1.109   2.127   1.360 -1.0056  0.4462  1.5146
 2603SOL    HW219443   1.249   2.155   1.345  0.4436  2.7187  1.3276
 2604SOL     OW19444   1.774   1.283   4.632  0.7959  0.0123  0.3888
 2604SOL    HW119445   1.682   1.258   4.635  0.7443  0.5121  3.0384
 2604SOL    HW219446   1.815   1.196   4.625  1.3039  0.3095 -0.3522
 2605SOL     OW19447   0.354   2.949  14.613  0.2926 -0.5016  0.0071
 2605SOL    HW119448   0.356   2.955  14.518  0.6225  0.3813  0.0684
 2605SOL    HW219449   0.284   3.011  14.636  1.6913  1.2671 -0.5340
 2606SOL     OW19450   1.146   2.177   5.474 -0.5634  0.6297  0.3972
 2606SOL    HW119451   1.070   2.232   5.454 -1.6808 -1.6205 -1.4480
 2606SOL    HW219452   1.117   2.090   5.449  0.4864  0.8086 -1.4426
 2607SOL     OW19453   0.459   2.075   2.263 -0.0331  0.1928  0.7079
 2607SOL    HW119454   0.456   2.092   2.169  2.0094  2.1039  0.9853
 2607SOL    HW219455   0.471   1.981   2.248 -0.2461  0.1796  0.6223
 2608SOL     OW19456   0.492   3.747   9.101 -0.0295 -0.1146  0.1059
 2608SOL    HW119457   0.515   3.766   9.192 -0.5262 -1.3106  0.4733
 2608SOL    HW219458   0.572   3.779   9.058 -0.1982 -1.8138 -1.4608
 2609SOL     OW19459   4.108   2.170   0.440 -0.0976  0.3971  0.0526
 2609SOL    HW119460   4.183   2.211   0.396  0.4167 -1.9115 -1.2225
 2609SOL    HW219461   4.120   2.204   0.529  1.9801  0.8569 -0.3858
 2610SOL     OW19462   3.178   2.918   3.687 -0.5426 -0.3300  0.0278
 2610SOL    HW119463   3.114   2.848   3.673 -0.1500 -0.5563 -0.5999
 2610SOL    HW219464   3.253   2.886   3.638 -2.6905 -2.5440 -1.7817
 2611SOL     OW19465   1.019   3.310  11.804 -0.2118  0.3958 -0.2576
 2611SOL    HW119466   0.967   3.328  11.726  1.2951  0.3153 -1.2800
 2611SOL    HW219467   1.062   3.392  11.826  0.5751  0.1567 -0.8799
 2612SOL     OW19468   1.611   0.044  15.519  0.0484 -0.7422 -0.1980
 2612SOL    HW119469   1.662   0.081  15.590  0.5584 -0.7946 -0.5354
 2612SOL    HW219470   1.579   4.695  15.555  0.1636 -1.5566 -1.9362
 2613SOL     OW19471   1.240   4.175   6.788  0.0614 -0.1905  0.4666
 2613SOL    HW119472   1.148   4.173   6.762  0.3682  1.3761 -0.7498
 2613SOL    HW219473   1.282   4.193   6.704  0.3124 -0.9257  0.4387
 2614SOL     OW19474   3.025   2.134   5.734  0.0119 -0.8692 -0.8570
 2614SOL    HW119475   2.934   2.145   5.705  0.2925  5.5364  0.8236
 2614SOL    HW219476   3.046   2.226   5.751 -0.0346 -0.5488 -2.4577
 2615SOL     OW19477   0.789   3.687  10.771  0.0976  0.3841 -0.3911
 2615SOL    HW119478   0.828   3.749  10.709  0.9018  0.0242 -0.2518
 2615SOL    HW219479   0.871   3.662  10.814 -1.1211 -1.6763  0.7172
 2616SOL     OW19480   0.747   3.026   4.969 -0.0207  0.2842  0.1691
 2616SOL    HW119481   0.730   3.015   4.876  3.3737  1.0290 -0.5372
 2616SOL    HW219482   0.786   3.113   4.968  3.7218 -1.3853 -0.9478
 2617SOL     OW19483   4.403   1.634  15.233  0.0793  0.4138 -0.3765
 2617SOL    HW119484   4.369   1.648  15.145 -0.4039 -0.0885 -0.2635
 2617SOL    HW219485   4.334   1.676  15.285  0.3141  0.2770  0.0472
 2618SOL     OW19486   0.704   4.210   5.848 -0.2044  0.0763 -0.4666
 2618SOL    HW119487   0.797   4.190   5.863 -1.3707 -4.5664  0.5824
 2618SOL    HW219488   0.716   4.267   5.772  1.1386  0.0054 -0.3119
 2619SOL     OW19489   0.649   3.311   5.562  0.2660  0.2101 -0.5270
 2619SOL    HW119490   0.696   3.336   5.642 -1.6217  0.0305  0.6437
 2619SOL    HW219491   0.573   3.271   5.606 -0.6511  2.0315 -0.4406
 2620SOL     OW19492   3.922   3.677   7.420 -0.4747 -0.0270 -0.1859
 2620SOL    HW119493   3.889   3.741   7.483  2.2730 -0.5373  1.7244
 2620SOL    HW219494   3.915   3.600   7.475  2.6050 -0.4249 -0.3789
 2621SOL     OW19495   0.760   4.066  12.839 -0.3924 -0.3659 -0.2201
 2621SOL    HW119496   0.787   4.137  12.897  1.0083 -1.9259  1.0190
 2621SOL    HW219497   0.665   4.081  12.839  0.0794  2.5370  3.3675
 2622SOL     OW19498   2.104   2.452   2.419 -0.0409 -0.1505  0.4725
 2622SOL    HW119499   2.131   2.522   2.478 -1.6343  1.4139 -0.6309
 2622SOL    HW219500   2.132   2.491   2.337 -3.0742  4.3702  1.5699
 2623SOL     OW19501   0.905   3.987  10.469 -0.1338 -0.1116  0.1156
 2623SOL    HW119502   0.829   4.019  10.420 -0.8004 -0.3256  1.0070
 2623SOL    HW219503   0.931   3.923  10.403 -0.8495  1.0445 -1.3019
 2624SOL     OW19504   1.141   0.331   7.342 -0.3486  0.4898 -0.4234
 2624SOL    HW119505   1.177   0.418   7.324 -1.4449  1.4558  2.0514
 2624SOL    HW219506   1.191   0.309   7.421 -0.7756 -1.2956 -0.6644
 2625SOL     OW19507   1.514   3.417   8.641 -0.3138  0.3575 -0.4540
 2625SOL    HW119508   1.465   3.490   8.677  1.0187  1.0109  0.0366
 2625SOL    HW219509   1.532   3.366   8.721 -0.8403  1.6451  0.4756
 2626SOL     OW19510   1.959   0.258  14.062  0.3420  0.3049 -0.2173
 2626SOL    HW119511   1.913   0.184  14.101  0.0064 -0.0315 -1.2710
 2626SOL    HW219512   1.971   0.220  13.975 -0.0769 -0.1187 -0.0883
 2627SOL     OW19513   4.637   3.773   4.355 -0.6326  0.3324  0.4156
 2627SOL    HW119514   4.655   3.836   4.286 -0.6179  0.9575  0.9832
 2627SOL    HW219515   4.668   3.694   4.312 -0.2353  1.0440 -0.6070
 2628SOL     OW19516   1.119   0.643   4.741  0.2013  0.0746  0.7438
 2628SOL    HW119517   1.148   0.563   4.784  1.6605  0.1654 -0.0794
 2628SOL    HW219518   1.131   0.704   4.814  0.5659 -0.9757  1.5674
 2629SOL     OW19519   4.522   4.154   8.697  0.3510 -0.3610 -0.0750
 2629SOL    HW119520   4.609   4.173   8.732 -0.3263  0.2476  1.2779
 2629SOL    HW219521   4.501   4.076   8.749  1.3972 -0.5892  0.0089
 2630SOL     OW19522   0.480   3.055   5.286 -0.3362  0.2062  0.6898
 2630SOL    HW119523   0.476   3.094   5.198  0.1197  0.7045  0.8868
 2630SOL    HW219524   0.405   3.095   5.329 -0.3114  1.1607 -0.1351
 2631SOL     OW19525   4.221   4.494   7.173  0.2668 -0.1503 -0.2954
 2631SOL    HW119526   4.300   4.544   7.152  1.8188 -3.1568 -1.6512
 2631SOL    HW219527   4.187   4.470   7.086  1.7382  2.5316 -1.5938
 2632SOL     OW19528   4.386   2.971   7.544 -0.3550 -0.8320  0.1311
 2632SOL    HW119529   4.306   3.021   7.530  0.9615  0.9372 -0.9855
 2632SOL    HW219530   4.357   2.931   7.626 -0.6055 -0.7683  0.0704
 2633SOL     OW19531   0.373   1.898  13.448  0.3053  0.2520  0.4995
 2633SOL    HW119532   0.436   1.965  13.474 -1.5040  2.6079 -1.1461
 2633SOL    HW219533   0.431   1.852  13.388  0.8995  1.7222 -0.0405
 2634SOL     OW19534   3.310   4.038   8.988  0.5964 -0.2654  0.8532
 2634SOL    HW119535   3.375   4.108   8.993 -0.5804  0.7330  2.2362
 2634SOL    HW219536   3.230   4.075   9.025 -0.3474 -1.3323 -0.1463
 2635SOL     OW19537   0.134   2.256  10.587 -0.3671 -0.8732 -0.4993
 2635SOL    HW119538   0.080   2.280  10.662  1.4364 -1.3906  0.9671
 2635SOL    HW219539   0.202   2.217  10.642 -0.0146 -0.0277 -0.3482
 2636SOL     OW19540   0.888   4.203   0.799  0.1689 -0.2378  0.0867
 2636SOL    HW119541   0.903   4.162   0.714 -0.5173  0.4791 -0.3720
 2636SOL    HW219542   0.909   4.294   0.778 -2.3562 -0.2533 -2.4563
 2637SOL     OW19543   3.789   0.997   8.889  0.4112 -0.3636  0.4481
 2637SOL    HW119544   3.695   1.000   8.908  0.5113 -0.7327  1.0020
 2637SOL    HW219545   3.811   0.929   8.953  1.7229 -0.7007 -0.3721
 2638SOL     OW19546   4.650   1.810   6.525 -0.6224  0.0422  0.2649
 2638SOL    HW119547   4.598   1.877   6.569 -0.4489  0.3087  0.0679
 2638SOL    HW219548   4.587   1.775   6.462  0.6156 -0.9849 -0.3998
 2639SOL     OW19549   2.959   0.356   3.008 -0.0008  0.2839 -0.0120
 2639SOL    HW119550   2.898   0.406   2.954 -2.3467 -2.2202  0.3039
 2639SOL    HW219551   3.037   0.410   3.014  0.4010 -0.3336  0.2801
 2640SOL     OW19552   2.664   1.492   6.653  0.0696  0.0842  0.4525
 2640SOL    HW119553   2.608   1.556   6.697  1.6595  1.1571  0.8912
 2640SOL    HW219554   2.602   1.472   6.582  1.2969 -0.5894 -0.4266
 2641SOL     OW19555   2.864   1.459   1.851  0.3293  0.1406  0.3206
 2641SOL    HW119556   2.910   1.540   1.872 -2.4705  2.1463 -1.2659
 2641SOL    HW219557   2.772   1.478   1.870 -0.0251  0.8947 -2.1004
 2642SOL     OW19558   4.637   2.074   3.584 -0.0278  0.3093 -0.1984
 2642SOL    HW119559   4.605   2.117   3.504  0.1121 -2.2280 -1.6375
 2642SOL    HW219560   4.694   2.136   3.628 -1.1095 -0.2583  2.0079
 2643SOL     OW19561   3.269   1.428   5.161  0.0440 -0.1123 -0.1863
 2643SOL    HW119562   3.325   1.392   5.229 -1.5398 -2.9545 -0.4076
 2643SOL    HW219563   3.201   1.362   5.162  1.1326 -1.2366 -0.6918
 2644SOL     OW19564   3.283   2.705   5.358  0.5826 -0.0520  0.3505
 2644SOL    HW119565   3.288   2.646   5.282  3.0460 -2.8100  2.6419
 2644SOL    HW219566   3.317   2.785   5.318 -0.4405 -0.0240 -0.4476
 2645SOL     OW19567   2.789   4.706  13.326  0.0935  0.3717  0.2213
 2645SOL    HW119568   2.846   0.010  13.393 -2.5458  3.3429  0.7789
 2645SOL    HW219569   2.845   4.720  13.250  1.7937  0.1883  1.4547
 2646SOL     OW19570   2.002   1.688   2.368 -0.1737  0.4571  0.0199
 2646SOL    HW119571   1.955   1.701   2.450  0.7768 -1.6940  0.9251
 2646SOL    HW219572   1.955   1.737   2.301  2.2695  2.5293 -0.1862
 2647SOL     OW19573   2.533   2.024   5.000  0.3368 -0.1729 -0.3392
 2647SOL    HW119574   2.602   1.971   5.041 -0.3463 -2.0283 -1.5880
 2647SOL    HW219575   2.460   1.963   4.988 -0.9609  1.8348 -2.4941
 2648SOL     OW19576   2.181   3.826   3.096 -0.5904  0.1451  0.1075
 2648SOL    HW119577   2.207   3.811   3.187  1.9000  0.6954 -0.5315
 2648SOL    HW219578   2.266   3.840   3.054 -0.1379  0.9526  1.3130
 2649SOL     OW19579   2.834   0.112  15.675  0.3927  0.0129  0.1040
 2649SOL    HW119580   2.783   0.099  15.754  0.2465  0.2577  0.0499
 2649SOL    HW219581   2.900   0.179  15.694 -0.5910  1.2654 -0.8346
 2650SOL     OW19582   3.893   3.608   3.309 -0.4915 -0.1708  0.4064
 2650SOL    HW119583   3.820   3.667   3.293 -0.6752 -0.0450  1.7338
 2650SOL    HW219584   3.895   3.605   3.405  2.0671  0.3636  0.3751
 2651SOL     OW19585   4.081   1.750   8.111  0.2687  0.2096  0.6092
 2651SOL    HW119586   4.008   1.747   8.049  1.1573 -0.4358 -0.3965
 2651SOL    HW219587   4.061   1.680   8.173  1.3917 -1.3068 -0.7509
 2652SOL     OW19588   1.709   4.578   7.394 -0.1974 -0.0295  0.2176
 2652SOL    HW119589   1.694   4.655   7.450 -0.8819 -0.5393  0.7364
 2652SOL    HW219590   1.667   4.506   7.441 -1.0809  1.0505  1.0914
 2653SOL     OW19591   1.227   2.088   5.717  0.3771 -0.0481  0.6215
 2653SOL    HW119592   1.206   2.130   5.633 -1.2502 -3.0741 -0.5046
 2653SOL    HW219593   1.266   2.164   5.759  1.4622 -1.2968  1.8728
 2654SOL     OW19594   4.002   2.043  11.162  0.2278  0.2536  0.3671
 2654SOL    HW119595   4.027   1.981  11.231  0.0200  1.5995  1.6454
 2654SOL    HW219596   3.940   2.000  11.103 -0.8253 -2.0923  3.1658
 2655SOL     OW19597   2.130   1.795   3.062  0.7836  0.2217  0.2827
 2655SOL    HW119598   2.200   1.806   3.125  0.0318  0.6316  1.0466
 2655SOL    HW219599   2.123   1.885   3.032 -1.9492 -1.0320 -2.9055
 2656SOL     OW19600   3.997   3.492   7.982  1.0064  0.1270 -0.9231
 2656SOL    HW119601   4.090   3.472   7.988  1.1434  1.5223  1.8798
 2656SOL    HW219602   3.996   3.575   7.936  0.5506  1.3819  1.3376
 2657SOL     OW19603   4.042   2.218   8.457 -0.4731  0.5135  0.3204
 2657SOL    HW119604   3.971   2.227   8.393 -0.4805 -1.7412  0.0326
 2657SOL    HW219605   4.000   2.233   8.541  0.0121  2.6578  0.1781
 2658SOL     OW19606   3.494   1.073   7.267 -0.6060  0.0815  0.1775
 2658SOL    HW119607   3.537   0.987   7.272  1.0948  0.8751 -0.5822
 2658SOL    HW219608   3.417   1.054   7.214 -0.0767  1.6717 -1.1547
 2659SOL     OW19609   0.217   4.349   3.830  1.0038 -0.3476 -0.2207
 2659SOL    HW119610   0.241   4.285   3.763 -0.5610 -1.0440 -0.1300
 2659SOL    HW219611   0.207   4.431   3.783  1.5355 -0.3315 -0.3035
 2660SOL     OW19612   4.389   4.559   2.851 -0.0334 -0.7504  0.2002
 2660SOL    HW119613   4.338   4.493   2.898 -0.0029 -1.6923 -1.0813
 2660SOL    HW219614   4.359   4.542   2.762  0.7710  1.6734 -0.5334
 2661SOL     OW19615   1.330   3.584   9.333 -0.2245 -0.3640  0.5404
 2661SOL    HW119616   1.247   3.537   9.347 -0.7837  0.9440  1.6350
 2661SOL    HW219617   1.368   3.525   9.268  0.9230  0.3815  0.5373
 2662SOL     OW19618   0.889   2.006  14.122  0.1042  0.5414 -0.6851
 2662SOL    HW119619   0.949   2.067  14.165  0.4738  1.4261 -2.4485
 2662SOL    HW219620   0.817   2.057  14.085 -0.2882  0.9827  0.6623
 2663SOL     OW19621   3.735   0.548   0.839 -0.2505 -0.3137 -0.1499
 2663SOL    HW119622   3.661   0.513   0.887  0.9242 -1.6337  0.7081
 2663SOL    HW219623   3.808   0.494   0.871  1.0766  2.0531  0.8426
 2664SOL     OW19624   2.724   4.149   4.601  0.2022  0.6413 -0.7005
 2664SOL    HW119625   2.668   4.158   4.524  1.5829  2.5185 -1.4682
 2664SOL    HW219626   2.755   4.236   4.626  1.3564 -0.1643  0.7321
 2665SOL     OW19627   0.464   2.734   1.643 -0.1509  0.3405  0.1065
 2665SOL    HW119628   0.538   2.793   1.629 -1.3356  0.8084 -4.3455
 2665SOL    HW219629   0.394   2.792   1.615 -0.6731  0.4495  1.6579
 2666SOL     OW19630   4.336   1.916   6.024  0.3579  0.0737 -0.2268
 2666SOL    HW119631   4.320   1.946   6.113  0.9571  1.4176 -0.5726
 2666SOL    HW219632   4.431   1.904   6.018  0.4589  0.7969 -0.0451
 2667SOL     OW19633   4.547   3.064  15.381 -0.3756 -0.4380 -0.2382
 2667SOL    HW119634   4.636   3.097  15.389  0.0320 -2.0994  1.9706
 2667SOL    HW219635   4.502   3.132  15.332  1.3536  0.8074 -0.0717
 2668SOL     OW19636   2.630   2.314  14.854 -0.7653 -0.1519 -0.4429
 2668SOL    HW119637   2.544   2.337  14.818 -0.2857  0.0239 -1.4713
 2668SOL    HW219638   2.684   2.341  14.779 -1.2246  2.0790  0.0152
 2669SOL     OW19639   4.025   1.542   5.616  0.2969 -0.5472 -0.0676
 2669SOL    HW119640   4.119   1.526   5.622  0.4714  0.6930  0.3652
 2669SOL    HW219641   4.004   1.613   5.556  0.2358  0.6252  1.3668
 2670SOL     OW19642   2.575   1.226  13.160  0.3970  0.0622  0.0356
 2670SOL    HW119643   2.552   1.222  13.067  0.8279 -3.8696  0.1117
 2670SOL    HW219644   2.650   1.168  13.159  0.4827  0.1827 -1.3591
 2671SOL     OW19645   2.038   0.736  16.552 -0.1476  0.0043 -0.2001
 2671SOL    HW119646   2.116   0.701  16.509  1.5957  2.2923  1.1158
 2671SOL    HW219647   2.047   0.825  16.518 -2.8115  0.1309 -0.5556
 2672SOL     OW19648   4.497   3.481  10.032  0.2169  0.1895 -0.3525
 2672SOL    HW119649   4.568   3.465   9.969  2.0723 -0.8375  1.9768
 2672SOL    HW219650   4.456   3.560   9.997 -1.2222 -1.1954 -1.7937
 2673SOL     OW19651   1.118   1.130   8.581  0.3512  0.4117  0.2462
 2673SOL    HW119652   1.067   1.191   8.634  0.4898  0.4443  0.3423
 2673SOL    HW219653   1.109   1.162   8.491  0.4546 -0.5002 -0.0971
 2674SOL     OW19654   0.110   1.431   3.488 -0.2405 -0.2427 -0.1833
 2674SOL    HW119655   0.045   1.420   3.557 -0.0507  0.5605  0.1214
 2674SOL    HW219656   0.084   1.521   3.466  0.3959  0.4851  2.1137
 2675SOL     OW19657   2.710   3.661   5.132  0.2987  0.6046  0.3549
 2675SOL    HW119658   2.712   3.598   5.060  0.8790  1.9855 -0.8482
 2675SOL    HW219659   2.628   3.704   5.109  0.8478  2.3373  1.6230
 2676SOL     OW19660   1.306   0.031   4.622  0.5647 -0.1809  0.4915
 2676SOL    HW119661   1.311   4.719   4.705  1.1433 -2.8411 -1.0453
 2676SOL    HW219662   1.391   0.074   4.623  0.3627  0.1983  1.7158
 2677SOL     OW19663   3.843   2.201  13.958 -0.1685 -0.0611 -0.5521
 2677SOL    HW119664   3.836   2.142  13.883 -1.0610  3.2239 -3.0328
 2677SOL    HW219665   3.886   2.264  13.901 -0.4092  2.0384  1.5582
 2678SOL     OW19666   2.042   0.156  10.810 -0.6142 -0.0855 -0.3190
 2678SOL    HW119667   2.075   0.101  10.739 -1.3893  1.5886 -1.9932
 2678SOL    HW219668   1.951   0.172  10.782 -0.9265 -0.0486  0.7050
 2679SOL     OW19669   0.859   0.720   4.395  0.0076  0.1824  0.0919
 2679SOL    HW119670   0.904   0.794   4.435  1.0096  0.5758 -1.7426
 2679SOL    HW219671   0.812   0.695   4.475  0.1603  1.6370  0.6256
 2680SOL     OW19672   1.378   2.413   4.894 -0.0910  0.3017  0.0114
 2680SOL    HW119673   1.468   2.400   4.923  0.8127  2.9413 -1.6095
 2680SOL    HW219674   1.322   2.368   4.958 -0.4740 -0.0121 -0.5403
 2681SOL     OW19675   3.656   0.338   6.879 -0.0166 -0.1612  0.4353
 2681SOL    HW119676   3.663   0.359   6.972 -0.4448  0.3831  0.3475
 2681SOL    HW219677   3.701   0.412   6.838 -0.2192  0.4302  1.2763
 2682SOL     OW19678   3.563   3.226   7.511  0.1128  0.2185 -0.4196
 2682SOL    HW119679   3.641   3.282   7.512  0.9381 -0.9629  1.8817
 2682SOL    HW219680   3.526   3.255   7.428  0.7302 -1.8047 -1.4059
 2683SOL     OW19681   3.874   4.548  15.432 -0.1347  0.5099  0.0694
 2683SOL    HW119682   3.919   4.601  15.367 -0.4819  0.4802 -0.1977
 2683SOL    HW219683   3.797   4.605  15.439  0.6739  1.5221  0.7002
 2684SOL     OW19684   1.669   3.123   5.409 -0.0378 -0.1399 -0.0278
 2684SOL    HW119685   1.626   3.073   5.339 -3.7324  1.7728  0.8491
 2684SOL    HW219686   1.618   3.095   5.485  0.6388 -3.4273 -0.8012
 2685SOL     OW19687   3.934   3.407   6.820 -0.2943 -0.0730  0.4401
 2685SOL    HW119688   3.893   3.373   6.740  0.7133 -0.2301 -0.0147
 2685SOL    HW219689   3.890   3.492   6.820 -0.2159 -0.0205 -0.5819
 2686SOL     OW19690   3.502   0.234   3.723  0.3517 -0.0070 -0.2601
 2686SOL    HW119691   3.415   0.226   3.684 -0.2483  0.1316  1.0714
 2686SOL    HW219692   3.554   0.182   3.662  1.0679 -0.2545  0.5579
 2687SOL     OW19693   0.417   3.159  10.098  0.1624 -0.0297  0.4461
 2687SOL    HW119694   0.465   3.127  10.021 -2.4365  2.3774 -2.1628
 2687SOL    HW219695   0.483   3.208  10.148  0.1800  1.2775 -0.8459
 2688SOL     OW19696   1.149   2.835   8.503  0.5010 -0.1316  0.2716
 2688SOL    HW119697   1.189   2.837   8.416 -2.0404 -2.9674 -0.9784
 2688SOL    HW219698   1.057   2.860   8.490 -0.6861 -4.2198  0.8874
 2689SOL     OW19699   0.613   1.203   7.666  0.6438  0.2180 -0.0675
 2689SOL    HW119700   0.631   1.296   7.652 -1.7905  0.6906  0.0164
 2689SOL    HW219701   0.632   1.195   7.760  2.0412  1.8436 -0.1908
 2690SOL     OW19702   1.871   3.913   6.425 -0.4221  0.4591 -0.4022
 2690SOL    HW119703   1.945   3.894   6.483 -1.7423 -2.2513  0.4332
 2690SOL    HW219704   1.802   3.880   6.482  0.5394  0.9535  1.0324
 2691SOL     OW19705   2.267   0.869   3.833 -0.2112 -0.1080 -0.3068
 2691SOL    HW119706   2.335   0.848   3.898 -0.3070  0.2743 -0.0767
 2691SOL    HW219707   2.273   0.810   3.758 -0.2426  1.1452 -1.2975
 2692SOL     OW19708   0.578   3.759   9.400  0.4286 -0.0201  0.6319
 2692SOL    HW119709   0.556   3.846   9.434 -1.5449 -0.6854  1.0860
 2692SOL    HW219710   0.500   3.718   9.438  0.8743 -0.5328  0.9849
 2693SOL     OW19711   0.950   2.220   1.835  0.1342 -0.6845 -0.3549
 2693SOL    HW119712   0.974   2.237   1.744  0.4679 -0.3141 -0.1949
 2693SOL    HW219713   0.990   2.132   1.837  0.9331 -0.2631  1.8185
 2694SOL     OW19714   2.753   0.126   4.205  0.3881  0.2786  0.2311
 2694SOL    HW119715   2.735   0.184   4.279  0.3950 -0.3861  0.7567
 2694SOL    HW219716   2.848   0.123   4.218  0.6474 -0.7057 -1.8281
 2695SOL     OW19717   3.649   4.052   5.874 -0.4782 -0.5828  0.1544
 2695SOL    HW119718   3.560   4.023   5.852 -0.0257 -2.5792  0.9476
 2695SOL    HW219719   3.683   3.989   5.812 -0.6905  0.1572 -0.7095
 2696SOL     OW19720   2.997   2.639  16.962  0.0565  0.5311 -0.1673
 2696SOL    HW119721   2.921   2.682  16.924  1.4269  2.1574 -1.0895
 2696SOL    HW219722   3.002   2.668  17.053 -0.3901  0.7713 -0.2211
 2697SOL     OW19723   0.016   4.346   6.792 -0.6265  0.0110  0.3368
 2697SOL    HW119724   0.048   4.265   6.752  2.6268  2.0845 -1.3044
 2697SOL    HW219725   0.097   4.385   6.825 -0.8891 -0.7945  1.9377
 2698SOL     OW19726   3.793   2.324   6.627  0.0077  0.0208 -0.3127
 2698SOL    HW119727   3.722   2.387   6.642  0.2795  0.7077 -1.8944
 2698SOL    HW219728   3.846   2.372   6.563  0.3801 -0.3166 -0.2560
 2699SOL     OW19729   2.336   2.176  15.865 -0.3562  0.1563  0.1373
 2699SOL    HW119730   2.338   2.183  15.769 -0.7534  1.1962  0.2137
 2699SOL    HW219731   2.258   2.119  15.864 -0.4202  0.2420  0.9414
 2700SOL     OW19732   2.831   3.810   3.068  0.2171 -0.2846 -0.1610
 2700SOL    HW119733   2.802   3.889   3.023  0.6657 -0.4559 -0.7491
 2700SOL    HW219734   2.808   3.750   2.997 -2.5337  0.5246  0.0480
 2701SOL     OW19735   4.182   1.694   6.856 -0.1046  0.0841 -0.5427
 2701SOL    HW119736   4.201   1.620   6.913  0.3246  0.5041 -0.1438
 2701SOL    HW219737   4.087   1.680   6.850  0.1254 -0.8787 -2.0362
 2702SOL     OW19738   1.214   2.955  14.738 -0.1971 -0.5797 -0.5502
 2702SOL    HW119739   1.199   2.862  14.720  0.9902 -1.1940  1.6338
 2702SOL    HW219740   1.282   2.961  14.670  0.2207  0.3186 -0.0477
 2703SOL     OW19741   0.948   4.212   7.017  0.3554 -0.0490 -0.6114
 2703SOL    HW119742   0.990   4.127   7.029 -0.9584 -0.4651  1.1266
 2703SOL    HW219743   1.027   4.259   6.992  0.8113 -0.0399  0.8139
 2704SOL     OW19744   2.582   3.049   9.632  0.6895  0.6681 -0.1487
 2704SOL    HW119745   2.510   3.031   9.572  1.7671  0.4355 -1.3653
 2704SOL    HW219746   2.620   3.129   9.596  1.8429  0.2886  0.2227
 2705SOL     OW19747   2.126   1.799   0.602  0.3726  0.6898 -0.2503
 2705SOL    HW119748   2.094   1.801   0.692  2.7226 -0.7808  0.6105
 2705SOL    HW219749   2.144   1.893   0.595  0.7886  0.5171 -1.5687
 2706SOL     OW19750   4.483   2.960   1.238  0.1080  0.4947 -0.5801
 2706SOL    HW119751   4.479   3.012   1.158  0.7081  0.7236 -0.4583
 2706SOL    HW219752   4.507   2.876   1.198 -1.0994  0.2294 -0.7610
 2707SOL     OW19753   3.880   0.411  12.292 -0.1384 -0.3005 -0.5454
 2707SOL    HW119754   3.940   0.422  12.218  0.2053  0.4485 -0.1503
 2707SOL    HW219755   3.800   0.398  12.241 -0.8498  1.4480  0.1345
 2708SOL     OW19756   2.147   0.752  13.667 -0.1019  0.0806 -0.7637
 2708SOL    HW119757   2.242   0.758  13.673 -0.2098  0.0905  1.0297
 2708SOL    HW219758   2.129   0.808  13.591  0.5187  3.9477  1.9007
 2709SOL     OW19759   3.475   2.012   4.796  0.4209 -0.1579  0.1548
 2709SOL    HW119760   3.508   2.034   4.709  0.5963 -0.9947  0.0071
 2709SOL    HW219761   3.501   1.921   4.809  0.7783 -0.3028 -1.6037
 2710SOL     OW19762   0.681   0.553  17.693 -0.0146  0.0766  0.0082
 2710SOL    HW119763   0.696   0.617   0.027  2.5849  0.1587 -0.6496
 2710SOL    HW219764   0.593   0.578  17.665  0.6557  3.1197  0.5590
 2711SOL     OW19765   4.052   0.663   8.178  0.0356  0.5266 -0.1335
 2711SOL    HW119766   3.959   0.681   8.170  0.5689  1.7620 -3.4223
 2711SOL    HW219767   4.078   0.739   8.231  0.2837  1.6271 -1.8354
 2712SOL     OW19768   0.795   1.652   8.640  0.1893 -0.2163 -0.3832
 2712SOL    HW119769   0.860   1.590   8.607 -0.2410 -1.3978  0.9819
 2712SOL    HW219770   0.767   1.683   8.554 -2.9886 -2.5496 -0.1860
 2713SOL     OW19771   3.550   3.511   4.343 -0.4076  0.4412  0.4011
 2713SOL    HW119772   3.537   3.574   4.413 -0.1532  0.0343  0.8154
 2713SOL    HW219773   3.477   3.536   4.285  1.3992  2.1100 -1.1600
 2714SOL     OW19774   1.721   4.339   6.303 -0.5936  0.5204  0.7743
 2714SOL    HW119775   1.685   4.413   6.254  1.5354 -0.1544 -1.8354
 2714SOL    HW219776   1.744   4.384   6.384 -1.6593 -0.8868  1.8541
 2715SOL     OW19777   1.040   4.687   5.588  0.3182 -0.4437 -0.7009
 2715SOL    HW119778   0.999   4.641   5.662 -1.2552  0.1739 -1.1735
 2715SOL    HW219779   1.016   4.622   5.523 -1.6068 -0.4056 -0.0462
 2716SOL     OW19780   4.118   2.521   4.560  0.3339 -0.3063  0.4855
 2716SOL    HW119781   4.210   2.508   4.585  0.9807  2.2917 -0.4624
 2716SOL    HW219782   4.118   2.615   4.582  2.8058 -0.2341  0.1979
 2717SOL     OW19783   1.869   2.548  13.497 -0.8264 -0.6055  0.4105
 2717SOL    HW119784   1.921   2.623  13.468 -0.2672 -1.5175 -0.9819
 2717SOL    HW219785   1.814   2.592  13.562 -2.6840 -0.5539 -1.1943
 2718SOL     OW19786   0.811   2.185  15.953 -0.5515  0.8338  0.0381
 2718SOL    HW119787   0.759   2.115  15.913  1.5626 -0.1715 -0.9018
 2718SOL    HW219788   0.808   2.155  16.044  0.9346 -2.1826 -0.9288
 2719SOL     OW19789   2.474   3.055   6.345  0.2100  0.2797  0.1010
 2719SOL    HW119790   2.424   2.980   6.376 -0.1486  0.9424  1.1496
 2719SOL    HW219791   2.458   3.104   6.426 -0.3543 -0.1907  0.2761
 2720SOL     OW19792   4.674   4.314   5.315 -0.3419  0.1413 -0.8158
 2720SOL    HW119793   0.027   4.339   5.285  0.1445 -1.9630 -1.1506
 2720SOL    HW219794   4.699   4.300   5.407  1.1806 -0.2617 -1.3000
 2721SOL     OW19795   4.515   4.618   1.602  0.8446 -0.0523 -0.2084
 2721SOL    HW119796   4.528   4.619   1.507 -0.8893 -1.1457 -0.4405
 2721SOL    HW219797   4.446   4.554   1.619  1.9569 -0.6809  1.8555
 2722SOL     OW19798   4.150   1.143   4.798  0.1973 -0.5950  0.2198
 2722SOL    HW119799   4.241   1.124   4.774  0.1275  0.0328 -0.5504
 2722SOL    HW219800   4.107   1.169   4.717  0.0797  1.5351  0.9451
 2723SOL     OW19801   1.257   3.122  10.940 -0.6070 -0.4824 -0.5167
 2723SOL    HW119802   1.271   3.156  11.029  0.3236 -1.0102 -0.4618
 2723SOL    HW219803   1.199   3.047  10.951  1.0295 -1.4313  1.8039
 2724SOL     OW19804   2.801   1.089   4.699  0.4445 -0.6218  0.2495
 2724SOL    HW119805   2.871   1.103   4.635 -0.9415  0.3713 -1.0535
 2724SOL    HW219806   2.760   1.040   4.628  2.1535 -0.3459 -0.9236
 2725SOL     OW19807   0.205   1.780   7.254  0.4512 -0.2964  0.2770
 2725SOL    HW119808   0.261   1.765   7.331  1.2583 -0.5880 -0.3699
 2725SOL    HW219809   0.144   1.709   7.276 -0.6654  1.1498  1.7811
 2726SOL     OW19810   3.202   0.544   8.330 -0.7387 -0.1106 -0.3618
 2726SOL    HW119811   3.170   0.476   8.389  0.1871  0.0982  0.3938
 2726SOL    HW219812   3.221   0.614   8.393 -1.6658  1.6061 -1.9694
 2727SOL     OW19813   4.353   4.582  17.442  0.4248 -0.6764  0.0986
 2727SOL    HW119814   4.383   4.497  17.409  0.5457 -1.2523  1.7040
 2727SOL    HW219815   4.279   4.591  17.382  2.6286  0.6476 -2.4029
 2728SOL     OW19816   2.487   2.427   6.294 -0.0081 -0.1656  0.9856
 2728SOL    HW119817   2.577   2.426   6.261  0.0238 -2.7260  1.1096
 2728SOL    HW219818   2.496   2.478   6.375 -0.4557 -1.2384  1.7100
 2729SOL     OW19819   3.646   2.297   4.504  0.7519 -0.3818  1.0138
 2729SOL    HW119820   3.561   2.337   4.485  1.6491  0.4773 -1.1759
 2729SOL    HW219821   3.714   2.351   4.463 -0.2536  0.5177  0.5175
 2730SOL     OW19822   0.039   4.661   4.565  0.0193  0.1161 -0.6241
 2730SOL    HW119823   4.696   4.703   4.603 -0.0556 -1.4061  0.9102
 2730SOL    HW219824   0.065   4.734   4.508  0.9729 -0.1091 -0.4812
 2731SOL     OW19825   1.742   0.381   1.126 -0.5450 -0.4021 -0.3183
 2731SOL    HW119826   1.707   0.317   1.187  0.6273  1.1871  2.0341
 2731SOL    HW219827   1.740   0.329   1.046  0.0620 -1.9328  0.6721
 2732SOL     OW19828   3.621   1.022   3.795 -0.5921  0.0263  0.3672
 2732SOL    HW119829   3.581   1.103   3.764 -0.3003 -0.6134 -1.7093
 2732SOL    HW219830   3.546   0.987   3.843 -0.8051  1.5425  1.1338
 2733SOL     OW19831   0.165   3.263   3.675 -0.4997  0.0988 -0.1589
 2733SOL    HW119832   0.169   3.218   3.759 -3.0496 -1.1130 -0.6704
 2733SOL    HW219833   0.213   3.344   3.687  1.3577 -0.7085 -2.2543
 2734SOL     OW19834   4.037   1.483   2.743  0.2082  0.3081 -0.2821
 2734SOL    HW119835   4.081   1.399   2.727 -0.7997  0.2529 -2.8768
 2734SOL    HW219836   4.031   1.526   2.657  3.2041  2.4463  0.5682
 2735SOL     OW19837   0.676   2.235   0.895 -0.3135  0.0220 -0.6489
 2735SOL    HW119838   0.748   2.218   0.834  0.9663  1.5401  0.4251
 2735SOL    HW219839   0.696   2.160   0.950 -0.1126 -1.0201 -2.1547
 2736SOL     OW19840   0.722   1.846   5.424  0.6079  0.0386  0.2799
 2736SOL    HW119841   0.756   1.805   5.503 -2.5422 -2.7672  0.1926
 2736SOL    HW219842   0.757   1.934   5.414 -1.8878  0.8588 -1.2345
 2737SOL     OW19843   0.275   2.772  16.031 -0.0489 -0.1986  0.5747
 2737SOL    HW119844   0.224   2.850  16.056  2.5406  1.0538  1.9151
 2737SOL    HW219845   0.207   2.707  16.048 -0.9163  0.5614  0.0633
 2738SOL     OW19846   0.502   3.867   6.222 -0.6057  0.5732 -0.2357
 2738SOL    HW119847   0.540   3.782   6.198 -2.3687 -0.6233  1.1699
 2738SOL    HW219848   0.522   3.925   6.149  2.0742  0.3744  0.3164
 2739SOL     OW19849   2.010   4.326   3.870 -0.3645  0.0553  0.1729
 2739SOL    HW119850   2.070   4.352   3.940 -0.4788 -0.4004  0.4423
 2739SOL    HW219851   1.968   4.408   3.846 -0.5108 -0.1568 -0.2997
 2740SOL     OW19852   0.650   0.536   0.284  0.0252 -0.4662 -0.0451
 2740SOL    HW119853   0.606   0.459   0.248 -0.5367  0.2527 -0.8531
 2740SOL    HW219854   0.730   0.501   0.323  1.0987 -0.3150 -2.1367
 2741SOL     OW19855   2.907   2.304   8.563 -0.0244 -0.0895 -0.6531
 2741SOL    HW119856   2.872   2.295   8.475 -0.8345  1.2360 -0.4658
 2741SOL    HW219857   2.945   2.392   8.562  0.0416 -0.1179 -0.5959
 2742SOL     OW19858   2.074   3.223   2.594 -0.2504 -0.3098 -0.0441
 2742SOL    HW119859   2.065   3.266   2.679  0.3689  1.0307 -0.6657
 2742SOL    HW219860   1.982   3.211   2.571 -0.9635  1.0240  2.1994
 2743SOL     OW19861   2.550   4.317   9.325  0.0514 -0.5641 -0.3521
 2743SOL    HW119862   2.577   4.397   9.371 -1.0262 -0.0263 -0.6617
 2743SOL    HW219863   2.576   4.246   9.385  0.7522  1.3270  1.5985
 2744SOL     OW19864   2.408   1.812   8.538  0.1160  0.5516  0.3060
 2744SOL    HW119865   2.424   1.731   8.490  1.2029  1.0982 -0.2518
 2744SOL    HW219866   2.496   1.837   8.566  0.7006 -0.5687 -0.5236
 2745SOL     OW19867   1.095   0.264   5.413  0.1657 -0.1783  0.1700
 2745SOL    HW119868   1.005   0.232   5.418  0.0976 -0.3476 -2.1687
 2745SOL    HW219869   1.093   0.324   5.488  0.4950  0.7217 -0.5387
 2746SOL     OW19870   1.919   3.711  13.416  0.2297  0.0641 -0.1687
 2746SOL    HW119871   1.864   3.704  13.338 -0.0283  2.8631 -0.2308
 2746SOL    HW219872   1.922   3.620  13.446  0.3726 -0.4106 -1.5995
 2747SOL     OW19873   3.897   4.631   3.778 -0.1933  0.0732  0.1317
 2747SOL    HW119874   3.879   4.654   3.687 -1.0184  1.4006  0.6242
 2747SOL    HW219875   3.885   4.537   3.786 -3.8710  0.4517 -0.6513
 2748SOL     OW19876   3.510   2.896   2.665 -0.2474 -0.8776 -0.3035
 2748SOL    HW119877   3.560   2.975   2.685  0.9958 -1.4897 -0.9568
 2748SOL    HW219878   3.565   2.820   2.682 -0.0619 -0.3864  1.2711
 2749SOL     OW19879   1.149   0.820  15.433  0.5792  0.6727  0.0474
 2749SOL    HW119880   1.100   0.901  15.451 -1.1600 -0.0226 -1.5751
 2749SOL    HW219881   1.086   0.760  15.471  0.4116  0.2531 -0.8905
 2750SOL     OW19882   3.472   3.241   7.219 -0.2236  0.4107 -0.2870
 2750SOL    HW119883   3.440   3.152   7.205  0.5454  0.1410 -0.3094
 2750SOL    HW219884   3.567   3.240   7.211 -0.4483  0.9713 -3.1683
 2751SOL     OW19885   0.123   3.333   2.610 -0.4255 -0.5206 -0.5971
 2751SOL    HW119886   0.095   3.408   2.559 -0.5620 -2.0790 -2.8188
 2751SOL    HW219887   0.130   3.256   2.554  1.7283 -1.1580  0.5457
 2752SOL     OW19888   3.341   2.566  11.895  0.0630 -0.1149  0.5958
 2752SOL    HW119889   3.267   2.513  11.924 -1.1048  0.9885 -0.3733
 2752SOL    HW219890   3.409   2.500  11.878 -0.3345 -0.4628  0.3410
 2753SOL     OW19891   3.952   0.129  15.857  0.6854 -0.2750  0.1655
 2753SOL    HW119892   4.010   0.204  15.848  0.6140 -0.0525  1.4754
 2753SOL    HW219893   3.990   0.072  15.790  0.1981 -0.2615 -0.1255
 2754SOL     OW19894   0.352   0.670   3.389  0.2568 -0.3365 -0.2305
 2754SOL    HW119895   0.309   0.679   3.303 -0.1241 -0.8949 -0.1000
 2754SOL    HW219896   0.380   0.760   3.406 -0.4561 -0.4744  1.6096
 2755SOL     OW19897   4.485   2.537   4.372 -0.4461 -0.0015 -0.4942
 2755SOL    HW119898   4.495   2.442   4.370 -2.0371 -0.1891  0.4047
 2755SOL    HW219899   4.486   2.552   4.466 -1.6391  2.8841 -0.9532
 2756SOL     OW19900   4.171   0.651  12.461  0.7711 -0.0644 -0.5803
 2756SOL    HW119901   4.205   0.671  12.548 -0.1912  0.9560 -0.4428
 2756SOL    HW219902   4.189   0.735  12.419  0.1813 -0.6588 -2.0356
 2757SOL     OW19903   0.855   1.868   6.516 -0.8957  0.7759 -0.1615
 2757SOL    HW119904   0.780   1.824   6.558  0.1310  0.9950  1.8821
 2757SOL    HW219905   0.898   1.795   6.472 -2.0876  0.0225 -0.0949
 2758SOL     OW19906   0.787   1.774   6.148 -0.0713  0.4080 -0.5053
 2758SOL    HW119907   0.714   1.720   6.180 -1.0552  1.6860 -0.5793
 2758SOL    HW219908   0.826   1.707   6.091  0.0663  0.3818 -0.3797
 2759SOL     OW19909   1.584   2.305   1.972 -0.1697 -0.6917 -0.4074
 2759SOL    HW119910   1.566   2.211   1.981 -3.2010 -0.1903 -1.1910
 2759SOL    HW219911   1.550   2.336   2.056 -1.2971  0.9975 -1.4905
 2760SOL     OW19912   2.928   3.508   0.654  0.2975  0.2264  0.0386
 2760SOL    HW119913   2.941   3.567   0.579 -1.1351  1.5887  0.8602
 2760SOL    HW219914   3.007   3.531   0.703  0.9843 -2.2659  0.0953
 2761SOL     OW19915   2.456   1.350   0.302  0.2687 -0.1340  0.6311
 2761SOL    HW119916   2.498   1.436   0.314 -0.0747  0.1258 -0.0297
 2761SOL    HW219917   2.537   1.302   0.285  1.1234  2.0076 -1.3553
 2762SOL     OW19918   1.929   1.728   2.859 -0.1597  0.1389  0.1721
 2762SOL    HW119919   2.006   1.706   2.807 -1.0665 -1.0572 -0.6700
 2762SOL    HW219920   1.971   1.739   2.944  0.9814  1.9464 -0.6307
 2763SOL     OW19921   0.784   1.822   7.790 -0.3302  0.0009  0.0298
 2763SOL    HW119922   0.872   1.821   7.829  0.2135  1.1311 -1.1759
 2763SOL    HW219923   0.718   1.815   7.859 -1.4085 -0.3727 -1.0484
 2764SOL     OW19924   1.085   1.315   6.538 -0.6386 -0.2235  0.2747
 2764SOL    HW119925   1.066   1.366   6.460  0.9086 -0.7411 -0.4363
 2764SOL    HW219926   1.163   1.362   6.569 -0.3815 -1.4611  1.5202
 2765SOL     OW19927   2.442   1.989   0.078 -0.5505 -0.4924 -0.2304
 2765SOL    HW119928   2.456   2.083   0.088 -1.1217 -0.2963 -1.2734
 2765SOL    HW219929   2.443   1.983  17.718  1.0230  2.0958 -0.3692
 2766SOL     OW19930   0.151   1.868  11.631 -0.9658 -0.0487  0.2853
 2766SOL    HW119931   0.228   1.867  11.575  1.1364  3.0848  3.0548
 2766SOL    HW219932   0.085   1.908  11.574  1.4567  0.7492 -1.9274
 2767SOL     OW19933   0.808   3.456   3.666 -0.5299  0.4132  0.2484
 2767SOL    HW119934   0.747   3.383   3.655  1.0759 -1.0776  1.0721
 2767SOL    HW219935   0.765   3.537   3.641 -1.6916  0.1349  1.3340
 2768SOL     OW19936   2.966   4.537   1.382 -0.0545 -0.0554  0.7130
 2768SOL    HW119937   3.001   4.510   1.467  0.4077 -0.4042  0.4184
 2768SOL    HW219938   2.977   4.630   1.402 -0.0925 -0.3578  2.1577
 2769SOL     OW19939   0.825   0.463   6.879  0.7349 -0.7081  0.2503
 2769SOL    HW119940   0.755   0.526   6.897 -0.4811 -2.4036  1.3933
 2769SOL    HW219941   0.897   0.518   6.908  0.0886  1.6348 -2.5323
 2770SOL     OW19942   2.150   2.305   2.866 -0.1679 -0.0374  0.0217
 2770SOL    HW119943   2.056   2.324   2.866 -0.1610 -0.0169 -1.0312
 2770SOL    HW219944   2.176   2.349   2.785 -0.1685 -0.2365 -0.0851
 2771SOL     OW19945   0.478   1.595   1.900 -0.2697  0.0014 -0.4365
 2771SOL    HW119946   0.553   1.654   1.897 -0.1684 -0.1156 -0.2043
 2771SOL    HW219947   0.446   1.616   1.812  1.5408  3.0598 -0.3718
 2772SOL     OW19948   4.674   3.983   8.192  0.7811 -0.0559 -0.5428
 2772SOL    HW119949   4.691   3.935   8.273  0.0992  1.2134  0.3497
 2772SOL    HW219950   4.633   3.910   8.146 -1.0175 -0.8848  2.3739
 2773SOL     OW19951   3.871   3.584   5.862  0.3953  0.6502  0.0584
 2773SOL    HW119952   3.885   3.541   5.946  0.5467  2.3834  0.9295
 2773SOL    HW219953   3.777   3.597   5.876  0.2873 -0.6994  0.5648
 2774SOL     OW19954   4.572   1.085  15.568  0.5447 -0.6112  0.1057
 2774SOL    HW119955   4.560   1.169  15.524 -0.0867 -1.4387 -1.2912
 2774SOL    HW219956   4.617   1.032  15.503 -1.4796  0.3013 -2.0437
 2775SOL     OW19957   0.219   4.319   7.292  0.4254  0.5975 -0.2984
 2775SOL    HW119958   0.300   4.282   7.256  1.3735  1.7618  0.6367
 2775SOL    HW219959   0.218   4.291   7.384 -0.8625 -0.8332 -0.7435
 2776SOL     OW19960   3.834   1.692   7.984  0.2243 -0.1751  0.0285
 2776SOL    HW119961   3.832   1.707   7.889 -1.6812 -1.0795 -0.0875
 2776SOL    HW219962   3.766   1.625   7.992 -1.2911  1.3689 -0.0095
 2777SOL     OW19963   1.049   3.530   9.323  0.0900  0.0060 -0.1694
 2777SOL    HW119964   1.104   3.534   9.244 -0.1416 -1.9317 -0.4282
 2777SOL    HW219965   0.965   3.557   9.287  1.1809 -0.1578 -2.8527
 2778SOL     OW19966   0.225   1.848   5.397  0.1157  0.1518  0.4093
 2778SOL    HW119967   0.308   1.881   5.432 -0.9242  2.2093  0.9174
 2778SOL    HW219968   0.204   1.820   5.486  2.9510 -2.1357  0.3704
 2779SOL     OW19969   2.298   3.656   6.528 -0.1515 -0.0220  0.3034
 2779SOL    HW119970   2.359   3.729   6.523  0.8215 -0.7728  1.2849
 2779SOL    HW219971   2.234   3.691   6.590  0.4691  1.5399  0.0527
 2780SOL     OW19972   4.527   3.686   5.030  0.1669  0.0739 -0.2455
 2780SOL    HW119973   4.603   3.664   5.084  1.1617  1.6526 -0.9837
 2780SOL    HW219974   4.561   3.771   5.000 -2.3253  1.3761  0.5510
 2781SOL     OW19975   4.377   0.788  14.524  0.0522 -0.3351  0.2525
 2781SOL    HW119976   4.436   0.847  14.572  1.1574 -0.6804 -0.6724
 2781SOL    HW219977   4.328   0.844  14.463  1.0055  1.7407  1.3914
 2782SOL     OW19978   3.018   4.503  12.231  0.0437 -0.0099 -0.2829
 2782SOL    HW119979   2.974   4.487  12.315  2.1614 -0.4844  0.7468
 2782SOL    HW219980   2.982   4.588  12.207  0.8294  1.0091  2.1919
 2783SOL     OW19981   2.726   2.397  17.220 -0.0788 -0.5169 -0.0687
 2783SOL    HW119982   2.698   2.423  17.132  1.5643  1.1400 -0.0902
 2783SOL    HW219983   2.684   2.460  17.279 -0.2114 -1.8807  1.2863
 2784SOL     OW19984   2.354   4.564   8.854 -0.3860 -0.5323  0.5711
 2784SOL    HW119985   2.367   4.552   8.948 -2.6191 -1.3463  0.7707
 2784SOL    HW219986   2.295   4.639   8.848  1.2178  0.8022  1.6019
 2785SOL     OW19987   2.123   2.683  14.365  0.6029  0.6033  0.0250
 2785SOL    HW119988   2.144   2.627  14.290 -0.5356 -0.0584  0.2065
 2785SOL    HW219989   2.049   2.731  14.328  1.9886  2.6635 -0.0912
 2786SOL     OW19990   1.249   1.080   2.760  0.7430  0.3279 -0.1115
 2786SOL    HW119991   1.247   0.999   2.709 -0.1893 -0.4033  1.0864
 2786SOL    HW219992   1.157   1.090   2.786  0.3527 -0.5388 -1.1412
 2787SOL     OW19993   4.130   0.514  11.111  0.2570  0.4951 -0.8152
 2787SOL    HW119994   4.182   0.470  11.044  0.0140 -2.0933  0.6981
 2787SOL    HW219995   4.070   0.559  11.051 -0.5939  0.0056 -0.3246
 2788SOL     OW19996   1.392   3.230   6.490  0.0646  0.1245 -0.0556
 2788SOL    HW119997   1.358   3.143   6.468 -0.1494 -0.0704  1.0629
 2788SOL    HW219998   1.317   3.271   6.532  0.4067 -0.7684  1.4366
 2789SOL     OW19999   1.586   2.750   5.749  0.1132 -0.2071  0.0626
 2789SOL    HW120000   1.650   2.743   5.679  0.1741 -1.4449  0.2343
 2789SOL    HW220001   1.519   2.785   5.691 -2.4505 -0.9476  2.5922
 2790SOL     OW20002   0.455   3.102   8.604  0.5247 -0.6123 -0.3567
 2790SOL    HW120003   0.395   3.137   8.538  0.4975 -0.6585 -0.3564
 2790SOL    HW220004   0.454   3.175   8.666 -1.0960 -0.4930 -0.5016
 2791SOL     OW20005   1.030   4.087   5.047  0.3139  0.6058 -0.0953
 2791SOL    HW120006   1.065   4.000   5.032  0.2590  0.8499 -1.6611
 2791SOL    HW220007   0.962   4.065   5.109  0.2089  1.1815  0.0002
 2792SOL     OW20008   3.978   3.187   2.818  0.0495  0.7142 -0.3737
 2792SOL    HW120009   3.941   3.274   2.833  0.3696  0.8738 -0.4931
 2792SOL    HW220010   4.071   3.210   2.816  0.3762 -0.3451  3.1211
 2793SOL     OW20011   4.703   4.317   5.891 -0.8819 -0.0003 -0.1202
 2793SOL    HW120012   0.023   4.376   5.943  0.0328 -0.7181 -0.2645
 2793SOL    HW220013   4.617   4.359   5.899 -1.4870 -1.1031 -0.9063
 2794SOL     OW20014   4.504   3.759  11.486 -0.0296  0.2206 -0.1013
 2794SOL    HW120015   4.447   3.695  11.527  1.0072 -0.2817  0.5663
 2794SOL    HW220016   4.461   3.767  11.401 -1.3413  1.5483  0.7040
 2795SOL     OW20017   4.234   2.112   3.143  0.0169 -0.4134  0.3332
 2795SOL    HW120018   4.180   2.188   3.120  1.0280  0.3788  0.5367
 2795SOL    HW220019   4.307   2.120   3.082  1.0144  0.5940  1.6607
 2796SOL     OW20020   4.026   3.856  16.568  0.2798  0.5773 -0.1646
 2796SOL    HW120021   4.012   3.948  16.588 -1.8924  0.7993 -2.6301
 2796SOL    HW220022   3.993   3.835  16.480  0.4302  1.3476 -0.4054
 2797SOL     OW20023   3.471   1.914  10.806  0.4703 -0.5215  0.0304
 2797SOL    HW120024   3.544   1.851  10.805  2.9676  2.4284 -1.9690
 2797SOL    HW220025   3.496   1.982  10.868 -0.7736 -1.2930  1.3768
 2798SOL     OW20026   4.219   1.258  17.094 -0.0362 -0.2251  0.2532
 2798SOL    HW120027   4.237   1.321  17.025 -1.1402 -1.2802 -0.9942
 2798SOL    HW220028   4.305   1.224  17.119 -0.4211 -0.5245  1.2143
 2799SOL     OW20029   4.229   2.418  16.466  0.6768  0.3046 -0.2601
 2799SOL    HW120030   4.269   2.474  16.532  2.0889 -1.4483  0.3487
 2799SOL    HW220031   4.225   2.476  16.389 -0.8945  0.1280 -0.3157
 2800SOL     OW20032   2.888   2.115   9.217 -0.2287  0.0433 -0.1893
 2800SOL    HW120033   2.942   2.052   9.265  0.0059  0.4941  0.1382
 2800SOL    HW220034   2.802   2.100   9.256  1.3839 -1.3655  2.7430
 2801SOL     OW20035   2.305   3.550   9.427 -0.9370 -0.1726  0.6738
 2801SOL    HW120036   2.260   3.467   9.444 -1.4076  0.1290  0.9126
 2801SOL    HW220037   2.371   3.544   9.496 -0.7988 -1.7407  0.4229
 2802SOL     OW20038   2.408   2.812   2.403 -0.1451  0.7270 -0.2940
 2802SOL    HW120039   2.478   2.838   2.464  0.8608  0.5049 -1.3426
 2802SOL    HW220040   2.350   2.883   2.428 -0.0961  1.1304 -1.3178
 2803SOL     OW20041   4.643   3.093  12.891 -0.1104  0.3454  0.0141
 2803SOL    HW120042   4.618   3.042  12.968  1.8166  1.4313  1.3605
 2803SOL    HW220043   4.711   3.041  12.847  0.1939 -1.1733  2.3264
 2804SOL     OW20044   2.412   1.375   7.858  0.0693  0.5984 -0.5314
 2804SOL    HW120045   2.495   1.350   7.817  0.5027  1.3736 -0.1249
 2804SOL    HW220046   2.356   1.298   7.850 -0.2634  0.5254  2.6260
 2805SOL     OW20047   1.390   0.121  15.386 -0.2676  0.4780 -0.1394
 2805SOL    HW120048   1.331   0.160  15.450  1.2713 -1.1315  2.3120
 2805SOL    HW220049   1.464   0.096  15.442 -0.5847 -0.1147  0.0151
 2806SOL     OW20050   0.319   4.406   2.295  0.1747  0.2506 -0.5260
 2806SOL    HW120051   0.369   4.484   2.319  2.7039 -1.9332  1.2374
 2806SOL    HW220052   0.256   4.402   2.366  0.7300  0.6502 -0.0118
 2807SOL     OW20053   4.354   2.302   8.185 -0.1298  0.2063  0.3920
 2807SOL    HW120054   4.438   2.344   8.168 -0.6427  0.7186 -0.8844
 2807SOL    HW220055   4.316   2.372   8.239 -1.4086  0.5983 -1.0128
 2808SOL     OW20056   4.322   0.652   5.236  0.7628 -0.4297  0.6209
 2808SOL    HW120057   4.339   0.572   5.286 -0.8010 -0.3103  1.3559
 2808SOL    HW220058   4.235   0.678   5.267 -0.1686  0.1429 -2.4089
 2809SOL     OW20059   0.751   4.237   6.787 -0.4568  0.8633  0.0960
 2809SOL    HW120060   0.806   4.246   6.865  0.4673 -1.4138 -0.3036
 2809SOL    HW220061   0.691   4.164   6.803  1.7778 -0.5953  1.7619
 2810SOL     OW20062   3.391   2.846   3.530  0.3750 -0.6660  0.0137
 2810SOL    HW120063   3.393   2.849   3.435  2.1389 -0.4742  0.0641
 2810SOL    HW220064   3.475   2.885   3.553 -0.0369 -0.1848  0.7279
 2811SOL     OW20065   1.710   3.888   3.199  0.2545 -0.0747 -0.4187
 2811SOL    HW120066   1.758   3.956   3.246 -0.3928 -0.3100  0.5743
 2811SOL    HW220067   1.763   3.899   3.120 -1.7093  0.6190 -1.6587
 2812SOL     OW20068   3.216   0.125   3.229 -0.0466  0.2525 -0.2748
 2812SOL    HW120069   3.270   0.057   3.268  1.3382  0.7955 -1.2341
 2812SOL    HW220070   3.197   0.092   3.141 -1.1547 -0.4306  0.2252
 2813SOL     OW20071   0.038   3.070  15.187 -0.2928  0.0760  0.1530
 2813SOL    HW120072   0.089   3.034  15.115 -0.1199  1.4723 -0.4242
 2813SOL    HW220073   0.099   3.047  15.257 -0.6708  0.0552  0.4804
 2814SOL     OW20074   0.674   2.933   3.685 -0.2615  0.4968 -0.2855
 2814SOL    HW120075   0.665   2.839   3.700 -0.6874  0.2070 -2.3504
 2814SOL    HW220076   0.680   2.940   3.590 -2.9855 -0.7158 -0.5547
 2815SOL     OW20077   3.739   0.806   3.493 -0.3404  0.1719 -0.0245
 2815SOL    HW120078   3.829   0.781   3.515 -0.6415 -1.2839 -0.4343
 2815SOL    HW220079   3.741   0.898   3.517 -0.4928 -0.3758  2.1863
 2816SOL     OW20080   3.705   1.750  10.787  0.1523  0.4250 -0.1775
 2816SOL    HW120081   3.733   1.766  10.697 -2.5736 -1.4600 -1.3632
 2816SOL    HW220082   3.789   1.737  10.831  0.2797  1.1181 -0.2143
 2817SOL     OW20083   1.762   4.467   6.566  0.1988 -0.1276 -0.1564
 2817SOL    HW120084   1.746   4.422   6.649 -2.4111 -3.2086 -2.3495
 2817SOL    HW220085   1.854   4.494   6.568  1.0320 -2.8301 -1.7599
 2818SOL     OW20086   2.728   3.746   6.014 -0.8261  0.7445 -1.2443
 2818SOL    HW120087   2.641   3.708   6.023  0.0445 -0.5182  1.7116
 2818SOL    HW220088   2.741   3.709   5.926 -0.8700 -2.0682 -0.0590
 2819SOL     OW20089   3.156   2.839   4.032 -0.1577  0.1308  0.5338
 2819SOL    HW120090   3.202   2.915   4.068  0.8625 -0.7596  1.1013
 2819SOL    HW220091   3.130   2.881   3.950 -1.8383 -1.7747  0.1037
 2820SOL     OW20092   3.045   1.545   8.765 -0.0012  0.5931  0.1788
 2820SOL    HW120093   3.075   1.633   8.742  0.6646  0.8909  2.2207
 2820SOL    HW220094   3.118   1.485   8.749 -1.6355 -0.8739 -1.7402
 2821SOL     OW20095   1.449   1.906   3.008 -0.2729 -0.1585 -0.2785
 2821SOL    HW120096   1.459   1.851   3.086  1.5058 -0.0858 -0.4752
 2821SOL    HW220097   1.534   1.889   2.969  0.5364  2.1968  0.4518
 2822SOL     OW20098   0.042   0.678   3.505 -0.3149  0.2282  0.0223
 2822SOL    HW120099   0.112   0.613   3.509 -0.1641  0.4742  1.1844
 2822SOL    HW220100   0.005   0.670   3.417 -0.5140  1.6059 -0.0134
 2823SOL     OW20101   0.374   2.324   3.438 -0.0175 -0.6766  0.2669
 2823SOL    HW120102   0.399   2.398   3.492  0.4473  1.1210 -2.4379
 2823SOL    HW220103   0.370   2.251   3.500 -0.9611 -1.3093 -0.5188
 2824SOL     OW20104   2.555   2.242  17.527 -0.0511  0.3274 -0.2740
 2824SOL    HW120105   2.517   2.155  17.540  0.7973 -0.1270 -0.8592
 2824SOL    HW220106   2.588   2.251  17.616  0.2988  0.0514 -0.3763
 2825SOL     OW20107   0.399   2.127  11.862  0.6916 -0.8030 -0.0556
 2825SOL    HW120108   0.427   2.213  11.892 -1.6106 -0.9438  2.5209
 2825SOL    HW220109   0.465   2.068  11.897  0.8727  0.2380  1.3296
 2826SOL     OW20110   0.405   3.597   8.880  0.1508  0.3854  0.0650
 2826SOL    HW120111   0.310   3.599   8.869 -0.0717 -1.3634  1.6704
 2826SOL    HW220112   0.419   3.639   8.965  0.8092  0.8588 -0.2813
 2827SOL     OW20113   1.138   2.686  17.722 -0.2532 -0.0189 -0.6414
 2827SOL    HW120114   1.191   2.719   0.059 -0.8389  0.9677 -0.6537
 2827SOL    HW220115   1.202   2.657  17.657  2.5825 -2.8354  3.4654
 2828SOL     OW20116   1.518   4.300  13.004 -0.2203 -0.1346  0.0378
 2828SOL    HW120117   1.586   4.241  13.036  1.0945  0.8955 -0.8649
 2828SOL    HW220118   1.475   4.303  13.089  0.8343  1.5303  0.5088
 2829SOL     OW20119   2.249   3.677   7.184 -0.7236  0.3619  0.0701
 2829SOL    HW120120   2.264   3.668   7.278  0.8435  0.0133 -0.2041
 2829SOL    HW220121   2.277   3.591   7.152  1.1428  1.3756 -1.0167
 2830SOL     OW20122   1.270   0.655   5.812  0.1779 -0.1213  0.2664
 2830SOL    HW120123   1.300   0.684   5.726 -0.1400  2.3163  0.9659
 2830SOL    HW220124   1.202   0.719   5.833  0.7239  0.8434 -0.9261
 2831SOL     OW20125   2.611   0.286   2.622 -0.7172 -0.6212 -0.3766
 2831SOL    HW120126   2.562   0.210   2.655 -0.4717 -0.3716  0.5617
 2831SOL    HW220127   2.633   0.324   2.707 -0.3127  1.0374 -1.2195
 2832SOL     OW20128   0.808   4.105   1.833  0.2596  0.1704 -0.0153
 2832SOL    HW120129   0.854   4.122   1.914 -0.1381 -0.2467  0.2995
 2832SOL    HW220130   0.733   4.053   1.862  1.4797 -0.8272  1.3262
 2833SOL     OW20131   0.485   3.843   8.690  0.3398 -0.0238 -0.1835
 2833SOL    HW120132   0.533   3.895   8.754  0.9346 -0.8889  0.0829
 2833SOL    HW220133   0.482   3.758   8.735  0.4722  0.9668  1.6839
 2834SOL     OW20134   2.646   0.569   4.904 -0.0328 -0.1677 -0.0434
 2834SOL    HW120135   2.671   0.656   4.875  0.8428  0.0341  1.3192
 2834SOL    HW220136   2.700   0.513   4.847  0.3035 -0.6706  0.7667
 2835SOL     OW20137   0.126   3.829   7.406  0.9287 -0.2501  0.3256
 2835SOL    HW120138   0.193   3.874   7.355  3.6336 -1.0429  3.1905
 2835SOL    HW220139   0.160   3.740   7.414 -2.0688 -1.3100  1.5500
 2836SOL     OW20140   2.726   1.146   8.660 -0.4034 -0.2687  0.5244
 2836SOL    HW120141   2.763   1.230   8.632 -1.8481  0.9858  2.4212
 2836SOL    HW220142   2.709   1.170   8.751 -1.3713 -1.0486  0.5418
 2837SOL     OW20143   2.388   3.460   3.421 -0.0402  0.4792  0.1597
 2837SOL    HW120144   2.299   3.454   3.455  0.2023 -0.6741  0.5707
 2837SOL    HW220145   2.397   3.552   3.395 -3.6274  0.8458  0.2200
 2838SOL     OW20146   0.718   3.856   8.143 -0.3610 -0.5654 -0.3810
 2838SOL    HW120147   0.695   3.887   8.231 -2.0439  1.6628 -1.6074
 2838SOL    HW220148   0.658   3.784   8.125 -0.8623  0.0055 -1.0098
 2839SOL     OW20149   0.269   2.388  15.703  0.2947  0.1504 -0.2403
 2839SOL    HW120150   0.223   2.472  15.713  0.0900 -0.0776  0.6894
 2839SOL    HW220151   0.358   2.422  15.705  0.6054 -0.6966  0.1338
 2840SOL     OW20152   1.618   0.315   7.315 -0.1306  0.2820  0.1681
 2840SOL    HW120153   1.707   0.281   7.306  1.0286  3.3201  0.0629
 2840SOL    HW220154   1.590   0.275   7.398 -0.3697  0.7728  0.3219
 2841SOL     OW20155   2.320   2.780   9.510  0.6591 -0.1355  0.2098
 2841SOL    HW120156   2.351   2.749   9.595  0.3685  0.5631  0.5721
 2841SOL    HW220157   2.236   2.813   9.542  0.1905 -0.3321 -0.8201
 2842SOL     OW20158   2.575   1.189  11.811 -0.1961  0.1093  0.4034
 2842SOL    HW120159   2.654   1.230  11.777  0.8812 -1.5432  0.8713
 2842SOL    HW220160   2.527   1.262  11.850 -1.5194 -0.2559 -0.5595
 2843SOL     OW20161   1.622   0.508   3.670  0.0059  0.4756 -0.5668
 2843SOL    HW120162   1.546   0.526   3.725 -1.3898  0.9815 -2.6527
 2843SOL    HW220163   1.601   0.574   3.603  2.4096  1.7967 -0.0328
 2844SOL     OW20164   3.480   1.143   9.306  0.0484  0.4039 -0.1800
 2844SOL    HW120165   3.523   1.216   9.351  0.6323 -0.6775  1.0106
 2844SOL    HW220166   3.417   1.180   9.244  0.1857 -0.5056 -0.8627
 2845SOL     OW20167   2.330   3.832  14.522  0.1361  0.0266 -0.4074
 2845SOL    HW120168   2.331   3.737  14.528  0.7456  0.0357 -0.3532
 2845SOL    HW220169   2.390   3.860  14.592 -1.4536 -1.4685  1.5476
 2846SOL     OW20170   2.588   0.750   3.717  0.2148  0.2177  0.1987
 2846SOL    HW120171   2.522   0.696   3.673 -0.8955  0.3978  1.6349
 2846SOL    HW220172   2.652   0.681   3.737 -0.7367 -0.5174  0.7369
 2847SOL     OW20173   2.047   2.751   2.497 -0.6251  0.0617  0.4674
 2847SOL    HW120174   2.107   2.824   2.504  0.3641 -0.7272  0.2191
 2847SOL    HW220175   1.965   2.801   2.503 -0.2975  0.9896 -3.1290
 2848SOL     OW20176   4.627   0.363   5.344  0.5411  0.0882  0.4990
 2848SOL    HW120177   4.673   0.388   5.424  1.4098 -0.8673  0.2974
 2848SOL    HW220178   4.656   0.431   5.284  0.6404  1.0200  1.6181
 2849SOL     OW20179   1.481   1.301   6.822  0.6526  0.0651  0.2634
 2849SOL    HW120180   1.522   1.382   6.851  2.2515 -1.1248  1.3008
 2849SOL    HW220181   1.551   1.257   6.774 -0.3074 -3.0806  1.7385
 2850SOL     OW20182   1.211   3.086   3.633  0.5309  0.1185  0.3880
 2850SOL    HW120183   1.131   3.137   3.649  0.8761  0.9552 -0.6209
 2850SOL    HW220184   1.267   3.161   3.651  2.2956 -0.8968 -0.9701
 2851SOL     OW20185   0.583   0.854   3.766  0.5122 -0.1386  0.0417
 2851SOL    HW120186   0.548   0.936   3.731  0.6636 -0.1639 -0.1714
 2851SOL    HW220187   0.512   0.800   3.731  0.3007 -0.9079  1.6962
 2852SOL     OW20188   0.100   1.207   0.509 -0.0566  0.7535 -0.2097
 2852SOL    HW120189   0.127   1.199   0.417  1.3179  0.3763  0.2366
 2852SOL    HW220190   0.166   1.152   0.551 -1.3584 -1.3477 -0.8975
 2853SOL     OW20191   2.953   0.092   7.788  0.0975 -0.2864 -0.7905
 2853SOL    HW120192   2.963   4.731   7.783 -1.9126 -0.4499 -1.5360
 2853SOL    HW220193   3.044   0.122   7.792 -0.0886  0.2031 -0.1606
 2854SOL     OW20194   3.208   2.395   8.828  0.3340  0.7922  0.3152
 2854SOL    HW120195   3.257   2.424   8.905  3.7809  2.8425 -2.6665
 2854SOL    HW220196   3.275   2.339   8.788 -1.8115 -0.7817 -1.0764
 2855SOL     OW20197   2.871   0.650   6.083 -0.3410  0.1882  0.1478
 2855SOL    HW120198   2.779   0.675   6.087  0.0692  2.0119 -1.5585
 2855SOL    HW220199   2.868   0.580   6.017 -2.7781  0.8791 -0.4636
 2856SOL     OW20200   2.148   4.127   0.736 -0.5396 -0.4483 -0.6641
 2856SOL    HW120201   2.141   4.222   0.749 -1.4502 -0.5128 -0.6686
 2856SOL    HW220202   2.202   4.103   0.811 -2.3352  1.0757  1.1013
 2857SOL     OW20203   4.146   2.254  11.107  0.4711 -0.1026  0.2941
 2857SOL    HW120204   4.169   2.228  11.018 -1.6594 -2.4699  0.4274
 2857SOL    HW220205   4.071   2.197  11.125  0.3095  1.0347  3.1196
 2858SOL     OW20206   0.613   0.098   1.640  0.2966 -0.1728  0.1992
 2858SOL    HW120207   0.547   0.040   1.676 -0.1607 -0.6968 -1.4602
 2858SOL    HW220208   0.618   0.061   1.551  0.4381 -0.4148  0.3062
 2859SOL     OW20209   0.397   1.538   2.591 -0.4601 -0.0027 -0.4329
 2859SOL    HW120210   0.410   1.603   2.660 -0.8657 -0.2071 -0.1657
 2859SOL    HW220211   0.315   1.572   2.555  0.1043  0.8823 -0.8777
 2860SOL     OW20212   3.127   3.256   6.452  0.3387  0.3186 -0.4811
 2860SOL    HW120213   3.206   3.212   6.423  1.7714  2.2551  0.5097
 2860SOL    HW220214   3.083   3.259   6.367  0.3435 -0.5733 -0.5127
 2861SOL     OW20215   2.348   0.218   9.110 -0.2807 -0.5720 -1.0262
 2861SOL    HW120216   2.362   0.228   9.204 -0.8776  2.0535 -1.2316
 2861SOL    HW220217   2.352   0.307   9.077  1.1293 -0.1424  0.3088
 2862SOL     OW20218   0.778   1.238   2.598  0.0667 -0.0435 -0.2212
 2862SOL    HW120219   0.796   1.297   2.670 -2.4270 -2.4418  2.3583
 2862SOL    HW220220   0.753   1.158   2.644  0.3534  0.4599  0.7922
 2863SOL     OW20221   4.013   1.646   3.588  0.0924  0.6102  0.1147
 2863SOL    HW120222   4.090   1.626   3.535 -1.1950 -0.6919 -1.2784
 2863SOL    HW220223   4.046   1.650   3.677 -0.2518  0.6561  0.2395
 2864SOL     OW20224   3.260   2.443   7.003 -0.3960 -0.2667  0.0131
 2864SOL    HW120225   3.220   2.480   6.925  1.4253 -1.4245 -1.4693
 2864SOL    HW220226   3.182   2.416   7.053 -0.6093 -1.4401 -0.9492
 2865SOL     OW20227   2.929   3.702   7.175 -0.5605  0.0482  0.1771
 2865SOL    HW120228   2.994   3.654   7.227  0.3446  0.7601 -0.2979
 2865SOL    HW220229   2.877   3.738   7.247  0.2220 -0.1613  0.8518
 2866SOL     OW20230   3.906   3.571  13.982 -0.0435 -0.7362 -0.3525
 2866SOL    HW120231   3.943   3.660  13.980  0.0636 -0.7583  0.3734
 2866SOL    HW220232   3.917   3.540  13.893  1.2594 -1.5016  0.0686
 2867SOL     OW20233   3.484   3.443   9.933 -0.0250  0.1713 -0.4944
 2867SOL    HW120234   3.470   3.363   9.983  0.3801 -0.3040 -1.1465
 2867SOL    HW220235   3.577   3.436   9.914 -0.1162 -0.4818 -0.7063
 2868SOL     OW20236   4.101   3.053   8.192  0.2162 -0.4696  0.4267
 2868SOL    HW120237   4.148   2.988   8.141 -0.0196 -0.3087  0.0006
 2868SOL    HW220238   4.058   3.006   8.263 -0.6145  0.8661  0.8186
 2869SOL     OW20239   1.774   1.992  10.601 -0.6236 -0.3151 -0.1658
 2869SOL    HW120240   1.691   1.950  10.624 -1.0619  0.3022 -0.6255
 2869SOL    HW220241   1.839   1.944  10.651 -1.4826  0.1955  1.4513
 2870SOL     OW20242   4.361   0.604  17.619  0.1892 -0.5427  0.1193
 2870SOL    HW120243   4.384   0.542  17.550  0.2272 -0.6363  0.2155
 2870SOL    HW220244   4.354   0.687  17.573  0.2411  0.0753  1.2197
 2871SOL     OW20245   2.983   4.018   1.515  0.1332  0.4091 -0.5941
 2871SOL    HW120246   2.945   3.983   1.596 -0.0680 -0.0918 -0.9003
 2871SOL    HW220247   2.950   4.107   1.522 -0.3065  0.1892  0.1870
 2872SOL     OW20248   4.203   4.674   1.005 -0.2215 -0.1173  0.2054
 2872SOL    HW120249   4.282   4.717   0.974 -0.9078 -0.1112 -1.5480
 2872SOL    HW220250   4.242   4.597   1.047 -2.2347 -0.5623  1.2614
 2873SOL     OW20251   1.546   3.409   3.063  0.0494 -0.0855  0.2940
 2873SOL    HW120252   1.575   3.385   3.150  1.3816 -1.5730 -0.5609
 2873SOL    HW220253   1.622   3.464   3.042  1.7739 -2.5961 -0.0443
 2874SOL     OW20254   3.433   4.227  17.645  0.5113 -0.3107 -0.6644
 2874SOL    HW120255   3.378   4.194  17.574  1.9725 -0.4082 -1.7503
 2874SOL    HW220256   3.412   4.320  17.638  0.7366 -0.2613 -0.6682
 2875SOL     OW20257   1.412   3.206  15.418 -0.1242 -0.0641  0.1786
 2875SOL    HW120258   1.326   3.218  15.376  0.6627  0.5444 -1.2508
 2875SOL    HW220259   1.417   3.113  15.395 -0.4183 -0.1279  0.3722
 2876SOL     OW20260   0.599   4.085   9.507 -0.0574 -0.0686  0.3706
 2876SOL    HW120261   0.679   4.130   9.537  0.6342  0.0934 -1.7400
 2876SOL    HW220262   0.556   4.068   9.591  0.2353  1.6992  0.8856
 2877SOL     OW20263   2.931   1.861   5.518 -0.3675  0.2285 -0.1518
 2877SOL    HW120264   3.004   1.905   5.477 -0.8148 -0.5871 -1.8154
 2877SOL    HW220265   2.956   1.860   5.611 -2.1361 -0.7206  0.3190
 2878SOL     OW20266   3.282   3.730   6.606  0.3806  0.1773 -0.7567
 2878SOL    HW120267   3.206   3.672   6.605  0.9961 -0.6250 -1.2932
 2878SOL    HW220268   3.331   3.698   6.531 -0.6215 -0.1126 -1.2818
 2879SOL     OW20269   4.354   1.772   3.007  0.5208 -0.3355 -0.2706
 2879SOL    HW120270   4.302   1.713   2.952 -0.4995  1.2025 -0.9475
 2879SOL    HW220271   4.307   1.768   3.090  0.0831  2.2919 -0.4102
 2880SOL     OW20272   3.712   2.188   7.727  0.0610  0.9281 -0.3360
 2880SOL    HW120273   3.782   2.152   7.782 -0.5161 -1.2430 -1.0074
 2880SOL    HW220274   3.646   2.119   7.737 -0.9058  2.1761  1.8982
 2881SOL     OW20275   4.199   2.101   8.258  0.1614  0.2156  0.6119
 2881SOL    HW120276   4.155   2.147   8.329 -0.1032 -0.9413  1.1963
 2881SOL    HW220277   4.261   2.167   8.225 -1.0012  0.1564 -1.7212
 2882SOL     OW20278   1.733   0.478   8.132  0.2762  0.2749  0.0746
 2882SOL    HW120279   1.782   0.511   8.207  0.9539  0.6781 -0.5525
 2882SOL    HW220280   1.799   0.412   8.112 -0.5355 -0.5539  0.0884
 2883SOL     OW20281   0.885   2.077  15.508 -0.2494  0.0190 -0.4123
 2883SOL    HW120282   0.840   2.156  15.478 -0.0378  0.9344  1.7173
 2883SOL    HW220283   0.828   2.010  15.468 -0.7180  0.6535 -0.8062
 2884SOL     OW20284   3.038   3.844   9.253 -0.6319 -0.5812 -0.3562
 2884SOL    HW120285   3.087   3.827   9.334 -0.4595  1.9296  0.0532
 2884SOL    HW220286   3.084   3.779   9.200  0.6166  0.8298 -0.9773
 2885SOL     OW20287   2.132   2.041   1.975 -0.3486  0.0275  0.5578
 2885SOL    HW120288   2.177   2.113   1.930 -0.7942  1.2445  2.0641
 2885SOL    HW220289   2.041   2.064   1.956 -0.3068  0.6617  1.1368
 2886SOL     OW20290   1.934   2.796   4.452  0.0106  0.0060 -0.7977
 2886SOL    HW120291   1.874   2.732   4.413 -0.3660 -0.6908  0.9165
 2886SOL    HW220292   1.981   2.810   4.370  0.1733  0.8217 -0.5672
 2887SOL     OW20293   2.672   1.826   7.722 -0.6415 -0.4609 -0.0046
 2887SOL    HW120294   2.735   1.897   7.710  0.4997 -1.1108  2.1242
 2887SOL    HW220295   2.686   1.817   7.817  1.3539  0.1914 -0.2481
 2888SOL     OW20296   0.242   2.387   6.543  0.3646 -0.2368 -0.6597
 2888SOL    HW120297   0.303   2.356   6.476 -1.3092 -3.0868 -0.8283
 2888SOL    HW220298   0.174   2.321   6.533  1.0803 -1.4417  2.2811
 2889SOL     OW20299   2.341   2.689   9.756 -0.3909 -0.0210 -0.3342
 2889SOL    HW120300   2.419   2.646   9.790  1.7986  1.9931 -2.8589
 2889SOL    HW220301   2.271   2.630   9.786 -1.0359  1.1430  0.5003
 2890SOL     OW20302   0.916   2.812   7.110 -0.4067  0.2463  0.7789
 2890SOL    HW120303   0.964   2.731   7.091 -0.5243  0.0258  1.4399
 2890SOL    HW220304   0.938   2.814   7.203  2.3952  1.2988  0.1068
 2891SOL     OW20305   1.854   2.514   4.373  0.0783  0.1071 -0.1735
 2891SOL    HW120306   1.761   2.511   4.394  0.0117 -0.3259 -0.5226
 2891SOL    HW220307   1.861   2.485   4.282 -0.3391  1.8963 -0.7719
 2892SOL     OW20308   0.929   3.420   2.898 -0.2659  0.1423 -0.2007
 2892SOL    HW120309   0.902   3.475   2.824 -1.4367  0.4075  0.4268
 2892SOL    HW220310   0.932   3.483   2.969 -2.6760 -2.5019  2.2626
 2893SOL     OW20311   2.262   4.392  10.094  0.3767 -0.2620  0.3752
 2893SOL    HW120312   2.255   4.478  10.053  0.6713  0.2019  1.2895
 2893SOL    HW220313   2.176   4.381  10.133 -0.5393  1.5250 -1.1338
 2894SOL     OW20314   2.409   4.383   0.953 -0.8708  0.6295  0.0435
 2894SOL    HW120315   2.474   4.420   1.013  1.0992 -0.9348 -1.1535
 2894SOL    HW220316   2.382   4.461   0.905  2.0804  2.2956  1.0736
 2895SOL     OW20317   2.613   0.784   2.644 -0.0328  0.1516  0.4266
 2895SOL    HW120318   2.523   0.807   2.619 -0.1890 -0.4473  0.4426
 2895SOL    HW220319   2.627   0.827   2.728  0.6380  2.0210 -0.6549
 2896SOL     OW20320   2.194   1.338   5.826 -0.4280 -0.0892  0.5967
 2896SOL    HW120321   2.119   1.370   5.776  1.6498  3.2711 -0.3513
 2896SOL    HW220322   2.239   1.296   5.752 -0.2873  0.4248  0.3911
 2897SOL     OW20323   2.495   2.622  16.135 -0.5273  0.2465 -0.6473
 2897SOL    HW120324   2.464   2.536  16.106 -0.4769  0.4952 -1.4398
 2897SOL    HW220325   2.590   2.616  16.126 -0.4620 -1.0513  0.8843
 2898SOL     OW20326   2.622   2.059   2.239  0.0653 -0.2408  0.0750
 2898SOL    HW120327   2.544   2.105   2.205 -0.4804  0.4560  2.2423
 2898SOL    HW220328   2.630   2.119   2.313 -0.9804  0.8699 -0.6944
 2899SOL     OW20329   3.094   4.067   3.328 -0.2007  0.1946 -0.1076
 2899SOL    HW120330   3.029   4.075   3.398 -1.5161 -2.4279 -1.0329
 2899SOL    HW220331   3.078   3.976   3.302  1.0109 -0.4012  1.2397
 2900SOL     OW20332   2.734   2.237   8.058 -0.0789 -0.1345  0.4519
 2900SOL    HW120333   2.765   2.271   8.141  1.1161 -1.9380  0.7618
 2900SOL    HW220334   2.752   2.309   7.998 -1.6252  0.6850  0.9935
 2901SOL     OW20335   4.390   1.063   2.636  0.8320  0.2409  0.1705
 2901SOL    HW120336   4.448   1.055   2.560 -1.8604 -0.0898 -1.8574
 2901SOL    HW220337   4.332   1.137   2.618  0.9776  0.5063  0.8017
 2902SOL     OW20338   1.385   0.958  14.818 -0.1665  0.1757  0.3064
 2902SOL    HW120339   1.408   0.952  14.911  5.0260 -0.0314 -0.9867
 2902SOL    HW220340   1.306   0.904  14.818 -0.4154  0.5583 -1.0473
 2903SOL     OW20341   2.379   2.925   8.112 -0.4476 -0.5198  0.5567
 2903SOL    HW120342   2.388   2.952   8.021  1.2130  1.0394  1.1866
 2903SOL    HW220343   2.304   2.979   8.138  1.0987  1.1416  1.5542
 2904SOL     OW20344   1.170   3.858  12.187 -0.1735  0.2989  0.0676
 2904SOL    HW120345   1.120   3.792  12.235 -2.2176  0.6322 -1.6285
 2904SOL    HW220346   1.254   3.812  12.183  0.0649  0.4342  3.3438
 2905SOL     OW20347   3.183   1.677   5.214  0.3332  0.2306 -0.3997
 2905SOL    HW120348   3.222   1.591   5.203 -0.5682 -0.3339  0.8550
 2905SOL    HW220349   3.140   1.688   5.129  1.7022  4.3164 -0.5730
 2906SOL     OW20350   1.807   2.928   2.783  0.5327 -0.0484  0.1625
 2906SOL    HW120351   1.743   2.871   2.825  0.0163  0.9385  0.7229
 2906SOL    HW220352   1.812   3.003   2.843 -1.3351  2.8482 -3.2617
 2907SOL     OW20353   0.189   3.830   9.348 -0.6483  0.0636 -0.7091
 2907SOL    HW120354   0.245   3.883   9.405  0.9292 -3.1471  0.7671
 2907SOL    HW220355   0.141   3.782   9.415 -0.1513  0.3795 -0.1315
 2908SOL     OW20356   4.136   4.154   3.168 -0.0507  0.0846 -0.0259
 2908SOL    HW120357   4.113   4.076   3.219 -0.0941 -0.7174 -1.2734
 2908SOL    HW220358   4.232   4.156   3.176  0.0976  1.6018 -2.2554
 2909SOL     OW20359   0.755   3.879  14.792 -0.2823  0.5294  0.7793
 2909SOL    HW120360   0.812   3.957  14.793  0.0661  0.2775  0.2550
 2909SOL    HW220361   0.736   3.895  14.700 -0.1110  3.1337  1.1921
 2910SOL     OW20362   2.241   0.634  17.568 -0.4810  0.2108  0.4379
 2910SOL    HW120363   2.208   0.556  17.522 -0.5996  1.5450 -1.7119
 2910SOL    HW220364   2.252   0.698  17.498 -0.4130 -0.0012  0.2538
 2911SOL     OW20365   4.149   4.482   4.877  0.4246 -0.7132  0.1142
 2911SOL    HW120366   4.197   4.493   4.795  1.9873  0.8741  1.2331
 2911SOL    HW220367   4.190   4.400   4.905 -2.7873 -2.2357  0.4486
 2912SOL     OW20368   4.285   0.238  17.573 -0.1930 -0.7893 -0.0952
 2912SOL    HW120369   4.251   0.163  17.620  0.8358 -0.6328  0.8860
 2912SOL    HW220370   4.239   0.232  17.489  0.9537  0.7950 -0.8609
 2913SOL     OW20371   2.822   2.831   4.094  0.2278 -0.0720  0.1975
 2913SOL    HW120372   2.738   2.795   4.122  0.9654 -1.4213  0.6569
 2913SOL    HW220373   2.884   2.805   4.162  1.6329 -1.2764 -1.5396
 2914SOL     OW20374   3.705   2.655   2.724  0.0593 -0.2819  0.2975
 2914SOL    HW120375   3.766   2.599   2.677 -0.7683  0.1154 -1.2562
 2914SOL    HW220376   3.767   2.689   2.788  0.4852  0.4468 -0.5033
 2915SOL     OW20377   2.479   3.638   5.975 -0.1075 -0.8377 -0.2849
 2915SOL    HW120378   2.448   3.605   5.891  2.0729 -0.0004 -1.4090
 2915SOL    HW220379   2.404   3.630   6.034  0.0011  0.2807  0.0127
 2916SOL     OW20380   0.049   1.759  12.462  0.0195 -0.5886 -0.1954
 2916SOL    HW120381   0.084   1.777  12.375  0.9267 -1.0428  0.0802
 2916SOL    HW220382   0.131   1.762  12.511 -0.2818 -0.3974  0.2941
 2917SOL     OW20383   3.376   4.588   7.889  0.0166 -0.2892 -0.1883
 2917SOL    HW120384   3.423   4.558   7.811  1.4053  0.0143  0.5256
 2917SOL    HW220385   3.455   4.602   7.941  0.3087  2.3187 -1.3317
 2918SOL     OW20386   3.501   2.296   7.059 -0.2327 -0.4288  0.3344
 2918SOL    HW120387   3.497   2.237   6.984 -1.6127  2.7046 -2.0693
 2918SOL    HW220388   3.422   2.349   7.049  0.8817  0.6073 -2.8147
 2919SOL     OW20389   0.871   3.978   1.588  0.4123 -0.4835 -0.3598
 2919SOL    HW120390   0.781   4.001   1.564  1.1931  2.4906 -0.4645
 2919SOL    HW220391   0.854   3.987   1.682  1.8347 -2.1519  0.0518
 2920SOL     OW20392   3.296   0.650   5.034 -0.7122 -0.2843 -0.6197
 2920SOL    HW120393   3.254   0.592   5.098  2.2700 -0.0220  1.5837
 2920SOL    HW220394   3.356   0.585   4.997  0.1260  1.0154 -1.5413
 2921SOL     OW20395   3.734   3.780   7.024 -0.0823  0.8201  0.0247
 2921SOL    HW120396   3.726   3.833   6.945  0.9896  2.1203  0.7813
 2921SOL    HW220397   3.641   3.767   7.042  0.7302 -0.4125  3.4108
 2922SOL     OW20398   1.861   0.325   8.606 -0.0450 -0.1583  0.6318
 2922SOL    HW120399   1.780   0.372   8.588 -0.6676 -0.6547  2.0744
 2922SOL    HW220400   1.836   0.298   8.694 -0.4581 -1.1517  0.2137
 2923SOL     OW20401   1.205   4.262   4.947 -0.2594  0.4582 -0.1455
 2923SOL    HW120402   1.146   4.191   4.971  0.2011  0.7135  1.7093
 2923SOL    HW220403   1.274   4.227   4.889 -0.7766 -1.3500  0.3453
 2924SOL     OW20404   0.714   2.926   3.388  0.4740  0.0381  0.4837
 2924SOL    HW120405   0.743   2.836   3.374  1.6043  0.3429  0.8762
 2924SOL    HW220406   0.786   2.973   3.347  1.6218 -1.6314  0.5781
 2925SOL     OW20407   3.284   1.953  10.043  0.2261  0.3462 -0.1425
 2925SOL    HW120408   3.303   1.977  10.134 -1.6438  0.0069  0.3501
 2925SOL    HW220409   3.243   2.031  10.007  0.4578  1.1986  1.4499
 2926SOL     OW20410   1.108   2.715  14.683 -0.2792  0.1175 -0.2384
 2926SOL    HW120411   1.030   2.767  14.701 -1.3969 -1.4374 -0.6065
 2926SOL    HW220412   1.077   2.649  14.621 -1.0022  0.1427  0.1012
 2927SOL     OW20413   2.946   1.264   1.673 -0.1350  0.4355 -0.1911
 2927SOL    HW120414   2.934   1.180   1.718  3.0298  0.9412  1.6355
 2927SOL    HW220415   2.883   1.320   1.718  1.0506  0.0886  1.9014
 2928SOL     OW20416   4.149   4.580  15.778  0.0937 -0.0945 -0.3136
 2928SOL    HW120417   4.175   4.495  15.744  1.8599  0.4290 -0.2661
 2928SOL    HW220418   4.236   4.620  15.781 -0.3750  1.0779 -2.1448
 2929SOL     OW20419   1.102   0.315   5.706  0.1095 -0.4942  0.1991
 2929SOL    HW120420   1.179   0.287   5.755 -0.3306 -0.7858  0.7304
 2929SOL    HW220421   1.036   0.294   5.772 -0.5098  0.8696  0.0185
 2930SOL     OW20422   3.937   4.595   3.016 -0.1717  0.4044 -0.5529
 2930SOL    HW120423   4.003   4.613   2.949 -0.6112  2.2343 -0.5015
 2930SOL    HW220424   3.996   4.581   3.090  1.3353  0.6782 -1.7047
 2931SOL     OW20425   3.261   3.904   2.348 -0.4428 -0.4560  0.7429
 2931SOL    HW120426   3.314   3.937   2.421 -0.2412 -1.2519  0.9572
 2931SOL    HW220427   3.274   3.961   2.273 -3.5658  0.9283  1.2319
 2932SOL     OW20428   0.200   1.332  17.488  0.3140 -0.3008 -0.0822
 2932SOL    HW120429   0.166   1.250  17.450  1.6082 -0.3825 -1.0646
 2932SOL    HW220430   0.285   1.342  17.445  0.2707  2.7193  0.5708
 2933SOL     OW20431   1.854   4.683  16.673 -0.2180 -0.2217  0.3851
 2933SOL    HW120432   1.782   4.703  16.733  0.7172  3.2105  0.3435
 2933SOL    HW220433   1.905   0.029  16.668 -0.3172 -0.2262 -0.6790
 2934SOL     OW20434   2.792   3.915   4.395 -0.3317 -0.0829  0.0768
 2934SOL    HW120435   2.779   3.951   4.307 -0.0636 -1.1603 -0.3973
 2934SOL    HW220436   2.887   3.902   4.394 -0.3992 -0.5707  0.0366
 2935SOL     OW20437   0.059   3.622  14.888 -0.4832  0.3840  0.8918
 2935SOL    HW120438   0.010   3.546  14.920 -0.9071  1.8396  3.7159
 2935SOL    HW220439   0.151   3.597  14.885 -1.0851 -1.4806 -2.0050
 2936SOL     OW20440   3.990   2.013   7.870 -0.0156  0.4148 -0.6191
 2936SOL    HW120441   3.999   2.000   7.775  1.7619 -3.1571  0.0213
 2936SOL    HW220442   4.077   2.048   7.887  0.6752 -1.4186 -0.3898
 2937SOL     OW20443   4.717   0.857  14.349 -0.3471  0.5256 -1.1805
 2937SOL    HW120444   4.640   0.831  14.298 -0.6986  0.4364 -0.6010
 2937SOL    HW220445   4.711   0.821  14.438 -0.0753 -0.5128 -1.5732
 2938SOL     OW20446   4.366   1.904  14.413  0.2919  0.0278 -0.6162
 2938SOL    HW120447   4.302   1.837  14.388  0.1142 -0.1639  0.3381
 2938SOL    HW220448   4.382   1.943  14.327  0.9474  0.0031 -0.5077
 2939SOL     OW20449   2.148   3.441   1.847  0.0741  0.0044 -0.0149
 2939SOL    HW120450   2.108   3.504   1.787 -0.8663 -0.3629  0.2141
 2939SOL    HW220451   2.065   3.410   1.885  0.5080 -0.5120  0.5085
 2940SOL     OW20452   1.335   0.384   2.691 -0.0376 -0.1236  0.3859
 2940SOL    HW120453   1.365   0.354   2.605 -1.2676 -0.7919  0.1999
 2940SOL    HW220454   1.247   0.416   2.671  1.4139  2.4520 -1.8302
 2941SOL     OW20455   3.237   2.383   2.216  0.3052 -0.2063  0.0172
 2941SOL    HW120456   3.319   2.410   2.258  0.9863 -1.7954 -0.2972
 2941SOL    HW220457   3.177   2.394   2.289  0.0317  1.5563 -0.4643
 2942SOL     OW20458   3.705   2.721   4.071  0.1471  0.5755  0.1272
 2942SOL    HW120459   3.692   2.725   4.166  0.9618 -0.8782  0.2930
 2942SOL    HW220460   3.798   2.696   4.070 -0.2176 -0.7352 -0.7334
 2943SOL     OW20461   3.857   2.056   4.934  0.2981 -0.2138 -0.2743
 2943SOL    HW120462   3.803   2.089   5.006  0.8937 -1.1676  0.6131
 2943SOL    HW220463   3.832   2.101   4.854  2.4098 -0.4461 -1.0729
 2944SOL     OW20464   2.494   0.276   6.359 -0.1165 -0.2791 -0.0626
 2944SOL    HW120465   2.552   0.302   6.288  0.4531  0.9004  0.8295
 2944SOL    HW220466   2.547   0.311   6.430 -2.9743  0.2229  1.8458
 2945SOL     OW20467   4.528   2.972   3.600  0.1763 -0.0041 -0.5085
 2945SOL    HW120468   4.452   3.027   3.581 -0.0673 -1.2825 -3.2162
 2945SOL    HW220469   4.525   2.914   3.524 -0.6795  0.4518 -0.8157
 2946SOL     OW20470   1.515   0.046   8.361 -0.1037 -0.6879 -0.4136
 2946SOL    HW120471   1.535   0.027   8.270  0.6186 -1.7182 -0.0457
 2946SOL    HW220472   1.502   0.140   8.362  0.9710 -0.5394 -0.9015
 2947SOL     OW20473   3.164   0.488   7.006 -0.5385  0.0038 -0.1343
 2947SOL    HW120474   3.187   0.408   7.053 -3.5009 -1.3038 -0.8777
 2947SOL    HW220475   3.085   0.514   7.053  0.8120  2.2712  0.8493
 2948SOL     OW20476   1.394   0.254  16.657 -0.6708  0.2485  0.6238
 2948SOL    HW120477   1.464   0.208  16.611 -2.0922 -1.3233  0.0354
 2948SOL    HW220478   1.320   0.195  16.645 -0.7283  0.2267  1.0967
 2949SOL     OW20479   2.022   4.077   3.093  0.0387 -0.5472  0.3494
 2949SOL    HW120480   2.053   4.167   3.101  0.9622 -0.7719 -0.8621
 2949SOL    HW220481   2.104   4.035   3.068 -0.2162 -1.9732  1.9448
 2950SOL     OW20482   3.203   3.767   9.482 -0.3253 -0.1396 -0.3857
 2950SOL    HW120483   3.239   3.783   9.569  0.6146  0.8269 -0.9477
 2950SOL    HW220484   3.146   3.697   9.513 -0.0132 -0.8456 -1.4109
 2951SOL     OW20485   4.061   0.285   0.682 -0.3527  0.1173 -0.1683
 2951SOL    HW120486   4.057   0.209   0.739 -0.0306  0.5624  0.4510
 2951SOL    HW220487   3.989   0.337   0.718 -0.3865 -0.1765  0.1826
 2952SOL     OW20488   4.263   4.499   2.609  0.1923 -0.0678  0.2624
 2952SOL    HW120489   4.295   4.557   2.541  0.7987 -2.0539 -1.1306
 2952SOL    HW220490   4.189   4.547   2.647 -0.4130  1.9081 -3.4284
 2953SOL     OW20491   2.877   3.944   5.019  0.0143 -0.1688  0.7360
 2953SOL    HW120492   2.933   3.959   5.094  0.4686 -0.7772  0.5189
 2953SOL    HW220493   2.857   4.031   4.984  0.2789 -0.4630 -0.1515
 2954SOL     OW20494   0.910   3.641   5.348 -0.0361  0.6065  0.0157
 2954SOL    HW120495   0.918   3.623   5.254 -0.1977 -1.4623  0.3967
 2954SOL    HW220496   0.911   3.550   5.377 -1.9494  0.2115 -1.1090
 2955SOL     OW20497   1.948   3.117   9.387 -0.5176 -0.4778 -0.0826
 2955SOL    HW120498   1.933   3.148   9.297  0.8045  2.9742  0.8907
 2955SOL    HW220499   1.867   3.067   9.394 -0.9015 -0.0528 -1.3438
 2956SOL     OW20500   4.441   0.805   8.570  0.7207 -0.0928 -0.2480
 2956SOL    HW120501   4.394   0.730   8.607  0.5404  0.3817  0.4849
 2956SOL    HW220502   4.408   0.875   8.627  2.9143  1.9051 -1.4077
 2957SOL     OW20503   1.511   2.464   3.557  0.1564  0.1480  0.0705
 2957SOL    HW120504   1.418   2.485   3.563 -0.4336 -2.4532  0.1384
 2957SOL    HW220505   1.544   2.541   3.603  1.4792 -0.2773 -0.1683
 2958SOL     OW20506   1.496   2.934  11.557  0.4297 -0.1621  0.6294
 2958SOL    HW120507   1.466   2.862  11.502  0.4380  0.5274 -0.2647
 2958SOL    HW220508   1.591   2.928  11.542  0.5895  0.4895  1.3752
 2959SOL     OW20509   0.152   2.678  12.851 -0.7334 -0.0633 -0.3001
 2959SOL    HW120510   0.243   2.668  12.880 -1.7643 -1.6803  2.3003
 2959SOL    HW220511   0.101   2.673  12.932 -0.3021  0.2622 -0.0112
 2960SOL     OW20512   3.609   1.224   8.314 -0.1283 -0.0941  0.1056
 2960SOL    HW120513   3.660   1.195   8.238 -1.1049  1.2422 -1.0538
 2960SOL    HW220514   3.659   1.301   8.341  0.2906  1.7206 -5.7458
 2961SOL     OW20515   4.197   4.466   5.233 -0.2147  0.4122 -0.0571
 2961SOL    HW120516   4.287   4.495   5.246 -0.6727  1.0671  1.6533
 2961SOL    HW220517   4.149   4.549   5.242  0.1119  0.5923  0.0313
 2962SOL     OW20518   0.798   1.180   6.397 -0.3253 -0.3587  0.5216
 2962SOL    HW120519   0.710   1.204   6.426  0.0840  1.9356 -0.0768
 2962SOL    HW220520   0.776   1.121   6.325  2.1870  1.0234 -1.3978
 2963SOL     OW20521   4.238   0.126  15.176 -0.4463  0.0419  0.5938
 2963SOL    HW120522   4.159   0.176  15.156 -0.1539  0.1791 -0.2164
 2963SOL    HW220523   4.269   0.166  15.257  1.1025 -0.2119  0.1217
 2964SOL     OW20524   3.276   4.494   1.787  0.2967  0.2686  0.2416
 2964SOL    HW120525   3.216   4.536   1.849  0.2894  1.1263 -0.3334
 2964SOL    HW220526   3.361   4.492   1.830  0.6181 -1.3386 -0.4841
 2965SOL     OW20527   4.297   3.825  13.028  0.4515  1.0160 -0.2860
 2965SOL    HW120528   4.316   3.784  12.944  0.6538 -1.2570  0.8798
 2965SOL    HW220529   4.202   3.836  13.025  0.3319  0.5378  1.7843
 2966SOL     OW20530   3.283   3.611   6.175  0.9134  0.1032  0.3240
 2966SOL    HW120531   3.219   3.627   6.244  0.1345 -0.6425 -0.2250
 2966SOL    HW220532   3.238   3.553   6.114  0.5024 -1.7759  2.4102
 2967SOL     OW20533   3.675   4.422  11.779 -0.3388  0.0583  0.1130
 2967SOL    HW120534   3.746   4.471  11.736  0.4130 -1.9206 -0.8689
 2967SOL    HW220535   3.686   4.459  11.867  0.6155 -0.5776  0.2617
 2968SOL     OW20536   1.731   3.265  15.985  0.1987 -0.0539 -0.7097
 2968SOL    HW120537   1.662   3.262  15.919  1.2386  1.0720 -1.8551
 2968SOL    HW220538   1.685   3.312  16.055  3.3660  0.3678  1.0774
 2969SOL     OW20539   4.126   0.492   9.201 -0.1424  0.2971  1.3377
 2969SOL    HW120540   4.220   0.474   9.194 -0.0579  0.9544  0.7740
 2969SOL    HW220541   4.097   0.413   9.247  1.5095 -0.3433  1.2592
 2970SOL     OW20542   2.936   1.231   2.909 -0.0458  0.1884  0.1517
 2970SOL    HW120543   3.010   1.272   2.863 -1.6976  0.9289 -1.8531
 2970SOL    HW220544   2.982   1.170   2.966  0.2266 -0.9246 -1.2398
 2971SOL     OW20545   0.292   3.908   5.901 -0.0394 -0.0238  0.0711
 2971SOL    HW120546   0.242   3.975   5.949 -0.1843 -0.7971  0.9974
 2971SOL    HW220547   0.377   3.953   5.902 -0.3233  0.5027  0.3731
 2972SOL     OW20548   1.370   4.397   6.319  0.0526 -0.4120 -0.3340
 2972SOL    HW120549   1.376   4.383   6.413 -0.5648  1.3169 -0.0407
 2972SOL    HW220550   1.344   4.489   6.316 -0.4768 -0.5649 -0.4458
 2973SOL     OW20551   1.163   3.482   8.446  0.2287 -0.3598 -0.1960
 2973SOL    HW120552   1.169   3.443   8.534  1.9446  1.3578  0.4380
 2973SOL    HW220553   1.243   3.442   8.410 -0.7926 -2.9049  0.3123
 2974SOL     OW20554   2.602   0.999  15.698 -0.3477  0.0274  0.3548
 2974SOL    HW120555   2.514   1.024  15.669  0.4422  1.7677 -0.5781
 2974SOL    HW220556   2.636   0.973  15.613 -1.2992  1.0090 -0.3328
 2975SOL     OW20557   0.140   0.589   0.243  0.4026 -0.3957  0.1156
 2975SOL    HW120558   0.066   0.643   0.271  0.4569 -0.6469  0.7419
 2975SOL    HW220559   0.184   0.563   0.324 -1.1208 -1.8480  0.4834
 2976SOL     OW20560   3.305   4.289   6.721  0.3290  0.1264  0.1971
 2976SOL    HW120561   3.254   4.233   6.663 -0.6242  1.5205 -0.3065
 2976SOL    HW220562   3.240   4.358   6.731 -0.4403 -0.3447 -1.5404
 2977SOL     OW20563   2.525   1.501  12.743 -0.2930 -0.4244  0.0672
 2977SOL    HW120564   2.456   1.522  12.805 -0.0970  0.3285  0.0304
 2977SOL    HW220565   2.582   1.575  12.765  0.5284 -0.0678 -3.2551
 2978SOL     OW20566   1.577   1.747   2.782  0.3635  0.1204 -0.0443
 2978SOL    HW120567   1.585   1.734   2.688 -1.7922 -2.2978  0.0801
 2978SOL    HW220568   1.646   1.810   2.802  1.7393 -0.8980 -1.6333
 2979SOL     OW20569   1.182   3.514   9.066  0.1738  0.4059 -0.0660
 2979SOL    HW120570   1.172   3.583   9.001  2.3623  0.7294 -0.0429
 2979SOL    HW220571   1.200   3.432   9.021 -2.2615 -1.1452  1.7870
 2980SOL     OW20572   0.544   3.045   5.694 -0.0458  0.0464  0.4179
 2980SOL    HW120573   0.520   2.998   5.614  0.0635 -0.6165  0.7714
 2980SOL    HW220574   0.489   3.001   5.759  0.1437 -0.2638  0.3671
 2981SOL     OW20575   4.271   4.060   0.602 -0.0943 -0.0409  0.1146
 2981SOL    HW120576   4.189   4.056   0.553  0.3007  0.0360 -0.5486
 2981SOL    HW220577   4.254   4.001   0.676  1.7202 -0.5023  0.1692
 2982SOL     OW20578   2.491   1.317   1.384  0.1472  0.1063  0.2848
 2982SOL    HW120579   2.529   1.231   1.368  1.1515  0.6132 -0.0120
 2982SOL    HW220580   2.398   1.295   1.374 -0.8163  3.9773  0.5859
 2983SOL     OW20581   0.644   1.380   3.878 -0.5487  0.4998 -0.1899
 2983SOL    HW120582   0.641   1.367   3.973  0.1894  0.2037 -0.2041
 2983SOL    HW220583   0.729   1.337   3.864  0.1795  2.2520 -1.1541
 2984SOL     OW20584   4.148   2.233   5.592  0.4995 -0.3385  0.2075
 2984SOL    HW120585   4.135   2.263   5.502  2.4471 -1.3317 -0.3992
 2984SOL    HW220586   4.223   2.287   5.617 -0.4658 -0.0050  2.3990
 2985SOL     OW20587   0.367   2.529   7.995 -0.6678  0.4635 -0.3600
 2985SOL    HW120588   0.349   2.623   7.988 -0.8578  0.3980 -0.7481
 2985SOL    HW220589   0.278   2.496   7.994 -0.1569 -0.8815 -0.8141
 2986SOL     OW20590   0.864   2.836   8.586  0.0688 -0.4810  0.0444
 2986SOL    HW120591   0.911   2.901   8.637  1.8042 -0.2821 -1.7739
 2986SOL    HW220592   0.773   2.848   8.611 -0.7128 -0.7822 -2.6595
 2987SOL     OW20593   1.623   4.671   6.837  0.0054  0.0530 -0.4867
 2987SOL    HW120594   1.598   4.717   6.918 -0.9328 -0.0863 -0.6956
 2987SOL    HW220595   1.547   4.613   6.828  0.0867 -0.2561  0.7712
 2988SOL     OW20596   0.801   3.888   9.358 -0.1348 -0.1040 -0.1808
 2988SOL    HW120597   0.761   3.975   9.363 -0.7161 -0.4202  0.7555
 2988SOL    HW220598   0.738   3.832   9.404  0.3708 -1.2196 -0.8464
 2989SOL     OW20599   0.917   0.435   6.004  0.0109  0.4191  0.4705
 2989SOL    HW120600   0.931   0.342   5.987  1.2590  0.6084  0.4939
 2989SOL    HW220601   0.828   0.440   5.969  0.7339  3.7008 -0.9653
 2990SOL     OW20602   2.448   2.072   7.488  0.5570  0.1421 -0.0062
 2990SOL    HW120603   2.420   2.088   7.398 -2.6304 -2.7053  0.4672
 2990SOL    HW220604   2.460   1.977   7.484 -1.6140 -0.2382  2.0712
 2991SOL     OW20605   0.018   0.218   5.587 -0.6798  0.4580  0.1260
 2991SOL    HW120606   0.023   0.139   5.641 -0.8019 -0.3312 -1.0216
 2991SOL    HW220607   4.697   0.279   5.636 -2.5580 -1.4144  0.3466
 2992SOL     OW20608   3.851   4.288   5.693  0.0279 -0.7991 -0.8052
 2992SOL    HW120609   3.853   4.227   5.766  1.0105  0.2669  0.0600
 2992SOL    HW220610   3.895   4.365   5.728  1.5545 -2.0393  0.0044
 2993SOL     OW20611   0.336   4.467   2.651  0.2049  0.4813  0.4115
 2993SOL    HW120612   0.349   4.550   2.605  2.6052 -0.4382 -0.5556
 2993SOL    HW220613   0.247   4.452   2.617  0.2988 -1.6503  1.1057
 2994SOL     OW20614   4.011   2.918   2.602  0.1899 -0.0051 -0.0935
 2994SOL    HW120615   4.022   2.994   2.546  3.4018 -0.6206 -0.2932
 2994SOL    HW220616   3.927   2.936   2.645 -0.5531  3.6161 -3.0516
 2995SOL     OW20617   3.962   1.552   6.322  0.0665 -0.2052 -0.5557
 2995SOL    HW120618   3.986   1.596   6.403  0.0017 -0.1102 -0.5884
 2995SOL    HW220619   4.022   1.477   6.322  0.1900 -0.1021  0.8602
 2996SOL     OW20620   2.699   4.492   2.219  0.8830 -0.2776 -0.2785
 2996SOL    HW120621   2.606   4.513   2.225  0.7998 -1.0320  1.0871
 2996SOL    HW220622   2.723   4.455   2.304 -0.6450 -1.9310 -0.5654
 2997SOL     OW20623   2.117   4.705   6.071  0.4854  0.5894  0.0524
 2997SOL    HW120624   2.117   4.691   6.166  0.1023  0.9944  0.1097
 2997SOL    HW220625   2.210   4.728   6.074  0.4230  0.7820  0.5435
 2998SOL     OW20626   4.479   1.566   8.592  0.0672  0.3983 -0.4334
 2998SOL    HW120627   4.497   1.558   8.685  0.2607 -1.7085 -0.6587
 2998SOL    HW220628   4.465   1.660   8.584  0.0421  0.4041 -0.3136
 2999SOL     OW20629   1.469   1.250   2.827  0.2724 -0.2097  0.0136
 2999SOL    HW120630   1.521   1.183   2.783 -0.5955  1.1974 -3.1351
 2999SOL    HW220631   1.387   1.202   2.825 -0.2388  0.6285  0.4738
 3000SOL     OW20632   2.898   1.530   7.256 -0.3115  0.9937  0.2486
 3000SOL    HW120633   2.906   1.624   7.271  2.5147  0.8444 -0.2237
 3000SOL    HW220634   2.845   1.542   7.177  0.9728  1.1101 -0.6050
 3001SOL     OW20635   3.641   0.171  15.274  0.2225  0.0709 -0.1291
 3001SOL    HW120636   3.655   0.094  15.328  0.1549  0.4035  0.3669
 3001SOL    HW220637   3.689   0.237  15.324  1.3238 -0.6230 -0.2645
 3002SOL     OW20638   3.458   0.133  16.815 -0.1191 -0.2554  0.1106
 3002SOL    HW120639   3.469   0.093  16.729 -0.1149 -1.8486  0.8575
 3002SOL    HW220640   3.379   0.087  16.844  0.0496 -0.9311 -0.4916
 3003SOL     OW20641   1.614   1.549   6.909 -0.6806  0.7848 -0.6236
 3003SOL    HW120642   1.611   1.500   6.991  0.3706  0.8846 -0.5308
 3003SOL    HW220643   1.653   1.634   6.929 -1.1616  1.5524 -2.9035
 3004SOL     OW20644   3.631   0.339  14.809  0.3667  0.0736 -0.9871
 3004SOL    HW120645   3.540   0.343  14.783 -0.2222  1.6313  1.2951
 3004SOL    HW220646   3.619   0.266  14.870  1.9195  0.7870  0.1882
 3005SOL     OW20647   0.831   0.405   4.565  0.1166 -0.3261 -0.5498
 3005SOL    HW120648   0.896   0.416   4.495  1.3674 -3.4627  0.0861
 3005SOL    HW220649   0.835   0.311   4.584  1.9675 -0.5055 -1.7392
 3006SOL     OW20650   2.097   3.180   2.935  0.1111  0.0438 -0.0623
 3006SOL    HW120651   2.012   3.208   2.901  0.1644 -1.9676 -1.8932
 3006SOL    HW220652   2.089   3.211   3.025  0.3166 -0.7648  0.2383
 3007SOL     OW20653   4.469   2.001   6.254  0.1059  0.6964  0.0396
 3007SOL    HW120654   4.414   2.067   6.297 -0.6342  1.5662 -2.2902
 3007SOL    HW220655   4.556   2.041   6.262  0.0771  0.6317  0.7267
 3008SOL     OW20656   1.184   0.118  14.927  0.4124  0.0800 -0.1275
 3008SOL    HW120657   1.167   0.025  14.912 -0.8636  0.9207 -3.9297
 3008SOL    HW220658   1.167   0.154  14.839  0.7091  2.5013  0.8056
 3009SOL     OW20659   0.264   0.398   2.617  0.4774  0.1879  0.1367
 3009SOL    HW120660   0.172   0.396   2.588  1.0065 -0.5186 -1.5087
 3009SOL    HW220661   0.275   0.492   2.605 -0.1197  0.2436 -0.0096
 3010SOL     OW20662   3.684   2.900  12.488 -0.0057 -0.4468  0.6631
 3010SOL    HW120663   3.614   2.842  12.519 -0.3146 -0.1242  0.5769
 3010SOL    HW220664   3.760   2.842  12.486  0.5941  0.3107  1.3402
 3011SOL     OW20665   4.515   0.968   3.996 -0.7241 -0.4343  0.4553
 3011SOL    HW120666   4.574   0.942   3.926 -0.4805  0.0074  0.4906
 3011SOL    HW220667   4.567   0.961   4.077  1.3877 -4.9013 -1.3162
 3012SOL     OW20668   3.073   4.623   5.509 -0.1997  0.3375 -0.4741
 3012SOL    HW120669   3.055   4.714   5.486 -0.7537  0.2334 -0.4717
 3012SOL    HW220670   3.007   4.567   5.468 -2.7719  0.9939  2.7073
 3013SOL     OW20671   3.481   3.231  10.106  0.0835  0.0387  0.0473
 3013SOL    HW120672   3.413   3.228  10.173  2.1219 -0.1699  2.0922
 3013SOL    HW220673   3.559   3.244  10.161  1.0554 -0.2053 -1.2605
 3014SOL     OW20674   0.182   4.729   6.697  0.2140  0.4979  0.2386
 3014SOL    HW120675   0.112   0.027   6.640 -1.1258  1.5672  2.4527
 3014SOL    HW220676   0.245   0.067   6.705  0.3954  0.2889  0.7149
 3015SOL     OW20677   4.228   0.037   1.317 -0.1770  0.7798  0.3311
 3015SOL    HW120678   4.140   0.040   1.354 -1.6523 -1.3679 -2.9924
 3015SOL    HW220679   4.220   4.680   1.290  1.1547  0.8049 -0.1720
 3016SOL     OW20680   1.927   0.691  12.159  0.1178 -0.4421  0.0124
 3016SOL    HW120681   1.972   0.749  12.220  0.2685 -0.9003  0.3442
 3016SOL    HW220682   1.956   0.614  12.208  0.6659 -1.4867 -1.9349
 3017SOL     OW20683   2.628   2.205   4.636  0.1006 -0.1477  0.6526
 3017SOL    HW120684   2.622   2.301   4.640  1.4755  0.0354 -2.0063
 3017SOL    HW220685   2.720   2.193   4.611 -0.2269  0.7543 -0.9829
 3018SOL     OW20686   0.730   3.162   1.976  0.4509 -0.2274 -0.0728
 3018SOL    HW120687   0.803   3.134   2.032  0.6445  0.5463  0.0652
 3018SOL    HW220688   0.766   3.239   1.931  1.8220 -1.0076 -0.3104
 3019SOL     OW20689   1.158   4.719   8.165 -0.2572 -0.1457 -0.3107
 3019SOL    HW120690   1.120   0.056   8.218  1.6679  1.8332 -1.6145
 3019SOL    HW220691   1.242   0.029   8.154 -0.5590  0.3789 -0.5084
 3020SOL     OW20692   0.704   4.126   9.135  0.1886  0.4315  0.0353
 3020SOL    HW120693   0.627   4.182   9.134 -2.6043 -3.4108 -0.2164
 3020SOL    HW220694   0.665   4.057   9.188 -0.3137  0.0286 -0.8575
 3021SOL     OW20695   4.271   4.562   9.105  0.0998  0.2220  0.5447
 3021SOL    HW120696   4.266   4.601   9.018 -3.2946 -2.1578 -0.3238
 3021SOL    HW220697   4.240   4.631   9.163  1.3269 -0.8930  2.5606
 3022SOL     OW20698   1.856   3.260   2.813 -0.2103 -0.1990 -0.2844
 3022SOL    HW120699   1.791   3.220   2.871 -1.8008 -1.2713 -2.8403
 3022SOL    HW220700   1.801   3.280   2.738 -1.3684  0.5380  0.7583
 3023SOL     OW20701   3.083   2.631   9.056 -0.0464  0.2958 -0.0656
 3023SOL    HW120702   3.052   2.709   9.102  0.3028  0.2505  0.2426
 3023SOL    HW220703   3.049   2.555   9.101 -0.0064 -0.1231 -0.7391
 3024SOL     OW20704   1.277   3.270   1.711  0.0258 -0.3416 -0.4253
 3024SOL    HW120705   1.240   3.190   1.677 -1.6514  1.2983 -2.4172
 3024SOL    HW220706   1.365   3.271   1.672  1.4712 -0.9601  2.7934
 3025SOL     OW20707   2.400   3.509   7.726  0.2185 -0.7958 -0.2508
 3025SOL    HW120708   2.329   3.446   7.741  2.2958 -2.8635  0.8888
 3025SOL    HW220709   2.455   3.483   7.652 -0.3495 -1.6617 -0.3667
 3026SOL     OW20710   3.622   3.142   6.480 -0.1609  0.0885  0.5879
 3026SOL    HW120711   3.552   3.195   6.518 -0.6094 -0.1826  0.1212
 3026SOL    HW220712   3.576   3.059   6.480  0.7883 -0.4331 -0.1366
 3027SOL     OW20713   0.111   2.061   3.895  0.6336 -0.0137 -0.5286
 3027SOL    HW120714   0.133   2.020   3.812  0.1543 -1.8346  0.2507
 3027SOL    HW220715   0.028   2.020   3.918  0.9088 -0.9146 -1.1467
 3028SOL     OW20716   3.339   0.457   1.421  0.0449  0.0343 -0.0014
 3028SOL    HW120717   3.399   0.421   1.355 -0.1035  0.5565 -0.4241
 3028SOL    HW220718   3.341   0.550   1.401 -1.6160 -0.1472 -1.0297
 3029SOL     OW20719   3.055   4.006  15.379  0.2797 -0.0747 -0.3085
 3029SOL    HW120720   3.050   4.075  15.313  0.7171 -0.8599 -1.1626
 3029SOL    HW220721   2.967   3.974  15.359  0.4364 -0.7993  0.1642
 3030SOL     OW20722   0.800   4.100   5.188 -0.2674  0.4051  0.4949
 3030SOL    HW120723   0.725   4.158   5.171  0.1619  1.2911  1.6117
 3030SOL    HW220724   0.746   4.022   5.204  1.4156 -0.2607  2.8063
 3031SOL     OW20725   0.304   0.611   0.473 -0.5359  0.3763 -0.2929
 3031SOL    HW120726   0.307   0.614   0.568 -0.1486  0.6072 -0.3084
 3031SOL    HW220727   0.348   0.694   0.453  0.7816 -0.3458 -0.3624
 3032SOL     OW20728   4.628   2.691  15.084 -0.2470 -0.2938 -0.4074
 3032SOL    HW120729   4.704   2.668  15.138  0.4890 -0.7477 -1.6267
 3032SOL    HW220730   4.570   2.725  15.152 -0.2456 -0.8678 -0.1219
 3033SOL     OW20731   2.499   3.388  17.697  0.4646  0.1706  0.8956
 3033SOL    HW120732   2.438   3.456  17.727 -1.7441 -1.4971  0.1598
 3033SOL    HW220733   2.553   3.379   0.040  1.4264 -1.0007  0.0892
 3034SOL     OW20734   2.022   4.137   1.155 -0.2801 -0.3847 -0.0593
 3034SOL    HW120735   2.046   4.206   1.217 -0.7237 -1.0307  0.8263
 3034SOL    HW220736   2.105   4.116   1.113  1.2831  0.7120  2.4956
 3035SOL     OW20737   2.874   4.046   9.487  0.5066  0.6261  0.4334
 3035SOL    HW120738   2.890   3.960   9.526 -0.1094  1.2172  1.9880
 3035SOL    HW220739   2.783   4.071   9.502  0.8046  2.0096 -0.1094
 3036SOL     OW20740   1.361   0.176   9.733  0.8763 -0.1508 -0.7104
 3036SOL    HW120741   1.447   0.211   9.708  1.1439  0.8155  1.5748
 3036SOL    HW220742   1.382   0.107   9.797 -1.4697 -0.4550 -0.2614
 3037SOL     OW20743   2.164   3.346   7.051  0.3723  0.6989  0.3385
 3037SOL    HW120744   2.147   3.258   7.017  1.3214  0.8181 -0.4425
 3037SOL    HW220745   2.217   3.380   6.979 -1.2379  0.5056 -0.9376
 3038SOL     OW20746   4.451   2.959  15.680 -0.4897 -0.0039 -0.3342
 3038SOL    HW120747   4.470   3.008  15.600  0.7456  1.0747  0.6165
 3038SOL    HW220748   4.415   2.882  15.637 -1.2510  0.6791 -0.9166
 3039SOL     OW20749   2.597   0.287   5.833 -0.2477  0.1784 -0.2517
 3039SOL    HW120750   2.504   0.306   5.819  0.2023  1.5418 -1.2869
 3039SOL    HW220751   2.629   0.300   5.744  0.6645  0.8598  0.1857
 3040SOL     OW20752   0.838   4.147  16.468  0.0404  0.4152 -0.0115
 3040SOL    HW120753   0.803   4.063  16.440 -0.6852  0.4399  0.8509
 3040SOL    HW220754   0.770   4.182  16.525 -0.5242  1.1738 -1.1464
 3041SOL     OW20755   3.844   4.700   7.179  0.1216  0.1093  0.3366
 3041SOL    HW120756   3.766   4.721   7.231  0.2262  0.1155  0.4910
 3041SOL    HW220757   3.810   4.648   7.106  1.0422 -2.5741  1.8090
 3042SOL     OW20758   4.485   2.469   6.125 -0.1527  0.1561  0.0045
 3042SOL    HW120759   4.466   2.378   6.102 -0.4488  0.4847 -1.0312
 3042SOL    HW220760   4.399   2.509   6.116  0.1758  0.7305 -0.5875
 3043SOL     OW20761   1.602   0.542  11.262 -0.5323  0.0883 -0.4238
 3043SOL    HW120762   1.641   0.621  11.225  0.7144 -0.5015 -0.3747
 3043SOL    HW220763   1.521   0.581  11.296 -0.7844 -2.1429  1.5085
 3044SOL     OW20764   3.127   4.095   5.576  0.4802 -0.0029  0.2432
 3044SOL    HW120765   3.059   4.039   5.613 -1.0803 -0.8654 -3.9099
 3044SOL    HW220766   3.078   4.120   5.497 -0.2423  0.5500  0.8643
 3045SOL     OW20767   2.702   1.579   9.460  0.0952 -0.5264 -0.3171
 3045SOL    HW120768   2.767   1.579   9.390  1.1306 -4.4771  0.6242
 3045SOL    HW220769   2.634   1.618   9.405  0.5426  0.7098  0.0096
 3046SOL     OW20770   4.034   2.140   7.324  0.8116 -0.2183  0.4124
 3046SOL    HW120771   4.095   2.153   7.251  0.5062 -0.1175  0.1768
 3046SOL    HW220772   3.975   2.076   7.285  2.1054 -0.9849 -0.3042
 3047SOL     OW20773   1.026   4.712   7.248  0.0038  0.0348 -0.0919
 3047SOL    HW120774   1.101   4.653   7.238 -1.5521 -1.7346 -1.2814
 3047SOL    HW220775   0.962   4.651   7.211 -2.4584  2.1124  0.7711
 3048SOL     OW20776   3.663   4.581   6.565  0.3916 -0.0778 -0.6462
 3048SOL    HW120777   3.752   4.588   6.530  1.8846 -2.5998  2.6126
 3048SOL    HW220778   3.686   4.522   6.637 -1.9740  0.1089  0.2548
 3049SOL     OW20779   2.908   4.251   8.124 -0.1325 -0.1266 -0.3865
 3049SOL    HW120780   2.855   4.324   8.156 -1.5355 -1.7462  0.9587
 3049SOL    HW220781   2.847   4.198   8.073 -1.2227  1.7397 -0.9966
 3050SOL     OW20782   4.462   2.302  12.335  0.2390  0.2142  0.2278
 3050SOL    HW120783   4.415   2.358  12.397 -0.3863 -0.2365  0.1619
 3050SOL    HW220784   4.442   2.215  12.369 -1.1397  0.0071 -1.1318
 3051SOL     OW20785   3.894   0.224   2.962  0.5063  0.0512  0.0879
 3051SOL    HW120786   3.845   0.285   2.906  1.0329  0.0522 -0.3764
 3051SOL    HW220787   3.886   0.267   3.047  1.0903 -0.1629  0.2463
 3052SOL     OW20788   0.633   0.319   2.048  0.0836  0.3426  0.0339
 3052SOL    HW120789   0.705   0.352   1.995 -1.6162  0.2950 -2.2972
 3052SOL    HW220790   0.561   0.314   1.986 -0.0620  0.8996  0.1567
 3053SOL     OW20791   3.851   0.500   4.551 -0.5427 -0.1016 -0.0585
 3053SOL    HW120792   3.876   0.572   4.494  0.6920  0.0634  0.6804
 3053SOL    HW220793   3.855   0.532   4.641  0.5828 -3.6213  1.1850
 3054SOL     OW20794   3.619   0.317   9.170  0.3172 -0.7779 -0.1350
 3054SOL    HW120795   3.645   0.365   9.092  1.8195  0.2820  1.0213
 3054SOL    HW220796   3.589   0.234   9.132 -0.0713 -0.1028 -1.2852
 3055SOL     OW20797   2.692   1.236  17.697 -0.1305 -0.3780  0.5278
 3055SOL    HW120798   2.658   1.147  17.689 -0.3458 -0.2405 -0.0534
 3055SOL    HW220799   2.703   1.236   0.057  1.3683 -2.6951  0.3613
 3056SOL     OW20800   0.528   0.452   7.743  0.6350 -0.6620  0.1430
 3056SOL    HW120801   0.605   0.475   7.691 -0.2801  0.9403 -0.4697
 3056SOL    HW220802   0.560   0.459   7.833 -2.5763 -0.0273  1.2169
 3057SOL     OW20803   2.400   0.421   9.402 -0.4756 -0.1524  0.0805
 3057SOL    HW120804   2.413   0.331   9.430  1.0882  0.2269  0.6168
 3057SOL    HW220805   2.491   0.445   9.380 -0.4701 -0.2176  0.0333
 3058SOL     OW20806   2.983   0.665  15.163 -0.1069 -0.2599  0.5651
 3058SOL    HW120807   3.015   0.682  15.252 -1.8793  0.7352  0.9951
 3058SOL    HW220808   3.062   0.633  15.118 -0.8656 -0.5735 -0.5483
 3059SOL     OW20809   0.540   1.629  16.430  0.4622  0.1982 -0.3959
 3059SOL    HW120810   0.504   1.565  16.491  3.2616 -0.8910  0.1449
 3059SOL    HW220811   0.463   1.662  16.385  0.3487  0.0947 -0.2787
 3060SOL     OW20812   3.665   3.212   5.265  0.5905 -0.3538 -0.0801
 3060SOL    HW120813   3.728   3.254   5.323 -0.5819  0.9360  0.2586
 3060SOL    HW220814   3.597   3.278   5.254  2.1080  1.0484 -1.0428
 3061SOL     OW20815   2.777   2.974  16.680 -0.4833 -0.2724 -0.0754
 3061SOL    HW120816   2.743   2.912  16.615 -0.6940 -0.2342 -0.0018
 3061SOL    HW220817   2.700   2.994  16.734 -0.1576 -0.0018  0.2818
 3062SOL     OW20818   1.289   1.116   6.518 -0.0051 -0.0291 -0.0649
 3062SOL    HW120819   1.362   1.135   6.459 -1.0280 -1.5835 -1.8102
 3062SOL    HW220820   1.237   1.197   6.523  2.5330  1.4628  2.0719
 3063SOL     OW20821   1.234   2.430   1.112  0.7659  0.2242  0.5684
 3063SOL    HW120822   1.140   2.415   1.096  0.9025  0.6621 -0.7074
 3063SOL    HW220823   1.281   2.378   1.046 -0.5820  0.8253 -0.8675
 3064SOL     OW20824   4.453   4.403  17.258 -0.4384  0.8716  0.5759
 3064SOL    HW120825   4.451   4.311  17.230  1.5392  0.6699  1.1353
 3064SOL    HW220826   4.503   4.449  17.191 -0.3851 -1.1263 -0.7592
 3065SOL     OW20827   2.462   4.256   6.354 -0.3536  0.0622 -0.6318
 3065SOL    HW120828   2.413   4.244   6.272  0.6347 -0.8693 -1.0882
 3065SOL    HW220829   2.392   4.284   6.413  0.1044 -1.9969  0.9013
 3066SOL     OW20830   2.935   1.814   5.774 -0.1593  0.5655  0.4810
 3066SOL    HW120831   2.967   1.878   5.838 -1.1641  0.7038  0.8445
 3066SOL    HW220832   2.896   1.745   5.827  0.5184  2.4350  3.4163
 3067SOL     OW20833   1.969   1.612   8.976  0.0489  0.4044 -0.2123
 3067SOL    HW120834   1.934   1.623   9.065 -1.0577  0.0624 -0.6001
 3067SOL    HW220835   2.024   1.690   8.974  2.2212 -1.1644 -1.0100
 3068SOL     OW20836   4.673   4.261   5.579  0.2355 -0.0601  0.1375
 3068SOL    HW120837   4.658   4.355   5.584  0.4513  0.0017 -0.3658
 3068SOL    HW220838   4.680   4.229   5.669 -1.6440  1.0606  0.6805
 3069SOL     OW20839   4.612   4.131   7.651  0.2054  0.3899  0.2370
 3069SOL    HW120840   4.561   4.068   7.601 -1.1042  1.2107  0.5446
 3069SOL    HW220841   4.575   4.216   7.624  1.4876  0.9956  0.3780
 3070SOL     OW20842   3.659   3.652   2.478  0.2670 -0.1952 -0.6175
 3070SOL    HW120843   3.673   3.733   2.428  1.8070 -0.7208 -1.0377
 3070SOL    HW220844   3.564   3.648   2.480  0.3067 -0.4906  0.5036
 3071SOL     OW20845   3.318   2.920   1.934 -0.0783 -0.1439 -0.2016
 3071SOL    HW120846   3.302   2.911   1.840  0.1210  0.5578 -0.3019
 3071SOL    HW220847   3.364   2.838   1.950 -0.6974 -0.3784  0.3692
 3072SOL     OW20848   0.177   3.734   5.644 -0.9918  0.2656  0.4551
 3072SOL    HW120849   0.269   3.731   5.617 -1.6290 -2.6435 -1.4712
 3072SOL    HW220850   0.183   3.780   5.727  2.0771  2.1146 -0.7736
 3073SOL     OW20851   0.498   1.208  17.504  0.8130 -0.0793 -0.0588
 3073SOL    HW120852   0.496   1.113  17.494 -1.0626 -0.0396  0.0304
 3073SOL    HW220853   0.474   1.234  17.415  1.5350  1.0384  0.0667
 3074SOL     OW20854   4.382   0.176  14.793 -0.1965 -0.0794 -0.0947
 3074SOL    HW120855   4.336   0.198  14.712 -0.2667 -0.3225 -0.1210
 3074SOL    HW220856   4.408   0.261  14.829 -0.8493  0.2728 -0.4572
 3075SOL     OW20857   3.058   3.601  11.993  0.7357  0.0166  0.1748
 3075SOL    HW120858   3.084   3.664  11.926 -1.8008 -1.4775 -2.2072
 3075SOL    HW220859   3.049   3.522  11.941  0.8663  0.0332  0.1254
 3076SOL     OW20860   1.316   1.085   2.111 -0.2567 -0.1216  0.7130
 3076SOL    HW120861   1.264   1.094   2.191 -2.4090  0.1109 -0.7060
 3076SOL    HW220862   1.248   1.087   2.042  0.4334 -1.8698 -0.0215
 3077SOL     OW20863   0.639   3.242   3.058  0.2356 -0.0411  0.2124
 3077SOL    HW120864   0.641   3.151   3.087  1.8875 -0.9357 -2.6444
 3077SOL    HW220865   0.710   3.253   2.994  1.6699 -1.4970  1.5503
 3078SOL     OW20866   4.323   0.154   4.667 -0.1899  0.0927  0.3290
 3078SOL    HW120867   4.303   0.114   4.752  0.4086 -0.0827  0.3871
 3078SOL    HW220868   4.245   0.210   4.661  1.2933  2.1680  0.3095
 3079SOL     OW20869   0.557   0.772  13.361 -0.2680  0.4587  0.3148
 3079SOL    HW120870   0.594   0.684  13.368 -0.3877  0.5019  1.5408
 3079SOL    HW220871   0.602   0.812  13.436  3.2923 -1.4744 -0.7865
 3080SOL     OW20872   4.334   0.418   6.791  0.8089 -0.0127  0.3919
 3080SOL    HW120873   4.420   0.417   6.749  1.1267 -0.3461  1.0538
 3080SOL    HW220874   4.297   0.352   6.733 -0.6385  1.9918 -0.9758
 3081SOL     OW20875   1.051   3.626  10.878 -0.0669 -0.1999 -0.4564
 3081SOL    HW120876   1.088   3.554  10.828  0.6115 -0.6832  0.7273
 3081SOL    HW220877   1.128   3.657  10.927 -0.6214 -2.8133  2.0874
 3082SOL     OW20878   3.400   1.961   6.070  0.2133 -0.1160  0.7805
 3082SOL    HW120879   3.330   1.968   6.136  0.9521  0.5128  1.4946
 3082SOL    HW220880   3.358   1.899   6.010 -1.1883  1.8863 -0.2966
 3083SOL     OW20881   2.668   1.644   5.570  0.2210 -0.1928  0.2373
 3083SOL    HW120882   2.729   1.717   5.579 -1.4338  1.2464 -0.1497
 3083SOL    HW220883   2.734   1.582   5.600  1.3699  1.8337  1.8914
 3084SOL     OW20884   2.691   2.552  13.605  0.0988  0.0934 -0.5217
 3084SOL    HW120885   2.748   2.476  13.601  0.4322  0.2802  0.7036
 3084SOL    HW220886   2.734   2.598  13.533 -0.6134  1.4387 -0.0921
 3085SOL     OW20887   3.430   3.678   7.366 -0.3980 -0.3940  0.7246
 3085SOL    HW120888   3.489   3.647   7.435 -0.2577  1.0524  1.2500
 3085SOL    HW220889   3.367   3.607   7.354 -0.0433 -0.6127  0.1884
 3086SOL     OW20890   0.593   2.898   4.244  0.0580 -0.3296 -0.2426
 3086SOL    HW120891   0.654   2.951   4.193 -0.0828  1.1466  1.1457
 3086SOL    HW220892   0.653   2.851   4.302 -0.1385 -0.2338  0.0384
 3087SOL     OW20893   1.466   2.187  15.048  0.6054 -0.1229 -0.4687
 3087SOL    HW120894   1.454   2.101  15.089 -0.4367  0.1711 -0.1607
 3087SOL    HW220895   1.373   2.206  15.033  0.7171 -0.8971 -2.1648
 3088SOL     OW20896   0.213   2.825   3.043  0.2208  0.3331  0.2509
 3088SOL    HW120897   0.235   2.918   3.041 -0.5842  0.5408  1.2248
 3088SOL    HW220898   0.257   2.799   3.124 -0.1969  1.5403  0.8757
 3089SOL     OW20899   3.983   4.520  12.479 -0.2885 -0.2860 -0.2912
 3089SOL    HW120900   3.929   4.525  12.557  2.7937  1.4277  1.7627
 3089SOL    HW220901   3.920   4.533  12.408 -0.3697  0.2908 -0.1100
 3090SOL     OW20902   2.548   2.608   1.812 -0.0173 -0.4639  0.4223
 3090SOL    HW120903   2.514   2.628   1.725 -2.6598 -3.4811  0.7801
 3090SOL    HW220904   2.487   2.653   1.871 -1.5137  0.8450 -2.1503
 3091SOL     OW20905   0.929   4.711   6.557 -0.1060 -0.2098 -0.5944
 3091SOL    HW120906   0.955   4.707   6.649  1.0620 -0.3329 -0.9262
 3091SOL    HW220907   0.871   0.053   6.560 -3.1656 -2.5017 -1.3021
 3092SOL     OW20908   3.250   1.737   2.006 -0.5481 -0.6127 -0.1030
 3092SOL    HW120909   3.320   1.733   1.941  0.4271 -1.7336  1.0255
 3092SOL    HW220910   3.248   1.831   2.026  0.0393 -1.0161  1.8442
 3093SOL     OW20911   1.285   1.889  12.557  0.1166  0.1524  0.5755
 3093SOL    HW120912   1.316   1.801  12.578  1.7568  0.1320 -1.9323
 3093SOL    HW220913   1.239   1.876  12.474 -0.2379  2.3255  0.4280
 3094SOL     OW20914   2.324   0.350   4.462  0.0534 -0.5531 -0.4380
 3094SOL    HW120915   2.392   0.405   4.424 -2.9705  2.2303 -1.8782
 3094SOL    HW220916   2.367   0.345   4.547 -0.6661 -0.4893 -0.0668
 3095SOL     OW20917   2.787   4.572   4.372  0.4831 -0.0465  0.4539
 3095SOL    HW120918   2.699   4.542   4.394  1.4171 -1.3310  2.4084
 3095SOL    HW220919   2.795   4.567   4.277 -1.9509  1.7425  0.1465
 3096SOL     OW20920   1.263   0.647   6.379 -0.2009 -0.2002  0.4316
 3096SOL    HW120921   1.189   0.586   6.380  1.3764 -2.0981  1.0724
 3096SOL    HW220922   1.243   0.723   6.325  1.2814 -1.8204 -2.4015
 3097SOL     OW20923   2.690   0.863   8.702  0.0385  0.3748 -0.1577
 3097SOL    HW120924   2.610   0.836   8.748 -0.1178 -0.1215 -0.7084
 3097SOL    HW220925   2.672   0.954   8.679  0.7721  0.7253  0.6551
 3098SOL     OW20926   2.514   0.699   1.103 -0.3008 -0.4542 -0.2493
 3098SOL    HW120927   2.527   0.605   1.119  1.1722 -0.4521 -1.3515
 3098SOL    HW220928   2.421   0.705   1.121 -0.8649  0.2917 -3.3594
 3099SOL     OW20929   4.639   2.635   6.551 -0.2409  0.2099  0.0424
 3099SOL    HW120930   4.612   2.648   6.641  2.4508 -0.4222  0.9292
 3099SOL    HW220931   4.652   2.541   6.547  0.6670  0.4291 -2.4880
 3100SOL     OW20932   0.970   2.618   4.050  0.4106  0.4014  0.3970
 3100SOL    HW120933   0.879   2.591   4.062  0.5354  0.6106  1.8112
 3100SOL    HW220934   0.995   2.562   3.976  0.8320  3.8389 -2.0912
 3101SOL     OW20935   4.606   3.643   2.987  0.2973 -0.4250 -0.5177
 3101SOL    HW120936   4.691   3.601   2.976  0.8977  0.2961  1.3791
 3101SOL    HW220937   4.588   3.627   3.080 -1.5595 -0.4931 -0.8840
 3102SOL     OW20938   3.062   3.262   1.376  0.3600  0.2791  0.7361
 3102SOL    HW120939   3.121   3.224   1.310  1.8100 -1.1863  2.8802
 3102SOL    HW220940   3.063   3.356   1.357 -0.8966 -0.1262 -1.3698
 3103SOL     OW20941   2.681   0.941   2.877  0.3816 -0.4497  0.5948
 3103SOL    HW120942   2.591   0.973   2.877  1.2908  2.1607 -0.1485
 3103SOL    HW220943   2.713   0.969   2.963 -2.1399 -0.4436  1.5338
 3104SOL     OW20944   0.172   3.355   2.899 -0.0926  0.2013 -0.2242
 3104SOL    HW120945   0.146   3.446   2.907 -0.0629  0.4600 -3.0152
 3104SOL    HW220946   0.162   3.351   2.803  2.9344  2.0086 -0.6209
 3105SOL     OW20947   1.793   1.681   9.192  0.1238 -0.3521  0.1365
 3105SOL    HW120948   1.840   1.675   9.276  0.0553  2.6536  0.3784
 3105SOL    HW220949   1.799   1.773   9.168 -1.4231 -0.3024 -0.0314
 3106SOL     OW20950   2.058   1.545   8.367  0.3915  0.3406  0.4261
 3106SOL    HW120951   2.062   1.493   8.287 -2.2112  1.5598 -0.4989
 3106SOL    HW220952   2.151   1.566   8.376  0.6709 -0.6390 -0.2643
 3107SOL     OW20953   0.198   0.949   3.594 -0.1971 -0.9270  0.0332
 3107SOL    HW120954   0.115   0.987   3.566  0.6963  1.2111  0.2785
 3107SOL    HW220955   0.157   0.879   3.646  0.7187 -0.6470  1.1347
 3108SOL     OW20956   4.471   3.148  15.899  0.3023  0.1903 -0.0743
 3108SOL    HW120957   4.445   3.080  15.837 -0.0589  0.7122 -0.4882
 3108SOL    HW220958   4.476   3.094  15.978  0.8060 -0.2265 -0.3896
 3109SOL     OW20959   3.404   2.979   0.952  0.2141 -0.1449 -0.2135
 3109SOL    HW120960   3.457   2.900   0.940  1.8162  0.4016  3.2799
 3109SOL    HW220961   3.320   2.953   0.916  0.6036 -0.6286 -0.7693
 3110SOL     OW20962   4.192   0.356   8.908 -0.5246 -0.1910  0.3135
 3110SOL    HW120963   4.172   0.321   8.995  0.7274 -0.2721  0.5642
 3110SOL    HW220964   4.271   0.305   8.890 -0.5020  0.0244 -0.1970
 3111SOL     OW20965   1.722   0.488   6.683  0.4252  0.0054  0.5173
 3111SOL    HW120966   1.669   0.532   6.749  1.2103  2.9716 -0.8042
 3111SOL    HW220967   1.660   0.446   6.624  1.3007  0.7091 -0.9186
 3112SOL     OW20968   4.646   2.834   3.192 -0.1626 -0.1052 -0.0926
 3112SOL    HW120969   4.688   2.751   3.167  0.8801  0.2133  0.6239
 3112SOL    HW220970   4.717   2.874   3.242 -0.5300 -0.8658  1.0319
 3113SOL     OW20971   0.892   2.322   5.896  0.1279  0.3961 -0.2157
 3113SOL    HW120972   0.972   2.370   5.878  0.4559 -1.0553 -2.6577
 3113SOL    HW220973   0.914   2.272   5.975  0.0667 -1.0824 -1.1249
 3114SOL     OW20974   3.404   0.110   7.028 -0.1198  0.0439 -0.0933
 3114SOL    HW120975   3.330   0.166   7.052 -1.2083 -1.2676 -0.3916
 3114SOL    HW220976   3.399   0.097   6.933 -1.1843  4.4598 -0.6721
 3115SOL     OW20977   4.181   0.683   9.013  0.5246  0.1528  0.6056
 3115SOL    HW120978   4.267   0.723   9.029  1.3119 -1.4312  0.2480
 3115SOL    HW220979   4.183   0.623   9.087 -2.3085  0.0104  0.5832
 3116SOL     OW20980   1.586   1.970   3.966 -0.1121  0.7574 -0.4975
 3116SOL    HW120981   1.573   1.877   3.946  2.2209 -0.3118  2.9050
 3116SOL    HW220982   1.497   2.002   3.954  0.2893  1.3406 -1.9478
 3117SOL     OW20983   2.781   2.891   5.514 -0.0258 -0.4772  0.1103
 3117SOL    HW120984   2.834   2.968   5.496  1.1009 -0.9956  1.1453
 3117SOL    HW220985   2.749   2.908   5.603 -0.1151 -1.4704  0.2690
 3118SOL     OW20986   4.409   0.405   3.591 -0.1104 -0.6670 -0.4254
 3118SOL    HW120987   4.475   0.467   3.623  0.3218 -0.7679 -1.1183
 3118SOL    HW220988   4.376   0.383   3.678 -3.1045  1.0772 -1.1197
 3119SOL     OW20989   0.377   3.082  11.890 -0.2929  0.2607  0.0799
 3119SOL    HW120990   0.426   3.125  11.960  0.9191 -0.9719 -0.0073
 3119SOL    HW220991   0.419   3.126  11.816  3.1802 -2.3355  0.5169
 3120SOL     OW20992   1.595   1.053   6.572 -0.7272 -0.1100  0.7438
 3120SOL    HW120993   1.530   1.009   6.626  0.4534  0.3113  2.5031
 3120SOL    HW220994   1.606   0.991   6.500 -0.0238 -0.3115  1.0238
 3121SOL     OW20995   1.013   4.065   7.956  0.3490 -0.4777 -0.0672
 3121SOL    HW120996   1.046   4.122   8.025  1.0413 -2.5887  1.3396
 3121SOL    HW220997   0.920   4.084   7.960  0.2205 -2.1130  4.2579
 3122SOL     OW20998   3.235   1.616   7.972  0.0032  0.1264 -0.1578
 3122SOL    HW120999   3.169   1.553   8.001 -1.3658  1.2370 -0.8611
 3122SOL    HW221000   3.256   1.570   7.891  0.0480  0.4936 -0.3550
 3123SOL     OW21001   2.802   3.887   2.608  0.0443 -0.0385  0.6810
 3123SOL    HW121002   2.788   3.857   2.518  0.5573  1.2307  0.1760
 3123SOL    HW221003   2.721   3.934   2.629  0.6763  1.1915  0.3906
 3124SOL     OW21004   3.750   3.693  11.569  0.2517  0.6920 -0.0066
 3124SOL    HW121005   3.766   3.783  11.598 -1.4402  0.8211  0.5268
 3124SOL    HW221006   3.819   3.687  11.504  1.0340  1.4672  0.7507
 3125SOL     OW21007   0.373   1.738  12.083  0.2479  0.0067 -0.3817
 3125SOL    HW121008   0.462   1.758  12.112 -0.1302  2.4620 -0.8644
 3125SOL    HW221009   0.377   1.753  11.988  1.2003  1.5976 -0.0936
 3126SOL     OW21010   3.354   3.633   7.816  0.4538  0.0655  0.0888
 3126SOL    HW121011   3.376   3.540   7.819 -0.3384 -0.1771 -1.7495
 3126SOL    HW221012   3.438   3.675   7.836  0.5811 -0.2362  0.1963
 3127SOL     OW21013   3.819   2.772   6.629  0.3036  0.0615 -0.0822
 3127SOL    HW121014   3.875   2.780   6.706 -0.1402 -1.5430  0.4021
 3127SOL    HW221015   3.869   2.704   6.585 -0.4622 -0.0288 -0.8144
 3128SOL     OW21016   2.809   3.507   9.154  0.2169  0.3099  0.0514
 3128SOL    HW121017   2.863   3.474   9.226  0.5556 -2.9158 -1.7068
 3128SOL    HW221018   2.720   3.490   9.185  0.5799  1.8934  2.0424
 3129SOL     OW21019   4.657   4.696  17.641 -0.4080 -0.1789 -0.4048
 3129SOL    HW121020   4.611   4.733  17.717  2.5724  1.9098  0.3903
 3129SOL    HW221021   4.673   0.044  17.593  0.2154 -0.4380 -0.6297
 3130SOL     OW21022   2.736   1.688  12.322 -0.4853 -0.5296 -0.1956
 3130SOL    HW121023   2.737   1.592  12.329 -0.0459 -0.4627  0.6806
 3130SOL    HW221024   2.751   1.704  12.415  1.1470  0.2768 -0.6050
 3131SOL     OW21025   2.791   4.655  16.819 -0.3185 -0.2293  0.2988
 3131SOL    HW121026   2.773   0.013  16.802  1.4524 -0.4713 -2.8089
 3131SOL    HW221027   2.723   4.604  16.775  0.7101 -1.5509  0.2453
 3132SOL     OW21028   2.326   2.769   7.039 -0.0950 -0.0300 -0.0778
 3132SOL    HW121029   2.262   2.698   7.046 -0.8055  0.5401 -0.8352
 3132SOL    HW221030   2.301   2.800   6.952 -1.9646 -0.8343  0.1565
 3133SOL     OW21031   3.920   0.941  11.977  0.2117 -0.1109  0.2746
 3133SOL    HW121032   3.831   0.916  11.954  0.7189 -0.8665 -0.8552
 3133SOL    HW221033   3.911   1.036  11.963 -1.4625 -0.0785  1.5707
 3134SOL     OW21034   0.604   1.369  16.197  0.2493 -0.2943 -0.8749
 3134SOL    HW121035   0.598   1.397  16.288  0.2736 -1.5338 -0.4945
 3134SOL    HW221036   0.610   1.275  16.214 -0.3431 -0.3372 -0.8967
 3135SOL     OW21037   0.158   0.253  16.993  0.3812  0.4872  0.2231
 3135SOL    HW121038   0.246   0.240  16.957 -1.4906 -1.6739 -3.6270
 3135SOL    HW221039   0.176   0.318  17.060  0.5935  0.4035  0.2503
 3136SOL     OW21040   0.638   0.840   0.779  0.2108  0.2081  0.6532
 3136SOL    HW121041   0.577   0.847   0.706  0.5047  1.0839  0.4936
 3136SOL    HW221042   0.683   0.924   0.781 -0.0731  0.4145 -1.6569
 3137SOL     OW21043   2.738   2.038   2.818 -0.1162 -0.4719 -0.5766
 3137SOL    HW121044   2.660   2.091   2.839 -0.4565 -0.7983 -1.0132
 3137SOL    HW221045   2.731   2.013   2.726 -2.1822  0.4389 -0.6733
 3138SOL     OW21046   2.331   1.135   9.589  0.2603  0.0767  0.0404
 3138SOL    HW121047   2.425   1.130   9.574  0.2067 -1.8068  0.3561
 3138SOL    HW221048   2.329   1.222   9.627  1.4161  0.8517 -1.6878
 3139SOL     OW21049   0.314   0.555   0.774 -0.2494 -0.1747 -0.3873
 3139SOL    HW121050   0.264   0.483   0.813 -1.9947  0.9896 -0.4552
 3139SOL    HW221051   0.267   0.629   0.813  2.3160  0.7066  1.0558
 3140SOL     OW21052   3.810   3.452   8.441  0.1965 -0.0538  0.1015
 3140SOL    HW121053   3.859   3.378   8.478  0.0760  0.8263  2.0227
 3140SOL    HW221054   3.817   3.506   8.520  0.2207  0.7749 -0.4784
 3141SOL     OW21055   2.098   3.754   2.472 -0.2362  0.3951 -0.3627
 3141SOL    HW121056   2.084   3.840   2.511  3.7727  0.9601 -0.1579
 3141SOL    HW221057   2.011   3.729   2.440  0.1497 -1.4976  0.0595
 3142SOL     OW21058   1.785   0.078   1.035  0.0035 -0.2578 -0.4830
 3142SOL    HW121059   1.852   0.070   1.103 -1.3897 -1.6199  0.7480
 3142SOL    HW221060   1.822   0.035   0.958  0.8831 -2.4763  1.1708
 3143SOL     OW21061   3.654   4.174   7.515 -0.3797 -0.1016  0.2950
 3143SOL    HW121062   3.736   4.176   7.466  0.7363 -1.5621  2.1530
 3143SOL    HW221063   3.635   4.081   7.514 -0.6098 -0.0512 -0.3853
 3144SOL     OW21064   4.146   0.717   3.052  0.0573  0.6166  0.5636
 3144SOL    HW121065   4.189   0.728   2.967  0.1686 -0.7603  0.4495
 3144SOL    HW221066   4.147   0.622   3.062  2.0342  0.8409  2.4305
 3145SOL     OW21067   2.556   3.303  14.515 -0.2833  0.1050  0.0867
 3145SOL    HW121068   2.546   3.307  14.610  2.0769 -0.9821  0.3863
 3145SOL    HW221069   2.489   3.235  14.506 -1.3214  1.3804 -1.9306
 3146SOL     OW21070   3.318   2.454   7.663 -0.0062 -0.3067 -0.0503
 3146SOL    HW121071   3.229   2.488   7.670 -0.7578 -2.7620  2.2970
 3146SOL    HW221072   3.299   2.371   7.622  1.8592 -2.7738  4.0479
 3147SOL     OW21073   1.255   1.038   1.823  0.5732  0.2958  0.0615
 3147SOL    HW121074   1.333   1.008   1.778  2.0526  3.1763  0.6771
 3147SOL    HW221075   1.218   0.954   1.849  0.3929  0.2102 -0.4848
 3148SOL     OW21076   1.591   2.405   4.386 -0.1526 -0.1762 -0.4195
 3148SOL    HW121077   1.604   2.365   4.300  1.0813 -2.5280  0.8370
 3148SOL    HW221078   1.544   2.338   4.436  1.2840  0.2905  1.5889
 3149SOL     OW21079   4.356   3.472   7.912  0.9336  0.4983  0.5315
 3149SOL    HW121080   4.331   3.468   7.820  0.8334  0.4138  0.5630
 3149SOL    HW221081   4.332   3.563   7.932 -0.5864  0.2280 -0.1402
 3150SOL     OW21082   2.284   2.361   8.080 -0.3745 -0.4439 -0.3403
 3150SOL    HW121083   2.293   2.279   8.128 -0.2968  0.6675  1.5738
 3150SOL    HW221084   2.266   2.341   7.988  2.3354  0.0280 -0.9766
 3151SOL     OW21085   4.529   1.127  13.318 -0.3257 -0.5565 -0.2969
 3151SOL    HW121086   4.580   1.143  13.239 -1.1133 -0.5205 -0.7868
 3151SOL    HW221087   4.571   1.044  13.340 -0.5892 -0.7524 -0.5484
 3152SOL     OW21088   3.272   3.986   1.563 -0.1934 -0.3523  0.1681
 3152SOL    HW121089   3.307   4.070   1.532  0.5227 -0.6679  0.1025
 3152SOL    HW221090   3.178   3.989   1.546  0.2816 -0.0212 -2.5248
 3153SOL     OW21091   3.208   0.380   5.734  0.6960 -0.1409 -0.2088
 3153SOL    HW121092   3.133   0.327   5.707 -0.9331  0.9572  2.1571
 3153SOL    HW221093   3.215   0.450   5.668  0.7757  1.1468  1.1643
 3154SOL     OW21094   0.296   4.126   1.787  0.2138  0.3122  0.7358
 3154SOL    HW121095   0.244   4.174   1.851  1.8004  1.7436  0.9522
 3154SOL    HW221096   0.382   4.167   1.795  0.4737  0.2734 -1.6999
 3155SOL     OW21097   2.529   4.600   6.580  0.1657  0.1780 -0.2883
 3155SOL    HW121098   2.608   4.653   6.588 -0.6949  1.6479 -1.4872
 3155SOL    HW221099   2.488   4.658   6.516 -0.6872 -0.7635 -0.5911
 3156SOL     OW21100   0.541   1.162   8.442 -0.1659 -0.2299  0.2802
 3156SOL    HW121101   0.538   1.256   8.459  1.8357  0.1027 -1.1607
 3156SOL    HW221102   0.636   1.150   8.453 -0.0453  0.9241  0.5428
 3157SOL     OW21103   0.526   4.684   7.731 -0.1902  0.0398 -0.4496
 3157SOL    HW121104   0.608   4.730   7.714  0.6617 -1.4315 -0.2580
 3157SOL    HW221105   0.547   4.666   7.823 -0.3846 -1.4711 -0.7056
 3158SOL     OW21106   3.824   3.483   9.511 -0.3327  0.0428  0.1342
 3158SOL    HW121107   3.801   3.409   9.567  1.7197 -0.8529 -0.2043
 3158SOL    HW221108   3.774   3.543   9.566  0.3473  2.1580 -1.5609
 3159SOL     OW21109   3.781   3.859   4.161  0.2991  0.4142  0.1813
 3159SOL    HW121110   3.867   3.900   4.169  0.0909  1.1486 -1.3572
 3159SOL    HW221111   3.770   3.827   4.071  0.6143  1.3380 -0.1861
 3160SOL     OW21112   3.620   0.917   9.247  0.1218  0.5821 -0.0516
 3160SOL    HW121113   3.575   0.998   9.274  0.4739  0.9317 -0.5215
 3160SOL    HW221114   3.697   0.957   9.207  0.0112 -0.0428 -0.8704
 3161SOL     OW21115   2.387   4.656  17.424 -0.4762 -0.1796  0.6371
 3161SOL    HW121116   2.383   4.560  17.428  1.0792 -0.2567  0.4937
 3161SOL    HW221117   2.383   4.675  17.518 -1.5642  1.2285  0.2990
 3162SOL     OW21118   3.898   1.438   7.865  0.3877 -0.2475  0.2703
 3162SOL    HW121119   3.908   1.398   7.951  1.8848 -3.7286 -1.5135
 3162SOL    HW221120   3.972   1.499   7.861  1.1273 -0.9925  2.4500
 3163SOL     OW21121   2.372   1.396   9.689  0.2466 -0.0445  0.1656
 3163SOL    HW121122   2.448   1.443   9.724 -0.1605  1.2231 -0.6508
 3163SOL    HW221123   2.303   1.446   9.734  2.1402  1.8883  0.9427
 3164SOL     OW21124   2.085   2.432   1.873  0.0199 -0.0105 -0.2576
 3164SOL    HW121125   2.086   2.524   1.900 -2.9816 -0.4002  1.1497
 3164SOL    HW221126   2.024   2.397   1.938 -0.5371 -3.9921 -2.9273
 3165SOL     OW21127   4.550   2.828   5.174 -0.1542 -0.1899  0.5602
 3165SOL    HW121128   4.467   2.793   5.141  0.3413 -1.6198  0.8567
 3165SOL    HW221129   4.567   2.898   5.110  1.0791 -0.3260  0.7355
 3166SOL     OW21130   4.265   1.319   2.884  0.2274 -0.3269  0.1531
 3166SOL    HW121131   4.285   1.232   2.918  0.5081 -1.1078 -1.9757
 3166SOL    HW221132   4.267   1.303   2.789 -1.0912 -1.0034  0.2365
 3167SOL     OW21133   0.893   0.557   3.292  0.2903  0.2271  0.2639
 3167SOL    HW121134   0.922   0.623   3.355  2.5064  0.4851 -1.0634
 3167SOL    HW221135   0.891   0.596   3.205 -2.4342 -0.5929 -0.0745
 3168SOL     OW21136   2.003   1.932  10.715  0.5260 -0.0899 -0.0730
 3168SOL    HW121137   2.028   1.935  10.623  0.4370  1.6721 -0.0525
 3168SOL    HW221138   2.076   1.891  10.762  2.0463  1.2912 -1.2423
 3169SOL     OW21139   3.096   2.176   6.392 -0.2227 -0.1209 -0.2300
 3169SOL    HW121140   3.021   2.122   6.369 -0.9278 -0.5661  3.0620
 3169SOL    HW221141   3.108   2.142   6.481  0.0876  2.3523  0.6922
 3170SOL     OW21142   0.042   2.839   7.795  0.2118  0.0806  0.1063
 3170SOL    HW121143   0.103   2.795   7.737 -1.2486  0.2967 -1.5929
 3170SOL    HW221144   4.733   2.895   7.730  0.5705  1.2372  0.8586
 3171SOL     OW21145   2.714   2.259   8.341 -0.5579 -0.3599  0.1362
 3171SOL    HW121146   2.680   2.175   8.374  1.2493 -0.5130  1.5760
 3171SOL    HW221147   2.656   2.324   8.382  0.7449  1.1330 -0.4209
 3172SOL     OW21148   1.012   0.142   4.047 -0.1113 -0.3503 -0.0064
 3172SOL    HW121149   1.020   0.069   3.986  1.5475 -0.0337 -0.1530
 3172SOL    HW221150   1.019   0.102   4.134  1.7345 -1.1630 -0.5274
 3173SOL     OW21151   4.107   1.290   7.360 -0.4028 -0.3006  0.1973
 3173SOL    HW121152   4.126   1.350   7.432  2.9527 -0.6204 -0.4041
 3173SOL    HW221153   4.162   1.214   7.382  0.2948  1.3288  4.0296
 3174SOL     OW21154   1.498   0.130   6.674 -0.1185  0.6615  0.3050
 3174SOL    HW121155   1.550   0.068   6.725  0.8948  1.2788  0.0327
 3174SOL    HW221156   1.413   0.093   6.697 -0.5492  1.7595  0.4835
 3175SOL     OW21157   3.249   1.267  13.329  0.1611  0.1089 -0.0701
 3175SOL    HW121158   3.326   1.319  13.308 -1.0016  1.6992 -0.4117
 3175SOL    HW221159   3.183   1.335  13.317 -1.3726 -1.9435 -3.0701
 3176SOL     OW21160   2.157   3.083  14.084  0.1813 -0.0077 -0.0613
 3176SOL    HW121161   2.094   3.019  14.051  1.3183 -0.3827 -1.5004
 3176SOL    HW221162   2.117   3.164  14.054  1.8402  0.6605 -0.4792
 3177SOL     OW21163   2.712   0.933   7.800  0.1264 -0.3466 -1.0958
 3177SOL    HW121164   2.792   0.981   7.824  0.9875 -1.8308 -1.0077
 3177SOL    HW221165   2.736   0.840   7.800  1.2157 -0.0717 -0.4627
 3178SOL     OW21166   3.187   2.349  11.886 -0.2866  0.4724 -0.6052
 3178SOL    HW121167   3.239   2.322  11.810  1.1659  2.1421 -0.2004
 3178SOL    HW221168   3.179   2.270  11.939  0.8508  1.0398  0.4007
 3179SOL     OW21169   0.549   4.358  12.376 -0.2127 -0.0203 -0.9383
 3179SOL    HW121170   0.602   4.435  12.396 -1.2726  0.3713  0.3591
 3179SOL    HW221171   0.616   4.296  12.404 -1.3530 -1.1968 -0.8070
 3180SOL     OW21172   4.686   0.737   1.919 -0.4545 -0.4932 -0.2862
 3180SOL    HW121173   4.693   0.785   1.836  0.8786  1.0122  0.6976
 3180SOL    HW221174   4.599   0.767   1.945 -0.0926 -0.4452  0.8809
 3181SOL     OW21175   2.701   0.822   8.246  0.1870  0.3858 -0.1127
 3181SOL    HW121176   2.654   0.877   8.310  0.7280  0.3274  0.3316
 3181SOL    HW221177   2.763   0.791   8.311 -0.5512 -0.6215  0.1140
 3182SOL     OW21178   4.032   3.213   5.439 -0.6023  0.0838  0.2092
 3182SOL    HW121179   3.950   3.258   5.421 -1.1758 -0.8951  0.3438
 3182SOL    HW221180   4.092   3.287   5.431  0.8696 -1.0845  0.3298
 3183SOL     OW21181   2.328   2.984   4.279 -0.2856 -0.1663  0.5838
 3183SOL    HW121182   2.323   3.047   4.207  0.6240  2.1333  2.5272
 3183SOL    HW221183   2.295   3.039   4.350  0.4941 -0.8268  1.4425
 3184SOL     OW21184   1.429   0.291   8.394  0.2817  0.1910  0.4500
 3184SOL    HW121185   1.362   0.359   8.390 -0.3982 -0.5290 -0.5263
 3184SOL    HW221186   1.471   0.328   8.316  0.2940 -0.4137  0.1662
 3185SOL     OW21187   2.544   0.580   1.699 -0.2831  0.3563 -0.0618
 3185SOL    HW121188   2.508   0.668   1.707 -2.5403 -0.6883  1.2926
 3185SOL    HW221189   2.511   0.566   1.610 -2.3976  1.7996  0.4847
 3186SOL     OW21190   4.298   3.608  11.557  0.2874  0.0733 -0.0390
 3186SOL    HW121191   4.224   3.548  11.567  0.7592 -0.4865  0.0985
 3186SOL    HW221192   4.249   3.689  11.568 -0.1456 -0.4992  2.1216
 3187SOL     OW21193   1.833   0.818   9.332 -0.8083 -0.6496  0.1205
 3187SOL    HW121194   1.920   0.784   9.353 -0.8025 -0.4958  0.3472
 3187SOL    HW221195   1.834   0.789   9.241  0.1462  0.0840 -0.0975
 3188SOL     OW21196   2.504   1.426   6.466 -0.0079 -0.4164 -0.4392
 3188SOL    HW121197   2.501   1.363   6.395  0.6231 -1.5900  0.5754
 3188SOL    HW221198   2.458   1.500   6.427 -0.4544  0.5849  1.9462
 3189SOL     OW21199   0.019   3.869  11.923  0.3305  0.4914  0.0432
 3189SOL    HW121200   4.720   3.845  11.837 -0.5621 -0.3841  0.6227
 3189SOL    HW221201   4.668   3.861  11.965  0.0012 -0.1479 -0.7464
 3190SOL     OW21202   1.533   1.025   7.451 -0.1727 -0.4369  0.5099
 3190SOL    HW121203   1.595   0.971   7.402  0.4322  2.0356 -1.4536
 3190SOL    HW221204   1.589   1.057   7.522 -0.8888  0.9880  0.4382
 3191SOL     OW21205   1.295   0.123  14.181  0.4485  0.1190  0.5744
 3191SOL    HW121206   1.214   0.174  14.180  1.1604  1.2168 -2.1020
 3191SOL    HW221207   1.267   0.052  14.238 -0.0052  1.1132  1.6031
 3192SOL     OW21208   2.058   3.953  12.903 -0.1393  0.2333  0.0840
 3192SOL    HW121209   2.124   3.945  12.972 -0.7170 -2.0822  0.3570
 3192SOL    HW221210   2.021   3.865  12.897  0.3814  0.1112 -1.2938
 3193SOL     OW21211   1.177   0.414   3.470  1.0769 -0.0934  0.0026
 3193SOL    HW121212   1.137   0.452   3.392  0.0539 -1.0974  0.0277
 3193SOL    HW221213   1.268   0.407   3.441  0.1363 -2.4661 -2.3841
 3194SOL     OW21214   1.107   1.127   3.321 -0.1371  0.3367  0.4657
 3194SOL    HW121215   1.134   1.193   3.257 -0.3611 -0.5585 -0.5628
 3194SOL    HW221216   1.098   1.053   3.260 -0.6206  1.4270 -0.7883
 3195SOL     OW21217   4.314   2.288   0.304  0.2554 -0.2582  0.1514
 3195SOL    HW121218   4.372   2.346   0.254  2.3869 -2.2142  0.3798
 3195SOL    HW221219   4.276   2.240   0.231  0.3854  0.6887 -0.5496
 3196SOL     OW21220   0.168   0.317   6.717  0.2441  0.1730 -0.2874
 3196SOL    HW121221   0.230   0.278   6.779 -0.8797 -0.8083  0.2228
 3196SOL    HW221222   0.126   0.378   6.778  0.9182 -0.9023  1.2598
 3197SOL     OW21223   0.084   0.951   8.003 -0.5198  0.2767 -0.1527
 3197SOL    HW121224   0.070   0.889   8.075 -1.9512 -0.0667 -0.7264
 3197SOL    HW221225   0.176   0.964   8.023 -0.6995  0.6012  0.5077
 3198SOL     OW21226   3.657   4.191   8.408 -0.6488 -0.8452 -0.1595
 3198SOL    HW121227   3.641   4.220   8.319 -0.5635 -0.4124 -0.0307
 3198SOL    HW221228   3.574   4.233   8.432 -0.5606 -0.6650 -0.1737
 3199SOL     OW21229   4.568   1.416  14.706 -0.4837  0.1106  0.0396
 3199SOL    HW121230   4.647   1.462  14.734 -0.7351  0.1414  0.7086
 3199SOL    HW221231   4.589   1.327  14.735 -2.0001 -0.4242 -0.4863
 3200SOL     OW21232   3.809   0.789   2.220 -0.3172  0.8605 -0.1457
 3200SOL    HW121233   3.719   0.763   2.198 -0.0726 -0.1737  0.0927
 3200SOL    HW221234   3.801   0.818   2.311  2.5198  2.7220 -0.4890
 3201SOL     OW21235   0.462   0.333   5.600  0.3527 -0.2882 -0.0368
 3201SOL    HW121236   0.523   0.371   5.537  1.9812 -0.2257  1.5828
 3201SOL    HW221237   0.424   0.411   5.642 -1.0899  0.3235 -2.4834
 3202SOL     OW21238   2.541   1.332  13.602 -0.1031 -0.2448 -0.1729
 3202SOL    HW121239   2.512   1.421  13.623 -2.0354 -0.6919 -0.9906
 3202SOL    HW221240   2.469   1.280  13.637  0.7143 -2.8778 -2.3807
 3203SOL     OW21241   3.718   3.868  11.850 -0.7813 -0.1972  0.4568
 3203SOL    HW121242   3.770   3.827  11.920  2.7126  0.4622 -1.7797
 3203SOL    HW221243   3.784   3.885  11.784 -0.9011 -2.1932 -0.1666
 3204SOL     OW21244   3.110   0.268   2.578 -0.3630 -0.4961  0.0252
 3204SOL    HW121245   3.126   0.348   2.628  0.9550 -1.4664  1.1747
 3204SOL    HW221246   3.021   0.292   2.553 -0.0531  3.8421  3.1512
 3205SOL     OW21247   2.478   2.512   7.588 -0.1382  0.1263  0.4652
 3205SOL    HW121248   2.531   2.476   7.516 -0.0113  0.3847  0.4285
 3205SOL    HW221249   2.521   2.597   7.601  0.4762 -0.1483  0.2551
 3206SOL     OW21250   0.976   1.209   7.696  0.4360 -0.1554  0.1417
 3206SOL    HW121251   1.012   1.123   7.718 -2.0788 -1.3570 -0.5353
 3206SOL    HW221252   0.920   1.187   7.622  0.9804  1.0340 -0.6307
 3207SOL     OW21253   3.571   4.314   2.650  0.6067  0.4025 -0.4689
 3207SOL    HW121254   3.495   4.347   2.699  0.2914 -1.2067  0.1249
 3207SOL    HW221255   3.633   4.311   2.723  2.0512  2.1316 -1.6071
 3208SOL     OW21256   1.966   2.219   3.921  0.3072  0.0932 -0.0441
 3208SOL    HW121257   1.948   2.152   3.855  0.3966 -0.0699  0.0949
 3208SOL    HW221258   1.901   2.287   3.907 -0.6419 -0.7371  0.2868
 3209SOL     OW21259   2.103   0.666   6.744 -0.3819  0.9178 -0.0155
 3209SOL    HW121260   2.158   0.744   6.735  1.4999 -0.4015  0.0279
 3209SOL    HW221261   2.038   0.682   6.676  0.5339 -2.3303 -1.6587
 3210SOL     OW21262   2.909   1.557   9.003  0.3867  0.0209 -0.0033
 3210SOL    HW121263   2.913   1.539   8.909  2.4315  2.3948 -0.3673
 3210SOL    HW221264   2.921   1.651   9.012  0.2816  0.2542 -2.2917
 3211SOL     OW21265   2.894   0.480   5.203  0.2128  0.1280 -0.3659
 3211SOL    HW121266   2.861   0.405   5.154 -0.8259  0.9522 -0.9166
 3211SOL    HW221267   2.983   0.486   5.169  0.6169 -3.9913 -0.0302
 3212SOL     OW21268   0.996   1.501   6.733 -0.6011  0.3219  0.4397
 3212SOL    HW121269   1.052   1.443   6.681 -0.4422  0.3318  0.5980
 3212SOL    HW221270   1.056   1.575   6.749  1.6672 -1.3130 -0.4453
 3213SOL     OW21271   4.309   1.662   2.728 -0.2602  0.0652  0.2122
 3213SOL    HW121272   4.286   1.569   2.725 -4.0967  1.0950 -1.6785
 3213SOL    HW221273   4.228   1.705   2.702 -0.6997  1.1239  3.4001
 3214SOL     OW21274   3.279   0.619   8.719  0.0517  0.3421 -0.0136
 3214SOL    HW121275   3.188   0.637   8.697 -0.1172 -0.8318 -0.3004
 3214SOL    HW221276   3.329   0.662   8.650 -2.4937  1.5207 -1.1106
 3215SOL     OW21277   1.340   2.793  11.104 -0.1172  1.0150 -0.1625
 3215SOL    HW121278   1.281   2.839  11.044  1.7382  0.2041 -2.6065
 3215SOL    HW221279   1.356   2.716  11.050  0.6697  0.7772  0.4088
 3216SOL     OW21280   3.023   1.499  16.686 -0.1857 -0.3986  0.2485
 3216SOL    HW121281   2.935   1.487  16.650 -1.5440  1.9603  2.7137
 3216SOL    HW221282   3.032   1.593  16.672 -1.9491 -0.3928 -0.9312
 3217SOL     OW21283   2.737   1.149   5.938  0.7276  0.5744 -0.2495
 3217SOL    HW121284   2.706   1.236   5.964 -1.6610  0.2175 -1.9211
 3217SOL    HW221285   2.832   1.155   5.946  0.6616  2.5468 -0.9039
 3218SOL     OW21286   3.995   1.527   8.595  0.1992  0.0995  0.5285
 3218SOL    HW121287   4.067   1.466   8.583  0.3510  0.1416  1.2194
 3218SOL    HW221288   4.038   1.590   8.653 -1.9437  1.4363  0.6653
 3219SOL     OW21289   3.032   2.944   4.595  0.0685 -0.1692  0.4761
 3219SOL    HW121290   2.958   3.004   4.602 -0.6708 -0.9441 -0.6493
 3219SOL    HW221291   3.082   2.978   4.521 -0.8346 -1.1592 -0.5982
 3220SOL     OW21292   0.385   1.873   6.652 -0.3699  0.3054 -0.5036
 3220SOL    HW121293   0.304   1.871   6.601 -0.5696  0.8658 -0.2036
 3220SOL    HW221294   0.357   1.914   6.734  1.8706 -0.3623  0.5789
 3221SOL     OW21295   3.434   3.979   5.705  0.1850  0.0474  0.6203
 3221SOL    HW121296   3.344   3.974   5.736 -0.1637 -0.9926 -0.5689
 3221SOL    HW221297   3.453   3.885   5.699 -1.9309 -0.2880 -0.8383
 3222SOL     OW21298   1.641   3.161   4.923  0.4433  0.0300  0.3438
 3222SOL    HW121299   1.654   3.249   4.958  1.1904  0.1540 -0.2584
 3222SOL    HW221300   1.729   3.124   4.922  0.1461 -0.6481 -0.4722
 3223SOL     OW21301   4.704   3.806  10.237 -0.5032 -0.0312 -0.4365
 3223SOL    HW121302   4.650   3.885  10.238 -2.1637 -1.1266 -2.8634
 3223SOL    HW221303   4.693   3.789  10.143  4.6942  4.2140 -1.7689
 3224SOL     OW21304   0.711   3.150   7.025 -0.1453 -0.0502  0.5233
 3224SOL    HW121305   0.676   3.099   7.098 -2.0445  0.0562 -0.3373
 3224SOL    HW221306   0.803   3.123   7.029 -0.3513 -1.0827 -1.8272
 3225SOL     OW21307   3.468   4.385   3.169 -0.2983  0.4585 -0.2827
 3225SOL    HW121308   3.540   4.358   3.226  0.0627  0.4264 -0.7576
 3225SOL    HW221309   3.404   4.318   3.194  1.6762 -0.2431  2.8937
 3226SOL     OW21310   2.900   1.988   6.339  0.0842  0.7983 -0.1891
 3226SOL    HW121311   2.825   1.928   6.344  0.1425  0.7846  0.5266
 3226SOL    HW221312   2.960   1.923   6.376 -0.2506  1.2999  1.2445
 3227SOL     OW21313   1.052   0.531   4.351  0.2788 -0.4987  0.1956
 3227SOL    HW121314   1.028   0.622   4.371  0.7142 -0.1959 -0.6737
 3227SOL    HW221315   0.977   0.510   4.297  0.6094  1.4153 -1.0127
 3228SOL     OW21316   1.861   3.793   6.145  0.3785  0.1987  0.4201
 3228SOL    HW121317   1.833   3.825   6.230  1.6255  1.3141  0.4244
 3228SOL    HW221318   1.805   3.854   6.098  2.6759  1.4287 -0.7496
 3229SOL     OW21319   0.366   2.763  15.741  0.4750  0.0062 -0.0749
 3229SOL    HW121320   0.423   2.686  15.743 -0.7547 -0.9554 -2.0739
 3229SOL    HW221321   0.282   2.722  15.761  0.9794 -1.7581 -1.5994
 3230SOL     OW21322   2.524   4.395   3.695  0.1975 -0.1601  0.4539
 3230SOL    HW121323   2.484   4.354   3.772 -0.9268 -0.1548 -0.1383
 3230SOL    HW221324   2.616   4.403   3.722 -0.1606  1.5742  1.2349
 3231SOL     OW21325   0.443   2.580  11.874 -0.7215  0.1802  0.4211
 3231SOL    HW121326   0.355   2.601  11.842 -0.2558 -0.5978 -1.3806
 3231SOL    HW221327   0.468   2.664  11.914 -3.4645  2.3615 -2.4877
 3232SOL     OW21328   2.257   3.939   7.101  0.3936  0.1914  0.3003
 3232SOL    HW121329   2.252   3.846   7.126 -0.2463 -0.0835 -0.8544
 3232SOL    HW221330   2.293   3.925   7.014  0.3081 -0.2915  0.3426
 3233SOL     OW21331   1.677   0.583   9.268 -0.0167  0.2504  0.0448
 3233SOL    HW121332   1.595   0.543   9.295 -0.8330  0.8484 -1.5669
 3233SOL    HW221333   1.669   0.649   9.336 -1.0794 -1.6247  1.7198
 3234SOL     OW21334   4.229   1.449   6.036  0.0158  0.1528  0.1082
 3234SOL    HW121335   4.185   1.377   6.082 -2.4949  1.8670  0.4178
 3234SOL    HW221336   4.186   1.529   6.067 -0.4133 -0.4159  0.9942
 3235SOL     OW21337   0.370   1.528   3.557  0.7627  0.4488  0.2647
 3235SOL    HW121338   0.433   1.467   3.518 -2.3016 -1.8782 -1.0403
 3235SOL    HW221339   0.283   1.491   3.541  0.7802  0.1666  0.8407
 3236SOL     OW21340   0.470   3.713   0.257  0.2258  0.0458 -0.0227
 3236SOL    HW121341   0.492   3.621   0.271 -0.7970 -0.2051 -0.0410
 3236SOL    HW221342   0.409   3.719   0.183 -0.3614  1.1779  0.5634
 3237SOL     OW21343   3.768   4.286   5.244  0.7029 -0.1725 -0.2944
 3237SOL    HW121344   3.683   4.296   5.288  1.0083 -1.9801  0.7046
 3237SOL    HW221345   3.818   4.237   5.310 -1.5608 -2.0706  0.0235
 3238SOL     OW21346   4.410   4.419   4.726 -0.1214  0.5027  0.5799
 3238SOL    HW121347   4.398   4.335   4.682 -2.6100 -0.6076  3.4070
 3238SOL    HW221348   4.386   4.475   4.652 -0.0962 -1.3824 -0.8497
 3239SOL     OW21349   0.584   0.224   7.008 -0.5307 -0.2231 -0.0680
 3239SOL    HW121350   0.584   0.186   7.096  0.6284  2.9935  1.3246
 3239SOL    HW221351   0.674   0.224   6.975 -0.3350 -0.6815  0.4536
 3240SOL     OW21352   1.407   0.753  15.044  0.1575 -0.0338 -0.3333
 3240SOL    HW121353   1.418   0.677  15.101 -2.7033 -0.1876  0.0284
 3240SOL    HW221354   1.496   0.771  15.015  1.2179 -2.8917  1.1953
 3241SOL     OW21355   1.629   3.644   3.761  0.1006  0.0136  0.0735
 3241SOL    HW121356   1.655   3.728   3.800  1.3301 -1.4837  2.4617
 3241SOL    HW221357   1.540   3.669   3.734  0.4831  2.1104  0.7376
 3242SOL     OW21358   2.018   2.640   5.362  0.2573  0.2286  0.0960
 3242SOL    HW121359   1.965   2.560   5.367  1.3747 -0.5947 -1.2660
 3242SOL    HW221360   1.978   2.702   5.303 -0.8161 -0.4451  0.1225
 3243SOL     OW21361   2.396   3.040   7.865  0.1558 -0.0865 -0.1942
 3243SOL    HW121362   2.442   3.059   7.783 -2.2697 -0.9388 -1.7653
 3243SOL    HW221363   2.338   3.115   7.882  0.3236 -0.2967  1.3515
 3244SOL     OW21364   0.915   0.154   7.455  0.4829 -0.0493  0.6018
 3244SOL    HW121365   0.909   0.087   7.387 -1.1580 -0.8403  1.5263
 3244SOL    HW221366   0.989   0.209   7.429  0.5378 -0.1494  0.5441
 3245SOL     OW21367   2.710   0.009   1.236  0.3666  0.7924  0.2521
 3245SOL    HW121368   2.794   0.036   1.274  2.1097 -0.1066 -2.8624
 3245SOL    HW221369   2.672   4.700   1.312 -0.0901  1.8607  0.6339
 3246SOL     OW21370   0.308   3.484   8.033 -0.1466  0.0594  0.0708
 3246SOL    HW121371   0.276   3.574   8.040 -0.3745 -0.1324  1.4790
 3246SOL    HW221372   0.369   3.489   7.960 -0.1660 -1.6636 -0.0555
 3247SOL     OW21373   3.481   4.270   6.121  0.4107  0.0146  0.4566
 3247SOL    HW121374   3.509   4.180   6.137 -1.7452 -0.3802  1.9726
 3247SOL    HW221375   3.507   4.305   6.206  1.6021  0.6403 -0.1712
 3248SOL     OW21376   0.509   4.059   7.428  0.5532  0.7933 -0.4071
 3248SOL    HW121377   0.521   4.038   7.521  0.6253  2.2693 -0.0710
 3248SOL    HW221378   0.596   4.038   7.397  0.7489 -1.7286  1.8744
 3249SOL     OW21379   1.815   3.169   3.400 -0.3586  0.3133  0.8006
 3249SOL    HW121380   1.780   3.243   3.349 -0.8173 -0.5313 -0.1099
 3249SOL    HW221381   1.887   3.134   3.348 -1.5073 -1.6044  0.5071
 3250SOL     OW21382   4.495   0.847   5.178 -0.5082 -0.5236  0.2227
 3250SOL    HW121383   4.547   0.857   5.258 -0.0077  0.2517 -0.1917
 3250SOL    HW221384   4.447   0.768   5.203 -0.8616 -0.4367 -0.1800
 3251SOL     OW21385   1.396   1.367   4.514  0.3003 -0.0874  0.2407
 3251SOL    HW121386   1.354   1.326   4.590 -0.6578  1.0594  0.3176
 3251SOL    HW221387   1.441   1.288   4.483 -1.3980 -0.7036 -0.6530
 3252SOL     OW21388   2.911   3.553   8.908  0.2441  0.1170 -0.4998
 3252SOL    HW121389   2.836   3.607   8.880 -0.4435 -0.2216  0.7013
 3252SOL    HW221390   2.869   3.517   8.985  2.7881 -0.2534  0.6915
 3253SOL     OW21391   2.702   1.170   2.203 -0.2047 -0.4637  0.1150
 3253SOL    HW121392   2.666   1.152   2.290 -1.2830 -0.2919 -0.2925
 3253SOL    HW221393   2.742   1.088   2.175  0.9616 -0.2579  1.2029
 3254SOL     OW21394   0.765   3.602   9.273  0.1237  0.2122 -0.0164
 3254SOL    HW121395   0.764   3.636   9.184 -0.9679 -0.9823 -0.4618
 3254SOL    HW221396   0.704   3.661   9.316  2.0335  0.8004  1.8929
 3255SOL     OW21397   1.878   2.688   5.073 -0.2567 -0.0388  0.2477
 3255SOL    HW121398   1.813   2.673   5.005  0.1985 -1.2331  0.0727
 3255SOL    HW221399   1.921   2.763   5.031 -1.5574 -0.0421 -1.0835
 3256SOL     OW21400   4.262   2.601   6.054 -0.2613 -0.3920  0.4261
 3256SOL    HW121401   4.167   2.587   6.060 -0.3450 -0.5921 -1.4547
 3256SOL    HW221402   4.279   2.693   6.073  0.2144 -0.4104  0.0816
 3257SOL     OW21403   4.513   3.057  15.063 -0.2625 -0.1331 -0.0518
 3257SOL    HW121404   4.538   2.964  15.062 -1.9564 -0.5889 -0.4265
 3257SOL    HW221405   4.584   3.087  15.120 -0.1189 -0.7635  0.1097
 3258SOL     OW21406   2.171   1.696   4.906  0.3911  0.1792 -0.9027
 3258SOL    HW121407   2.104   1.764   4.915 -0.4531 -0.2689 -3.6527
 3258SOL    HW221408   2.250   1.740   4.936 -0.0086  0.3560 -0.1021
 3259SOL     OW21409   3.185   4.293  12.952 -0.0118 -0.3747 -0.1615
 3259SOL    HW121410   3.258   4.234  12.933  0.0743 -0.6550  1.0518
 3259SOL    HW221411   3.194   4.372  12.899 -0.6261  0.2798  0.6916
 3260SOL     OW21412   2.523   3.556  13.244  0.2068 -0.0551  0.5942
 3260SOL    HW121413   2.546   3.591  13.158  2.1254  1.0823  1.5859
 3260SOL    HW221414   2.580   3.479  13.240  0.3331 -0.1088  3.5649
 3261SOL     OW21415   2.528   0.037   9.013  0.5305 -0.5659 -0.0705
 3261SOL    HW121416   2.577   0.105   9.059  1.5522 -2.8033  2.1290
 3261SOL    HW221417   2.443   0.081   9.014  0.8824  0.1270 -0.3489
 3262SOL     OW21418   3.305   1.864  13.061  0.4714 -0.1056 -0.0571
 3262SOL    HW121419   3.336   1.935  13.117 -1.0457  0.5891 -0.1074
 3262SOL    HW221420   3.340   1.888  12.976  0.3837  2.1228  0.5472
 3263SOL     OW21421   3.604   1.811  11.111 -0.1077 -0.2926 -0.1541
 3263SOL    HW121422   3.556   1.822  11.193  1.3168 -0.5997  0.7125
 3263SOL    HW221423   3.605   1.716  11.109  0.1895 -0.3182  1.3051
 3264SOL     OW21424   2.047   3.526   4.292  0.6741  0.2868 -0.0458
 3264SOL    HW121425   2.075   3.576   4.215  2.3313  1.6078  1.4453
 3264SOL    HW221426   2.056   3.437   4.257 -1.5816 -0.2378  0.6819
 3265SOL     OW21427   0.325   1.575  10.162  0.2573  0.0534 -0.0395
 3265SOL    HW121428   0.283   1.660  10.175  2.2336  1.1243 -0.7060
 3265SOL    HW221429   0.349   1.589  10.070  0.8112 -1.1273 -0.0748
 3266SOL     OW21430   0.772   2.475   5.478  0.2017 -0.0628 -0.1511
 3266SOL    HW121431   0.750   2.469   5.571 -2.3248  2.6600 -0.5855
 3266SOL    HW221432   0.790   2.569   5.477  0.3455 -0.0789  0.7486
 3267SOL     OW21433   2.155   4.071   1.889 -0.1343  0.6045 -0.0609
 3267SOL    HW121434   2.124   4.025   1.811 -2.4405 -2.6894  2.7724
 3267SOL    HW221435   2.161   4.157   1.847  1.5755  0.8996  0.7663
 3268SOL     OW21436   1.265   2.407   4.225 -0.7599  0.2383  0.2744
 3268SOL    HW121437   1.177   2.441   4.241 -0.6669  0.0618  1.1809
 3268SOL    HW221438   1.292   2.483   4.174 -2.5798  1.4392  1.0912
 3269SOL     OW21439   0.615   3.179  15.636 -0.3213 -0.1617 -0.4943
 3269SOL    HW121440   0.536   3.125  15.643  1.4232 -2.7201 -0.3655
 3269SOL    HW221441   0.574   3.261  15.664  2.5609  0.6380  1.3587
 3270SOL     OW21442   1.218   2.167  13.789  0.1098  0.1850  0.4609
 3270SOL    HW121443   1.295   2.218  13.816 -0.4778  1.0792  0.4487
 3270SOL    HW221444   1.245   2.143  13.700  1.5268 -0.3178  1.0244
 3271SOL     OW21445   0.733   2.201   2.311  0.6143  0.4962 -0.3777
 3271SOL    HW121446   0.732   2.252   2.230  0.6337  0.2724 -0.5189
 3271SOL    HW221447   0.645   2.166   2.320  0.5225  0.7220 -0.3832
 3272SOL     OW21448   3.286   4.576   8.258  0.0939 -0.1129  0.2859
 3272SOL    HW121449   3.377   4.601   8.243  0.1647  0.0791  1.0614
 3272SOL    HW221450   3.274   4.582   8.352  2.2679 -2.2487  0.6862
 3273SOL     OW21451   2.731   1.713  15.496 -0.9503  0.0807 -0.0795
 3273SOL    HW121452   2.647   1.680  15.529 -1.5217  0.2304 -1.3932
 3273SOL    HW221453   2.725   1.670  15.410 -1.7614  0.8956 -0.4298
 3274SOL     OW21454   1.048   4.374   1.810  0.1948 -0.3916  0.0716
 3274SOL    HW121455   0.974   4.322   1.839  0.8442 -1.3553  0.0189
 3274SOL    HW221456   1.024   4.376   1.717 -0.3610  1.9370  0.2674
 3275SOL     OW21457   4.204   0.452   5.553  0.1306 -0.1791 -0.0377
 3275SOL    HW121458   4.184   0.360   5.536 -0.6636 -0.0711  0.2882
 3275SOL    HW221459   4.124   0.473   5.601  0.2339 -0.6735  0.3482
 3276SOL     OW21460   3.346   4.705  11.495  0.4180 -0.7125 -0.4439
 3276SOL    HW121461   3.269   4.649  11.507  0.7600 -1.0102  0.3829
 3276SOL    HW221462   3.413   4.638  11.482 -1.8034 -2.5005 -2.5197
 3277SOL     OW21463   3.712   3.300   8.206 -0.1547  0.7221  0.1671
 3277SOL    HW121464   3.736   3.352   8.283  1.0149  1.1091 -0.4557
 3277SOL    HW221465   3.726   3.216   8.251  1.2460  0.7005 -0.3002
 3278SOL     OW21466   3.731   3.275   7.103 -0.2802  0.1832  0.1333
 3278SOL    HW121467   3.702   3.362   7.076  2.8109  1.0682 -0.3430
 3278SOL    HW221468   3.767   3.250   7.018 -1.8958 -1.7748  0.0151
 3279SOL     OW21469   4.172   3.977   1.386 -0.4283  0.3680  0.5401
 3279SOL    HW121470   4.249   3.938   1.428 -0.4663  0.3012  0.5465
 3279SOL    HW221471   4.162   3.926   1.306  1.2878  1.8368 -0.6168
 3280SOL     OW21472   1.395   0.046   2.004 -0.4599 -0.6226 -0.1158
 3280SOL    HW121473   1.471   0.023   1.950 -1.6743 -1.0989 -1.6050
 3280SOL    HW221474   1.330   4.711   1.992  0.0525 -1.4588  1.9075
 3281SOL     OW21475   3.326   3.885   6.828  0.0644  0.1532 -0.0729
 3281SOL    HW121476   3.308   3.819   6.761  0.6048 -0.4310  0.3648
 3281SOL    HW221477   3.241   3.908   6.865 -0.3707  0.4693 -1.2497
 3282SOL     OW21478   2.195   1.842   9.304  0.8923  0.5212  0.2867
 3282SOL    HW121479   2.259   1.819   9.236 -0.4520  0.9196 -1.1096
 3282SOL    HW221480   2.204   1.771   9.367  0.1889  0.2309  0.0544
 3283SOL     OW21481   0.509   0.643   2.396 -0.1505 -0.1585 -0.1699
 3283SOL    HW121482   0.429   0.617   2.351  1.6488 -1.8171 -2.4110
 3283SOL    HW221483   0.551   0.558   2.406  0.1122  0.2503  2.3275
 3284SOL     OW21484   0.600   4.358   9.734  0.3461 -0.1095  0.2345
 3284SOL    HW121485   0.596   4.441   9.781 -3.4563 -0.9894  1.4826
 3284SOL    HW221486   0.681   4.332   9.779  1.2236 -1.8143 -2.3174
 3285SOL     OW21487   2.385   2.316  14.764  0.2497  0.1847 -0.4859
 3285SOL    HW121488   2.364   2.365  14.685  0.7606  0.5594 -0.3894
 3285SOL    HW221489   2.309   2.258  14.770 -0.2735  0.7932 -1.3418
 3286SOL     OW21490   3.619   4.001  17.620 -0.1977  0.2474 -0.0951
 3286SOL    HW121491   3.677   4.066  17.581  1.2776 -0.8461  0.2735
 3286SOL    HW221492   3.547   4.054  17.653  0.7477  2.1978 -1.1894
 3287SOL     OW21493   3.759   3.598   8.980  0.5909  0.0332 -0.0712
 3287SOL    HW121494   3.757   3.578   9.074  1.6984 -1.2364 -0.3232
 3287SOL    HW221495   3.762   3.693   8.994  1.5295  0.3340 -2.3755
 3288SOL     OW21496   2.800   4.663  11.905 -0.2347  0.0421  0.1290
 3288SOL    HW121497   2.716   4.630  11.872 -0.4437  0.3928  0.3102
 3288SOL    HW221498   2.812   4.732  11.840  2.4308 -2.4585 -2.0089
 3289SOL     OW21499   3.030   4.445  11.188  0.1368 -0.4405  0.2419
 3289SOL    HW121500   2.965   4.407  11.129  0.6076 -0.9683  0.0563
 3289SOL    HW221501   3.065   4.511  11.128  1.9926 -0.6773  1.0644
 3290SOL     OW21502   0.565   1.665   6.880  0.1781 -0.4485  0.3865
 3290SOL    HW121503   0.647   1.710   6.899  0.7606 -2.0893  1.7352
 3290SOL    HW221504   0.566   1.593   6.943 -0.1232 -0.9067 -0.1329
 3291SOL     OW21505   4.090   1.890  14.933 -0.1063 -0.3254 -0.1766
 3291SOL    HW121506   4.008   1.922  14.970 -1.0256 -4.5707  1.5638
 3291SOL    HW221507   4.154   1.926  14.995 -1.7735  1.0404  0.7523
 3292SOL     OW21508   3.678   1.239   4.163  0.3870 -0.4425  0.5936
 3292SOL    HW121509   3.709   1.309   4.221  2.1326 -0.2232 -0.6158
 3292SOL    HW221510   3.698   1.263   4.072  0.1921 -2.8095 -0.0632
 3293SOL     OW21511   2.812   1.255   3.330  0.2083  0.7207  0.3491
 3293SOL    HW121512   2.780   1.199   3.401 -1.3436 -0.8171 -1.5793
 3293SOL    HW221513   2.812   1.341   3.373  0.8922 -0.2853  2.3346
 3294SOL     OW21514   4.258   0.958   3.928  0.2709  0.3006 -0.2412
 3294SOL    HW121515   4.250   0.867   3.955 -0.7975  0.3406 -0.4220
 3294SOL    HW221516   4.350   0.970   3.950 -0.6497  2.6833  2.2920
 3295SOL     OW21517   1.992   0.371   0.053 -0.1686  0.4848  0.6538
 3295SOL    HW121518   1.995   0.438  17.720  1.4382 -0.9700 -0.6967
 3295SOL    HW221519   1.900   0.375   0.076  0.0861  2.1997  1.3875
 3296SOL     OW21520   2.478   1.502   8.825  0.2886  0.0970  0.2339
 3296SOL    HW121521   2.417   1.575   8.814  0.7903  0.7002  1.4264
 3296SOL    HW221522   2.429   1.431   8.782  1.9777 -1.0964  0.2636
 3297SOL     OW21523   3.582   0.503   4.406 -0.2494 -0.0836  0.6713
 3297SOL    HW121524   3.607   0.490   4.315 -1.8281  1.2423  0.0457
 3297SOL    HW221525   3.669   0.508   4.447  0.1703 -2.0197 -0.0182
 3298SOL     OW21526   4.198   2.915   2.856 -0.0532 -0.1523 -0.6197
 3298SOL    HW121527   4.160   2.892   2.771 -1.7132  1.0983 -0.2301
 3298SOL    HW221528   4.249   2.993   2.832  1.6728 -1.5068 -1.2934
 3299SOL     OW21529   2.751   3.200   1.956 -0.7469  0.1323  0.2764
 3299SOL    HW121530   2.707   3.119   1.982 -2.3600  0.4216 -1.5664
 3299SOL    HW221531   2.793   3.213   2.041  0.6528 -2.8206  0.0515
 3300SOL     OW21532   2.675   4.448   5.046  0.4241 -0.0230  0.1127
 3300SOL    HW121533   2.673   4.415   5.136 -2.8720  0.1355  0.0810
 3300SOL    HW221534   2.730   4.384   5.001  2.0205  1.0276  0.5641
 3301SOL     OW21535   4.500   2.884   7.279 -0.6603 -0.1520 -0.7433
 3301SOL    HW121536   4.438   2.938   7.232 -2.5359 -1.9666 -0.3461
 3301SOL    HW221537   4.490   2.920   7.367 -0.4430  1.6664 -1.4776
 3302SOL     OW21538   0.931   1.063   8.980  0.3030 -0.0372 -0.1018
 3302SOL    HW121539   0.904   1.101   9.064 -2.7460  0.9431 -1.5117
 3302SOL    HW221540   0.844   1.065   8.940  0.1523  0.4966  0.2527
 3303SOL     OW21541   2.363   1.847   6.545 -0.1692  0.0326 -0.2612
 3303SOL    HW121542   2.292   1.910   6.539  0.9116  1.5863  3.1829
 3303SOL    HW221543   2.315   1.768   6.520  1.0851 -0.9931  0.5432
 3304SOL     OW21544   1.653   2.759   2.275  0.1357  0.4307  0.2880
 3304SOL    HW121545   1.661   2.852   2.298 -2.3349  0.5401  0.6409
 3304SOL    HW221546   1.612   2.751   2.189  1.9080  3.4299 -0.8542
 3305SOL     OW21547   4.236   1.060   6.141 -0.3683  0.7086  0.2702
 3305SOL    HW121548   4.284   1.077   6.060 -0.2479 -3.3046 -0.5156
 3305SOL    HW221549   4.286   1.116   6.200  1.5711 -0.6635 -0.0572
 3306SOL     OW21550   1.650   2.598   8.333  0.4963  0.0285  0.1594
 3306SOL    HW121551   1.733   2.598   8.284  0.7292 -2.4297  0.5678
 3306SOL    HW221552   1.579   2.611   8.270  0.0950 -0.6269  0.4759
 3307SOL     OW21553   0.416   1.940   6.095 -0.4170 -0.4654 -0.0519
 3307SOL    HW121554   0.510   1.955   6.096 -0.3948 -0.7015  1.6301
 3307SOL    HW221555   0.419   1.871   6.029  3.3090 -1.9624  1.7095
 3308SOL     OW21556   4.089   1.830   3.134 -0.3402 -0.2520 -0.2827
 3308SOL    HW121557   4.059   1.912   3.094  0.0455 -0.6373 -1.3538
 3308SOL    HW221558   4.035   1.761   3.095  1.0178 -1.9171  0.8107
 3309SOL     OW21559   3.342   3.656  10.004 -0.2234 -0.5521 -0.6057
 3309SOL    HW121560   3.321   3.610  10.085  2.3161 -0.9232 -0.1443
 3309SOL    HW221561   3.411   3.598   9.970  0.5054 -0.0644  0.0242
 3310SOL     OW21562   0.659   0.816   2.900  0.4295 -0.0873  0.1060
 3310SOL    HW121563   0.612   0.745   2.856  0.4334  0.9430 -1.5733
 3310SOL    HW221564   0.583   0.867   2.926 -0.0681 -1.0768  0.5846
 3311SOL     OW21565   2.433   3.976   1.939  0.3867 -0.0640 -0.3197
 3311SOL    HW121566   2.345   4.013   1.941  0.4824  0.1517 -0.0777
 3311SOL    HW221567   2.425   3.891   1.896 -0.2837 -0.9495  1.5341
 3312SOL     OW21568   2.947   2.095   8.303  0.2820 -0.7973  0.3111
 3312SOL    HW121569   2.858   2.130   8.310  0.4162 -0.3673 -0.0884
 3312SOL    HW221570   3.003   2.159   8.348 -1.2898  2.2877 -2.0719
 3313SOL     OW21571   1.908   4.264  17.530 -0.4109 -0.1368  0.3405
 3313SOL    HW121572   1.914   4.322  17.454  2.2253 -2.1834 -1.0371
 3313SOL    HW221573   1.904   4.180  17.483  1.2023 -1.0081  1.7808
 3314SOL     OW21574   1.512   0.666   1.415  0.3672 -0.8217  0.4487
 3314SOL    HW121575   1.508   0.697   1.325  0.5580  2.3839  1.5192
 3314SOL    HW221576   1.491   0.574   1.400  0.2847 -0.6864 -0.2629
 3315SOL     OW21577   4.381   0.519  10.345 -0.7474  0.8169  0.1025
 3315SOL    HW121578   4.303   0.561  10.308 -0.4330 -0.1157 -1.5951
 3315SOL    HW221579   4.372   0.431  10.311  0.3914 -0.2585  2.5566
 3316SOL     OW21580   0.728   2.097  16.568 -0.0787 -0.4111 -0.3325
 3316SOL    HW121581   0.697   2.087  16.658 -2.5929  0.6657 -1.0699
 3316SOL    HW221582   0.698   2.182  16.536  0.1296 -0.6305 -1.1206
 3317SOL     OW21583   2.289   3.187  14.894  0.4729 -0.9259 -0.1913
 3317SOL    HW121584   2.251   3.183  14.806 -0.4786 -0.7754  0.2099
 3317SOL    HW221585   2.267   3.096  14.911  1.8933 -1.2219  0.0464
 3318SOL     OW21586   3.125   4.587  12.542 -0.2664 -0.0077  0.4613
 3318SOL    HW121587   3.047   4.634  12.512 -0.7427 -0.5263  0.8883
 3318SOL    HW221588   3.195   4.640  12.505 -1.2526  1.4906  0.7168
 3319SOL     OW21589   2.297   4.599   5.315 -0.3522  0.7223 -0.6794
 3319SOL    HW121590   2.284   4.551   5.397  0.0849 -0.0528 -1.0661
 3319SOL    HW221591   2.210   4.639   5.309  0.7472  3.2413  0.3679
 3320SOL     OW21592   1.532   1.833   4.590 -0.2245 -0.0224 -0.2344
 3320SOL    HW121593   1.531   1.738   4.594 -0.3212  0.0776  1.9302
 3320SOL    HW221594   1.568   1.851   4.677  1.3582  1.0163 -1.1104
 3321SOL     OW21595   1.102   3.568   7.992 -0.3881 -0.8888 -0.3789
 3321SOL    HW121596   1.059   3.624   8.058  0.6910  3.6026 -3.5005
 3321SOL    HW221597   1.189   3.602   8.012 -0.9161  1.1865 -1.6797
 3322SOL     OW21598   0.300   0.574   7.753 -0.0110 -0.2410  0.9943
 3322SOL    HW121599   0.386   0.533   7.744  0.3781  0.4794  1.4211
 3322SOL    HW221600   0.297   0.615   7.840  2.1306 -1.3211  1.5777
 3323SOL     OW21601   4.239   1.936   3.941  0.0941  0.2591 -0.2989
 3323SOL    HW121602   4.290   1.871   3.990  1.8906  1.8120 -0.1203
 3323SOL    HW221603   4.271   2.013   3.987  1.1168  0.4922 -1.4077
 3324SOL     OW21604   1.182   1.532   5.430  0.2964 -0.3565  0.3163
 3324SOL    HW121605   1.145   1.499   5.511 -1.3907  0.5652 -0.0832
 3324SOL    HW221606   1.224   1.451   5.402  0.8737 -0.0254  0.2074
 3325SOL     OW21607   0.086   2.252   2.667 -0.0671 -0.4796  0.3854
 3325SOL    HW121608   0.046   2.249   2.580  0.7654 -2.3147  0.0615
 3325SOL    HW221609   0.165   2.299   2.640 -0.2164  0.3036  1.3327
 3326SOL     OW21610   3.191   2.909  17.169 -0.1321  0.2707  0.0714
 3326SOL    HW121611   3.217   2.873  17.084 -0.9945  0.6102 -0.3462
 3326SOL    HW221612   3.271   2.942  17.208 -0.3037  0.3775  0.3295
 3327SOL     OW21613   4.733   3.225  15.982 -0.3948  0.0759  0.1870
 3327SOL    HW121614   4.652   3.208  15.935  0.1463 -0.5862 -0.5077
 3327SOL    HW221615   4.703   3.230  16.073 -2.2970 -0.6241 -0.4128
 3328SOL     OW21616   0.767   1.183  10.112  0.1322 -0.6635 -0.1884
 3328SOL    HW121617   0.723   1.249  10.059 -0.7455 -1.5133 -0.5222
 3328SOL    HW221618   0.702   1.185  10.182  0.2942  1.7496 -0.1069
 3329SOL     OW21619   1.489   0.776  13.004  0.3082 -0.1061 -0.0172
 3329SOL    HW121620   1.471   0.803  12.914  2.0412  1.5020  0.1189
 3329SOL    HW221621   1.525   0.858  13.038  1.4199 -0.4141 -0.4538
 3330SOL     OW21622   4.283   2.193   9.972 -0.0019 -0.1530 -0.3034
 3330SOL    HW121623   4.252   2.106   9.943  0.0143  0.0241 -0.8596
 3330SOL    HW221624   4.226   2.201  10.048 -1.6361 -1.8133 -1.3241
 3331SOL     OW21625   4.404   3.799   8.536 -0.2558  0.6414 -0.5648
 3331SOL    HW121626   4.472   3.736   8.515 -1.1570 -0.6510  0.4099
 3331SOL    HW221627   4.329   3.759   8.492 -1.1747  0.5147  1.1066
 3332SOL     OW21628   3.373   0.823   4.240  0.0482 -0.1630  0.3589
 3332SOL    HW121629   3.456   0.855   4.275  0.3546 -0.2768 -0.2649
 3332SOL    HW221630   3.407   0.826   4.150 -2.4800  4.0714 -0.4534
 3333SOL     OW21631   1.726   3.524  15.115  0.2763 -0.6235  0.3860
 3333SOL    HW121632   1.692   3.449  15.065  0.8442  0.3595 -1.4870
 3333SOL    HW221633   1.648   3.534  15.169  0.4744 -1.0734  0.7585
 3334SOL     OW21634   0.092   3.173   5.043 -0.2134 -0.4500 -0.1957
 3334SOL    HW121635   0.102   3.097   4.986 -1.5376  0.8069 -2.1128
 3334SOL    HW221636   4.731   3.189   5.039 -0.0290  0.8164  0.5345
 3335SOL     OW21637   3.752   0.451  13.435  0.0113 -0.1588 -0.2042
 3335SOL    HW121638   3.664   0.415  13.442  0.8862 -1.2601  4.6451
 3335SOL    HW221639   3.730   0.540  13.407  2.9644  0.6902  0.2359
 3336SOL     OW21640   2.718   1.426  12.330 -0.3056  0.5844  0.1716
 3336SOL    HW121641   2.682   1.386  12.410  0.0767  1.8404  0.9668
 3336SOL    HW221642   2.810   1.401  12.329 -0.5612 -0.3656  0.9133
 3337SOL     OW21643   0.424   2.784  13.941  0.5152  0.4593 -0.6825
 3337SOL    HW121644   0.377   2.765  13.860 -0.3862  2.5035 -0.6280
 3337SOL    HW221645   0.422   2.707  13.998  2.2804  0.9995  0.1131
 3338SOL     OW21646   0.110   3.634   3.569 -0.2491 -0.3545  0.3057
 3338SOL    HW121647   0.153   3.584   3.638 -0.8575 -0.4605  0.6068
 3338SOL    HW221648   0.124   3.575   3.495  0.7567  0.3258 -0.0511
 3339SOL     OW21649   0.907   3.816   9.776  0.0361 -0.2044 -0.2517
 3339SOL    HW121650   0.951   3.761   9.841  0.8562 -1.4005 -1.8268
 3339SOL    HW221651   0.973   3.817   9.707 -0.3914 -1.2662 -0.6798
 3340SOL     OW21652   3.549   0.967  14.048  0.2261 -0.6769 -0.6056
 3340SOL    HW121653   3.572   0.946  14.138 -1.3550 -1.3364 -0.3615
 3340SOL    HW221654   3.634   0.997  14.016 -0.3750  0.0311 -1.5541
 3341SOL     OW21655   2.774   3.930   5.446  0.5931  0.9079  0.0783
 3341SOL    HW121656   2.764   3.937   5.351  1.8220 -0.2412 -0.1267
 3341SOL    HW221657   2.739   4.018   5.463  2.1726  1.9566 -2.1928
 3342SOL     OW21658   2.582   3.076   1.312  0.3976 -0.5085  0.2021
 3342SOL    HW121659   2.604   3.167   1.334 -0.9414  0.5511 -2.8556
 3342SOL    HW221660   2.544   3.038   1.391  0.0188  1.0625  0.7645
 3343SOL     OW21661   3.839   1.144   7.129  0.2697 -0.1516 -0.2967
 3343SOL    HW121662   3.813   1.228   7.166  0.6264 -0.1166 -0.1299
 3343SOL    HW221663   3.906   1.174   7.067 -0.8617  0.1791 -1.3665
 3344SOL     OW21664   1.515   3.623   5.159  0.5927  0.2720  0.2756
 3344SOL    HW121665   1.447   3.671   5.207 -0.4949  0.0388 -1.0046
 3344SOL    HW221666   1.538   3.678   5.084 -1.4390  1.7596  0.7415
 3345SOL     OW21667   4.619   0.588  17.294  0.0209 -0.3549 -0.4951
 3345SOL    HW121668   4.527   0.575  17.319  0.3667 -0.7065  0.5992
 3345SOL    HW221669   4.613   0.640  17.214 -1.5420  1.0594  0.5358
 3346SOL     OW21670   2.311   4.218   4.753 -0.1062 -0.1413 -0.3825
 3346SOL    HW121671   2.327   4.215   4.659  2.6619  2.7065 -0.0054
 3346SOL    HW221672   2.268   4.304   4.760  1.0991  0.5974 -2.1240
 3347SOL     OW21673   4.037   1.299  16.588 -0.6140 -0.2964 -0.0420
 3347SOL    HW121674   4.034   1.356  16.511 -2.4179 -2.1468 -1.3699
 3347SOL    HW221675   3.968   1.325  16.648 -0.0090 -0.2266  0.6198
 3348SOL     OW21676   4.603   3.473   3.794 -0.0036  0.5924 -0.8211
 3348SOL    HW121677   4.634   3.558   3.827 -0.1675  1.8319 -3.8330
 3348SOL    HW221678   4.561   3.443   3.875 -0.9425 -0.6994 -1.7928
 3349SOL     OW21679   3.633   1.316  17.208  0.8023 -0.6189  0.1450
 3349SOL    HW121680   3.634   1.271  17.124 -0.6046 -1.4235  0.5524
 3349SOL    HW221681   3.672   1.401  17.189  0.2696 -0.4605 -0.2047
 3350SOL     OW21682   1.508   0.894   5.652  0.1154 -0.1415  0.6253
 3350SOL    HW121683   1.513   0.954   5.578  1.0192 -1.5891 -0.4722
 3350SOL    HW221684   1.581   0.922   5.709  0.2440 -1.7442  1.2577
 3351SOL     OW21685   3.472   2.216  10.218  0.4778 -0.4541 -0.1353
 3351SOL    HW121686   3.436   2.139  10.263  0.1890  0.9253  2.0304
 3351SOL    HW221687   3.429   2.211  10.133 -1.2375 -1.4514  0.7817
 3352SOL     OW21688   0.297   1.039   8.366 -0.0068  0.6232  0.0287
 3352SOL    HW121689   0.371   1.090   8.397  0.0123  1.5123 -1.4763
 3352SOL    HW221690   0.332   0.955   8.336 -0.8579  0.4567 -0.5205
 3353SOL     OW21691   4.434   2.366   3.756  0.1756 -0.0178 -0.3180
 3353SOL    HW121692   4.408   2.354   3.848 -1.5990  0.6789 -0.7355
 3353SOL    HW221693   4.425   2.458   3.730 -1.2347 -0.2468 -0.6280
 3354SOL     OW21694   1.172   0.801   1.874  0.2311  0.1938 -0.2301
 3354SOL    HW121695   1.081   0.797   1.902  0.4482 -1.3414  0.2790
 3354SOL    HW221696   1.177   0.712   1.839  2.2891 -1.1535  3.4263
 3355SOL     OW21697   2.551   1.530   9.812  0.3819 -0.0079  0.2416
 3355SOL    HW121698   2.616   1.525   9.882 -0.8615 -0.8602  1.3343
 3355SOL    HW221699   2.500   1.609   9.834 -0.0101  0.1471 -1.2335
 3356SOL     OW21700   3.053   4.706   0.817 -0.3312  0.0107 -1.0536
 3356SOL    HW121701   2.963   4.729   0.838 -0.0951 -0.0429  0.0166
 3356SOL    HW221702   3.033   4.694   0.724  0.7218 -1.7280 -1.0678
 3357SOL     OW21703   3.962   0.809  10.380 -0.0149 -0.0157  0.4206
 3357SOL    HW121704   4.026   0.866  10.424  1.0523 -0.1849 -0.9075
 3357SOL    HW221705   3.890   0.820  10.442 -0.2111  1.6098 -0.0865
 3358SOL     OW21706   3.809   4.579   4.858 -0.0842 -0.1476  0.1012
 3358SOL    HW121707   3.874   4.625   4.805 -1.5203 -1.0205 -2.4226
 3358SOL    HW221708   3.741   4.645   4.869  0.9026  0.6336  1.4750
 3359SOL     OW21709   2.065   4.579   1.000 -0.7775 -0.2768 -0.3641
 3359SOL    HW121710   2.148   4.566   1.046 -0.0864 -0.1851 -1.5941
 3359SOL    HW221711   2.005   4.539   1.063  0.2777 -2.5628 -0.8152
 3360SOL     OW21712   2.163   1.714   2.700  0.1701 -0.3052  0.9353
 3360SOL    HW121713   2.167   1.787   2.639  0.0763 -3.2625 -2.6698
 3360SOL    HW221714   2.236   1.739   2.756 -0.1604  0.2282  1.1217
 3361SOL     OW21715   3.584   3.721  10.188 -0.1392  0.2822  0.5291
 3361SOL    HW121716   3.656   3.666  10.157 -0.3790 -1.2019  2.5865
 3361SOL    HW221717   3.522   3.654  10.217  2.4441 -2.5324 -0.4644
 3362SOL     OW21718   3.598   3.242   2.940 -0.3310  0.3745 -0.1052
 3362SOL    HW121719   3.552   3.247   2.856  0.1206 -2.1435 -0.4912
 3362SOL    HW221720   3.677   3.293   2.921  0.3163 -0.7272 -0.3593
 3363SOL     OW21721   2.397   4.682  14.101  0.1727 -0.2917  0.2045
 3363SOL    HW121722   2.488   4.679  14.070  0.3999  1.3392  0.7054
 3363SOL    HW221723   2.411   4.638  14.185 -0.6173 -1.4752 -0.2855
 3364SOL     OW21724   4.632   0.409   2.315 -0.5648 -0.4650  0.5373
 3364SOL    HW121725   4.623   0.501   2.341  0.3016 -0.6214  1.4345
 3364SOL    HW221726   4.564   0.396   2.250 -1.0234 -2.3206  1.3790
 3365SOL     OW21727   1.928   2.266   7.873  0.3114  0.2365  0.2456
 3365SOL    HW121728   2.011   2.222   7.855 -0.6587 -1.2773 -0.5156
 3365SOL    HW221729   1.955   2.339   7.929 -1.3369  0.0585  1.2669
 3366SOL     OW21730   4.431   4.121   1.779  0.1703 -0.4146 -0.2066
 3366SOL    HW121731   4.456   4.184   1.846 -0.8074 -1.6130  1.2775
 3366SOL    HW221732   4.411   4.048   1.837 -1.6000  0.6329  0.5032
 3367SOL     OW21733   1.441   2.746   2.615  0.1233  0.3879 -0.0285
 3367SOL    HW121734   1.349   2.766   2.602 -0.1295 -1.5791 -1.3641
 3367SOL    HW221735   1.427   2.697   2.696 -1.5982  2.0201  0.6383
 3368SOL     OW21736   1.391   4.626   2.762  0.0942 -0.8218  0.3872
 3368SOL    HW121737   1.319   4.573   2.729  0.4274 -0.7382 -0.4816
 3368SOL    HW221738   1.346   4.705   2.793  0.5454  0.9413 -3.4146
 3369SOL     OW21739   2.517   0.316   3.501 -0.2848  0.3608  0.0738
 3369SOL    HW121740   2.486   0.238   3.455 -1.0953 -0.3471  1.8415
 3369SOL    HW221741   2.543   0.293   3.590  1.4263 -1.1891 -0.8292
 3370SOL     OW21742   0.938   3.518   6.283 -0.3524  0.6481 -0.0338
 3370SOL    HW121743   0.939   3.536   6.377 -0.5298  2.7225 -0.4384
 3370SOL    HW221744   0.884   3.588   6.249  0.8025  2.4797  1.8707
 3371SOL     OW21745   3.922   0.206   5.176 -0.0560 -0.3289 -0.0550
 3371SOL    HW121746   3.858   0.243   5.237  0.7515  0.0215  0.5818
 3371SOL    HW221747   3.984   0.280   5.174 -1.3349  0.7233 -0.6350
 3372SOL     OW21748   1.763   0.430   4.513  0.1275  0.2862 -0.4251
 3372SOL    HW121749   1.725   0.425   4.425 -0.7417  0.1674 -0.0405
 3372SOL    HW221750   1.686   0.443   4.567 -0.3480 -0.3735 -0.9455
 3373SOL     OW21751   4.247   3.719   6.559  0.0008  0.1223 -0.0668
 3373SOL    HW121752   4.260   3.730   6.653 -0.4388  1.4513 -0.1618
 3373SOL    HW221753   4.178   3.653   6.558 -1.2379  1.4325 -0.6053
 3374SOL     OW21754   4.276   0.070   0.401 -0.2670  0.4319  0.0383
 3374SOL    HW121755   4.234   4.728   0.442  0.3459  0.1842  0.1975
 3374SOL    HW221756   4.357   0.035   0.365  0.5628  0.2580  2.1161
 3375SOL     OW21757   0.173   3.145  12.169  0.3978 -0.3063  0.0352
 3375SOL    HW121758   0.143   3.076  12.228 -1.8395 -0.8481 -1.7387
 3375SOL    HW221759   0.268   3.132  12.166  0.3001 -0.8273 -0.7774
 3376SOL     OW21760   1.056   1.849   1.266 -0.3919 -0.1346  0.2018
 3376SOL    HW121761   1.013   1.820   1.186 -1.5847 -1.6554  1.3815
 3376SOL    HW221762   1.049   1.942   1.247 -0.1365  0.0119  0.8327
 3377SOL     OW21763   0.449   2.759  11.564 -0.0298  0.6633 -0.2679
 3377SOL    HW121764   0.454   2.769  11.659 -0.0598 -0.2708 -0.1700
 3377SOL    HW221765   0.542   2.760  11.539  0.3285 -0.4273  1.0151
 3378SOL     OW21766   4.549   3.490   1.905  0.8088  0.1200 -0.7117
 3378SOL    HW121767   4.456   3.471   1.900  0.9647 -1.0427  0.8872
 3378SOL    HW221768   4.574   3.439   1.981  1.5750  1.8224  0.1902
 3379SOL     OW21769   0.259   4.469  17.146  0.1161 -0.4771  0.2152
 3379SOL    HW121770   0.263   4.555  17.104 -0.9742  0.6426  2.4177
 3379SOL    HW221771   0.332   4.468  17.208  0.9093  2.3921 -0.6938
 3380SOL     OW21772   2.737   1.973  10.704 -0.1626 -0.5213  0.6009
 3380SOL    HW121773   2.759   1.881  10.696 -1.4067 -0.9009  1.4925
 3380SOL    HW221774   2.797   2.017  10.644  0.4602 -1.8326  0.2721
 3381SOL     OW21775   2.737   1.634   8.692  0.1214 -0.5566  0.5555
 3381SOL    HW121776   2.798   1.673   8.630 -2.0174 -0.0404 -1.2231
 3381SOL    HW221777   2.687   1.585   8.627 -1.8257  1.2728  0.6901
 3382SOL     OW21778   4.308   3.367   6.863 -0.3561 -0.2578 -0.0788
 3382SOL    HW121779   4.381   3.427   6.881  1.8294 -3.0349  0.2103
 3382SOL    HW221780   4.246   3.430   6.901  2.2697  2.6579 -0.5592
 3383SOL     OW21781   4.535   3.681  10.425  0.0061  0.1022  0.3013
 3383SOL    HW121782   4.601   3.722  10.369  0.4587 -0.7406  0.2140
 3383SOL    HW221783   4.575   3.603  10.463 -1.9680 -1.4350 -0.7831
 3384SOL     OW21784   0.083   3.938   8.410 -0.6443 -0.4037 -0.3897
 3384SOL    HW121785   0.122   3.930   8.497 -2.1053  0.6268  0.3625
 3384SOL    HW221786   0.158   3.923   8.353  1.1735 -0.4687  2.0175
 3385SOL     OW21787   4.203   3.404   5.386 -0.0990  0.3588  0.3840
 3385SOL    HW121788   4.243   3.489   5.402 -0.9903  0.7690  0.3953
 3385SOL    HW221789   4.264   3.368   5.322  1.5565  0.6806  1.7768
 3386SOL     OW21790   3.360   0.013   0.723 -0.1920 -0.2195  0.2031
 3386SOL    HW121791   3.441   4.705   0.695 -0.5934 -0.7118 -0.2382
 3386SOL    HW221792   3.296   4.676   0.713 -2.2311  1.6141  0.2295
 3387SOL     OW21793   2.715   3.889   3.463 -0.4630  0.1054 -0.1516
 3387SOL    HW121794   2.689   3.922   3.377 -0.4486 -1.3441 -0.7134
 3387SOL    HW221795   2.746   3.805   3.428 -1.1997 -0.3945  0.4198
 3388SOL     OW21796   1.058   0.085   1.104 -0.2985 -0.6168 -0.2003
 3388SOL    HW121797   1.013   0.168   1.086 -2.6380 -1.3916  2.0701
 3388SOL    HW221798   1.046   0.044   1.018 -1.4503 -1.0306  0.1471
 3389SOL     OW21799   0.422   1.433   9.478  0.4083 -0.3865 -0.0320
 3389SOL    HW121800   0.490   1.468   9.536 -0.0961  1.5576 -0.6224
 3389SOL    HW221801   0.482   1.369   9.441  1.1479 -0.9156  2.0417
 3390SOL     OW21802   1.399   1.020  16.971 -0.1480  0.0170 -0.3926
 3390SOL    HW121803   1.335   1.002  16.902  0.7494  0.1365 -1.2686
 3390SOL    HW221804   1.474   0.962  16.960  2.2871  2.5279  2.7477
 3391SOL     OW21805   4.552   2.238   5.409 -0.4159 -0.1914  0.2910
 3391SOL    HW121806   4.494   2.282   5.472  1.4480  0.3959  1.5922
 3391SOL    HW221807   4.489   2.173   5.378 -1.0921  1.6572 -2.2380
 3392SOL     OW21808   0.635   3.787   7.844  0.0649  0.0441  0.2606
 3392SOL    HW121809   0.593   3.743   7.919 -0.8698 -0.3792 -0.5075
 3392SOL    HW221810   0.725   3.803   7.872  0.6303 -0.1379 -1.4765
 3393SOL     OW21811   3.977   3.496   6.094 -1.0683 -0.9427 -0.2041
 3393SOL    HW121812   4.061   3.523   6.131 -1.0661 -2.3629  0.8471
 3393SOL    HW221813   3.923   3.507   6.173  1.7193 -3.0556  2.0022
 3394SOL     OW21814   2.144   1.358  13.146 -0.2816 -0.1294 -0.1444
 3394SOL    HW121815   2.236   1.345  13.170 -0.1478  2.5312  0.7133
 3394SOL    HW221816   2.116   1.401  13.227 -0.0900 -0.9679  0.3738
 3395SOL     OW21817   2.056   3.524   2.213 -0.8922 -1.1467 -0.0571
 3395SOL    HW121818   2.007   3.606   2.216  0.9617 -0.1825  3.2316
 3395SOL    HW221819   2.000   3.469   2.267  0.0048  0.0265  2.0664
 3396SOL     OW21820   1.888   3.417  16.602  0.3675  0.1195 -0.3534
 3396SOL    HW121821   1.960   3.367  16.564  1.9177  2.5382 -0.5998
 3396SOL    HW221822   1.841   3.348  16.650  0.0093  0.1337 -0.6934
 3397SOL     OW21823   1.379   3.890   7.137 -0.2091 -0.0059  0.4914
 3397SOL    HW121824   1.316   3.954   7.170 -0.2858  1.8719 -3.2283
 3397SOL    HW221825   1.383   3.833   7.213  1.3773 -0.7316 -0.1342
 3398SOL     OW21826   2.377   3.136   8.465 -0.3695 -0.0694  0.2342
 3398SOL    HW121827   2.456   3.157   8.416 -0.9162  0.2318 -0.5243
 3398SOL    HW221828   2.378   3.042   8.445 -1.4691  0.1725 -1.0157
 3399SOL     OW21829   3.566   2.531   8.229 -0.0137 -0.6940  0.2385
 3399SOL    HW121830   3.476   2.544   8.256 -0.8974  0.4908 -3.3797
 3399SOL    HW221831   3.588   2.471   8.300  0.1855 -1.4722 -0.4751
 3400SOL     OW21832   1.430   0.418   9.347  0.1261 -0.4563  0.4565
 3400SOL    HW121833   1.353   0.455   9.391  0.5120 -0.6144  1.2768
 3400SOL    HW221834   1.470   0.350   9.401 -1.2855  0.0056  2.0827
 3401SOL     OW21835   0.005   0.119   3.761  0.2860  0.2445 -0.4616
 3401SOL    HW121836   0.004   0.192   3.823 -1.4158 -0.5264  0.4357
 3401SOL    HW221837   0.043   0.158   3.683 -0.3554 -0.1860 -0.9883
 3402SOL     OW21838   1.534   1.481  10.628  0.0871 -0.2328  0.1061
 3402SOL    HW121839   1.555   1.406  10.573 -0.0404  0.0750 -0.3564
 3402SOL    HW221840   1.611   1.532  10.603 -1.2301  0.5391 -2.3792
 3403SOL     OW21841   2.729   0.121  13.825 -0.4154  0.6171 -0.3939
 3403SOL    HW121842   2.708   0.165  13.742  1.2262  1.6401 -0.2688
 3403SOL    HW221843   2.791   0.182  13.866  0.6095 -1.4994  1.1673
 3404SOL     OW21844   1.268   1.390  17.126  0.8787 -0.6397 -0.3127
 3404SOL    HW121845   1.297   1.462  17.070 -0.6410 -0.4707 -0.8823
 3404SOL    HW221846   1.175   1.388  17.102  1.1506 -1.5256 -1.2830
 3405SOL     OW21847   3.311   3.369   8.674 -0.1508 -0.0546  0.1047
 3405SOL    HW121848   3.306   3.347   8.767 -0.1137 -1.0946 -0.1435
 3405SOL    HW221849   3.299   3.464   8.669  1.0826  0.1656  1.6362
 3406SOL     OW21850   1.935   3.031  11.251 -0.0096  0.5295 -0.2914
 3406SOL    HW121851   1.985   2.954  11.276  0.5328  1.0630  0.2872
 3406SOL    HW221852   1.844   3.004  11.238 -0.3525  1.9458 -0.9335
 3407SOL     OW21853   1.386   1.656  12.603 -0.1715  0.1217 -0.1784
 3407SOL    HW121854   1.428   1.621  12.524 -1.0222 -0.8746 -0.1789
 3407SOL    HW221855   1.413   1.585  12.661 -1.4496  0.2815  0.6012
 3408SOL     OW21856   2.983   1.316   2.603 -0.2105  0.1994 -0.2420
 3408SOL    HW121857   3.032   1.354   2.676  1.8602 -2.9370  0.0151
 3408SOL    HW221858   2.900   1.361   2.617 -0.0536 -0.4731  2.9575
 3409SOL     OW21859   3.171   4.413   2.934  0.1824 -0.3727  0.0597
 3409SOL    HW121860   3.143   4.374   3.017  0.3157  0.4025  0.4686
 3409SOL    HW221861   3.191   4.494   2.981  0.5759 -1.1631  1.2599
 3410SOL     OW21862   1.817   3.676   8.201  0.1885 -0.6965  0.0994
 3410SOL    HW121863   1.896   3.687   8.147  1.0661 -0.4565  1.4297
 3410SOL    HW221864   1.766   3.636   8.131  0.4316 -1.6769  0.4765
 3411SOL     OW21865   1.336   4.334   7.052  0.6723  0.0799  0.5165
 3411SOL    HW121866   1.366   4.253   7.009 -0.5222  0.4339 -0.9636
 3411SOL    HW221867   1.387   4.327   7.133  0.1156  0.2004  0.8747
 3412SOL     OW21868   2.419   0.288  16.039 -0.1402 -0.0397  0.3692
 3412SOL    HW121869   2.364   0.289  15.961  2.4843  1.5620 -1.4768
 3412SOL    HW221870   2.476   0.362  16.019 -2.1520  0.9503 -1.6904
 3413SOL     OW21871   0.880   3.808   1.080  0.3160  0.1437  0.2399
 3413SOL    HW121872   0.911   3.889   1.040  1.3840  0.3700  1.5331
 3413SOL    HW221873   0.864   3.849   1.165 -0.9143  1.1188 -0.4699
 3414SOL     OW21874   0.975   4.330   3.524 -0.4208  0.0131 -0.2294
 3414SOL    HW121875   0.918   4.376   3.585  0.4379  1.9784 -0.8810
 3414SOL    HW221876   0.972   4.393   3.452 -1.6740 -1.7832 -1.7371
 3415SOL     OW21877   4.092   2.824   5.641 -0.0632 -0.2325 -0.5987
 3415SOL    HW121878   4.050   2.745   5.675  1.0048  1.6056  4.9878
 3415SOL    HW221879   4.024   2.845   5.577  0.0129 -0.6337 -0.8115
 3416SOL     OW21880   2.576   1.529   7.449  0.4212  0.1178 -0.0196
 3416SOL    HW121881   2.512   1.457   7.450  0.4188  0.1213  0.1242
 3416SOL    HW221882   2.622   1.515   7.367  4.0480 -0.5201  2.1449
 3417SOL     OW21883   1.596   2.213   3.598  0.8530 -0.2399  0.1421
 3417SOL    HW121884   1.509   2.185   3.627  1.3027 -0.3432  1.4077
 3417SOL    HW221885   1.573   2.301   3.567 -0.8480  0.4695  3.4194
 3418SOL     OW21886   2.616   3.581   8.553  0.5577  0.1366 -0.5013
 3418SOL    HW121887   2.534   3.548   8.589  1.3153 -1.8325 -0.6004
 3418SOL    HW221888   2.624   3.667   8.595 -1.5131  0.9115 -1.7454
 3419SOL     OW21889   4.594   3.332   6.673 -0.5188 -0.5464 -0.6818
 3419SOL    HW121890   4.644   3.250   6.665 -0.4224 -0.5785  0.2886
 3419SOL    HW221891   4.567   3.335   6.581  0.4957  1.3060 -0.9067
 3420SOL     OW21892   2.782   2.462  16.315  0.3212  0.1436  0.0675
 3420SOL    HW121893   2.753   2.466  16.224 -0.0994 -2.6179  0.0864
 3420SOL    HW221894   2.856   2.522  16.319  1.4102 -1.3574  2.0890
 3421SOL     OW21895   3.173   2.194   3.164  0.4878 -0.1999 -0.1912
 3421SOL    HW121896   3.182   2.156   3.076 -0.0720  1.1895 -0.8594
 3421SOL    HW221897   3.182   2.115   3.216 -0.6059  1.4774  2.5415
 3422SOL     OW21898   1.659   2.909   4.000  0.5135  0.5640  0.4051
 3422SOL    HW121899   1.747   2.945   4.009 -0.3124  1.7980  3.5514
 3422SOL    HW221900   1.600   2.981   4.022 -1.2103 -0.9050  0.6108
 3423SOL     OW21901   2.593   4.293   8.350  0.0100  0.1645  0.5407
 3423SOL    HW121902   2.610   4.325   8.261  0.0126 -1.3230  0.0042
 3423SOL    HW221903   2.500   4.312   8.355 -0.0261 -0.5442  2.3114
 3424SOL     OW21904   0.377   4.611  12.276  0.0482 -0.6097 -0.1808
 3424SOL    HW121905   0.472   4.610  12.279  0.0820  0.9743 -0.6818
 3424SOL    HW221906   0.364   4.682  12.338  0.9438 -0.9013  0.3347
 3425SOL     OW21907   2.546   2.586   7.060 -0.2112 -0.1194  0.7473
 3425SOL    HW121908   2.482   2.654   7.039 -0.1634 -0.3403 -0.1328
 3425SOL    HW221909   2.624   2.637   7.037  0.4103 -0.8752  1.2051
 3426SOL     OW21910   4.277   1.386   7.831  0.2763 -0.0453  0.0455
 3426SOL    HW121911   4.209   1.433   7.880  0.8279 -0.4619  1.1979
 3426SOL    HW221912   4.351   1.430   7.873  1.0635 -0.2416 -1.1064
 3427SOL     OW21913   0.954   0.859   9.832 -0.0572 -0.3197  0.2783
 3427SOL    HW121914   1.033   0.830   9.878  1.8869 -3.0132 -4.7445
 3427SOL    HW221915   0.885   0.814   9.880 -0.7129 -0.9354 -1.2471
 3428SOL     OW21916   1.735   3.097   3.010  0.2733  0.3389  0.2893
 3428SOL    HW121917   1.767   3.039   3.079 -2.3729 -0.4204  0.8998
 3428SOL    HW221918   1.641   3.080   3.015  0.5917 -1.7265 -0.9459
 3429SOL     OW21919   2.057   1.657   7.533  0.1171  0.7536 -0.2229
 3429SOL    HW121920   2.107   1.702   7.465  1.1018 -0.7304 -0.4918
 3429SOL    HW221921   2.121   1.617   7.593 -0.5825  1.0945  0.7516
 3430SOL     OW21922   2.096   3.466   5.627 -0.6033 -0.0320  0.0491
 3430SOL    HW121923   2.062   3.556   5.630 -0.1436  0.1374  0.2878
 3430SOL    HW221924   2.019   3.411   5.616 -0.4224 -0.5484  1.4745
 3431SOL     OW21925   3.376   3.429   5.759 -0.6548 -0.7745 -1.1836
 3431SOL    HW121926   3.467   3.401   5.764 -0.3714  0.0857 -1.5972
 3431SOL    HW221927   3.341   3.391   5.679 -0.0009 -2.5488 -0.6289
 3432SOL     OW21928   0.851   4.526   7.137  0.0198  0.1234  0.6954
 3432SOL    HW121929   0.825   4.455   7.197  3.2030 -1.6114  0.0566
 3432SOL    HW221930   0.764   4.523   7.097  0.7470  0.3844 -0.8985
 3433SOL     OW21931   4.345   0.820  17.448 -0.2386 -0.5677  0.1271
 3433SOL    HW121932   4.421   0.875  17.431 -1.4757  0.5506 -1.8361
 3433SOL    HW221933   4.274   0.883  17.461  0.4796  0.5860 -1.5686
 3434SOL     OW21934   1.768   4.676   9.748 -0.6590  0.6748  0.2526
 3434SOL    HW121935   1.717   0.022   9.762 -0.0710  1.0727  0.1130
 3434SOL    HW221936   1.792   4.673   9.656  0.1078 -1.9037  0.5315
 3435SOL     OW21937   4.000   0.178   1.733  0.4923 -0.3234 -0.0220
 3435SOL    HW121938   4.037   0.239   1.797  4.7933 -1.1562 -1.7599
 3435SOL    HW221939   3.912   0.209   1.710  1.3793  1.3905 -1.0945
 3436SOL     OW21940   2.847   3.437   1.415  0.1981  0.1161 -0.0929
 3436SOL    HW121941   2.894   3.355   1.402 -0.1615 -0.1193  0.0807
 3436SOL    HW221942   2.871   3.444   1.507 -2.4299 -1.2088  0.6902
 3437SOL     OW21943   0.887   4.641   1.442 -0.5231 -0.0869 -0.2012
 3437SOL    HW121944   0.953   4.699   1.479  0.0379 -0.8398 -0.0073
 3437SOL    HW221945   0.814   4.697   1.416 -1.1290  0.2492  2.2861
 3438SOL     OW21946   1.445   1.009   9.041  0.0974  0.2816  0.1627
 3438SOL    HW121947   1.458   1.104   9.032 -2.8715  0.6110 -0.5509
 3438SOL    HW221948   1.471   0.982   8.953 -1.4090  0.6609 -0.3945
 3439SOL     OW21949   4.590   2.262   0.620 -0.3885 -0.1140  0.1783
 3439SOL    HW121950   4.598   2.352   0.650  2.2490 -0.5527  0.7659
 3439SOL    HW221951   4.670   2.219   0.651  1.0320  0.5978 -2.5046
 3440SOL     OW21952   0.363   1.251   4.216 -0.3105 -0.0343  0.4452
 3440SOL    HW121953   0.301   1.233   4.144 -0.7240  0.5000  0.6662
 3440SOL    HW221954   0.355   1.180   4.280 -1.1649 -0.4852 -0.1559
 3441SOL     OW21955   4.047   0.576   2.184 -0.5427 -0.1054 -0.7294
 3441SOL    HW121956   3.969   0.622   2.152  0.0532  1.7476  0.4392
 3441SOL    HW221957   4.040   0.580   2.280 -1.5442 -0.0963 -0.8029
 3442SOL     OW21958   4.190   0.418  16.881 -0.3042 -0.1843  0.1031
 3442SOL    HW121959   4.157   0.384  16.798  0.2707  0.3623 -0.3562
 3442SOL    HW221960   4.284   0.420  16.862 -0.0170  1.6145  1.7930
 3443SOL     OW21961   4.308   0.641   1.238 -0.7416 -0.6637  0.0652
 3443SOL    HW121962   4.308   0.720   1.184  0.7068 -0.3438  0.5377
 3443SOL    HW221963   4.236   0.597   1.193 -1.5616 -0.5430  1.2616
 3444SOL     OW21964   3.316   1.188   7.786 -0.7194 -0.1662  0.4577
 3444SOL    HW121965   3.257   1.128   7.830 -0.6272  0.4737  1.4555
 3444SOL    HW221966   3.403   1.168   7.822 -0.8578 -3.0473 -0.8463
 3445SOL     OW21967   0.167   3.141   8.207 -0.5748 -0.6334 -0.5934
 3445SOL    HW121968   0.181   3.086   8.130  2.4004  0.6742 -0.9889
 3445SOL    HW221969   0.098   3.195   8.168 -1.8964 -2.5862 -0.9758
 3446SOL     OW21970   3.429   0.989   3.496 -0.2509  0.5148 -0.4272
 3446SOL    HW121971   3.391   0.981   3.583  1.7985 -0.0161  0.4128
 3446SOL    HW221972   3.388   1.063   3.450 -0.8373 -0.6742 -1.8251
 3447SOL     OW21973   2.349   2.922  11.098 -0.3690  0.5211  0.4022
 3447SOL    HW121974   2.259   2.913  11.127  0.8109  0.1091  3.9778
 3447SOL    HW221975   2.366   2.842  11.047 -0.2431  0.1528  1.0263
 3448SOL     OW21976   2.946   1.803   9.067  0.3176 -0.1509  0.2362
 3448SOL    HW121977   2.912   1.807   9.156 -3.6016  1.8448 -1.3630
 3448SOL    HW221978   2.913   1.886   9.031  0.9849 -0.4340 -1.0178
 3449SOL     OW21979   1.413   2.043   7.933  0.6949 -0.0223  0.1106
 3449SOL    HW121980   1.507   2.042   7.918  0.9748 -0.0803  1.8772
 3449SOL    HW221981   1.377   2.009   7.850  0.4218  1.4846 -0.3951
 3450SOL     OW21982   1.137   3.854   7.818 -0.3536  0.6834  0.2069
 3450SOL    HW121983   1.064   3.809   7.775 -0.5191  0.4866  0.6994
 3450SOL    HW221984   1.084   3.914   7.871  0.4420  1.5922 -0.0136
 3451SOL     OW21985   3.414   1.301   7.385  0.1847 -0.0918 -0.6117
 3451SOL    HW121986   3.448   1.223   7.341  1.5392  0.4837 -0.6121
 3451SOL    HW221987   3.490   1.357   7.368  1.1802 -0.6608  1.9433
 3452SOL     OW21988   4.584   3.887   7.288 -0.5542 -0.8481  0.5981
 3452SOL    HW121989   4.546   3.876   7.376  0.1114 -1.0280  0.8638
 3452SOL    HW221990   4.674   3.857   7.303 -0.9740 -1.2590  2.4160
 3453SOL     OW21991   0.164   4.267   3.073 -0.4127 -0.1955 -0.7382
 3453SOL    HW121992   0.217   4.192   3.045 -0.1450 -0.3795  0.2860
 3453SOL    HW221993   0.094   4.265   3.007 -1.7501  2.9901  0.5882
 3454SOL     OW21994   3.220   0.365   1.861  0.1132 -0.4852 -0.8640
 3454SOL    HW121995   3.247   0.453   1.835 -0.7839  0.6457  2.0713
 3454SOL    HW221996   3.136   0.352   1.816 -0.2368  0.3737 -0.4633
 3455SOL     OW21997   4.726   3.499   1.318 -0.4799 -0.8605  0.3866
 3455SOL    HW121998   4.709   3.582   1.275  0.3402 -1.2038 -0.5972
 3455SOL    HW221999   0.058   3.517   1.384  0.0671  0.4038 -0.5070
 3456SOL     OW22000   3.980   3.119   7.207  0.3340  0.0393  0.0827
 3456SOL    HW122001   3.956   3.120   7.115  0.0522 -1.8470  0.1191
 3456SOL    HW222002   3.998   3.211   7.225  1.6403 -0.2521  0.2459
 3457SOL     OW22003   4.099   1.283   9.101  0.8107  0.1775 -0.5631
 3457SOL    HW122004   4.034   1.276   9.032  0.3835  0.0841 -0.1540
 3457SOL    HW222005   4.074   1.359   9.154  0.7425  0.4805 -1.0272
 3458SOL     OW22006   2.162   1.275   4.814 -0.3536 -0.1696  0.1739
 3458SOL    HW122007   2.179   1.354   4.763 -1.2008 -1.0623 -1.4668
 3458SOL    HW222008   2.179   1.208   4.749  0.2089  0.7574 -0.6351
 3459SOL     OW22009   3.813   3.018   8.946 -0.0557  0.0230  0.3176
 3459SOL    HW122010   3.779   2.936   8.910 -1.7647  1.6009 -1.7255
 3459SOL    HW222011   3.743   3.077   8.920 -1.1255 -1.3488  0.0642
 3460SOL     OW22012   1.434   2.405   7.442  0.1844  0.2550 -0.0696
 3460SOL    HW122013   1.471   2.318   7.433  2.1949  1.0517  0.5118
 3460SOL    HW222014   1.401   2.403   7.532 -0.0864  1.0013 -0.1529
 3461SOL     OW22015   1.515   3.423   7.606  0.5381  0.1335  0.0871
 3461SOL    HW122016   1.559   3.502   7.573 -0.9838  1.1627  0.5580
 3461SOL    HW222017   1.439   3.469   7.640  1.4332  1.6305  0.0717
 3462SOL     OW22018   3.017   2.259   5.028 -0.0870  0.1170  0.1609
 3462SOL    HW122019   2.949   2.240   4.965 -1.0530 -0.0199  1.2446
 3462SOL    HW222020   3.033   2.352   5.016  0.8621  0.0415  0.8072
 3463SOL     OW22021   1.247   2.106   4.417  0.1935 -0.0013 -0.0475
 3463SOL    HW122022   1.250   2.022   4.462 -1.6062  1.0132  1.9446
 3463SOL    HW222023   1.222   2.170   4.483 -0.9504 -1.0164  0.4870
 3464SOL     OW22024   4.637   1.885  14.463 -0.0793  0.6548 -0.6098
 3464SOL    HW122025   4.559   1.933  14.433  0.2847  1.2121 -0.6618
 3464SOL    HW222026   4.589   1.803  14.477  1.7399 -0.0488  1.3651
 3465SOL     OW22027   3.385   4.494  16.156  0.1479  0.0590  0.1688
 3465SOL    HW122028   3.445   4.486  16.230  1.2258  0.5633 -0.6637
 3465SOL    HW222029   3.452   4.479  16.090 -0.8501  1.0500 -1.0655
 3466SOL     OW22030   3.020   2.697   3.698  0.4029  0.2975 -0.2362
 3466SOL    HW122031   2.966   2.743   3.762  1.6146  2.4319 -0.7648
 3466SOL    HW222032   2.974   2.615   3.717  2.6322 -0.5558  1.4276
 3467SOL     OW22033   2.293   3.466   6.848  0.1448  0.6022 -0.3520
 3467SOL    HW122034   2.359   3.424   6.793  0.2463  0.2823  0.0119
 3467SOL    HW222035   2.358   3.507   6.906 -0.7650  0.7925  0.5335
 3468SOL     OW22036   0.691   4.188   7.056 -0.2746 -0.1739 -0.5972
 3468SOL    HW122037   0.699   4.096   7.082  2.9071 -0.2267 -1.7167
 3468SOL    HW222038   0.785   4.200   7.044 -0.1414  0.0482  0.6070
 3469SOL     OW22039   3.880   0.955  13.722  0.1572  0.0362  1.1142
 3469SOL    HW122040   3.840   0.914  13.799 -0.5587 -0.3398  0.5476
 3469SOL    HW222041   3.870   1.047  13.743 -0.5086 -0.3219  2.3500
 3470SOL     OW22042   3.250   1.500   8.986  0.2617  0.3728  0.4740
 3470SOL    HW122043   3.169   1.515   8.938  0.0225 -0.0927  0.7267
 3470SOL    HW222044   3.245   1.582   9.035  0.0855  0.2982  0.5818
 3471SOL     OW22045   4.338   1.371   5.799 -0.8328 -0.3069 -0.2617
 3471SOL    HW122046   4.319   1.402   5.888  3.3734  1.7636 -0.0975
 3471SOL    HW222047   4.379   1.442   5.750 -1.3908 -0.7484 -1.3682
 3472SOL     OW22048   2.232   2.763  13.725 -0.3601 -0.0051 -0.3061
 3472SOL    HW122049   2.249   2.800  13.811 -0.8595  1.3602 -0.7857
 3472SOL    HW222050   2.211   2.847  13.683 -0.3250  0.0592 -0.1946
 3473SOL     OW22051   2.201   4.081  16.087 -0.4426 -0.5446 -0.4572
 3473SOL    HW122052   2.157   4.138  16.025 -0.2468 -2.1716 -2.0875
 3473SOL    HW222053   2.132   4.015  16.091 -1.4091  0.6596  2.7493
 3474SOL     OW22054   4.698   1.385   7.050  0.7110 -0.0272 -0.0162
 3474SOL    HW122055   4.664   1.347   7.131 -1.6456 -1.3122 -1.6195
 3474SOL    HW222056   0.055   1.357   7.054  1.4446  2.1589 -1.0588
 3475SOL     OW22057   3.467   3.918   5.103 -0.1878  0.3591  0.4487
 3475SOL    HW122058   3.477   3.926   5.198 -2.7185  1.2269  0.6261
 3475SOL    HW222059   3.543   3.969   5.076 -0.5610 -0.4877 -2.1976
 3476SOL     OW22060   3.946   3.524   3.963 -0.1400 -0.2562 -0.5500
 3476SOL    HW122061   3.877   3.525   4.029 -0.3734 -1.3708 -0.7754
 3476SOL    HW222062   3.891   3.496   3.890  0.7248 -1.1758 -0.8459
 3477SOL     OW22063   0.136   2.975   8.010  0.0203  0.2505 -0.2152
 3477SOL    HW122064   0.215   2.921   8.006 -0.0771 -0.1881  3.6510
 3477SOL    HW222065   0.118   2.958   7.918 -0.3412 -1.1656  0.1055
 3478SOL     OW22066   1.800   4.425  10.167  0.2884 -0.1384  0.2418
 3478SOL    HW122067   1.790   4.410  10.073  0.1766  2.1306 -0.1138
 3478SOL    HW222068   1.879   4.378  10.193  0.4501  0.1678  0.3066
 3479SOL     OW22069   2.578   3.312   5.897 -0.3443  0.0631  0.6511
 3479SOL    HW122070   2.574   3.402   5.863 -1.6999 -0.6039 -0.9544
 3479SOL    HW222071   2.491   3.279   5.873  0.6351 -1.3123 -0.9959
 3480SOL     OW22072   0.111   2.255   8.241 -0.4388 -0.3721  0.2785
 3480SOL    HW122073   0.080   2.250   8.151  0.7410 -1.4660 -0.0699
 3480SOL    HW222074   0.039   2.313   8.265  0.4476  0.3886  1.1211
 3481SOL     OW22075   1.822   4.218   6.769  0.4000  0.3652 -0.2127
 3481SOL    HW122076   1.841   4.283   6.837  2.1471 -0.4126  0.0672
 3481SOL    HW222077   1.911   4.197   6.738 -0.5261 -1.0759 -1.8914
 3482SOL     OW22078   3.420   0.560   7.143 -0.1964 -0.5537 -0.5097
 3482SOL    HW122079   3.486   0.619   7.108  0.7405 -2.5281 -2.0552
 3482SOL    HW222080   3.337   0.606   7.156 -0.1536 -0.6553  0.1321
 3483SOL     OW22081   3.624   2.191   0.733 -0.0855 -0.3159  0.5745
 3483SOL    HW122082   3.593   2.281   0.721 -3.5733 -1.4029  1.4617
 3483SOL    HW222083   3.538   2.151   0.718  0.8803 -1.2273 -2.4771
 3484SOL     OW22084   3.290   1.311   7.044 -0.2808  0.3622 -0.1945
 3484SOL    HW122085   3.250   1.359   6.971  0.1498  1.0776  0.0438
 3484SOL    HW222086   3.227   1.329   7.113  0.2119  2.0266 -0.1781
 3485SOL     OW22087   1.086   0.291   2.399  0.5426 -0.0168 -0.5863
 3485SOL    HW122088   1.092   0.368   2.343 -1.3916  0.3549 -0.2820
 3485SOL    HW222089   1.009   0.242   2.370 -1.6721  1.7981  2.1628
 3486SOL     OW22090   0.153   0.747   2.094  0.6998 -0.1975  0.5108
 3486SOL    HW122091   0.213   0.750   2.019 -0.1752 -0.7494 -0.2122
 3486SOL    HW222092   0.070   0.731   2.049 -0.9142  0.3606  3.2936
 3487SOL     OW22093   1.921   2.811  14.252  0.4282 -0.0123  0.0366
 3487SOL    HW122094   1.917   2.900  14.288  0.4715  0.0340 -0.0749
 3487SOL    HW222095   1.940   2.831  14.161 -1.2817 -1.3428 -0.6146
 3488SOL     OW22096   3.815   4.335   8.789  0.1495 -0.2286 -0.0638
 3488SOL    HW122097   3.853   4.258   8.746  1.3510 -0.0627  0.6861
 3488SOL    HW222098   3.899   4.374   8.814  0.9279  0.0132 -3.0696
 3489SOL     OW22099   0.885   1.388   5.678  0.0989  0.3487 -0.1016
 3489SOL    HW122100   0.836   1.437   5.612 -0.9438 -1.2219 -0.5083
 3489SOL    HW222101   0.867   1.301   5.641 -0.1682 -0.4136  1.8162
 3490SOL     OW22102   0.885   0.836   1.970  0.0766 -0.5586 -0.3346
 3490SOL    HW122103   0.910   0.779   2.044  1.8845 -0.9042 -1.2032
 3490SOL    HW222104   0.802   0.875   1.996 -0.6020 -3.3295  1.7323
 3491SOL     OW22105   1.645   3.032   7.918 -0.3641 -0.0056 -0.5102
 3491SOL    HW122106   1.647   3.117   7.874  1.1701 -0.2354 -0.9002
 3491SOL    HW222107   1.561   3.009   7.878  0.1489 -1.4311 -0.8040
 3492SOL     OW22108   1.650   4.566   6.133 -0.2118  0.3108 -0.4535
 3492SOL    HW122109   1.714   4.554   6.063  0.9660  0.5253  0.5796
 3492SOL    HW222110   1.574   4.600   6.085  0.2677  2.1865  0.1260
 3493SOL     OW22111   4.415   2.673  14.471  0.2214 -0.1258 -0.4668
 3493SOL    HW122112   4.355   2.622  14.525 -1.0113 -0.0184 -1.7483
 3493SOL    HW222113   4.362   2.738  14.426 -0.4142 -1.3396 -1.4645
 3494SOL     OW22114   4.154   0.650  10.262 -0.3347 -0.5364 -0.3982
 3494SOL    HW122115   4.098   0.684  10.332 -0.3643 -1.7382  0.1654
 3494SOL    HW222116   4.143   0.720  10.198  0.7508  0.2025  0.2168
 3495SOL     OW22117   2.546   2.582  12.660  0.0382 -0.2366 -0.4458
 3495SOL    HW122118   2.572   2.492  12.641  1.6874 -0.0355  0.8856
 3495SOL    HW222119   2.536   2.613  12.570 -0.0279 -0.0232 -0.3639
 3496SOL     OW22120   3.897   2.069   9.063  0.2072  0.0491 -0.2891
 3496SOL    HW122121   3.812   2.103   9.091  0.7158 -0.7355  2.1888
 3496SOL    HW222122   3.955   2.135   9.101  0.4284 -1.7473  2.5276
 3497SOL     OW22123   2.519   1.153   0.656 -0.0815 -0.1175 -0.2945
 3497SOL    HW122124   2.504   1.093   0.729 -1.1102  1.0581  0.4539
 3497SOL    HW222125   2.449   1.126   0.596 -0.8578  0.9944  0.1212
 3498SOL     OW22126   0.606   3.365   8.054  0.1103 -0.3855  0.5017
 3498SOL    HW122127   0.537   3.304   8.027  0.9164  0.4888 -3.6100
 3498SOL    HW222128   0.688   3.315   8.052  0.8569  0.8048  1.4796
 3499SOL     OW22129   2.753   3.559   4.887  0.3760 -0.1829 -0.1024
 3499SOL    HW122130   2.833   3.599   4.852 -1.1985  1.4663 -1.8511
 3499SOL    HW222131   2.693   3.600   4.824 -0.5700  2.2655  2.4043
 3500SOL     OW22132   2.383   2.625  17.028  0.6771  0.1998 -0.0624
 3500SOL    HW122133   2.337   2.649  16.948 -0.0012  3.0716  1.1624
 3500SOL    HW222134   2.320   2.639  17.099  1.7538 -0.1649  0.9554
 3501SOL     OW22135   1.608   4.318  11.291 -0.4254 -0.4260 -0.3849
 3501SOL    HW122136   1.687   4.281  11.331 -0.3571 -2.5992 -2.5675
 3501SOL    HW222137   1.645   4.331  11.204 -1.5730 -0.6260 -0.9080
 3502SOL     OW22138   2.199   4.265   9.311 -0.2581 -0.5167 -0.1023
 3502SOL    HW122139   2.230   4.266   9.402 -1.2342  2.4241  0.2154
 3502SOL    HW222140   2.104   4.273   9.325  0.0597 -0.8518  2.3177
 3503SOL     OW22141   1.901   4.142   6.241 -0.4007  0.5154 -0.6125
 3503SOL    HW122142   1.821   4.191   6.260  0.5787  1.4619  1.0594
 3503SOL    HW222143   1.886   4.052   6.272  0.4047  0.4620 -0.3730
 3504SOL     OW22144   1.124   4.061   5.434  0.5588  0.6392  0.2373
 3504SOL    HW122145   1.102   3.968   5.439  1.5961  0.4319  0.8047
 3504SOL    HW222146   1.106   4.066   5.528  0.1610  0.8318  0.1505
 3505SOL     OW22147   1.807   0.882  11.992  0.2388 -0.6304 -0.3129
 3505SOL    HW122148   1.851   0.810  12.036 -0.0470 -1.1960 -0.9691
 3505SOL    HW222149   1.768   0.938  12.060 -0.5550  0.3594 -1.5942
 3506SOL     OW22150   2.905   4.572  14.012  0.2567  0.2139  0.4084
 3506SOL    HW122151   2.954   4.491  14.026 -1.5177 -0.8470  0.5073
 3506SOL    HW222152   2.911   4.592  13.919 -1.4296  0.4835  0.3661
 3507SOL     OW22153   2.202   4.095  13.617  0.1351  0.2659  0.5005
 3507SOL    HW122154   2.244   4.180  13.630 -1.6382  1.2568 -0.3117
 3507SOL    HW222155   2.210   4.075  13.524  1.9543  1.4240  0.4108
 3508SOL     OW22156   4.208   1.208  15.884  0.5194 -0.0183  0.6227
 3508SOL    HW122157   4.297   1.174  15.884  1.0269  1.3338  2.8183
 3508SOL    HW222158   4.182   1.175  15.798  2.9369  1.2928 -0.6184
 3509SOL     OW22159   2.864   1.385   8.639  0.1119 -0.5970 -0.2618
 3509SOL    HW122160   2.939   1.406   8.695 -0.0462  1.8911 -0.9780
 3509SOL    HW222161   2.825   1.472   8.641  1.3249 -0.0527 -0.0956
 3510SOL     OW22162   4.620   1.478   0.719  0.4593 -0.6328  0.1746
 3510SOL    HW122163   4.555   1.413   0.745 -1.6571  1.1373 -0.6556
 3510SOL    HW222164   4.700   1.453   0.765  0.2680  1.4120  1.5991
 3511SOL     OW22165   2.306   3.214   4.424  0.4342  0.1600 -0.2600
 3511SOL    HW122166   2.388   3.263   4.421 -0.1150  1.1010 -0.0646
 3511SOL    HW222167   2.240   3.283   4.419 -0.8420 -1.0319 -0.0564
 3512SOL     OW22168   1.840   0.938  13.832 -0.2554 -0.2011 -0.0953
 3512SOL    HW122169   1.780   0.948  13.758 -1.7794  3.3832  1.6409
 3512SOL    HW222170   1.858   1.030  13.853  0.2923 -0.9645  2.7390
 3513SOL     OW22171   1.076   1.200   4.482  0.4913  0.1074 -0.0542
 3513SOL    HW122172   1.009   1.243   4.430  0.2718 -0.0197  0.1224
 3513SOL    HW222173   1.070   1.255   4.559  0.8112  1.2061 -0.8197
 3514SOL     OW22174   3.605   4.462  11.363  0.0404 -0.1410  0.4739
 3514SOL    HW122175   3.683   4.406  11.366  1.3929  1.8793  2.8176
 3514SOL    HW222176   3.639   4.540  11.319 -0.8368 -1.5930 -2.7491
 3515SOL     OW22177   2.002   2.492   3.066  0.1094  0.7129  0.2222
 3515SOL    HW122178   1.972   2.425   3.005  0.0044  1.6018 -0.7045
 3515SOL    HW222179   2.096   2.474   3.072  0.0956  0.2370 -0.8849
 3516SOL     OW22180   3.357   0.176   5.907 -0.0179 -0.7678 -0.1935
 3516SOL    HW122181   3.307   0.254   5.884  1.8721  0.5131  0.0008
 3516SOL    HW222182   3.290   0.118   5.943 -0.2367 -1.0506 -1.0627
 3517SOL     OW22183   0.484   2.525   7.346 -0.4175 -0.7235  0.3407
 3517SOL    HW122184   0.441   2.555   7.266  1.7826 -1.5034 -1.1363
 3517SOL    HW222185   0.439   2.442   7.363 -0.7649 -0.0885  2.5483
 3518SOL     OW22186   4.487   1.851   2.595  0.4838 -0.3861  0.4076
 3518SOL    HW122187   4.526   1.907   2.662 -0.3940  0.5517  0.1324
 3518SOL    HW222188   4.429   1.789   2.638  1.7326 -0.0210  2.6416
 3519SOL     OW22189   1.366   3.237   2.247  0.4116 -0.0839 -0.1485
 3519SOL    HW122190   1.326   3.311   2.294 -0.7963  0.2876 -1.7882
 3519SOL    HW222191   1.322   3.243   2.163 -0.2516 -1.3509  0.1141
 3520SOL     OW22192   3.900   3.889   7.579  0.0645  0.6343 -0.5012
 3520SOL    HW122193   3.940   3.946   7.645  2.9527 -1.9212 -0.0283
 3520SOL    HW222194   3.807   3.902   7.595  0.1752  0.6767  0.1457
 3521SOL     OW22195   0.841   1.794   4.018  0.1540 -0.1879  0.3045
 3521SOL    HW122196   0.750   1.823   4.010  0.2985 -0.6536 -2.9265
 3521SOL    HW222197   0.833   1.717   3.961  0.2514 -1.2905  1.7837
 3522SOL     OW22198   1.797   2.563  15.115  0.3357  0.1265  0.3918
 3522SOL    HW122199   1.737   2.598  15.181 -1.7457 -1.0901 -0.8494
 3522SOL    HW222200   1.741   2.493  15.080 -0.4430 -0.2821  2.4288
 3523SOL     OW22201   2.400   0.499   5.800  0.0086 -0.1077  0.9035
 3523SOL    HW122202   2.460   0.557   5.753 -0.1617 -1.8724 -1.5396
 3523SOL    HW222203   2.329   0.558   5.824 -1.5316 -1.9526  0.8821
 3524SOL     OW22204   3.020   4.689   5.780 -0.0467 -0.2994  0.2080
 3524SOL    HW122205   3.042   4.657   5.692  1.9438  2.2464 -0.2160
 3524SOL    HW222206   3.036   4.615   5.838 -0.2694 -1.4566 -1.2035
 3525SOL     OW22207   1.015   0.611  15.541  0.6036  0.1561 -0.2055
 3525SOL    HW122208   0.968   0.543  15.589 -0.8043 -0.0515 -1.8884
 3525SOL    HW222209   1.085   0.553  15.512 -1.4407 -1.7878 -1.2650
 3526SOL     OW22210   3.937   0.382   0.143  0.4907  0.4344 -0.0718
 3526SOL    HW122211   4.022   0.407   0.106  0.7622 -0.6549 -0.1811
 3526SOL    HW222212   3.965   0.292   0.160 -0.4022  0.3629  1.0386
 3527SOL     OW22213   3.797   1.305   3.896 -0.3779 -0.1217  0.2981
 3527SOL    HW122214   3.729   1.344   3.842  0.9860  1.4320 -0.2826
 3527SOL    HW222215   3.873   1.353   3.862 -0.0411  0.8903  2.4231
 3528SOL     OW22216   3.668   1.933  13.909 -0.5439 -0.4623  0.2421
 3528SOL    HW122217   3.738   1.954  13.848  1.6858 -2.2439  2.1557
 3528SOL    HW222218   3.698   1.844  13.929  0.0379 -0.3679 -0.2027
 3529SOL     OW22219   0.244   3.395   7.370 -0.0709  0.1335 -0.1263
 3529SOL    HW122220   0.263   3.313   7.416 -1.3071  1.8733  3.4319
 3529SOL    HW222221   0.324   3.407   7.319  0.3761 -0.2318  0.4871
 3530SOL     OW22222   0.296   2.753   5.336 -0.6807  0.3254  0.1200
 3530SOL    HW122223   0.285   2.724   5.426  1.9558  0.7126  0.5710
 3530SOL    HW222224   0.359   2.821   5.361 -2.0403  1.6255  0.0083
 3531SOL     OW22225   3.707   2.243   9.669 -0.5730  0.5595 -0.2212
 3531SOL    HW122226   3.747   2.197   9.743  0.6238  0.7679 -0.7379
 3531SOL    HW222227   3.620   2.270   9.698 -1.1290 -2.0233  0.5738
 3532SOL     OW22228   4.708   0.268  12.474  0.4978  0.4252 -0.6591
 3532SOL    HW122229   4.620   0.295  12.499  0.4139  2.3507 -2.9857
 3532SOL    HW222230   0.021   0.336  12.523  1.3533  0.7763 -1.9462
 3533SOL     OW22231   1.408   3.297   2.771  0.2582  0.4511  0.3831
 3533SOL    HW122232   1.318   3.326   2.755 -0.4122 -1.2956  0.9606
 3533SOL    HW222233   1.424   3.297   2.865  1.2471  0.4767  0.2166
 3534SOL     OW22234   3.111   0.251   8.240 -0.2623  0.0048 -0.2164
 3534SOL    HW122235   3.123   0.345   8.256 -1.3166 -0.0030  0.6769
 3534SOL    HW222236   3.116   0.216   8.329  0.4976  1.6615  0.3858
 3535SOL     OW22237   4.258   4.175   4.701 -0.1482 -0.1543  0.1852
 3535SOL    HW122238   4.250   4.167   4.797 -0.9375  1.6381  0.2827
 3535SOL    HW222239   4.173   4.141   4.672 -0.6651  0.0265  1.4497
 3536SOL     OW22240   0.906   2.567   4.556 -0.3678 -0.2956  0.2246
 3536SOL    HW122241   0.991   2.564   4.512 -0.3829  1.0873  0.0955
 3536SOL    HW222242   0.895   2.486   4.605  1.4416 -1.5280 -1.4375
 3537SOL     OW22243   2.852   3.728   7.823 -0.0585 -0.1673  0.1306
 3537SOL    HW122244   2.799   3.680   7.886  1.0362  0.5395  1.6071
 3537SOL    HW222245   2.923   3.755   7.882 -0.6784  0.6302  0.5283
 3538SOL     OW22246   0.543   1.544  15.418 -0.2495 -0.7115  0.5377
 3538SOL    HW122247   0.590   1.502  15.491 -1.0165 -1.5917  0.5353
 3538SOL    HW222248   0.595   1.503  15.349 -0.5748  0.3781 -0.3495
 3539SOL     OW22249   1.949   3.215   4.508  0.2012  0.4505  0.2320
 3539SOL    HW122250   1.993   3.135   4.536 -0.3928 -0.1424 -0.5248
 3539SOL    HW222251   1.925   3.192   4.418 -2.8407  1.5222  0.7767
 3540SOL     OW22252   3.451   0.713   8.403 -0.1653  0.6049 -0.1164
 3540SOL    HW122253   3.417   0.798   8.429 -0.3962 -0.1290  2.0172
 3540SOL    HW222254   3.535   0.736   8.364 -2.3073  1.9845 -3.9369
 3541SOL     OW22255   1.153   1.200   8.307  0.3846  0.0871 -0.8406
 3541SOL    HW122256   1.180   1.251   8.230 -0.2048  0.1529 -0.9995
 3541SOL    HW222257   1.090   1.135   8.276 -0.7516  1.3821 -1.2769
 3542SOL     OW22258   3.503   2.150   2.592  0.0353 -0.2456 -0.7108
 3542SOL    HW122259   3.556   2.198   2.657  1.2577 -0.8039 -1.2942
 3542SOL    HW222260   3.500   2.065   2.637  0.5132  0.5269  0.8007
 3543SOL     OW22261   0.513   4.430   2.967 -0.2284  0.5236  0.4596
 3543SOL    HW122262   0.449   4.477   3.021  0.6774  0.8884  1.2230
 3543SOL    HW222263   0.567   4.387   3.033 -0.8588  0.7487  1.1289
 3544SOL     OW22264   1.898   1.379   7.452 -0.1908 -0.6038  0.3472
 3544SOL    HW122265   1.941   1.294   7.466  0.0578 -0.7263 -1.1553
 3544SOL    HW222266   1.959   1.428   7.397  0.3261 -0.1907  1.3068
 3545SOL     OW22267   4.144   1.190   8.737 -0.0099  0.3232 -0.3180
 3545SOL    HW122268   4.190   1.187   8.821  0.2172 -0.1562 -0.4609
 3545SOL    HW222269   4.056   1.212   8.767 -0.7826 -0.4789 -2.0327
 3546SOL     OW22270   2.322   4.324   4.499  0.1823 -0.1260  0.0989
 3546SOL    HW122271   2.262   4.277   4.442  0.8112 -0.2371 -0.4727
 3546SOL    HW222272   2.272   4.405   4.486 -3.1328 -2.5116 -1.9643
 3547SOL     OW22273   0.625   2.472   3.414  0.6375 -0.7395 -0.1584
 3547SOL    HW122274   0.705   2.446   3.368  0.4421 -0.3812 -0.6888
 3547SOL    HW222275   0.600   2.387   3.450  4.3296 -0.3564  3.3797
 3548SOL     OW22276   0.432   4.007   2.316  0.1707 -0.1481  0.1104
 3548SOL    HW122277   0.384   3.953   2.254 -1.8375  0.6919  0.9046
 3548SOL    HW222278   0.371   4.080   2.324  1.7332  1.1111  0.6159
 3549SOL     OW22279   4.160   4.663   1.700  0.1889  0.5525 -0.1570
 3549SOL    HW122280   4.172   4.706   1.615 -2.4022  0.5304 -0.5282
 3549SOL    HW222281   4.110   4.731   1.745 -1.6346  1.7739 -4.0266
 3550SOL     OW22282   1.193   4.435   2.185 -0.0788  1.2740  0.5225
 3550SOL    HW122283   1.150   4.457   2.267 -1.5884  0.9477 -0.1781
 3550SOL    HW222284   1.267   4.496   2.192  1.1296 -0.3816  2.1887
 3551SOL     OW22285   3.431   0.379   2.034 -0.0282 -0.6881 -0.1629
 3551SOL    HW122286   3.383   0.376   1.952 -0.6908 -0.5638  0.2178
 3551SOL    HW222287   3.354   0.405   2.086 -1.1958 -0.7331 -1.8705
 3552SOL     OW22288   3.195   1.702  17.577  0.1293 -0.0112  0.0873
 3552SOL    HW122289   3.201   1.657  17.493 -0.1553 -2.9909  1.6697
 3552SOL    HW222290   3.187   1.630  17.639 -1.5678 -0.9354 -1.2007
 3553SOL     OW22291   0.578   0.208   8.585 -0.1274  0.4649  0.6976
 3553SOL    HW122292   0.566   0.115   8.567  1.5225  0.4715 -0.3866
 3553SOL    HW222293   0.571   0.261   8.506  0.3213 -2.0803 -1.0545
 3554SOL     OW22294   3.693   3.599  14.179  0.1233 -0.7168  0.0845
 3554SOL    HW122295   3.719   3.538  14.110 -1.2226 -0.9048 -0.2473
 3554SOL    HW222296   3.736   3.677  14.145  0.1425 -0.8597 -0.2216
 3555SOL     OW22297   1.588   4.092  14.491  0.2188 -0.5522 -0.2066
 3555SOL    HW122298   1.634   4.029  14.434 -1.6261 -0.9176 -1.2912
 3555SOL    HW222299   1.499   4.096  14.455  0.3879  0.3399 -0.5039
 3556SOL     OW22300   1.421   3.022   4.445 -0.6232  0.1802  0.3662
 3556SOL    HW122301   1.347   3.076   4.416 -1.0658  1.0816  3.2106
 3556SOL    HW222302   1.461   3.086   4.503 -0.6586  1.2189 -0.7529
 3557SOL     OW22303   1.741   0.113  15.822 -0.2834 -0.4686 -0.3086
 3557SOL    HW122304   1.822   0.102  15.772 -0.0086  1.2254 -0.2255
 3557SOL    HW222305   1.765   0.099  15.913  0.5813 -2.4953 -0.8446
 3558SOL     OW22306   1.027   1.102   5.946 -0.3315 -0.1302 -0.1582
 3558SOL    HW122307   1.114   1.074   5.915 -0.8103  0.7019 -2.2505
 3558SOL    HW222308   1.024   1.193   5.919 -0.7667 -0.6467 -1.8996
 3559SOL     OW22309   3.235   0.736  12.749 -0.7526  0.3589 -0.1014
 3559SOL    HW122310   3.308   0.713  12.691 -0.3911 -0.2463  0.5880
 3559SOL    HW222311   3.262   0.682  12.824 -0.6636  0.2865 -0.1850
 3560SOL     OW22312   2.928   3.272  16.559 -0.0126  0.1226 -0.0979
 3560SOL    HW122313   2.882   3.336  16.613 -0.5618 -1.2181  1.0000
 3560SOL    HW222314   2.893   3.300  16.474 -1.0915 -0.2533  0.2179
 3561SOL     OW22315   1.034   3.013   4.504  0.6201  0.2648  0.4229
 3561SOL    HW122316   1.090   2.937   4.520 -1.5249 -0.7516  3.1166
 3561SOL    HW222317   1.100   3.066   4.460 -0.0353 -0.5638 -1.5719
 3562SOL     OW22318   2.443   2.387  16.009  0.1863 -0.0777  0.0996
 3562SOL    HW122319   2.388   2.322  15.965  1.7316 -2.0581  1.0534
 3562SOL    HW222320   2.528   2.363  15.972 -0.1590  0.7303 -1.2032
 3563SOL     OW22321   2.653   2.967   4.384 -0.0980 -0.1313  0.4290
 3563SOL    HW122322   2.683   2.878   4.365  1.8208  0.5763  0.1529
 3563SOL    HW222323   2.615   2.997   4.302  2.9972  0.8298 -0.6400
 3564SOL     OW22324   3.822   2.625   3.180 -0.0208 -0.2699  0.0443
 3564SOL    HW122325   3.753   2.580   3.131  0.0271  1.7479 -1.8601
 3564SOL    HW222326   3.772   2.673   3.246  1.8521  0.9186  0.5752
 3565SOL     OW22327   3.238   4.306   9.300  0.0349 -0.4337  0.0395
 3565SOL    HW122328   3.245   4.351   9.384 -0.7023  0.2891 -0.2879
 3565SOL    HW222329   3.193   4.225   9.322  0.5319 -0.3592  1.3575
 3566SOL     OW22330   4.463   0.544   1.725 -0.3452  0.2725 -0.5498
 3566SOL    HW122331   4.473   0.629   1.682  1.7073  0.6785  0.7505
 3566SOL    HW222332   4.369   0.526   1.725 -0.2197 -0.3985 -0.8488
 3567SOL     OW22333   0.606   3.415   6.923 -0.3667 -0.1796 -0.6456
 3567SOL    HW122334   0.553   3.405   6.844 -0.0520 -0.3651 -0.8384
 3567SOL    HW222335   0.632   3.324   6.943  2.5483  0.1649 -2.7990
 3568SOL     OW22336   3.729   2.451  16.552  0.4143 -0.5035  0.0719
 3568SOL    HW122337   3.731   2.525  16.493 -0.5947  0.9201  1.8277
 3568SOL    HW222338   3.675   2.393  16.498 -0.1440 -1.0494  1.2017
 3569SOL     OW22339   2.500   1.302   1.654  0.2354 -0.1698  0.1266
 3569SOL    HW122340   2.501   1.339   1.565 -0.9868 -1.6240 -0.4879
 3569SOL    HW222341   2.409   1.299   1.683 -0.0248 -0.0189 -0.6817
 3570SOL     OW22342   2.999   4.582   6.387 -0.2195 -0.1923 -0.4037
 3570SOL    HW122343   2.940   4.560   6.459 -0.7913 -0.8099 -1.0597
 3570SOL    HW222344   2.948   4.625   6.319 -2.3256 -0.7540  0.8359
 3571SOL     OW22345   3.415   2.236  12.709 -0.0895 -0.0833  0.1995
 3571SOL    HW122346   3.499   2.193  12.694 -0.1571 -0.0803 -0.1952
 3571SOL    HW222347   3.430   2.272  12.796  0.4995 -2.5328  1.1024
 3572SOL     OW22348   2.187   0.985  11.256  0.5349 -0.1404 -0.0749
 3572SOL    HW122349   2.228   1.007  11.339  2.4828  1.5255 -1.4821
 3572SOL    HW222350   2.252   1.015  11.193 -0.5530  1.0609 -0.6441
 3573SOL     OW22351   0.260   2.060   8.294  0.7427  0.0602 -0.0272
 3573SOL    HW122352   0.218   2.140   8.263  2.0935  0.7935  0.0398
 3573SOL    HW222353   0.336   2.094   8.342  0.0667 -1.7722  2.3694
 3574SOL     OW22354   4.498   1.035   6.540  0.0683  0.4585  0.3811
 3574SOL    HW122355   4.494   0.939   6.540 -1.3378  0.5106  1.3456
 3574SOL    HW222356   4.477   1.065   6.629 -1.5983 -0.5776  0.3463
 3575SOL     OW22357   4.690   4.521   8.558 -0.2441  0.0079  0.0965
 3575SOL    HW122358   4.687   4.536   8.464  0.8151  1.3056  0.2649
 3575SOL    HW222359   4.598   4.504   8.578  0.1933 -2.6835 -0.1155
 3576SOL     OW22360   2.852   2.648   4.333 -0.1972 -0.8916  0.2402
 3576SOL    HW122361   2.865   2.568   4.282 -1.0335  0.6861 -2.4417
 3576SOL    HW222362   2.941   2.684   4.332  0.3986 -2.3710  0.3096
 3577SOL     OW22363   1.553   0.683  12.476 -0.2340 -0.2412  0.3737
 3577SOL    HW122364   1.526   0.603  12.431 -0.4185 -1.2318  2.2649
 3577SOL    HW222365   1.510   0.747  12.420 -0.8857 -1.1384 -0.1565
 3578SOL     OW22366   3.422   0.513   8.940  0.3453 -0.2787 -0.1494
 3578SOL    HW122367   3.462   0.454   8.875  0.0701 -1.3624  0.6785
 3578SOL    HW222368   3.381   0.574   8.879  2.4146  1.9711  0.7057
 3579SOL     OW22369   4.280   2.662  11.379  0.1653 -0.0290  0.2496
 3579SOL    HW122370   4.257   2.725  11.448  1.5937  1.8630 -0.9828
 3579SOL    HW222371   4.202   2.666  11.323 -1.3519  1.5756  2.4624
 3580SOL     OW22372   1.366   1.481   5.137 -0.5124  0.2790 -0.1104
 3580SOL    HW122373   1.453   1.493   5.175 -0.6762  0.7278  0.1256
 3580SOL    HW222374   1.362   1.558   5.080  1.7741  0.0521 -0.5761
 3581SOL     OW22375   2.915   1.099   6.221 -0.4765  0.2290 -0.1584
 3581SOL    HW122376   2.970   1.023   6.239 -1.1001 -0.8667 -2.9815
 3581SOL    HW222377   2.935   1.115   6.129  0.6617  1.4177  0.2935
 3582SOL     OW22378   3.821   2.559  15.927  0.1552 -0.3866  0.2791
 3582SOL    HW122379   3.745   2.605  15.892  1.0410 -0.8531 -2.2672
 3582SOL    HW222380   3.884   2.629  15.939 -2.3581  1.5989  1.8718
 3583SOL     OW22381   2.713   0.343  12.615  0.3921 -0.8553 -0.2699
 3583SOL    HW122382   2.643   0.292  12.654 -0.4626  1.7673  1.5883
 3583SOL    HW222383   2.788   0.301  12.657  0.0946 -0.8760  0.2420
 3584SOL     OW22384   0.199   3.970  12.127 -0.3738 -0.1902 -0.1655
 3584SOL    HW122385   0.111   3.933  12.125 -0.3344 -0.4110  1.8271
 3584SOL    HW222386   0.237   3.936  12.046  0.1358 -1.3654  0.5587
 3585SOL     OW22387   4.593   0.134  12.868  0.4583 -0.6236  0.2964
 3585SOL    HW122388   4.529   0.149  12.799  0.6042  0.4935  0.4160
 3585SOL    HW222389   4.553   0.169  12.948  1.2247  0.2727  0.2885
 3586SOL     OW22390   4.397   4.547  11.226 -0.0492  0.1948 -0.7900
 3586SOL    HW122391   4.320   4.584  11.181 -0.1356  1.9142  0.7750
 3586SOL    HW222392   4.368   4.555  11.317  1.3648  0.2465 -0.3429
 3587SOL     OW22393   3.660   2.341   7.531 -0.2611  0.0793 -0.3273
 3587SOL    HW122394   3.682   2.291   7.610  0.2496 -1.0873 -1.2019
 3587SOL    HW222395   3.605   2.276   7.487  0.9561 -1.5538  0.5729
 3588SOL     OW22396   0.828   0.769   6.307 -0.0014  0.1456 -0.6694
 3588SOL    HW122397   0.780   0.764   6.225  0.2276 -0.4965 -0.7678
 3588SOL    HW222398   0.862   0.679   6.300  1.8962  0.9436 -1.4595
 3589SOL     OW22399   3.930   2.036   2.915  0.6059  0.5384 -0.0170
 3589SOL    HW122400   3.948   2.130   2.925 -2.0800  1.0115  0.3682
 3589SOL    HW222401   3.986   2.004   2.844 -1.2444  0.3002 -1.3671
 3590SOL     OW22402   3.549   1.606   5.899  0.3655  0.1983  0.1067
 3590SOL    HW122403   3.580   1.535   5.955  1.2240  1.1747  0.8494
 3590SOL    HW222404   3.508   1.555   5.829 -1.5833  1.6631  0.1856
 3591SOL     OW22405   0.621   2.501   5.964 -0.0796 -0.2362  0.0388
 3591SOL    HW122406   0.566   2.425   5.983 -0.9725  0.0807 -1.3252
 3591SOL    HW222407   0.647   2.475   5.876 -4.0722 -1.0584 -0.9069
 3592SOL     OW22408   1.342   0.882   3.573 -0.4614 -0.4850  0.1650
 3592SOL    HW122409   1.248   0.897   3.570 -0.9504 -3.3904  0.2385
 3592SOL    HW222410   1.386   0.913   3.494 -1.0700 -1.8991 -0.7295
 3593SOL     OW22411   3.821   3.397   2.850  0.2634  0.6674 -0.3856
 3593SOL    HW122412   3.773   3.477   2.828  0.5114  1.0927  0.5882
 3593SOL    HW222413   3.869   3.432   2.925 -0.5375 -1.5975  1.1840
 3594SOL     OW22414   4.178   3.509  13.145  0.2076  0.6610  0.0682
 3594SOL    HW122415   4.175   3.599  13.178  1.7446 -0.2224  2.6240
 3594SOL    HW222416   4.189   3.461  13.227 -3.8316 -1.4911 -0.6649
 3595SOL     OW22417   3.363   1.838  12.372  0.3969 -0.7217  0.5360
 3595SOL    HW122418   3.452   1.826  12.404 -1.9735 -2.0135  6.5216
 3595SOL    HW222419   3.321   1.878  12.448 -1.0053 -0.8763 -0.1540
 3596SOL     OW22420   1.651   2.002  16.856 -0.8633  0.1514  0.2098
 3596SOL    HW122421   1.712   2.065  16.894 -0.5616 -0.1736  0.2726
 3596SOL    HW222422   1.700   1.923  16.881 -0.9059  0.4230  1.1319
 3597SOL     OW22423   2.350   2.664  13.513 -0.2088  0.0953  0.2054
 3597SOL    HW122424   2.308   2.689  13.596  0.8609 -0.9841  1.0829
 3597SOL    HW222425   2.377   2.576  13.540  2.5138  1.1793  0.9557
 3598SOL     OW22426   0.040   0.936   5.976 -0.1444  0.0097 -0.7334
 3598SOL    HW122427   0.081   0.905   6.057  0.9224  1.4897 -0.7049
 3598SOL    HW222428   0.088   1.018   5.968 -2.6276  1.4195 -0.9994
 3599SOL     OW22429   3.536   3.264   8.498 -0.0139 -0.1342  0.2113
 3599SOL    HW122430   3.574   3.318   8.428 -2.3797  1.9893  0.5730
 3599SOL    HW222431   3.484   3.323   8.552  0.6771  0.5138  0.1787
 3600SOL     OW22432   3.340   3.771  12.227 -0.5605  0.8721 -0.5299
 3600SOL    HW122433   3.281   3.695  12.227  1.3488 -0.5803 -2.3556
 3600SOL    HW222434   3.277   3.843  12.218 -1.9158 -0.2680 -0.3166
 3601SOL     OW22435   3.756   1.700   4.068  0.2949  0.3309 -0.7677
 3601SOL    HW122436   3.677   1.699   4.014 -0.6938 -0.7872  0.6848
 3601SOL    HW222437   3.818   1.742   4.008  0.0826  2.9648  0.8819
 3602SOL     OW22438   1.658   2.902   6.590 -0.0218 -0.5938 -0.1807
 3602SOL    HW122439   1.588   2.967   6.586  0.1907 -0.6872 -5.1274
 3602SOL    HW222440   1.607   2.825   6.565 -2.5606  1.6515 -1.8175
 3603SOL     OW22441   2.628   4.132   5.864 -0.4881 -0.3625  0.1461
 3603SOL    HW122442   2.549   4.186   5.856  0.4605  1.1303  0.9716
 3603SOL    HW222443   2.686   4.190   5.914 -0.2353  0.4205 -1.0574
 3604SOL     OW22444   4.065   4.295   0.351  0.1048 -0.2977  0.0066
 3604SOL    HW122445   4.027   4.372   0.307 -1.7707 -0.1500  1.8624
 3604SOL    HW222446   4.155   4.324   0.358  1.0858 -3.1853 -0.6651
 3605SOL     OW22447   1.784   3.462   1.983 -0.2459 -0.1045 -0.3868
 3605SOL    HW122448   1.701   3.431   1.945 -0.2700  0.4046 -0.7403
 3605SOL    HW222449   1.749   3.544   2.017  1.9335  0.9283 -0.6769
 3606SOL     OW22450   0.621   1.905  12.903  0.5583 -0.3045  0.3548
 3606SOL    HW122451   0.536   1.888  12.944 -0.3940 -0.9536 -1.8810
 3606SOL    HW222452   0.687   1.882  12.969 -1.0078 -0.2973  1.9155
 3607SOL     OW22453   0.276   4.523   5.801  0.2923  0.4871 -0.5925
 3607SOL    HW122454   0.296   4.430   5.795 -1.9780  0.1742 -3.0921
 3607SOL    HW222455   0.360   4.552   5.765  1.2763  0.1066  1.3891
 3608SOL     OW22456   3.493   4.611  13.287 -0.0630 -0.2771  0.1449
 3608SOL    HW122457   3.527   4.612  13.376 -1.9043  2.8994  0.7942
 3608SOL    HW222458   3.402   4.591  13.309 -0.4544 -1.0633 -2.1235
 3609SOL     OW22459   0.622   1.767   6.623  0.0031 -0.1395  0.7495
 3609SOL    HW122460   0.552   1.831   6.610  0.7948  1.4322  4.2710
 3609SOL    HW222461   0.594   1.735   6.709  2.5801 -1.1831  1.2026
 3610SOL     OW22462   0.303   4.325   3.314  0.5025  0.1401 -0.7781
 3610SOL    HW122463   0.250   4.300   3.238  0.0242 -0.2822 -0.3084
 3610SOL    HW222464   0.307   4.419   3.296 -1.1642  0.4512  0.4828
 3611SOL     OW22465   4.100   1.830   2.696 -0.3235 -0.0079 -0.2173
 3611SOL    HW122466   4.101   1.778   2.615  0.3018 -2.5207  1.4417
 3611SOL    HW222467   4.005   1.829   2.706 -0.3064 -2.2756 -0.3847
 3612SOL     OW22468   2.746   2.890  14.744 -0.1563 -0.4045 -0.1647
 3612SOL    HW122469   2.773   2.891  14.652 -0.1357 -1.1829 -0.1625
 3612SOL    HW222470   2.825   2.873  14.796 -2.5425  0.0758  3.6361
 3613SOL     OW22471   0.260   3.324   6.529 -0.5087 -0.3366 -0.1582
 3613SOL    HW122472   0.307   3.254   6.484  0.8654 -0.5365  1.6113
 3613SOL    HW222473   0.172   3.307   6.494 -1.8920  2.2260  2.0652
 3614SOL     OW22474   0.965   0.465   0.125  0.4901 -0.4496  0.2743
 3614SOL    HW122475   0.922   0.521   0.191  0.1791  0.2866 -0.5567
 3614SOL    HW222476   0.948   0.510   0.042 -2.4209 -4.0963 -1.0729
 3615SOL     OW22477   2.156   1.303   2.137  0.1555  0.5559 -0.1852
 3615SOL    HW122478   2.088   1.331   2.198 -0.3247  1.7715 -1.2735
 3615SOL    HW222479   2.233   1.353   2.165  1.5165 -1.2530 -0.6705
 3616SOL     OW22480   0.411   2.280   6.309 -0.1426  0.3296  0.3430
 3616SOL    HW122481   0.465   2.301   6.233  0.7982 -3.0617  0.0626
 3616SOL    HW222482   0.450   2.196   6.335  0.4335  0.3868 -0.3471
 3617SOL     OW22483   3.866   2.459   6.393 -0.0200 -0.6230  0.1999
 3617SOL    HW122484   3.941   2.440   6.337  0.1279 -0.2327  0.2637
 3617SOL    HW222485   3.791   2.438   6.338 -0.5092  0.6544  0.3785
 3618SOL     OW22486   4.665   0.101   7.610 -0.0607  0.2105 -0.3282
 3618SOL    HW122487   4.710   0.090   7.526  0.3711  1.8502 -0.3030
 3618SOL    HW222488   4.732   0.106   7.677 -0.5676  2.2769  0.0232
 3619SOL     OW22489   0.588   0.632  13.838 -0.2608  0.3961 -0.4259
 3619SOL    HW122490   0.571   0.591  13.922  0.8142 -0.6037 -0.6829
 3619SOL    HW222491   0.603   0.552  13.787 -1.5570  0.9622 -1.7061
 3620SOL     OW22492   0.973   4.414   5.116 -0.2975  0.3830  0.0351
 3620SOL    HW122493   1.013   4.337   5.156  0.6545  0.8734  0.0516
 3620SOL    HW222494   0.938   4.371   5.038  0.1844  1.3067 -0.6915
 3621SOL     OW22495   0.609   3.992  10.653  0.3469 -0.3566 -0.3060
 3621SOL    HW122496   0.620   3.906  10.614 -2.7274 -0.6019 -0.6751
 3621SOL    HW222497   0.671   4.049  10.607  0.3029 -1.5822 -1.8520
 3622SOL     OW22498   0.773   1.178  15.874  0.0186  0.3105  0.2884
 3622SOL    HW122499   0.740   1.124  15.946  0.1614  1.1357  0.9699
 3622SOL    HW222500   0.864   1.147  15.866  0.2192  0.2896  2.5638
 3623SOL     OW22501   1.540   1.131   4.392  0.1818  0.0699 -0.0607
 3623SOL    HW122502   1.522   1.051   4.341  2.3322 -0.2213 -0.3820
 3623SOL    HW222503   1.622   1.152   4.346 -1.1725  1.0061 -2.0209
 3624SOL     OW22504   0.637   0.386  14.762  0.5183  0.2954 -0.0072
 3624SOL    HW122505   0.693   0.317  14.727 -0.4169 -0.6846  0.4097
 3624SOL    HW222506   0.659   0.390  14.855  2.4369  0.2641 -0.4560
 3625SOL     OW22507   2.337   0.209  13.630  0.4123  0.2778 -0.0342
 3625SOL    HW122508   2.298   0.131  13.590 -0.2988 -0.7751  2.6963
 3625SOL    HW222509   2.310   0.189  13.720  2.5773 -0.8016  0.3821
 3626SOL     OW22510   1.990   0.607   1.531 -0.1703  0.2230  0.0917
 3626SOL    HW122511   1.920   0.671   1.519 -0.5104 -0.1309  0.2194
 3626SOL    HW222512   1.935   0.540   1.570  0.8253 -2.3737 -2.9920
 3627SOL     OW22513   3.665   0.101   3.297  0.5148  0.1851  0.5766
 3627SOL    HW122514   3.653   0.102   3.202 -0.3529 -3.0758  0.6418
 3627SOL    HW222515   3.759   0.084   3.308  0.5353  1.0280  1.6775
 3628SOL     OW22516   0.505   3.104   2.201 -0.3567 -0.2517  0.1757
 3628SOL    HW122517   0.553   3.023   2.218 -0.4245 -0.5916 -1.2980
 3628SOL    HW222518   0.571   3.166   2.171 -0.5745 -0.1167 -0.0236
 3629SOL     OW22519   1.803   1.586   6.302  0.1664 -0.5125  0.0200
 3629SOL    HW122520   1.891   1.557   6.328  0.3589  1.0600  1.1112
 3629SOL    HW222521   1.803   1.662   6.360 -1.0057 -0.0761 -0.5614
 3630SOL     OW22522   0.882   0.912   4.594 -0.0258  0.6907 -0.3986
 3630SOL    HW122523   0.828   0.977   4.547 -0.5556  1.2508  0.9996
 3630SOL    HW222524   0.946   0.968   4.638 -1.5842  1.5813  0.7046
 3631SOL     OW22525   0.467   4.238  10.646 -0.7539 -0.5626  0.6333
 3631SOL    HW122526   0.541   4.298  10.638 -1.1537  0.0984  2.0338
 3631SOL    HW222527   0.510   4.152  10.643 -0.5670 -0.4629  0.4541
 3632SOL     OW22528   2.712   2.141   7.781  0.1819 -0.0370 -0.1337
 3632SOL    HW122529   2.724   2.146   7.876 -1.1240  1.1887 -0.0353
 3632SOL    HW222530   2.802   2.141   7.749  0.2425  0.7825  0.0437
 3633SOL     OW22531   3.471   1.243   3.823  0.4394  0.6489 -0.5310
 3633SOL    HW122532   3.435   1.252   3.734  0.1332 -1.7797 -0.6517
 3633SOL    HW222533   3.461   1.332   3.858  0.1488  0.6446 -0.5996
 3634SOL     OW22534   1.120   4.262  16.820  0.2124 -0.2420  0.2699
 3634SOL    HW122535   1.086   4.173  16.815  0.8702 -0.5974  2.1849
 3634SOL    HW222536   1.123   4.276  16.914  0.8942 -2.4273  0.5678
 3635SOL     OW22537   1.217   1.488   3.813  0.3173 -0.2238  0.4455
 3635SOL    HW122538   1.177   1.405   3.837  1.6182 -1.2676 -0.9916
 3635SOL    HW222539   1.227   1.525   3.901  1.1976 -0.7743  0.5885
 3636SOL     OW22540   1.934   0.228   4.486  0.2317  0.2594  0.1239
 3636SOL    HW122541   1.891   0.313   4.485  0.1198  0.1929 -1.1363
 3636SOL    HW222542   1.939   0.215   4.581  0.2100  0.7126  0.1862
 3637SOL     OW22543   2.287   1.945   3.257 -0.2222 -0.0609 -0.5068
 3637SOL    HW122544   2.342   2.018   3.227  1.9128 -0.7155  1.7805
 3637SOL    HW222545   2.214   1.997   3.291 -0.4371  0.1958 -1.3711
 3638SOL     OW22546   0.140   3.576   8.452  0.3896 -0.1060  0.3728
 3638SOL    HW122547   0.164   3.498   8.502 -0.8168 -2.3396 -2.5631
 3638SOL    HW222548   0.098   3.625   8.523  0.2716  2.1678 -1.2629
 3639SOL     OW22549   3.991   4.485  12.953 -0.0444  1.0138 -0.4491
 3639SOL    HW122550   3.938   4.551  12.998 -0.9527 -1.1445  1.6434
 3639SOL    HW222551   4.072   4.500  13.002 -0.8710  0.6609  1.0043
 3640SOL     OW22552   2.735   0.360   6.533  0.1194 -0.1921 -0.0588
 3640SOL    HW122553   2.750   0.425   6.602  0.6048 -0.0362 -0.3195
 3640SOL    HW222554   2.820   0.370   6.492 -1.0345 -0.0788 -2.4188
 3641SOL     OW22555   2.186   0.834  17.373 -0.0357 -0.0750 -0.4554
 3641SOL    HW122556   2.097   0.864  17.352  0.0783 -0.3116 -1.2776
 3641SOL    HW222557   2.241   0.912  17.363 -1.0230  0.6475 -0.3022
 3642SOL     OW22558   1.604   1.460   9.189  0.0859  0.1329  0.0696
 3642SOL    HW122559   1.514   1.460   9.220  0.1521  1.6094  0.2650
 3642SOL    HW222560   1.633   1.551   9.190 -0.6358  0.3665 -0.6539
 3643SOL     OW22561   4.373   0.061   6.809 -0.1596  0.2887  0.4975
 3643SOL    HW122562   4.460   0.083   6.844  1.0239 -1.5226 -1.3341
 3643SOL    HW222563   4.390   4.708   6.774  1.1197  0.9548 -0.5494
 3644SOL     OW22564   1.327   1.970   8.204 -0.2552  0.5673 -1.0123
 3644SOL    HW122565   1.273   1.903   8.163  1.0692 -2.6968  2.5672
 3644SOL    HW222566   1.349   2.020   8.125 -1.1759  0.4313 -1.3490
 3645SOL     OW22567   3.673   0.551   7.342  0.0040 -0.3385 -0.5414
 3645SOL    HW122568   3.756   0.502   7.335 -0.5658 -1.3449 -0.3165
 3645SOL    HW222569   3.623   0.504   7.276  0.1131 -1.1781 -0.0282
 3646SOL     OW22570   2.498   2.112   2.932 -0.1196 -0.0317  0.6189
 3646SOL    HW122571   2.459   2.115   3.019  2.4460  1.5072  1.7133
 3646SOL    HW222572   2.434   2.160   2.880 -2.6824 -1.4924  2.4362
 3647SOL     OW22573   0.557   1.709   3.395 -0.0201 -0.0169  0.0245
 3647SOL    HW122574   0.540   1.653   3.319 -1.4880  1.2223 -0.5676
 3647SOL    HW222575   0.534   1.649   3.466 -0.7812 -0.8204 -0.9018
 3648SOL     OW22576   0.571   2.336   6.575  0.6234  0.5823 -0.3627
 3648SOL    HW122577   0.613   2.251   6.591  0.8848  0.7416 -0.1941
 3648SOL    HW222578   0.593   2.340   6.482  0.5055 -1.6519 -0.5057
 3649SOL     OW22579   4.443   2.936   7.948 -0.6715 -0.1046 -0.5956
 3649SOL    HW122580   4.369   2.921   8.007 -0.4390  1.3921  0.0758
 3649SOL    HW222581   4.412   2.894   7.868  0.9063 -0.0755 -1.2214
 3650SOL     OW22582   2.209   2.497   0.431 -0.1644 -0.6641  0.2689
 3650SOL    HW122583   2.283   2.454   0.476  1.6031  0.2784 -1.7526
 3650SOL    HW222584   2.206   2.581   0.476  0.4489 -0.5761  0.1460
 3651SOL     OW22585   0.466   1.299   5.564  0.5468  0.1802 -0.2922
 3651SOL    HW122586   0.439   1.389   5.583 -1.1187 -1.0216  3.1502
 3651SOL    HW222587   0.515   1.318   5.485  1.0156 -2.3501 -0.6071
 3652SOL     OW22588   3.678   1.472   9.511  0.0632  1.0498  0.0209
 3652SOL    HW122589   3.694   1.506   9.599 -1.6390 -3.4333  2.0606
 3652SOL    HW222590   3.584   1.472   9.496  0.0310 -0.5052  0.1826
 3653SOL     OW22591   3.044   3.982   5.231  0.1289 -0.1579 -0.1353
 3653SOL    HW122592   3.118   4.008   5.176  0.3123  0.2910  0.3229
 3653SOL    HW222593   3.016   4.066   5.268  0.4111  0.8539 -2.1936
 3654SOL     OW22594   1.422   0.413   3.328  0.3372  0.0988  0.2771
 3654SOL    HW122595   1.494   0.358   3.360 -0.4661 -0.5831  0.9331
 3654SOL    HW222596   1.471   0.474   3.273  1.0327 -1.1165 -0.4494
 3655SOL     OW22597   1.415   2.061  10.508 -0.3466  0.0394  0.1663
 3655SOL    HW122598   1.332   2.070  10.555 -0.8171  1.4368 -0.9072
 3655SOL    HW222599   1.459   2.006  10.572  0.5219  0.5810  0.0342
 3656SOL     OW22600   2.076   0.479   2.970  0.5000  0.1662 -0.0998
 3656SOL    HW122601   2.057   0.571   2.952  0.4917  0.3865  1.0087
 3656SOL    HW222602   2.089   0.474   3.065 -2.4024  1.2930  0.3318
 3657SOL     OW22603   1.194   0.475   3.159  0.3282  0.3261  0.3805
 3657SOL    HW122604   1.251   0.404   3.188 -3.5448 -1.4319  3.4801
 3657SOL    HW222605   1.232   0.554   3.198 -0.7232  0.5975  0.8454
 3658SOL     OW22606   3.948   0.179   6.699  0.4608 -0.4295  1.1660
 3658SOL    HW122607   3.979   0.251   6.644  0.0845 -0.9255  0.3160
 3658SOL    HW222608   3.963   0.217   6.786  0.9940  1.0011  0.4452
 3659SOL     OW22609   3.890   4.202   4.356  0.8143  0.2671 -0.0636
 3659SOL    HW122610   3.960   4.263   4.334 -0.8531  2.3525  0.4781
 3659SOL    HW222611   3.880   4.159   4.271 -0.8368 -2.2990  1.3952
 3660SOL     OW22612   1.040   0.077   1.714 -0.3726  0.0707  0.4210
 3660SOL    HW122613   1.037   0.116   1.626 -1.0040  1.8266  1.2219
 3660SOL    HW222614   1.108   0.011   1.703 -0.2844  0.4346 -1.3341
 3661SOL     OW22615   0.850   1.739  17.616  0.5487  0.8780  0.0537
 3661SOL    HW122616   0.852   1.648  17.587  0.6270 -0.1840  3.3919
 3661SOL    HW222617   0.763   1.764  17.586  0.4413 -0.7183 -0.9555
 3662SOL     OW22618   1.418   2.617   0.447 -0.6101 -0.0106 -0.6600
 3662SOL    HW122619   1.351   2.675   0.484 -1.1373 -1.6412  0.9634
 3662SOL    HW222620   1.409   2.544   0.508 -1.2054  1.9954  1.6843
 3663SOL     OW22621   3.817   3.387   5.420 -0.5527 -0.1532 -0.3896
 3663SOL    HW122622   3.845   3.477   5.403  1.3286 -0.6815 -0.0734
 3663SOL    HW222623   3.788   3.388   5.511 -2.1715 -3.7805 -0.8678
 3664SOL     OW22624   0.232   0.898  17.557 -0.5901  0.1174  0.2378
 3664SOL    HW122625   0.169   0.830  17.535  0.8053 -0.7063 -1.1958
 3664SOL    HW222626   0.218   0.958  17.483 -0.7816 -1.1039 -0.7138
 3665SOL     OW22627   2.729   0.940  12.898  0.8312 -0.2505  0.3119
 3665SOL    HW122628   2.691   0.853  12.889  1.8275 -0.3622 -2.7461
 3665SOL    HW222629   2.787   0.935  12.822  0.0158 -0.8481 -0.2736
 3666SOL     OW22630   0.432   3.431   2.964 -0.2315  0.0349  0.0416
 3666SOL    HW122631   0.347   3.391   2.943  0.1154  0.0740 -1.4509
 3666SOL    HW222632   0.487   3.361   2.998 -0.6948 -0.5508 -0.4148
 3667SOL     OW22633   4.489   0.940   2.897  0.3594 -0.4799  0.3542
 3667SOL    HW122634   4.503   1.003   2.826 -1.7653 -1.2130 -0.7412
 3667SOL    HW222635   4.409   0.970   2.940  0.8799  2.0665 -0.4462
 3668SOL     OW22636   3.829   2.966   9.473  0.6804  0.1508  0.2668
 3668SOL    HW122637   3.908   2.999   9.517 -0.2420  2.4844  0.1587
 3668SOL    HW222638   3.866   2.948   9.387  1.4830  0.9836  0.4302
 3669SOL     OW22639   1.732   3.129  13.742  0.0760  0.3082  0.1974
 3669SOL    HW122640   1.750   3.133  13.836 -0.3817  0.9225  0.2600
 3669SOL    HW222641   1.822   3.134  13.711 -0.4133  1.2258 -1.0418
 3670SOL     OW22642   0.710   4.274   8.895 -0.3206 -0.0284 -0.4328
 3670SOL    HW122643   0.764   4.348   8.867 -2.1887  1.1989 -0.7621
 3670SOL    HW222644   0.771   4.222   8.948 -1.3934 -0.9068 -0.0723
 3671SOL     OW22645   4.400   2.740   3.325  0.4739 -0.1202  0.4232
 3671SOL    HW122646   4.479   2.780   3.289  0.6706 -0.8634  0.0214
 3671SOL    HW222647   4.330   2.790   3.283  1.6018  0.1420 -1.1446
 3672SOL     OW22648   1.209   3.430   8.710  0.2038 -0.4756  0.2554
 3672SOL    HW122649   1.257   3.502   8.750  0.2046  0.0708 -0.7261
 3672SOL    HW222650   1.209   3.366   8.782 -2.9641  1.0035  1.5404
 3673SOL     OW22651   0.656   4.512   1.193 -0.9069  0.3583  0.4099
 3673SOL    HW122652   0.702   4.505   1.277  0.4863  0.9985 -0.3107
 3673SOL    HW222653   0.723   4.497   1.127 -1.8811  1.2755 -0.7797
 3674SOL     OW22654   3.216   1.986   4.260 -0.2964  0.3206 -0.4747
 3674SOL    HW122655   3.218   2.064   4.205 -1.1534 -0.3264 -1.4371
 3674SOL    HW222656   3.174   1.934   4.191 -3.4881 -1.6129  2.9282
 3675SOL     OW22657   2.266   2.174   5.743  0.1182  0.0641 -0.1617
 3675SOL    HW122658   2.250   2.092   5.789 -0.8055  1.5753  2.2186
 3675SOL    HW222659   2.204   2.180   5.671  0.7801  2.1096 -0.5939
 3676SOL     OW22660   2.870   0.326   2.234  0.1595  0.5988  0.6643
 3676SOL    HW122661   2.866   0.236   2.267 -1.1185 -0.8183 -3.3870
 3676SOL    HW222662   2.838   0.365   2.315  0.3779  1.7453  0.1979
 3677SOL     OW22663   2.831   1.586  15.817  1.0016 -0.0957  0.0560
 3677SOL    HW122664   2.737   1.597  15.830  0.8671  0.0123 -0.9579
 3677SOL    HW222665   2.841   1.657  15.753 -0.6887  0.4350  0.3966
 3678SOL     OW22666   1.988   2.421   5.102  0.1515  0.6599  0.1393
 3678SOL    HW122667   1.969   2.504   5.058 -0.0431  0.6118  0.1328
 3678SOL    HW222668   1.923   2.429   5.173  0.2124  1.8530  0.0571
 3679SOL     OW22669   0.698   4.166   1.006  0.0512 -0.5683  0.1496
 3679SOL    HW122670   0.751   4.137   1.080 -0.5194 -1.9549  0.0246
 3679SOL    HW222671   0.770   4.183   0.946 -1.0212  2.3262 -0.3100
 3680SOL     OW22672   0.641   2.785  10.541 -0.0545 -0.7021  0.4341
 3680SOL    HW122673   0.580   2.765  10.611 -1.2710  2.1263  0.1894
 3680SOL    HW222674   0.707   2.718  10.560 -2.1583 -2.1285  2.6796
 3681SOL     OW22675   2.903   1.462   6.745  0.1089 -0.0216  0.4501
 3681SOL    HW122676   2.808   1.455   6.735  0.7054 -3.0786 -3.4047
 3681SOL    HW222677   2.922   1.373   6.776  1.6101  0.2874  0.4229
 3682SOL     OW22678   0.712   3.754  15.038 -0.1610  0.1515  0.0917
 3682SOL    HW122679   0.723   3.659  15.031  0.9417  0.5034 -2.8999
 3682SOL    HW222680   0.733   3.786  14.951  0.2158  0.5711  0.3376
 3683SOL     OW22681   1.843   4.512   1.834  0.3817  0.2584  0.5091
 3683SOL    HW122682   1.899   4.481   1.905 -0.6708 -2.3707  0.1678
 3683SOL    HW222683   1.824   4.595   1.878 -0.7286 -0.8368  2.0926
 3684SOL     OW22684   2.206   0.119   4.963 -0.1250  0.7616  0.0001
 3684SOL    HW122685   2.170   0.038   4.999  3.3568 -0.7754  0.0331
 3684SOL    HW222686   2.184   0.184   5.030 -0.2916  0.5746  0.1264
 3685SOL     OW22687   4.132   2.482  15.815 -0.6959 -0.1220 -0.1908
 3685SOL    HW122688   4.091   2.545  15.874 -1.7474  0.4999 -1.5814
 3685SOL    HW222689   4.146   2.405  15.870 -1.0349  1.5792  2.2783
 3686SOL     OW22690   3.962   1.283   0.366 -0.4394 -0.1351  0.4233
 3686SOL    HW122691   3.911   1.335   0.428 -2.0252 -1.1445 -0.0397
 3686SOL    HW222692   3.933   1.334   0.290 -0.2850 -0.6145  0.0438
 3687SOL     OW22693   1.119   1.978   7.148 -0.3011 -0.0952 -0.4771
 3687SOL    HW122694   1.062   1.998   7.223 -0.5374 -1.5024 -0.2935
 3687SOL    HW222695   1.050   1.968   7.082 -0.6805  0.4456 -0.1641
 3688SOL     OW22696   1.413   2.500   3.890  1.3757 -0.0908 -0.0283
 3688SOL    HW122697   1.475   2.568   3.863  0.2330  1.4691  1.2690
 3688SOL    HW222698   1.379   2.523   3.976 -0.7985  0.1540 -0.9542
 3689SOL     OW22699   3.353   2.140   0.686 -0.4661  0.7755  0.3097
 3689SOL    HW122700   3.302   2.121   0.765  0.5358 -3.5057 -0.0507
 3689SOL    HW222701   3.283   2.178   0.633 -1.0313 -1.6936 -0.7491
 3690SOL     OW22702   0.661   1.487  15.651 -0.5123  0.5959 -0.5872
 3690SOL    HW122703   0.648   1.472  15.744  2.6666 -1.8466 -0.5326
 3690SOL    HW222704   0.755   1.503  15.640 -0.1285 -1.6592 -0.5533
 3691SOL     OW22705   2.099   4.564  13.825 -0.4871  0.4796 -0.3387
 3691SOL    HW122706   2.140   4.647  13.799  2.6369 -1.2417 -1.0299
 3691SOL    HW222707   2.078   4.529  13.739  0.2620  0.8409 -0.6714
 3692SOL     OW22708   4.053   3.218   4.666 -0.2741 -0.2890 -0.3159
 3692SOL    HW122709   3.959   3.212   4.682 -0.3493  1.2661 -0.1776
 3692SOL    HW222710   4.045   3.199   4.573  0.7948 -0.2896 -0.4076
 3693SOL     OW22711   2.419   3.942   5.858 -0.1596 -0.0732 -0.1097
 3693SOL    HW122712   2.493   3.998   5.881 -0.3894  0.9315 -1.8082
 3693SOL    HW222713   2.408   3.888   5.936  4.0795 -1.4187 -0.4602
 3694SOL     OW22714   2.345   0.940  15.134  0.3051  0.6289  0.1719
 3694SOL    HW122715   2.277   0.967  15.073  1.0017  1.2895 -0.3255
 3694SOL    HW222716   2.380   0.866  15.084 -0.6168  0.4819 -0.2506
 3695SOL     OW22717   3.414   1.148  17.278  0.9236  0.2356  0.0712
 3695SOL    HW122718   3.480   1.198  17.230  1.2300  0.8099  1.0747
 3695SOL    HW222719   3.475   1.104  17.338  1.0674  0.8441  0.3781
 3696SOL     OW22720   3.852   1.149  11.520 -0.3182  0.5148  0.6933
 3696SOL    HW122721   3.944   1.130  11.539 -0.0758 -1.5953 -2.7331
 3696SOL    HW222722   3.870   1.225  11.464 -0.1370 -0.3501 -0.4171
 3697SOL     OW22723   0.898   2.124   2.927 -0.0528  0.0689 -0.2529
 3697SOL    HW122724   0.837   2.183   2.969 -1.4574 -0.7276 -1.1775
 3697SOL    HW222725   0.852   2.091   2.850 -1.4734  0.9551  0.2304
 3698SOL     OW22726   3.113   2.726  10.191  0.0120 -0.5370 -0.5512
 3698SOL    HW122727   3.100   2.801  10.248  1.1728 -1.1235  0.4858
 3698SOL    HW222728   3.183   2.759  10.135 -1.1999  1.4826 -0.8963
 3699SOL     OW22729   3.843   3.963  16.333  0.1219 -0.2097  0.4737
 3699SOL    HW122730   3.754   3.953  16.367  0.2093  1.2822  1.1467
 3699SOL    HW222731   3.840   4.055  16.308  0.3517  0.2773  2.2669
 3700SOL     OW22732   0.290   1.025   7.174 -0.5804 -0.4693 -0.2979
 3700SOL    HW122733   0.386   1.017   7.181 -0.5949 -0.8400 -0.5182
 3700SOL    HW222734   0.269   0.981   7.257 -0.0441  0.1687  0.1825
 3701SOL     OW22735   2.890   3.815   9.623 -0.4433 -0.2693  0.1797
 3701SOL    HW122736   2.942   3.747   9.581  0.5238  0.6814 -0.1521
 3701SOL    HW222737   2.901   3.783   9.713  1.2448 -0.1382  0.0218
 3702SOL     OW22738   0.148   3.452  11.334  0.2149  1.0351  0.0924
 3702SOL    HW122739   0.225   3.429  11.385 -0.3756  0.1972  0.6097
 3702SOL    HW222740   0.077   3.411  11.383 -0.8036  0.2181 -2.0380
 3703SOL     OW22741   1.273   1.599  16.937  0.5719 -0.4286 -0.0580
 3703SOL    HW122742   1.181   1.624  16.941  0.5732 -0.2074 -1.2685
 3703SOL    HW222743   1.308   1.638  16.857  0.1609 -0.3836 -0.2114
 3704SOL     OW22744   0.938   1.087   7.279 -0.8574  0.9542 -0.5698
 3704SOL    HW122745   0.993   1.161   7.304 -0.7097  0.9543 -0.8984
 3704SOL    HW222746   0.871   1.097   7.347 -0.0893  0.7467  0.2040
 3705SOL     OW22747   2.864   1.675   0.351  0.1151 -0.6087  0.3462
 3705SOL    HW122748   2.786   1.620   0.338 -2.0563  2.3729  0.9018
 3705SOL    HW222749   2.854   1.749   0.292  1.0617 -1.7001 -1.1889
 3706SOL     OW22750   0.577   2.568   7.596  0.5678 -0.2557  0.5679
 3706SOL    HW122751   0.531   2.572   7.512  0.0041 -0.3116  0.8725
 3706SOL    HW222752   0.635   2.642   7.581  0.5201  0.3723  3.5048
 3707SOL     OW22753   1.569   0.591  11.879  0.7548  0.0045  0.1161
 3707SOL    HW122754   1.646   0.556  11.834  1.7639  0.6143  1.3567
 3707SOL    HW222755   1.571   0.537  11.958  0.0332 -1.3643 -0.7984
 3708SOL     OW22756   3.098   2.576   5.074 -0.0752  0.3646 -0.2534
 3708SOL    HW122757   3.057   2.566   4.988  2.3387 -0.3110 -1.3215
 3708SOL    HW222758   3.181   2.621   5.058  0.9318 -1.4086  0.0621
 3709SOL     OW22759   0.349   0.800   1.209  1.0471 -0.0945  0.2932
 3709SOL    HW122760   0.422   0.741   1.193 -0.3474 -1.2926 -1.6893
 3709SOL    HW222761   0.301   0.745   1.271 -0.2065  1.0747  0.3495
 3710SOL     OW22762   3.123   3.847  10.156  0.0870 -0.8561 -0.0474
 3710SOL    HW122763   3.072   3.911  10.106  1.8869  0.8117  0.2348
 3710SOL    HW222764   3.189   3.910  10.185 -0.9528 -0.7042  1.9793
 3711SOL     OW22765   3.152   0.995   4.850 -0.3321 -0.3347  0.6952
 3711SOL    HW122766   3.058   1.016   4.854 -0.7135 -2.1664  1.5579
 3711SOL    HW222767   3.173   1.030   4.764  0.4342 -0.0353  1.0103
 3712SOL     OW22768   0.456   3.564   8.377  0.1984  0.0226 -0.1102
 3712SOL    HW122769   0.384   3.532   8.430 -0.4361  0.3387 -0.7804
 3712SOL    HW222770   0.450   3.660   8.384 -1.7449 -0.2306  1.5633
 3713SOL     OW22771   3.816   0.467   6.129 -0.1027 -0.0958  0.0104
 3713SOL    HW122772   3.770   0.549   6.112 -0.1173 -0.2724 -0.7872
 3713SOL    HW222773   3.893   0.458   6.073 -0.1201  2.2565 -0.4175
 3714SOL     OW22774   3.735   2.130  11.224 -0.4996  0.8012  0.2584
 3714SOL    HW122775   3.728   2.110  11.130  2.6859 -1.4244  0.5012
 3714SOL    HW222776   3.826   2.122  11.252 -0.4319  0.8777  0.0610
 3715SOL     OW22777   2.136   4.616   6.945 -0.5701 -0.0079  0.0374
 3715SOL    HW122778   2.097   4.701   6.925  1.2313  0.6819 -0.5066
 3715SOL    HW222779   2.194   4.595   6.872  0.5089  1.2693  0.5242
 3716SOL     OW22780   2.429   3.312   3.180  0.3073  0.0953  0.0980
 3716SOL    HW122781   2.505   3.268   3.218  0.5284 -0.1115 -0.5707
 3716SOL    HW222782   2.419   3.376   3.251  1.2767  1.0677 -0.6244
 3717SOL     OW22783   3.481   2.137   3.401  0.0065  0.0690 -0.1228
 3717SOL    HW122784   3.494   2.226   3.368  1.2539 -0.8212 -2.0201
 3717SOL    HW222785   3.522   2.146   3.487 -0.3404 -0.2686  0.0785
 3718SOL     OW22786   4.495   0.073   2.800 -0.1197 -0.2385  0.2103
 3718SOL    HW122787   4.523   0.087   2.710  2.4598 -2.8680  0.5915
 3718SOL    HW222788   4.425   0.008   2.794  0.5695 -1.0390  0.6803
 3719SOL     OW22789   2.560   0.537   2.490  0.1666  0.4243  0.4631
 3719SOL    HW122790   2.632   0.586   2.530  0.1474  1.5510 -0.8725
 3719SOL    HW222791   2.566   0.447   2.521  2.0525 -1.5125 -5.5486
 3720SOL     OW22792   3.673   1.703   1.088  0.0753 -0.2169 -0.2122
 3720SOL    HW122793   3.692   1.612   1.110 -1.8365 -0.4480  0.4710
 3720SOL    HW222794   3.578   1.706   1.088  0.1021  0.7311  0.0779
 3721SOL     OW22795   0.868   2.477   3.588  0.1857  0.0057 -0.4053
 3721SOL    HW122796   0.918   2.559   3.589  1.3473 -0.7268  1.6122
 3721SOL    HW222797   0.795   2.499   3.645  0.3575  0.4264 -0.3452
 3722SOL     OW22798   4.420   3.724  12.803  0.1389 -0.9439 -0.1778
 3722SOL    HW122799   4.387   3.638  12.831 -1.3327 -0.2738  0.1534
 3722SOL    HW222800   4.506   3.693  12.775  0.5640 -0.1911  0.3059
 3723SOL     OW22801   3.358   2.222  17.338 -0.3606  0.3156 -0.0920
 3723SOL    HW122802   3.279   2.171  17.359 -1.3100  0.2706 -3.7241
 3723SOL    HW222803   3.329   2.305  17.376  1.2447  0.6918  0.3084
 3724SOL     OW22804   4.180   4.512   4.595 -0.5666 -0.4991 -0.5230
 3724SOL    HW122805   4.173   4.582   4.529  2.1737 -0.7367 -1.0359
 3724SOL    HW222806   4.095   4.468   4.590 -2.0502  2.6752 -3.6657
 3725SOL     OW22807   1.504   0.956   1.718 -0.2594  0.1371  0.1709
 3725SOL    HW122808   1.516   0.866   1.747 -0.6347  0.4493  1.3024
 3725SOL    HW222809   1.592   0.990   1.703 -1.1954  3.3996  1.9694
 3726SOL     OW22810   1.482   2.784   9.721  0.1665 -0.1386  0.0387
 3726SOL    HW122811   1.409   2.757   9.665  0.9523  1.9538 -2.0091
 3726SOL    HW222812   1.541   2.710   9.710 -1.6071 -1.3778 -1.1212
 3727SOL     OW22813   4.142   0.841  17.160  0.3929  0.0274 -0.2332
 3727SOL    HW122814   4.118   0.801  17.244  0.4940  2.3844  0.9293
 3727SOL    HW222815   4.112   0.773  17.101 -1.3683  0.9486 -0.3935
 3728SOL     OW22816   2.363   2.137   7.149 -0.4206  0.0347 -0.2300
 3728SOL    HW122817   2.415   2.070   7.105 -0.3773 -0.8187  1.0988
 3728SOL    HW222818   2.408   2.216   7.121 -1.5069  0.5624 -0.4740
 3729SOL     OW22819   2.651   3.781   2.048  0.1148 -0.0761 -0.3863
 3729SOL    HW122820   2.603   3.703   2.075  1.8009 -0.8431  0.3298
 3729SOL    HW222821   2.588   3.837   2.001  0.1047  0.2863  0.0616
 3730SOL     OW22822   3.686   2.504   7.994 -0.5212  0.3556 -0.3503
 3730SOL    HW122823   3.651   2.529   8.080 -2.4873  0.4226 -1.1763
 3730SOL    HW222824   3.613   2.460   7.950  0.0466 -0.8610 -0.0712
 3731SOL     OW22825   3.667   1.284  10.600 -0.0590  0.0491 -0.2603
 3731SOL    HW122826   3.708   1.370  10.611  1.9534 -1.2344  2.3459
 3731SOL    HW222827   3.715   1.249  10.525 -1.3592 -1.3007 -0.4799
 3732SOL     OW22828   1.808   2.648   4.823  0.5512 -0.2299 -0.1246
 3732SOL    HW122829   1.713   2.649   4.812  0.7845  1.0924 -1.8676
 3732SOL    HW222830   1.827   2.593   4.748  1.1721  0.7022 -0.6439
 3733SOL     OW22831   0.633   2.917   7.941  0.3523  0.4527  0.1674
 3733SOL    HW122832   0.715   2.901   7.989  0.1961  1.2465  0.7140
 3733SOL    HW222833   0.589   2.972   8.006 -2.8998 -1.8670 -0.0715
 3734SOL     OW22834   0.812   0.228   2.863 -0.3390  0.4107  0.0013
 3734SOL    HW122835   0.882   0.188   2.914  1.3476  1.2170 -1.6457
 3734SOL    HW222836   0.868   0.271   2.798  1.4556  0.9380  1.9068
 3735SOL     OW22837   4.637   2.583   4.947  0.4008  0.1666 -0.4286
 3735SOL    HW122838   4.684   2.544   5.020  3.4161  0.7383 -2.0373
 3735SOL    HW222839   4.547   2.552   4.957  0.2715  0.4741 -0.6355
 3736SOL     OW22840   1.486   3.640   5.889 -0.1306 -0.2058 -0.2858
 3736SOL    HW122841   1.544   3.570   5.921 -1.5346 -1.4467 -0.4655
 3736SOL    HW222842   1.418   3.629   5.955 -0.5860  3.1907 -0.2160
 3737SOL     OW22843   2.458   0.938   6.504  0.2190  0.5225  0.7659
 3737SOL    HW122844   2.515   0.924   6.428 -0.3979 -2.5915  0.8398
 3737SOL    HW222845   2.379   0.902   6.464  1.2911 -0.3673 -0.5846
 3738SOL     OW22846   2.022   3.541   7.786 -0.0251  0.3473 -0.4314
 3738SOL    HW122847   1.971   3.611   7.747  0.2921  1.5262  1.2502
 3738SOL    HW222848   2.057   3.487   7.716  1.5593 -0.3628  0.8905
 3739SOL     OW22849   0.403   1.059   2.089  0.3421 -0.4388  0.3969
 3739SOL    HW122850   0.342   1.128   2.117  0.6835  0.0687 -0.1111
 3739SOL    HW222851   0.451   1.035   2.168 -1.4638 -0.6576  1.4332
 3740SOL     OW22852   0.833   0.908   2.329  0.2034 -0.0668 -0.0731
 3740SOL    HW122853   0.858   0.835   2.272  1.1959  1.2574 -1.3524
 3740SOL    HW222854   0.887   0.895   2.407 -0.2224 -1.6866 -0.0383
 3741SOL     OW22855   2.877   4.374   2.415 -0.5927 -0.2164  0.1450
 3741SOL    HW122856   2.904   4.457   2.375  0.3330  0.1152  1.4427
 3741SOL    HW222857   2.964   4.340   2.437 -0.6982 -0.2562  0.5053
 3742SOL     OW22858   3.414   0.692  11.098  0.5083 -0.5557  0.2151
 3742SOL    HW122859   3.354   0.619  11.116 -2.5710  1.3855 -2.0836
 3742SOL    HW222860   3.354   0.765  11.080 -0.8143 -1.8236 -0.5503
 3743SOL     OW22861   2.275   0.534  13.994  0.1716 -0.5470 -0.2616
 3743SOL    HW122862   2.357   0.497  13.963 -0.6867 -2.2097 -0.5592
 3743SOL    HW222863   2.217   0.531  13.918  0.2734  1.8861 -0.4203
 3744SOL     OW22864   1.206   3.272   8.912  0.1709 -0.4950 -0.0281
 3744SOL    HW122865   1.130   3.215   8.922 -0.6143  0.9725  2.4952
 3744SOL    HW222866   1.270   3.206   8.887  1.6015  0.3830  1.3043
 3745SOL     OW22867   3.691   4.545   5.624 -0.1129  0.2463 -0.0614
 3745SOL    HW122868   3.628   4.483   5.662  2.1303 -2.0383 -0.0704
 3745SOL    HW222869   3.667   4.540   5.531 -3.0035  0.9531  0.6504
 3746SOL     OW22870   0.832   2.633   6.102  0.2464  0.1504  0.3966
 3746SOL    HW122871   0.911   2.581   6.090  0.5343 -0.1564  3.4555
 3746SOL    HW222872   0.769   2.588   6.047  0.5909 -0.5161  0.5380
 3747SOL     OW22873   0.707   2.380   2.108  0.0182 -0.1019 -0.0710
 3747SOL    HW122874   0.646   2.453   2.114  1.0822  0.7941 -0.2109
 3747SOL    HW222875   0.790   2.427   2.095 -0.9350  1.4478 -0.4811
 3748SOL     OW22876   1.054   0.175   8.305 -0.3380 -0.1103  0.6235
 3748SOL    HW122877   1.054   0.268   8.286 -1.7688  0.1813  1.9490
 3748SOL    HW222878   1.007   0.173   8.389  0.6911 -2.5285  1.1723
 3749SOL     OW22879   1.923   4.622  15.175 -0.1910 -0.0771  0.1943
 3749SOL    HW122880   1.881   4.551  15.127  0.8786  0.6076 -1.7583
 3749SOL    HW222881   1.852   4.678  15.208  0.8828  0.9988  0.6572
 3750SOL     OW22882   3.297   1.292   2.291  0.2441  0.1571  0.5840
 3750SOL    HW122883   3.204   1.302   2.311 -0.4538 -0.5609 -2.4241
 3750SOL    HW222884   3.297   1.336   2.206  1.3330 -2.0775 -0.5750
 3751SOL     OW22885   3.231   1.693  12.646 -0.5352  0.0214  0.3369
 3751SOL    HW122886   3.188   1.670  12.564 -0.5527  0.6637  0.1633
 3751SOL    HW222887   3.170   1.754  12.689 -2.0277 -1.9899  1.0589
 3752SOL     OW22888   0.250   0.680   8.001  0.3386 -0.0664 -0.3523
 3752SOL    HW122889   0.308   0.744   8.043 -1.4538  1.1353  0.2845
 3752SOL    HW222890   0.172   0.733   8.021  1.2101  0.2548  2.1572
 3753SOL     OW22891   2.304   3.211   4.132 -0.0728 -0.6117 -0.0616
 3753SOL    HW122892   2.329   3.296   4.097 -0.6942 -1.1914 -1.9109
 3753SOL    HW222893   2.209   3.212   4.127 -0.1780  0.5900  2.4225
 3754SOL     OW22894   2.154   2.989  13.569  0.0851 -0.3471  0.5475
 3754SOL    HW122895   2.185   3.065  13.519 -0.0197 -0.9856 -0.4826
 3754SOL    HW222896   2.076   3.024  13.611 -0.7705 -0.5105 -0.9010
 3755SOL     OW22897   1.659   2.413   4.994 -0.0226  0.0683 -0.0558
 3755SOL    HW122898   1.659   2.334   5.047 -0.9615  0.7040  0.8675
 3755SOL    HW222899   1.735   2.396   4.938 -0.6597 -2.8624 -0.0485
 3756SOL     OW22900   0.490   4.106  15.787  0.1835  0.2558  0.3578
 3756SOL    HW122901   0.451   4.113  15.700 -0.4424 -1.2503  0.5143
 3756SOL    HW222902   0.415   4.082  15.843  0.7387  0.6797  1.2908
 3757SOL     OW22903   3.060   3.348   7.727  0.0272  0.3902  0.2016
 3757SOL    HW122904   3.120   3.311   7.793  0.0738 -0.1205 -0.1280
 3757SOL    HW222905   3.122   3.392   7.669 -0.4217 -0.5343 -0.9703
 3758SOL     OW22906   3.540   0.147   5.148 -0.3297 -0.8247  0.0895
 3758SOL    HW122907   3.516   0.207   5.219  3.2496 -2.9546  3.0638
 3758SOL    HW222908   3.621   0.111   5.185  0.8020  1.2435 -0.3937
 3759SOL     OW22909   0.113   4.510   6.018 -0.1262 -0.1399 -0.0856
 3759SOL    HW122910   0.169   4.525   5.942 -0.2532  1.4015  0.1328
 3759SOL    HW222911   0.160   4.553   6.089  0.4411 -1.3501  0.2847
 3760SOL     OW22912   2.293   2.908   5.117 -0.6501 -0.0595  0.3242
 3760SOL    HW122913   2.343   2.950   5.046  1.3432 -2.6671  0.1740
 3760SOL    HW222914   2.348   2.911   5.196 -1.1650  2.0957  0.6099
 3761SOL     OW22915   4.652   4.647  11.196  0.1522 -0.8146  0.0820
 3761SOL    HW122916   4.567   4.617  11.226 -0.0264 -1.2201 -0.8202
 3761SOL    HW222917   4.673   4.594  11.119  1.1382 -1.7625  1.0040
 3762SOL     OW22918   4.488   0.842  15.892  0.3953  0.2728 -0.0539
 3762SOL    HW122919   4.517   0.795  15.970  2.2004 -1.8688 -2.0322
 3762SOL    HW222920   4.506   0.781  15.821  2.0529 -0.2396  0.8184
 3763SOL     OW22921   1.297   3.542  12.055 -0.4961  0.1596  0.1238
 3763SOL    HW122922   1.271   3.476  12.118  1.4844  0.6148  1.4073
 3763SOL    HW222923   1.371   3.585  12.099  1.0172 -0.4598 -1.8305
 3764SOL     OW22924   1.906   0.898   1.726  0.3088  0.4295 -0.1796
 3764SOL    HW122925   1.867   0.858   1.647 -0.2764 -1.3180  0.9986
 3764SOL    HW222926   1.875   0.989   1.722 -2.8908 -0.5731  2.2143
 3765SOL     OW22927   1.689   2.735   8.828 -0.2483 -0.7208 -0.4657
 3765SOL    HW122928   1.781   2.750   8.849 -0.4034  1.2223 -1.1209
 3765SOL    HW222929   1.677   2.653   8.876 -0.9457 -1.3424 -1.7156
 3766SOL     OW22930   3.946   3.748   9.372 -0.2545  0.6998  0.0669
 3766SOL    HW122931   3.939   3.817   9.439 -1.0945  0.8933 -0.2190
 3766SOL    HW222932   3.894   3.677   9.410 -1.0829 -0.2697 -2.8882
 3767SOL     OW22933   0.459   4.729   4.142  0.1116 -0.5273 -0.3550
 3767SOL    HW122934   0.489   0.078   4.177  0.3077 -0.3525 -0.9491
 3767SOL    HW222935   0.479   4.660   4.206  2.8316 -0.1275 -0.7868
 3768SOL     OW22936   3.899   4.112   8.654  0.4422 -0.7766 -0.2606
 3768SOL    HW122937   3.841   4.043   8.622  0.7100 -1.9736  1.7862
 3768SOL    HW222938   3.943   4.139   8.574  2.1452 -1.7141  0.3658
 3769SOL     OW22939   2.650   0.231  13.619  0.1309  0.2685 -0.1987
 3769SOL    HW122940   2.651   0.262  13.528 -0.7732 -0.4419 -0.4426
 3769SOL    HW222941   2.558   0.229  13.644  0.2586  0.1510  0.2605
 3770SOL     OW22942   0.896   4.087  17.423 -0.6423 -0.6547 -0.5958
 3770SOL    HW122943   0.977   4.061  17.379 -0.3035 -0.5871 -0.0080
 3770SOL    HW222944   0.894   4.181  17.409  0.9591 -0.9610 -2.8596
 3771SOL     OW22945   1.537   0.844  11.849  0.3061 -0.2791  0.3331
 3771SOL    HW122946   1.540   0.749  11.865 -0.8969 -0.3083  0.3828
 3771SOL    HW222947   1.622   0.867  11.887 -0.4792 -0.0926  2.0035
 3772SOL     OW22948   2.920   0.410  10.635  0.0895  0.1819  0.1778
 3772SOL    HW122949   2.969   0.337  10.674 -1.4371 -0.1939  1.3933
 3772SOL    HW222950   2.998   0.463  10.617  0.3889 -1.2398 -2.6137
 3773SOL     OW22951   3.400   4.322   8.464  0.5403  0.2317 -0.1460
 3773SOL    HW122952   3.439   4.410   8.463  0.1416  0.4202  0.9844
 3773SOL    HW222953   3.312   4.341   8.497  0.3167  0.3067 -0.7850
 3774SOL     OW22954   1.816   2.032   1.885  0.3204  0.0945 -0.2290
 3774SOL    HW122955   1.733   2.026   1.839  0.5615  1.0562 -0.7953
 3774SOL    HW222956   1.868   2.043   1.805 -2.0266  1.8652 -1.4974
 3775SOL     OW22957   0.889   1.544  15.121 -0.1607 -0.6168 -0.0413
 3775SOL    HW122958   0.887   1.624  15.174 -0.9727 -0.8257  0.2459
 3775SOL    HW222959   0.803   1.521  15.087  0.5205 -1.0283 -1.4576
 3776SOL     OW22960   3.328   2.982   5.274  0.3560  0.2013  0.1230
 3776SOL    HW122961   3.277   2.978   5.193  1.3016 -1.8126 -0.3649
 3776SOL    HW222962   3.285   3.053   5.322  1.4094 -0.4955  2.0927
 3777SOL     OW22963   4.367   0.176  13.650  0.2432  0.9431 -0.5811
 3777SOL    HW122964   4.325   0.144  13.730 -0.9668  0.9393 -1.2185
 3777SOL    HW222965   4.461   0.186  13.667  0.9823 -0.0984 -3.9556
 3778SOL     OW22966   2.527   2.898   6.844 -0.1719 -0.3509  0.0253
 3778SOL    HW122967   2.433   2.891   6.829 -0.2513  1.6948 -0.4622
 3778SOL    HW222968   2.534   2.992   6.862 -0.2574 -0.4905  0.8307
 3779SOL     OW22969   3.554   4.686   0.567  0.4283  0.0793  0.4145
 3779SOL    HW122970   3.592   4.700   0.480  1.0101 -0.7100  0.5382
 3779SOL    HW222971   3.626   4.705   0.627  0.7599 -0.3755  0.1637
 3780SOL     OW22972   3.216   3.413   4.428  0.1124  0.2302 -0.0365
 3780SOL    HW122973   3.271   3.339   4.456 -1.8950 -1.0085  0.6090
 3780SOL    HW222974   3.132   3.382   4.462  1.0726 -2.1910  0.1188
 3781SOL     OW22975   2.923   3.205   7.222 -0.1136 -0.6379  0.1887
 3781SOL    HW122976   2.854   3.236   7.281 -0.8902 -1.1520 -0.4509
 3781SOL    HW222977   2.983   3.168   7.287  0.5837  1.9687  1.0272
 3782SOL     OW22978   2.311   1.793   8.172  0.0367 -0.1559  0.0449
 3782SOL    HW122979   2.351   1.708   8.191 -0.2705 -0.6005 -1.3209
 3782SOL    HW222980   2.229   1.756   8.139 -0.7967  1.2422  0.5274
 3783SOL     OW22981   2.544   2.188   6.049 -0.3565  0.0257 -0.2692
 3783SOL    HW122982   2.618   2.145   6.006 -0.6262 -0.9552  0.2619
 3783SOL    HW222983   2.590   2.225   6.123  0.6870  2.4553 -2.1407
 3784SOL     OW22984   1.498   2.027  10.890 -0.3939  0.3101 -0.6271
 3784SOL    HW122985   1.548   1.945  10.885 -1.1412 -0.1924  0.2695
 3784SOL    HW222986   1.485   2.031  10.985 -0.7718  1.9206 -0.7451
 3785SOL     OW22987   2.080   1.189   6.440 -0.7252  0.6518 -0.2961
 3785SOL    HW122988   2.090   1.160   6.530  1.5729 -0.6631 -0.9721
 3785SOL    HW222989   2.022   1.116   6.417 -1.6366  1.2913 -0.0220
 3786SOL     OW22990   3.936   0.393   0.944 -0.0530 -0.0285  0.1121
 3786SOL    HW122991   3.950   0.299   0.937 -1.0780 -0.1911  0.1322
 3786SOL    HW222992   4.001   0.401   1.014 -2.3216  0.5274  2.1581
 3787SOL     OW22993   1.237   3.054   7.883 -0.2776  0.2658 -0.2216
 3787SOL    HW122994   1.219   3.147   7.896  0.1816  0.4267 -0.7638
 3787SOL    HW222995   1.223   3.024   7.973 -1.1193  1.2506 -0.0311
 3788SOL     OW22996   1.239   0.192   7.552 -0.1717  0.5243 -0.2354
 3788SOL    HW122997   1.297   0.125   7.517 -0.4461 -0.6301  1.4952
 3788SOL    HW222998   1.203   0.153   7.632  1.2251 -0.4729 -0.0982
 3789SOL     OW22999   3.197   3.643  15.510  0.5581  0.5522  0.3459
 3789SOL    HW123000   3.177   3.660  15.418 -0.2945  1.4713  0.7027
 3789SOL    HW223001   3.121   3.587  15.523  0.5152  0.5767  0.2053
 3790SOL     OW23002   1.335   3.066   0.043 -0.2470  0.7503 -0.4876
 3790SOL    HW123003   1.348   2.971   0.050  0.0417  0.7380 -1.2128
 3790SOL    HW223004   1.301   3.085   0.130  0.3327  1.7596 -0.4892
 3791SOL     OW23005   3.129   1.345   9.302  0.3642 -0.2797 -0.0165
 3791SOL    HW123006   3.215   1.333   9.343  0.7170 -1.0091 -0.9872
 3791SOL    HW223007   3.120   1.265   9.252 -1.0926 -0.0374 -0.1615
 3792SOL     OW23008   0.941   4.058  16.744  0.0551 -0.0590 -0.1183
 3792SOL    HW123009   0.929   3.975  16.698 -0.1496 -0.7705  1.2072
 3792SOL    HW223010   0.884   4.062  16.821 -0.6929  1.9386 -0.7633
 3793SOL     OW23011   3.652   2.585   3.766 -0.3308  0.4250  0.4416
 3793SOL    HW123012   3.620   2.547   3.684 -0.9744 -0.2666  1.0073
 3793SOL    HW223013   3.660   2.506   3.820  1.2054 -0.3017 -0.8560
 3794SOL     OW23014   3.090   3.550   7.335 -0.3745 -0.2058  0.7005
 3794SOL    HW123015   3.148   3.496   7.282 -2.9651 -1.0559 -1.2655
 3794SOL    HW223016   3.137   3.541   7.418  0.5349 -0.6374  0.1403
 3795SOL     OW23017   4.339   0.586   8.739 -0.4260 -0.1036 -0.6063
 3795SOL    HW123018   4.304   0.528   8.807  0.1662 -1.2577 -1.2871
 3795SOL    HW223019   4.416   0.535   8.713 -0.0945  0.2389 -0.2955
 3796SOL     OW23020   3.107   1.800   4.947 -0.5368 -0.3023  0.1946
 3796SOL    HW123021   3.107   1.810   4.851 -1.1575 -2.1615 -0.0028
 3796SOL    HW223022   3.137   1.888   4.969 -0.2455 -0.3388 -0.0401
 3797SOL     OW23023   3.743   3.990   9.286  0.0678  0.2172 -0.1136
 3797SOL    HW123024   3.678   4.060   9.284 -1.9047 -1.5334  1.8936
 3797SOL    HW223025   3.689   3.912   9.304  1.8791 -1.4462 -1.9842
 3798SOL     OW23026   3.016   1.579   0.581  0.6142 -0.2096 -0.5582
 3798SOL    HW123027   3.002   1.605   0.490  0.4870 -1.2396 -0.8369
 3798SOL    HW223028   3.098   1.529   0.580 -1.0872 -3.0200  0.2814
 3799SOL     OW23029   4.004   4.451   7.599 -0.2851 -0.0824 -0.2304
 3799SOL    HW123030   4.074   4.511   7.624  0.0754 -0.4803 -0.2997
 3799SOL    HW223031   4.016   4.448   7.504  4.3294  1.0717  0.3513
 3800SOL     OW23032   2.015   0.777   8.230 -0.3681  0.0463 -0.6187
 3800SOL    HW123033   2.035   0.687   8.206 -1.0155 -0.3614  0.3664
 3800SOL    HW223034   2.052   0.784   8.318  3.5541 -2.6424 -2.0379
 3801SOL     OW23035   3.003   2.636   5.325 -0.0123  0.1844  0.4069
 3801SOL    HW123036   3.081   2.663   5.373  0.3288  0.9843 -0.5798
 3801SOL    HW223037   3.043   2.584   5.255  1.6445  1.5622  0.3125
 3802SOL     OW23038   2.193   4.008  13.369  0.2941 -0.4106  0.1807
 3802SOL    HW123039   2.205   3.914  13.354 -1.3534 -0.3711 -1.3685
 3802SOL    HW223040   2.214   4.039  13.281  0.0426 -0.9531 -0.0715
 3803SOL     OW23041   2.907   0.596   3.232  0.2280 -0.0881 -0.3171
 3803SOL    HW123042   2.815   0.593   3.257  0.7998 -2.3803  1.5297
 3803SOL    HW223043   2.927   0.513   3.275 -0.8530  1.0873  2.4019
 3804SOL     OW23044   1.676   4.309   5.571 -0.1662  0.2670 -0.4107
 3804SOL    HW123045   1.647   4.252   5.500  0.0788 -0.5641  0.1473
 3804SOL    HW223046   1.620   4.268   5.637 -0.5706  0.0811 -0.8777
 3805SOL     OW23047   4.342   0.234   8.429 -0.3099 -0.1801  0.6474
 3805SOL    HW123048   4.351   0.256   8.336 -0.2038 -2.0575  0.2288
 3805SOL    HW223049   4.262   0.184   8.413  0.1726 -0.3445 -1.1301
 3806SOL     OW23050   0.026   2.958   2.844  0.4923  0.4594 -0.3953
 3806SOL    HW123051   0.092   3.011   2.889 -1.0212  1.6141  0.4406
 3806SOL    HW223052   4.679   2.985   2.888 -0.1975 -3.1338  0.5179
 3807SOL     OW23053   2.757   0.008   3.483  0.0292 -0.3554  0.0774
 3807SOL    HW123054   2.730   0.065   3.411 -3.0193 -1.8951 -0.0071
 3807SOL    HW223055   2.852   0.002   3.472  0.2251 -0.0968  1.6047
 3808SOL     OW23056   1.446   1.680   7.676 -0.1421  0.1680 -0.2595
 3808SOL    HW123057   1.445   1.646   7.586 -0.2390 -0.2259 -0.1099
 3808SOL    HW223058   1.518   1.743   7.675 -0.5691  0.6546 -0.3319
 3809SOL     OW23059   4.419   1.572   9.847  0.3330  0.3522  0.3384
 3809SOL    HW123060   4.399   1.665   9.842 -1.2998  0.0183  0.4312
 3809SOL    HW223061   4.488   1.580   9.912 -0.5195  0.2731  1.2572
 3810SOL     OW23062   2.481   2.645   1.515 -0.1201 -0.2257  0.2831
 3810SOL    HW123063   2.485   2.700   1.438  1.4082  1.8627  1.8450
 3810SOL    HW223064   2.529   2.564   1.498 -0.8506 -0.1080 -2.2633
 3811SOL     OW23065   0.511   1.155   9.967 -0.9005 -0.1768  0.3835
 3811SOL    HW123066   0.426   1.167  10.009 -0.5455  0.9435  0.7794
 3811SOL    HW223067   0.543   1.243   9.949 -1.3044 -0.2253 -0.5463
 3812SOL     OW23068   2.534   2.436   3.902  0.1088  0.5463  0.6432
 3812SOL    HW123069   2.502   2.382   3.975 -0.0221 -0.3171 -0.0573
 3812SOL    HW223070   2.458   2.491   3.882 -0.3969  0.0248  1.1168
 3813SOL     OW23071   2.192   1.244   7.786 -0.0166  0.8363  0.1540
 3813SOL    HW123072   2.113   1.269   7.834 -0.5510  2.2473 -1.4425
 3813SOL    HW223073   2.189   1.151   7.807 -1.2531  1.4328  2.5866
 3814SOL     OW23074   1.121   4.091  14.186 -0.4143  0.4762 -0.2240
 3814SOL    HW123075   1.086   4.006  14.164 -1.2271  0.9313 -0.6760
 3814SOL    HW223076   1.155   4.079  14.275 -1.3490  2.8340  0.4503
 3815SOL     OW23077   0.710   3.681   3.460  0.1361 -0.2197  0.1887
 3815SOL    HW123078   0.659   3.760   3.477  0.6187  0.0228  0.5351
 3815SOL    HW223079   0.800   3.704   3.486  0.2670 -0.6222  0.1016
 3816SOL     OW23080   0.290   0.697  15.029 -0.0939  0.3329  0.0648
 3816SOL    HW123081   0.199   0.671  15.044 -0.2139  0.4899 -0.3844
 3816SOL    HW223082   0.333   0.614  15.050  1.9026  1.6446  1.2287
 3817SOL     OW23083   0.813   1.449   7.226 -0.5246 -0.4808  0.0319
 3817SOL    HW123084   0.898   1.492   7.237  0.1428 -1.5955 -0.7811
 3817SOL    HW223085   0.827   1.398   7.146 -0.7899  0.7416 -0.7969
 3818SOL     OW23086   0.904   4.406  16.784  0.2066 -0.5972  0.3217
 3818SOL    HW123087   0.984   4.353  16.786  1.2077  0.9000  0.5823
 3818SOL    HW223088   0.837   4.355  16.830  0.2342 -1.7150 -0.9069
 3819SOL     OW23089   1.446   2.317  13.852  0.2021  0.5083 -0.0067
 3819SOL    HW123090   1.515   2.294  13.790  0.0320  0.7996 -0.3053
 3819SOL    HW223091   1.400   2.381  13.799 -0.5219  0.3111  0.3840
 3820SOL     OW23092   0.710   2.734  11.481 -0.1037  0.0648 -0.3597
 3820SOL    HW123093   0.766   2.717  11.405  1.9926  0.7758  1.0483
 3820SOL    HW223094   0.745   2.671  11.544  3.4966  0.7231 -1.7331
 3821SOL     OW23095   1.898   2.702   0.591  0.5934  0.7021 -0.1133
 3821SOL    HW123096   1.824   2.763   0.587  1.1253  1.2374 -1.8450
 3821SOL    HW223097   1.869   2.645   0.519  2.2289  2.2156 -1.9664
 3822SOL     OW23098   4.414   2.299   2.049  0.5328  0.3769 -0.1526
 3822SOL    HW123099   4.455   2.371   2.097  1.4161 -0.3510  0.1803
 3822SOL    HW223100   4.330   2.333   2.019 -0.8516 -0.7719  2.4264
 3823SOL     OW23101   1.563   4.550   4.344  0.2028 -0.6389 -0.2095
 3823SOL    HW123102   1.475   4.541   4.308  0.5819  0.6695 -1.4294
 3823SOL    HW223103   1.609   4.587   4.269 -0.3449 -0.5105 -0.4831
 3824SOL     OW23104   1.157   1.604   4.782 -0.1714 -0.5040 -0.4074
 3824SOL    HW123105   1.123   1.661   4.851 -0.7557 -1.0073 -0.2744
 3824SOL    HW223106   1.102   1.621   4.705  0.6842 -0.0217 -0.9167
 3825SOL     OW23107   3.938   0.857   9.573  0.3736  0.1764  0.4378
 3825SOL    HW123108   3.949   0.936   9.520  2.3509 -0.8978 -0.7512
 3825SOL    HW223109   3.945   0.787   9.508 -0.1068 -0.7747  1.4107
 3826SOL     OW23110   3.766   0.913   2.745  1.0836  0.1154 -0.0894
 3826SOL    HW123111   3.791   0.993   2.792  3.9420 -1.4858  1.0848
 3826SOL    HW223112   3.791   0.845   2.807  0.2911 -0.2112 -0.1223
 3827SOL     OW23113   0.375   2.367   1.785 -0.2422 -0.1185 -0.3611
 3827SOL    HW123114   0.463   2.353   1.821 -0.0719  1.2312 -0.2520
 3827SOL    HW223115   0.321   2.360   1.864  2.2213  2.4185  1.5449
 3828SOL     OW23116   3.604   2.810   0.122 -0.5097  0.1894 -0.2900
 3828SOL    HW123117   3.661   2.805   0.045 -0.8803 -4.0079 -0.2553
 3828SOL    HW223118   3.591   2.905   0.129 -0.5453  0.2924 -1.7713
 3829SOL     OW23119   1.862   2.494  11.134  0.2261 -0.0713 -0.1747
 3829SOL    HW123120   1.767   2.482  11.129  0.4348 -2.4437  1.6940
 3829SOL    HW223121   1.892   2.480  11.044  0.5675 -0.8588  0.0599
 3830SOL     OW23122   1.226   4.622  14.317  0.3930  0.5067  0.3392
 3830SOL    HW123123   1.236   4.530  14.293  0.4597  0.0355  2.1720
 3830SOL    HW223124   1.146   4.624  14.369  0.4559  2.2391  0.3607
 3831SOL     OW23125   2.148   2.500  15.038  0.1468  0.0309  0.3116
 3831SOL    HW123126   2.172   2.504  15.131 -0.7165 -0.1438  0.5474
 3831SOL    HW223127   2.089   2.575  15.031 -1.5528 -1.3157  0.0019
 3832SOL     OW23128   3.468   4.432  11.594 -0.8264 -0.0820 -0.3920
 3832SOL    HW123129   3.526   4.434  11.518 -0.2003  0.4018  0.0961
 3832SOL    HW223130   3.523   4.419  11.671 -1.2964 -0.5214 -0.1319
 3833SOL     OW23131   1.090   0.608  15.163 -0.7050  0.0617  0.0972
 3833SOL    HW123132   1.156   0.611  15.232  0.0212  1.5213 -0.6456
 3833SOL    HW223133   1.010   0.597  15.214 -0.6823  0.2332  0.1702
 3834SOL     OW23134   3.734   4.564   6.961 -0.5974  0.0332  0.0660
 3834SOL    HW123135   3.692   4.641   6.923 -1.5943  0.0761  1.2341
 3834SOL    HW223136   3.670   4.495   6.942  0.6255 -1.3214  0.8971
 3835SOL     OW23137   2.392   3.935   2.455 -0.0384 -0.1453  0.4786
 3835SOL    HW123138   2.338   3.886   2.517 -0.7004 -0.2548 -0.1856
 3835SOL    HW223139   2.349   3.935   2.369 -0.1099  0.8463  0.5142
 3836SOL     OW23140   4.059   3.283   2.340 -0.1221 -0.6289  0.5247
 3836SOL    HW123141   4.043   3.316   2.428  0.7560  0.7656  0.1578
 3836SOL    HW223142   3.978   3.303   2.293  1.1442  0.2397 -1.2887
 3837SOL     OW23143   0.197   0.005   0.157 -0.0900  0.2556 -0.1543
 3837SOL    HW123144   0.214   0.047   0.074 -0.0296 -0.5116 -0.5351
 3837SOL    HW223145   0.267   4.673   0.157 -1.0210 -0.7429 -0.2815
 3838SOL     OW23146   2.485   0.661  13.423 -0.2990 -0.4206 -0.2903
 3838SOL    HW123147   2.467   0.711  13.503 -0.0878  0.8137 -1.0225
 3838SOL    HW223148   2.547   0.721  13.382 -0.0452  0.1003  0.8431
 3839SOL     OW23149   2.386   2.760   3.556 -0.1236  0.2949 -0.2164
 3839SOL    HW123150   2.371   2.822   3.628  1.7157  2.1389 -1.4276
 3839SOL    HW223151   2.480   2.744   3.563  0.1944  2.4317  0.3126
 3840SOL     OW23152   1.166   4.594   1.602 -0.3041  0.0436 -0.7402
 3840SOL    HW123153   1.132   4.517   1.557 -1.3311 -0.3402  0.6938
 3840SOL    HW223154   1.208   4.644   1.532  1.3046 -0.2260  0.0159
 3841SOL     OW23155   2.042   4.007   2.543  0.2052  0.3854 -0.3080
 3841SOL    HW123156   2.099   4.056   2.484  0.7450 -0.7336 -0.7281
 3841SOL    HW223157   1.962   4.057   2.533 -0.1338  0.0291  0.6420
 3842SOL     OW23158   4.536   1.787   7.766 -0.1329  0.0995 -0.0246
 3842SOL    HW123159   4.572   1.735   7.694  0.8546  0.8654 -0.0842
 3842SOL    HW223160   4.587   1.741   7.833  0.0087  0.6644  0.2528
 3843SOL     OW23161   0.815   0.099  10.960 -0.2390 -0.7676 -0.0743
 3843SOL    HW123162   0.811   0.125  11.052  4.9248 -0.6708  0.1224
 3843SOL    HW223163   0.767   0.017  10.949 -1.2628 -0.5058  2.2897
 3844SOL     OW23164   3.334   1.659  11.343 -0.3353 -0.7072 -0.8423
 3844SOL    HW123165   3.425   1.628  11.334  0.2778  0.1305  2.3080
 3844SOL    HW223166   3.297   1.618  11.421 -0.2061  1.4716  0.3461
 3845SOL     OW23167   4.116   0.050   3.811 -0.0628  0.0899  0.1418
 3845SOL    HW123168   4.042   4.724   3.810 -1.5133  1.8485  1.2719
 3845SOL    HW223169   4.166   0.027   3.890  0.0727  1.4404  0.4445
 3846SOL     OW23170   4.624   0.633   0.422  0.0905 -0.3146  0.0759
 3846SOL    HW123171   4.544   0.685   0.428  0.0114 -0.3371 -0.7783
 3846SOL    HW223172   4.590   0.569   0.483  1.4168 -2.6372 -1.5995
 3847SOL     OW23173   1.793   2.224   6.294  0.1308  0.7784  0.1774
 3847SOL    HW123174   1.816   2.238   6.386 -0.6669  2.4051  0.1334
 3847SOL    HW223175   1.856   2.281   6.251  0.3198 -0.4063 -1.1248
 3848SOL     OW23176   3.630   0.108  13.188 -0.2163  0.1806 -0.0193
 3848SOL    HW123177   3.696   0.061  13.138  1.5941  1.8137  0.8506
 3848SOL    HW223178   3.570   0.038  13.213  1.5927 -0.7231  1.8012
 3849SOL     OW23179   0.757   4.250   3.066  0.3925  0.2136  0.0490
 3849SOL    HW123180   0.837   4.240   3.014 -0.8284  0.1043 -1.8461
 3849SOL    HW223181   0.703   4.173   3.050  0.9621 -0.4147  1.2014
 3850SOL     OW23182   2.657   3.030   5.892 -0.0811  0.4818  0.1080
 3850SOL    HW123183   2.657   3.126   5.895  0.6501  0.4409  1.5474
 3850SOL    HW223184   2.606   3.015   5.971 -1.8143 -0.1817 -1.1473
 3851SOL     OW23185   3.751   3.992   0.438 -0.0796  0.2543 -0.0820
 3851SOL    HW123186   3.707   3.974   0.355  0.9862 -2.6479 -0.0269
 3851SOL    HW223187   3.674   4.005   0.492  1.7592  0.6649  2.4549
 3852SOL     OW23188   2.695   1.340   5.439  0.0625  0.1329  0.3548
 3852SOL    HW123189   2.736   1.371   5.520 -3.3946  0.2521  2.0616
 3852SOL    HW223190   2.719   1.249   5.425  2.2162  0.2918  2.9664
 3853SOL     OW23191   4.510   2.501  14.255 -0.3042  0.5721  0.5384
 3853SOL    HW123192   4.546   2.422  14.296 -1.4437 -1.3315 -2.1403
 3853SOL    HW223193   4.484   2.554  14.329  1.6627  2.0168  0.1768
 3854SOL     OW23194   1.414   4.605   8.807 -0.3914 -0.2425 -0.4116
 3854SOL    HW123195   1.359   4.639   8.736  1.6465  1.9694 -0.9062
 3854SOL    HW223196   1.494   4.581   8.760  1.6491  1.5836  2.1508
 3855SOL     OW23197   0.274   1.603   6.771 -0.0385 -0.3559 -0.3563
 3855SOL    HW123198   0.272   1.591   6.866  4.4060 -2.6371 -0.5288
 3855SOL    HW223199   0.348   1.663   6.765  0.7629 -1.2191  0.8320
 3856SOL     OW23200   3.562   0.705  13.310 -0.0107  0.2201  0.6000
 3856SOL    HW123201   3.625   0.752  13.366 -0.5702  2.3608 -0.5694
 3856SOL    HW223202   3.488   0.701  13.370  0.9152  2.2752  1.8983
 3857SOL     OW23203   4.516   0.704  12.361 -0.2811 -0.0856 -0.1778
 3857SOL    HW123204   4.502   0.774  12.425 -0.1568 -0.5696  0.3742
 3857SOL    HW223205   4.453   0.734  12.295 -1.5826  0.1109  1.1465
 3858SOL     OW23206   1.858   3.571  15.360 -0.6211  0.3583 -0.1382
 3858SOL    HW123207   1.907   3.648  15.332 -2.9939  1.0112 -2.4747
 3858SOL    HW223208   1.825   3.538  15.277  0.4052  0.3125 -0.5310
 3859SOL     OW23209   1.874   0.550  17.280 -0.5123 -0.8202 -0.6119
 3859SOL    HW123210   1.943   0.591  17.228  1.7922 -0.9679  2.3087
 3859SOL    HW223211   1.815   0.625  17.277  1.7088  1.0100  1.0514
 3860SOL     OW23212   0.801   4.260   4.405  0.2398 -0.3067  0.3448
 3860SOL    HW123213   0.871   4.279   4.342 -0.6211  1.1541 -0.1823
 3860SOL    HW223214   0.750   4.197   4.354  0.5556  0.9409 -1.5502
 3861SOL     OW23215   3.654   0.165   9.610 -0.0100  0.3099  0.2168
 3861SOL    HW123216   3.718   0.103   9.576 -0.3832  0.5243 -0.8882
 3861SOL    HW223217   3.697   0.210   9.682 -0.1605  1.1072 -0.1865
 3862SOL     OW23218   4.083   4.539   8.431 -0.7861  0.1013 -0.4793
 3862SOL    HW123219   4.155   4.544   8.368  0.8523 -0.0022  1.4027
 3862SOL    HW223220   4.035   4.460   8.407 -0.5233  0.0278 -0.7612
 3863SOL     OW23221   4.391   3.771   8.839 -0.0765  0.0086  0.3935
 3863SOL    HW123222   4.437   3.694   8.806  0.7471  1.1047 -1.0167
 3863SOL    HW223223   4.458   3.835   8.820 -0.6211  0.9461  1.6263
 3864SOL     OW23224   1.343   3.941   4.304  0.0726 -0.3107 -0.6110
 3864SOL    HW123225   1.402   3.974   4.236  0.0619  1.2770  0.1578
 3864SOL    HW223226   1.262   3.986   4.280 -0.0878 -0.8896 -1.1577
 3865SOL     OW23227   3.166   0.647  16.084 -0.3797 -0.3117  0.1286
 3865SOL    HW123228   3.246   0.683  16.122  0.6301 -0.6678 -1.6690
 3865SOL    HW223229   3.143   0.584  16.152 -3.2514  0.2672 -0.3038
 3866SOL     OW23230   0.416   0.761   4.235 -0.9776  0.3063  1.0003
 3866SOL    HW123231   0.413   0.811   4.154 -0.4642 -3.0688 -1.0969
 3866SOL    HW223232   0.424   0.822   4.308  0.0456  1.3076  0.0384
 3867SOL     OW23233   0.244   4.183   5.429 -0.5444  0.3914  0.7402
 3867SOL    HW123234   0.303   4.108   5.424 -1.9910 -0.5924 -1.5171
 3867SOL    HW223235   0.278   4.247   5.366 -3.2151 -0.7482 -1.8794
 3868SOL     OW23236   1.260   2.753   7.972  0.0699  0.2218 -0.0118
 3868SOL    HW123237   1.169   2.763   7.943 -0.2961 -0.5899  0.8500
 3868SOL    HW223238   1.236   2.693   8.042  1.0117  0.9860  0.9615
 3869SOL     OW23239   0.314   4.210   4.405  0.3901 -0.2964  0.7590
 3869SOL    HW123240   0.241   4.172   4.454 -1.0302  2.0943  0.4864
 3869SOL    HW223241   0.280   4.287   4.360  2.3008  0.2566  0.2806
 3870SOL     OW23242   1.279   3.836   3.836 -0.4205  0.4942  0.6003
 3870SOL    HW123243   1.207   3.809   3.893  1.1269  0.6534  2.6288
 3870SOL    HW223244   1.282   3.930   3.853 -0.1369  0.6266 -0.1869
 3871SOL     OW23245   0.986   0.668   6.931  0.2637 -0.4933 -0.1325
 3871SOL    HW123246   1.047   0.733   6.897  0.2220  0.2923  1.2833
 3871SOL    HW223247   0.965   0.710   7.014 -0.6588 -0.2172 -0.5000
 3872SOL     OW23248   2.534   3.426   9.244  0.1239 -0.3169  0.0797
 3872SOL    HW123249   2.463   3.392   9.189 -0.6532  0.6546  0.4861
 3872SOL    HW223250   2.507   3.518   9.236  0.2429 -0.2666  0.2694
 3873SOL     OW23251   3.763   0.512   2.454 -0.2987  0.0314 -0.0660
 3873SOL    HW123252   3.737   0.601   2.478  0.9967  0.0601  1.2265
 3873SOL    HW223253   3.754   0.500   2.360  2.6474  5.5366 -1.0251
 3874SOL     OW23254   2.070   3.787   7.466 -0.4030  0.1040 -0.4920
 3874SOL    HW123255   2.164   3.797   7.479 -0.4534  1.1605 -0.9246
 3874SOL    HW223256   2.060   3.714   7.406  1.3663  1.6563 -2.6607
 3875SOL     OW23257   4.704   4.404   2.144  0.2530  0.1508 -0.0241
 3875SOL    HW123258   4.730   4.417   2.236 -2.0624  2.8044  0.2500
 3875SOL    HW223259   4.680   4.492   2.113  3.6661  0.3261 -2.1986
 3876SOL     OW23260   1.559   1.767  12.936  0.0713  0.1097  0.0384
 3876SOL    HW123261   1.554   1.695  12.873  1.9365 -1.7194  1.9748
 3876SOL    HW223262   1.468   1.794  12.936 -0.3354 -1.2583  0.2870
 3877SOL     OW23263   0.667   0.783   6.037 -0.3002 -0.5966  0.2278
 3877SOL    HW123264   0.628   0.865   6.005  0.7012  0.7142  2.3722
 3877SOL    HW223265   0.712   0.759   5.956  2.1403  0.5630  1.2316
 3878SOL     OW23266   2.960   3.768   3.804 -0.1035 -0.2271  0.3170
 3878SOL    HW123267   2.874   3.730   3.784 -0.4062  0.9226 -0.5875
 3878SOL    HW223268   2.936   3.822   3.880  1.6338  1.8988 -0.6523
 3879SOL     OW23269   3.617   2.031   7.057 -0.1886 -0.0308  0.1522
 3879SOL    HW123270   3.658   2.116   7.071  1.4265 -0.8860  0.7502
 3879SOL    HW223271   3.530   2.069   7.053 -0.5887 -0.7489  2.2045
 3880SOL     OW23272   3.008   2.383  17.212  0.3565  0.2929  0.2597
 3880SOL    HW123273   3.058   2.435  17.275 -0.1329  3.9594 -2.3553
 3880SOL    HW223274   2.922   2.421  17.232 -0.0773 -0.9424  0.7327
 3881SOL     OW23275   2.396   1.503   5.934  0.6360  0.0457  0.1295
 3881SOL    HW123276   2.370   1.573   5.875 -0.2835  0.5544  1.1207
 3881SOL    HW223277   2.347   1.427   5.901  1.3159  0.4388 -1.7529
 3882SOL     OW23278   1.180   0.261   9.564  0.3659 -0.3926  0.5553
 3882SOL    HW123279   1.144   0.347   9.588  0.6123 -0.5227  1.3785
 3882SOL    HW223280   1.253   0.248   9.624  0.8433  0.2011  0.1032
 3883SOL     OW23281   2.246   1.440   3.570 -0.5794 -0.1669 -0.1454
 3883SOL    HW123282   2.244   1.389   3.489 -1.6411 -1.2755  0.5954
 3883SOL    HW223283   2.304   1.386   3.624 -1.3097  0.3565  1.1383
 3884SOL     OW23284   3.514   4.635   4.821 -0.2909  0.4579  0.2541
 3884SOL    HW123285   3.419   4.621   4.831 -0.5809  0.1367 -3.0944
 3884SOL    HW223286   3.533   4.545   4.794  1.0137  0.7945  0.0820
 3885SOL     OW23287   4.246   1.315   5.546 -0.0101  0.4132  0.3329
 3885SOL    HW123288   4.321   1.342   5.493  0.6085 -0.6575  0.6627
 3885SOL    HW223289   4.262   1.361   5.628 -1.4702 -0.6078  1.2072
 3886SOL     OW23290   4.382   2.200   6.022 -0.0987 -0.0715  0.0796
 3886SOL    HW123291   4.473   2.198   5.992 -0.3916  0.9438 -0.9063
 3886SOL    HW223292   4.366   2.107   6.034 -1.0699 -0.0514 -1.1235
 3887SOL     OW23293   4.029   2.414   2.849  0.3295  0.4213  0.3395
 3887SOL    HW123294   4.067   2.477   2.788 -1.5228 -0.7281 -1.9953
 3887SOL    HW223295   4.038   2.339   2.790 -0.8534 -0.3833  1.1742
 3888SOL     OW23296   0.033   3.062   4.572  0.2773  0.0264  0.5969
 3888SOL    HW123297   0.047   3.131   4.637  0.2462  1.6270 -1.0781
 3888SOL    HW223298   4.686   3.024   4.607  0.0046  1.4753  1.5418
 3889SOL     OW23299   2.414   2.245   4.111  0.0879  0.0535  0.2306
 3889SOL    HW123300   2.337   2.282   4.154 -0.5076 -0.0538 -0.7454
 3889SOL    HW223301   2.476   2.251   4.184  0.2314  1.4855 -0.0119
 3890SOL     OW23302   2.306   2.227   4.408  0.1369 -0.7015 -0.1161
 3890SOL    HW123303   2.220   2.229   4.365  0.1734 -1.4016 -0.2140
 3890SOL    HW223304   2.340   2.317   4.409  0.3691 -0.7965  0.7654
 3891SOL     OW23305   3.179   4.692   2.997 -0.5191  0.2846  0.1756
 3891SOL    HW123306   3.131   4.703   2.915  1.3622 -0.1375 -0.9854
 3891SOL    HW223307   3.261   4.709   2.950 -0.3501  1.0644  0.7685
 3892SOL     OW23308   2.950   0.194   1.746  0.1179 -0.6885 -0.3016
 3892SOL    HW123309   2.989   0.163   1.828 -0.0799  0.9366  0.4206
 3892SOL    HW223310   2.899   0.271   1.773 -1.2942 -1.2774 -1.3226
 3893SOL     OW23311   4.096   0.399   1.959 -0.9239 -0.1951  0.5828
 3893SOL    HW123312   4.171   0.353   1.996 -0.3442  2.0469  2.2627
 3893SOL    HW223313   4.055   0.429   2.040 -0.3744  1.9788  0.0725
 3894SOL     OW23314   3.158   0.051  14.641  0.0452 -0.0242 -0.4731
 3894SOL    HW123315   3.104   0.043  14.561 -0.1128  0.9317 -0.4604
 3894SOL    HW223316   3.102   4.731  14.697 -0.3738  0.8617 -0.0470
 3895SOL     OW23317   2.889   2.587   0.436 -0.0776 -0.2235 -0.2780
 3895SOL    HW123318   2.859   2.662   0.384 -2.0690 -0.1604  0.9644
 3895SOL    HW223319   2.983   2.605   0.439 -0.6375  2.7117  0.2414
 3896SOL     OW23320   2.370   3.477   1.396  0.1402  0.2531  0.0061
 3896SOL    HW123321   2.328   3.409   1.447 -0.8865 -0.0721 -1.2729
 3896SOL    HW223322   2.453   3.454   1.438 -0.9430 -0.3360  1.7995
 3897SOL     OW23323   0.222   4.092   5.127 -0.4664  0.4691 -0.5619
 3897SOL    HW123324   0.227   4.071   5.034  0.7567 -0.6876 -0.2342
 3897SOL    HW223325   0.128   4.107   5.138 -0.8367 -1.0654 -1.6118
 3898SOL     OW23326   1.612   1.445   1.552  0.1610  0.4935  0.4802
 3898SOL    HW123327   1.549   1.468   1.484  0.1194 -0.9894  0.0249
 3898SOL    HW223328   1.574   1.471   1.636 -4.0693  0.3741 -1.4097
 3899SOL     OW23329   1.272   1.572  16.087 -0.1513  0.1603  0.0630
 3899SOL    HW123330   1.326   1.634  16.037 -0.6513  0.3798 -0.2148
 3899SOL    HW223331   1.244   1.627  16.160  0.1664  0.4448 -0.0284
 3900SOL     OW23332   1.351   1.289  16.149 -0.1037 -0.0734  0.1318
 3900SOL    HW123333   1.371   1.239  16.070  0.2467 -1.4157  1.0484
 3900SOL    HW223334   1.315   1.373  16.122 -0.3982 -0.4105 -0.5223
 3901SOL     OW23335   2.392   0.827   1.431  0.2823 -0.3908 -0.3890
 3901SOL    HW123336   2.386   0.886   1.506  0.6895  0.4169 -1.0022
 3901SOL    HW223337   2.310   0.842   1.384 -1.1324  0.5923  2.4327
 3902SOL     OW23338   1.818   3.838  10.318  0.7969 -0.3963  0.4375
 3902SOL    HW123339   1.849   3.924  10.289  0.0736  1.1091  4.1265
 3902SOL    HW223340   1.845   3.783  10.244  1.7446  1.3348 -0.5039
 3903SOL     OW23341   1.075   2.201   3.662  0.1472  0.3023  0.8866
 3903SOL    HW123342   1.152   2.221   3.715 -0.0923  1.8847  0.6178
 3903SOL    HW223343   1.109   2.235   3.579  0.4399 -1.4940  0.2591
 3904SOL     OW23344   4.164   2.485   3.528 -0.1095 -0.2475  0.0618
 3904SOL    HW123345   4.238   2.546   3.531  0.2034 -0.6736  1.0357
 3904SOL    HW223346   4.215   2.404   3.530  2.9490  1.6297 -1.6340
 3905SOL     OW23347   1.094   3.615   2.708  0.1610 -0.3856  0.0344
 3905SOL    HW123348   1.004   3.583   2.701 -1.1923  3.4951  0.0471
 3905SOL    HW223349   1.135   3.529   2.720 -0.2570 -1.0515 -3.5208
 3906SOL     OW23350   1.476   4.221   7.286 -0.5453  0.1243 -0.3940
 3906SOL    HW123351   1.383   4.200   7.293 -0.0214 -2.1138 -0.1189
 3906SOL    HW223352   1.520   4.142   7.317  0.2764  1.4204  1.7250
 3907SOL     OW23353   1.763   2.461   5.913 -0.1943 -0.2349  0.3422
 3907SOL    HW123354   1.851   2.426   5.915 -0.1506 -0.1580 -0.1192
 3907SOL    HW223355   1.698   2.393   5.928  0.3485 -1.5434 -3.3440
 3908SOL     OW23356   3.641   0.834   7.601 -0.4257  0.0610 -0.8325
 3908SOL    HW123357   3.717   0.776   7.597 -0.1041  0.4438 -0.2301
 3908SOL    HW223358   3.591   0.804   7.525 -2.0772  3.0734 -0.9290
 3909SOL     OW23359   1.228   2.705   7.314 -0.3967  0.5450 -0.1758
 3909SOL    HW123360   1.264   2.624   7.280 -1.6697 -1.3988  3.0565
 3909SOL    HW223361   1.148   2.676   7.358 -0.1344 -1.3105 -0.9131
 3910SOL     OW23362   2.958   2.435   3.669 -0.0377  0.6336  0.4159
 3910SOL    HW123363   2.864   2.435   3.688 -0.1730 -0.0632 -0.2746
 3910SOL    HW223364   2.958   2.389   3.586 -0.4249  0.8084  0.3147
 3911SOL     OW23365   3.489   2.064  13.140 -0.1924  0.2933  0.0454
 3911SOL    HW123366   3.562   2.125  13.151  0.3130  0.1758 -2.4936
 3911SOL    HW223367   3.408   2.110  13.161 -1.1201 -0.8454 -1.0097
 3912SOL     OW23368   4.262   1.655  14.379 -0.0914 -0.4672  0.5660
 3912SOL    HW123369   4.259   1.561  14.362 -1.9810 -0.6122  1.7349
 3912SOL    HW223370   4.335   1.677  14.320 -1.1840 -1.4791 -1.1564
 3913SOL     OW23371   1.269   1.568   3.563  0.3516  0.2650 -0.3216
 3913SOL    HW123372   1.245   1.516   3.640  1.5825 -1.2032 -0.9197
 3913SOL    HW223373   1.181   1.593   3.537  0.2780  1.1831  0.8047
 3914SOL     OW23374   0.189   4.157   9.615 -0.8680  0.4848  0.3325
 3914SOL    HW123375   0.127   4.197   9.554 -0.6247 -0.9090 -0.7967
 3914SOL    HW223376   0.128   4.153   9.689 -0.4307  1.0068  0.7288
 3915SOL     OW23377   2.121   1.094   9.453 -0.7134 -0.4804  0.2182
 3915SOL    HW123378   2.115   1.168   9.392  0.3310 -1.5681 -1.2072
 3915SOL    HW223379   2.206   1.112   9.494 -0.0823 -0.1938 -1.2136
 3916SOL     OW23380   1.187   3.420   6.562 -0.0896 -0.1308 -0.0769
 3916SOL    HW123381   1.172   3.502   6.517  1.1375  1.2942  2.1200
 3916SOL    HW223382   1.176   3.441   6.655 -0.3901  1.3289 -0.4544
 3917SOL     OW23383   4.460   4.656   6.296  0.4240 -0.3844  0.1831
 3917SOL    HW123384   4.409   4.607   6.360  0.7283 -2.2531 -1.0198
 3917SOL    HW223385   4.526   4.589   6.279  0.7281  1.0452 -4.2594
 3918SOL     OW23386   4.248   4.481   3.673  0.4479  0.4425 -0.0086
 3918SOL    HW123387   4.184   4.424   3.631 -0.2059 -0.0617  1.6337
 3918SOL    HW223388   4.303   4.412   3.709  0.8144 -0.5178 -2.4377
 3919SOL     OW23389   4.335   2.058   2.499  0.1743  0.2588 -0.4555
 3919SOL    HW123390   4.372   1.971   2.514 -0.6036 -0.4794 -2.7564
 3919SOL    HW223391   4.252   2.033   2.458  0.8188 -2.8588  0.1326
 3920SOL     OW23392   1.642   0.420  15.937  0.1783 -0.0277 -0.1250
 3920SOL    HW123393   1.604   0.413  16.024  0.1961  0.8061 -0.0556
 3920SOL    HW223394   1.735   0.429  15.959  0.1819 -0.3047 -0.0267
 3921SOL     OW23395   3.167   2.185   4.077  0.5004 -0.2456 -0.2947
 3921SOL    HW123396   3.219   2.249   4.028 -1.9546 -0.6822 -3.4362
 3921SOL    HW223397   3.120   2.141   4.007 -0.3641  1.5909 -0.8717
 3922SOL     OW23398   0.089   1.104  15.002 -0.4559 -0.4226 -0.5315
 3922SOL    HW123399   0.171   1.136  14.965 -0.2621  0.2021  0.4431
 3922SOL    HW223400   0.042   1.125  14.922 -0.4278  0.9328 -0.1967
 3923SOL     OW23401   3.090   3.607   6.373 -0.1279 -0.3923 -0.4467
 3923SOL    HW123402   3.092   3.556   6.454  2.2336 -0.3296 -0.4917
 3923SOL    HW223403   3.004   3.574   6.345 -1.0538  0.7222  1.0761
 3924SOL     OW23404   3.817   2.619  12.256  0.3658  0.6497  0.1929
 3924SOL    HW123405   3.887   2.554  12.247 -0.3330 -0.4405  2.5545
 3924SOL    HW223406   3.848   2.665  12.334 -0.2711  2.1269 -0.4267
 3925SOL     OW23407   1.863   0.773   1.183 -0.0563  0.1690 -0.2391
 3925SOL    HW123408   1.796   0.819   1.133 -0.6863  1.1674  1.5476
 3925SOL    HW223409   1.889   0.841   1.245  0.6792  1.4011 -1.8785
 3926SOL     OW23410   0.368   3.651   7.780  0.4242  0.2644  0.4907
 3926SOL    HW123411   0.373   3.669   7.686  1.2763 -0.8928  0.3104
 3926SOL    HW223412   0.273   3.664   7.784  0.3143 -0.8985  1.9061
 3927SOL     OW23413   2.235   4.442   5.548 -0.6129  0.0355  0.6946
 3927SOL    HW123414   2.241   4.348   5.531 -0.7032  0.1651 -0.0650
 3927SOL    HW223415   2.140   4.443   5.537 -0.5924 -0.4392  0.4641
 3928SOL     OW23416   1.256   4.685   3.822 -0.4311 -0.6693 -0.0467
 3928SOL    HW123417   1.162   4.676   3.838 -1.2882  1.6165 -3.7461
 3928SOL    HW223418   1.283   4.625   3.753 -0.5576 -1.3473  0.4949
 3929SOL     OW23419   4.546   2.648  14.810  0.4919 -0.4083  0.4947
 3929SOL    HW123420   4.570   2.674  14.899 -1.2739  0.5297  0.7081
 3929SOL    HW223421   4.523   2.731  14.767 -0.7352 -1.2708 -0.4974
 3930SOL     OW23422   3.818   4.513  12.272 -0.0328 -0.0576 -0.0290
 3930SOL    HW123423   3.752   4.572  12.236  0.7223  1.0962  0.4617
 3930SOL    HW223424   3.857   4.488  12.189  1.7994 -1.2419  1.1909
 3931SOL     OW23425   1.651   0.226  13.590 -0.0000 -0.0946 -0.3493
 3931SOL    HW123426   1.628   0.222  13.683 -2.8774 -1.3019 -1.1411
 3931SOL    HW223427   1.570   0.269  13.565  0.8364  0.5631 -1.9092
 3932SOL     OW23428   3.702   2.145  16.700  0.2308  0.2111 -0.4406
 3932SOL    HW123429   3.607   2.146  16.704  0.3615  2.2596  2.4067
 3932SOL    HW223430   3.712   2.175  16.609  2.4134  0.7636 -0.0243
 3933SOL     OW23431   1.672   0.657   5.610 -0.3763 -0.4856 -0.1238
 3933SOL    HW123432   1.606   0.721   5.636  2.6649  1.3901  2.9081
 3933SOL    HW223433   1.740   0.660   5.677 -0.2501 -0.5505 -0.2505
 3934SOL     OW23434   4.145   3.158   9.201 -0.0794  0.6873 -0.2774
 3934SOL    HW123435   4.241   3.161   9.204 -0.1323  1.2446  0.8445
 3934SOL    HW223436   4.122   3.236   9.252 -0.4633 -0.1507  0.8294
 3935SOL     OW23437   1.296   0.156   7.206  0.0272  0.6668  0.1092
 3935SOL    HW123438   1.246   0.214   7.264  1.2900 -0.3649  2.2033
 3935SOL    HW223439   1.311   0.221   7.137 -0.2911 -0.1016 -0.6802
 3936SOL     OW23440   4.002   2.593   5.768  0.3344  0.1327  0.6503
 3936SOL    HW123441   3.970   2.609   5.856  0.3199 -2.0815  1.0506
 3936SOL    HW223442   3.943   2.524   5.737  0.0610  0.6078  0.1167
 3937SOL     OW23443   0.633   2.238  15.484 -0.2480  0.4354 -0.5664
 3937SOL    HW123444   0.652   2.331  15.469 -0.0456  0.2041 -1.7586
 3937SOL    HW223445   0.554   2.227  15.431 -0.2341 -0.8792 -0.3101
 3938SOL     OW23446   4.085   3.498   6.538 -0.2304  0.4631  0.4393
 3938SOL    HW123447   4.116   3.409   6.519  0.2936  0.7757 -0.1683
 3938SOL    HW223448   4.016   3.469   6.598 -0.3212 -1.3682 -0.5427
 3939SOL     OW23449   4.164   4.130   5.611 -0.0896 -0.3446 -0.5870
 3939SOL    HW123450   4.130   4.042   5.628 -0.4050 -0.4553 -1.8348
 3939SOL    HW223451   4.249   4.115   5.570 -0.2357 -1.8314 -0.3688
 3940SOL     OW23452   4.562   3.719  14.451  0.5059 -0.1363 -0.0316
 3940SOL    HW123453   4.636   3.679  14.497  0.1088  0.5551  1.2000
 3940SOL    HW223454   4.550   3.804  14.493 -2.4951  1.0574 -3.3208
 3941SOL     OW23455   0.174   4.254   3.560  0.3625 -0.0345  0.3904
 3941SOL    HW123456   0.137   4.341   3.577  0.5063 -0.1759  1.4591
 3941SOL    HW223457   0.239   4.270   3.492 -1.3469  1.8711 -0.8112
 3942SOL     OW23458   2.915   3.837   2.105  0.4346 -0.2291 -0.0124
 3942SOL    HW123459   2.835   3.875   2.068 -0.8209 -1.8043  1.1036
 3942SOL    HW223460   2.885   3.747   2.106 -1.4989  0.4048 -0.7268
 3943SOL     OW23461   2.819   4.571   4.082 -0.4243 -0.3270  0.5344
 3943SOL    HW123462   2.739   4.611   4.048  0.3027  0.3609 -0.3523
 3943SOL    HW223463   2.884   4.626   4.038  0.6275 -1.8751  0.1537
 3944SOL     OW23464   3.152   1.936  14.250 -0.3977 -0.3843  0.7937
 3944SOL    HW123465   3.069   1.889  14.243  0.0839 -0.8836 -1.4381
 3944SOL    HW223466   3.200   1.886  14.184 -0.8095 -0.6058  0.6649
 3945SOL     OW23467   4.533   0.600   2.607 -0.0730  0.2267  0.0848
 3945SOL    HW123468   4.540   0.625   2.699  2.8108 -0.7493  0.1320
 3945SOL    HW223469   4.498   0.511   2.609  0.3257  0.0734  0.1547
 3946SOL     OW23470   0.063   0.810  14.613  1.0162 -0.1174  0.1425
 3946SOL    HW123471   0.105   0.724  14.603 -1.4279 -1.2170 -0.6073
 3946SOL    HW223472   0.094   0.824  14.703  1.5511  0.1236 -0.0808
 3947SOL     OW23473   4.306   3.687   1.715  0.4560 -0.6419 -0.0675
 3947SOL    HW123474   4.328   3.778   1.694  0.4647 -0.7611 -0.5950
 3947SOL    HW223475   4.385   3.645   1.681  1.1222  0.4240  0.1737
 3948SOL     OW23476   1.554   4.563   2.526  0.3059 -0.2537  0.3426
 3948SOL    HW123477   1.489   4.564   2.596  1.2963 -0.0749  1.2661
 3948SOL    HW223478   1.577   4.470   2.519 -0.8604 -0.5527  0.5132
 3949SOL     OW23479   4.483   0.362   3.334  0.0258  0.2924  0.6249
 3949SOL    HW123480   4.466   0.453   3.310  0.1864 -0.0172 -0.6784
 3949SOL    HW223481   4.447   0.361   3.423 -0.4957 -0.5118  0.4097
 3950SOL     OW23482   2.047   0.750   2.946 -0.4911  0.0185  0.3266
 3950SOL    HW123483   2.030   0.828   2.892 -0.2426  0.4396  0.8564
 3950SOL    HW223484   2.118   0.772   3.007  0.6567  0.7831 -1.2764
 3951SOL     OW23485   3.462   0.284   8.715 -0.0780 -0.6090 -0.1830
 3951SOL    HW123486   3.367   0.268   8.720 -0.0265 -1.7377 -2.5352
 3951SOL    HW223487   3.488   0.222   8.647 -0.0475  1.0440 -1.6825
 3952SOL     OW23488   0.590   4.036   1.992  0.4366  0.4437  0.0308
 3952SOL    HW123489   0.520   4.089   2.029  0.6000  0.8764 -0.2768
 3952SOL    HW223490   0.547   3.951   1.982  0.1371  0.1950  3.4783
 3953SOL     OW23491   0.907   4.058  15.338 -0.0211 -0.0472 -0.0797
 3953SOL    HW123492   0.990   4.064  15.291 -0.2391 -0.0730 -0.4671
 3953SOL    HW223493   0.914   4.114  15.415 -0.8748 -1.3884  0.9651
 3954SOL     OW23494   2.580   4.470  12.264  0.3586 -0.3605 -0.2010
 3954SOL    HW123495   2.586   4.419  12.183 -2.7199 -2.2115  0.7621
 3954SOL    HW223496   2.486   4.473  12.281  0.4062 -1.8402  0.3546
 3955SOL     OW23497   3.155   3.280   0.760 -0.0263  0.5072  0.3236
 3955SOL    HW123498   3.135   3.367   0.726  1.8056  0.3737 -1.0962
 3955SOL    HW223499   3.202   3.294   0.842  0.2628 -2.2579  0.6267
 3956SOL     OW23500   1.630   3.627   8.386 -0.5020 -0.1615 -0.1121
 3956SOL    HW123501   1.696   3.632   8.317 -0.7485 -0.7334 -0.3882
 3956SOL    HW223502   1.673   3.579   8.456 -1.2156 -1.3122 -0.4665
 3957SOL     OW23503   2.172   2.822   8.445 -0.0797  0.2631 -0.4092
 3957SOL    HW123504   2.172   2.758   8.373  2.7802 -3.0029  2.4668
 3957SOL    HW223505   2.267   2.835   8.440  0.2079 -1.2405  0.9731
 3958SOL     OW23506   0.474   2.473   4.701  0.6272 -0.2357  0.8725
 3958SOL    HW123507   0.424   2.488   4.781  2.1578  0.4204  1.7221
 3958SOL    HW223508   0.410   2.434   4.642  1.7493 -0.5614 -0.1327
 3959SOL     OW23509   4.481   2.052   1.641 -0.1912 -0.4233  0.0884
 3959SOL    HW123510   4.547   2.015   1.699  0.4589  0.5402 -0.0288
 3959SOL    HW223511   4.464   2.140   1.676 -0.4939 -0.6482  0.5018
 3960SOL     OW23512   2.394   3.368  14.012  0.0533 -0.1050 -0.1298
 3960SOL    HW123513   2.340   3.403  13.941  0.2667  2.3562  0.9187
 3960SOL    HW223514   2.433   3.449  14.045  0.1645  0.8749 -2.6106
 3961SOL     OW23515   1.243   0.794   5.552  0.3363  1.0186 -0.2640
 3961SOL    HW123516   1.337   0.813   5.561  0.7895 -1.1611 -0.4024
 3961SOL    HW223517   1.234   0.762   5.462 -3.4377  0.8974  0.1497
 3962SOL     OW23518   4.458   3.940   7.560  0.3714 -0.0359  0.0521
 3962SOL    HW123519   4.490   3.871   7.617 -0.2066  0.6776  1.2221
 3962SOL    HW223520   4.364   3.931   7.570  0.5943 -1.0651  1.2027
 3963SOL     OW23521   0.272   1.831   1.452 -0.1258  0.1106  0.1136
 3963SOL    HW123522   0.212   1.860   1.520  0.6869  3.3305 -0.5534
 3963SOL    HW223523   0.210   1.839   1.379  0.4053 -0.0404 -0.3636
 3964SOL     OW23524   0.011   2.236   2.406  0.1073 -0.0935  0.4852
 3964SOL    HW123525   0.055   2.159   2.370  0.7663 -0.9800  3.1690
 3964SOL    HW223526   4.661   2.236   2.360  2.2571 -1.4130 -3.4758
 3965SOL     OW23527   3.438   2.323   6.576  0.1488  0.7437 -0.1006
 3965SOL    HW123528   3.354   2.326   6.622  0.4979  0.8857  0.5343
 3965SOL    HW223529   3.480   2.397   6.619  0.8698 -0.6881  1.6996
 3966SOL     OW23530   1.656   3.148   0.583 -0.2001 -0.7156 -0.3300
 3966SOL    HW123531   1.670   3.054   0.581 -2.1263 -1.0319  0.8514
 3966SOL    HW223532   1.706   3.175   0.506 -1.5524  2.3139 -0.1590
 3967SOL     OW23533   1.158   1.293   9.160 -0.0284 -0.2732 -0.3357
 3967SOL    HW123534   1.088   1.331   9.107 -1.5526 -2.1245  0.3568
 3967SOL    HW223535   1.215   1.258   9.092  0.2246 -0.7303  0.1102
 3968SOL     OW23536   1.064   1.357   4.686 -0.3639 -0.6232 -0.3129
 3968SOL    HW123537   0.973   1.374   4.710 -0.1866  2.0317 -1.6413
 3968SOL    HW223538   1.104   1.443   4.694 -2.1947  0.1007  1.1347
 3969SOL     OW23539   2.760   3.891   9.180  0.3255 -0.5258  0.4309
 3969SOL    HW123540   2.730   3.805   9.207  3.4451 -1.2667  1.5348
 3969SOL    HW223541   2.846   3.883   9.220  0.4392 -0.9584  0.0981
 3970SOL     OW23542   0.798   0.701   6.704 -0.8387 -0.1699  0.6203
 3970SOL    HW123543   0.835   0.753   6.634 -1.6577  0.9050  0.9794
 3970SOL    HW223544   0.872   0.690   6.764 -0.2419  0.5684  0.0081
 3971SOL     OW23545   3.836   1.580  11.134 -0.1424 -0.1555  0.3529
 3971SOL    HW123546   3.812   1.558  11.044  0.1478 -0.4307  0.3407
 3971SOL    HW223547   3.851   1.673  11.116  0.0116 -0.3878 -0.7284
 3972SOL     OW23548   4.647   2.630   8.412 -0.1261 -0.7795 -0.4125
 3972SOL    HW123549   4.582   2.688   8.454  0.2244  0.8015 -2.0458
 3972SOL    HW223550   4.694   2.599   8.489 -0.4179 -2.6865 -1.0166
 3973SOL     OW23551   0.019   3.061   8.456 -0.2789 -0.0959  0.2166
 3973SOL    HW123552   0.040   3.108   8.376 -0.5481 -1.2603 -0.5359
 3973SOL    HW223553   4.668   3.028   8.429 -0.4942  1.1479 -0.6204
 3974SOL     OW23554   4.681   4.084   5.178  0.9881  0.2246 -0.1812
 3974SOL    HW123555   4.639   4.025   5.241 -1.7349  2.2504 -0.1063
 3974SOL    HW223556   4.649   4.162   5.223 -0.8117  0.2503 -1.4997
 3975SOL     OW23557   4.607   1.101  15.225 -0.0310  0.0893 -0.3303
 3975SOL    HW123558   4.656   1.181  15.246 -1.1047  1.5090 -3.2562
 3975SOL    HW223559   4.639   1.081  15.138 -0.1571 -0.1165 -0.3296
 3976SOL     OW23560   4.504   2.861   4.056 -0.0210  0.6394  0.1228
 3976SOL    HW123561   4.550   2.904   3.983 -0.3102  0.0391 -0.4172
 3976SOL    HW223562   4.512   2.768   4.033 -0.8516  1.1699 -2.3022
 3977SOL     OW23563   2.878   2.639   1.459 -0.0138  0.3174 -0.4036
 3977SOL    HW123564   2.844   2.678   1.540 -0.4553 -1.0131  0.0461
 3977SOL    HW223565   2.856   2.547   1.475  0.1113  0.3613  0.0200
 3978SOL     OW23566   4.426   3.104   8.375  0.1626 -0.1686  0.6547
 3978SOL    HW123567   4.350   3.162   8.367  2.5595  2.7718 -0.8009
 3978SOL    HW223568   4.474   3.135   8.298  0.3443 -1.8206  0.1034
 3979SOL     OW23569   0.039   2.858  17.241 -0.1619  0.4634  0.3346
 3979SOL    HW123570   0.105   2.859  17.310  0.0571  0.3612  0.1294
 3979SOL    HW223571   0.057   2.949  17.218 -0.7348  0.0699 -1.7078
 3980SOL     OW23572   3.718   0.080  16.547 -0.3571 -0.1728 -0.1493
 3980SOL    HW123573   3.729   0.158  16.493  1.3397  0.4228  1.0531
 3980SOL    HW223574   3.627   0.058  16.562 -0.4980 -0.7277 -1.7999
 3981SOL     OW23575   3.294   0.750   2.029 -0.2285  0.0842 -0.0086
 3981SOL    HW123576   3.318   0.841   2.012 -1.5058  0.4216 -0.0382
 3981SOL    HW223577   3.360   0.730   2.095 -4.1790 -2.8508  3.0460
 3982SOL     OW23578   4.218   4.296   2.162  0.0881 -0.4475  0.0974
 3982SOL    HW123579   4.235   4.302   2.068  2.1380 -0.1273  0.4882
 3982SOL    HW223580   4.124   4.312   2.170  0.8442  2.6060  2.9952
 3983SOL     OW23581   1.524   2.894   4.928 -0.0305 -0.0570 -0.3539
 3983SOL    HW123582   1.529   2.989   4.917 -4.0446  0.1081 -0.7538
 3983SOL    HW223583   1.543   2.853   4.844  1.4598 -0.2961  0.0966
 3984SOL     OW23584   4.491   1.520   8.313 -0.2652  0.7738  0.0808
 3984SOL    HW123585   4.563   1.466   8.344  0.6889  3.0096  1.7306
 3984SOL    HW223586   4.444   1.522   8.397  0.9739  0.3628  0.7886
 3985SOL     OW23587   4.231   3.275   6.108 -0.0502  0.3009  0.1460
 3985SOL    HW123588   4.139   3.249   6.105 -0.0600  0.3440  0.0766
 3985SOL    HW223589   4.244   3.331   6.031 -2.3629 -1.7948 -1.7726
 3986SOL     OW23590   3.730   2.746   8.854  0.0161 -0.3898 -0.1481
 3986SOL    HW123591   3.770   2.696   8.784  2.0920  1.9126 -0.5862
 3986SOL    HW223592   3.635   2.733   8.848 -0.1609 -0.0913  1.7564
 3987SOL     OW23593   1.928   3.862   9.220 -0.3113 -0.4517  0.8268
 3987SOL    HW123594   1.947   3.953   9.242 -0.6160 -0.1874  0.0105
 3987SOL    HW223595   1.857   3.844   9.281  0.4408 -1.6003  1.3598
 3988SOL     OW23596   1.731   1.100   7.628  0.5003  0.2935  0.1785
 3988SOL    HW123597   1.785   1.138   7.697 -1.1110 -0.9253  2.1508
 3988SOL    HW223598   1.791   1.104   7.554 -0.6156  2.2661 -0.6158
 3989SOL     OW23599   0.389   2.491   1.539  0.1418 -0.7016 -0.2512
 3989SOL    HW123600   0.396   2.476   1.634 -4.7270 -0.3199  0.1857
 3989SOL    HW223601   0.423   2.579   1.526  1.9718 -1.6297 -1.8249
 3990SOL     OW23602   2.058   2.293  10.492  0.7801  0.2204  0.0258
 3990SOL    HW123603   2.137   2.281  10.545  0.5090 -1.8975 -0.0412
 3990SOL    HW223604   1.988   2.296  10.557  0.4655 -1.6398 -0.2340
 3991SOL     OW23605   4.128   2.362   4.307 -0.4307 -0.1034  0.1458
 3991SOL    HW123606   4.132   2.430   4.375 -0.9831 -1.6975  1.7600
 3991SOL    HW223607   4.196   2.394   4.248  0.2415 -0.8112  0.5531
 3992SOL     OW23608   2.972   1.022  14.955  0.3681 -0.3785 -0.0520
 3992SOL    HW123609   2.927   0.941  14.931 -0.3103 -0.7622  2.5187
 3992SOL    HW223610   3.059   0.981  14.957  0.2117 -0.7059  0.1609
 3993SOL     OW23611   4.028   2.639   6.967  0.1776  0.4871 -0.6594
 3993SOL    HW123612   3.937   2.645   6.939 -0.0228  1.6166  0.2083
 3993SOL    HW223613   4.070   2.699   6.904  0.6496 -0.6012 -1.3767
 3994SOL     OW23614   0.982   4.228   5.841 -0.0754 -0.3265 -0.3895
 3994SOL    HW123615   1.035   4.289   5.893 -0.6805  0.6961 -0.9695
 3994SOL    HW223616   1.043   4.228   5.767 -0.8716 -1.5122 -1.0396
 3995SOL     OW23617   0.144   0.367   1.263 -0.3172  0.4597  1.0678
 3995SOL    HW123618   0.070   0.362   1.324 -1.4892  0.3820 -0.3744
 3995SOL    HW223619   0.105   0.346   1.179  0.3870  1.4217  0.4990
 3996SOL     OW23620   2.585   0.675   9.156 -0.7478  0.1854 -0.3949
 3996SOL    HW123621   2.609   0.747   9.097 -1.3090 -0.1432 -1.0166
 3996SOL    HW223622   2.519   0.722   9.207  1.6750  1.9316  1.1397
 3997SOL     OW23623   2.345   0.057  17.695 -0.3047  0.5301 -0.0092
 3997SOL    HW123624   2.251   0.043  17.706 -0.2798  0.2620 -0.1413
 3997SOL    HW223625   2.359   0.140   0.005  0.6820  0.3316  0.0488
 3998SOL     OW23626   1.818   4.265   5.992 -0.0820 -0.0067 -0.3850
 3998SOL    HW123627   1.815   4.287   6.085  0.4873 -0.0086 -0.3656
 3998SOL    HW223628   1.855   4.346   5.956 -0.2252 -0.3811 -1.3695
 3999SOL     OW23629   3.337   0.632   5.700 -0.0926  0.1668 -0.0880
 3999SOL    HW123630   3.363   0.721   5.672  1.8135 -0.3705 -0.0310
 3999SOL    HW223631   3.416   0.584   5.675  0.3457 -0.0217  1.7101
 4000SOL     OW23632   4.666   2.449   5.695  0.1999  0.6334  0.1385
 4000SOL    HW123633   4.688   2.505   5.620  1.4324  0.8729  0.6774
 4000SOL    HW223634   4.709   2.369   5.665  1.3674  0.2096  2.9850
 4001SOL     OW23635   1.159   4.042   8.783  0.1428  0.2280 -0.7189
 4001SOL    HW123636   1.173   4.055   8.689 -2.4804  2.0440 -0.8704
 4001SOL    HW223637   1.244   4.067   8.817 -1.0386  0.7282  1.8228
 4002SOL     OW23638   2.521   1.487  16.080 -0.0262  0.1591  0.3118
 4002SOL    HW123639   2.585   1.428  16.040 -0.5998  0.2969 -0.7978
 4002SOL    HW223640   2.466   1.503  16.003 -1.8826  0.5390  1.7046
 4003SOL     OW23641   4.275   4.093  15.957  0.0407 -0.3752  0.1071
 4003SOL    HW123642   4.191   4.094  15.910  1.0307 -1.5303 -1.6866
 4003SOL    HW223643   4.274   4.009  16.004 -0.7087 -0.3492  0.1433
 4004SOL     OW23644   3.365   2.232  11.704  0.5729  0.0023  0.5007
 4004SOL    HW123645   3.412   2.155  11.671 -0.5616 -0.4699 -0.0009
 4004SOL    HW223646   3.445   2.279  11.727  0.0104  1.9570 -1.5355
 4005SOL     OW23647   4.079   2.631   2.421  0.2138  0.1015 -0.1223
 4005SOL    HW123648   4.134   2.703   2.393 -1.4575  1.9057  1.1964
 4005SOL    HW223649   4.081   2.584   2.338  1.5185 -0.6088  0.3069
 4006SOL     OW23650   3.401   4.659  12.346 -0.1033  0.3982  0.8225
 4006SOL    HW123651   3.404   4.631  12.255 -2.5994 -0.6516  1.0458
 4006SOL    HW223652   3.429   4.579  12.389  2.7647  2.3355  2.5182
 4007SOL     OW23653   2.091   0.802   5.222  0.3744 -0.4787 -0.3360
 4007SOL    HW123654   1.998   0.793   5.203  0.2277  0.9850 -0.3394
 4007SOL    HW223655   2.106   0.712   5.252  1.6985  0.0136  0.4525
 4008SOL     OW23656   1.705   2.984   6.206 -0.6266 -0.0675  0.1232
 4008SOL    HW123657   1.763   3.043   6.253  0.4519 -1.3100  0.3516
 4008SOL    HW223658   1.727   2.989   6.113  0.9585  0.4055  0.5345
 4009SOL     OW23659   4.472   3.258   3.661  0.1121  0.0539 -0.7511
 4009SOL    HW123660   4.544   3.313   3.692 -0.5832  1.7239 -2.1280
 4009SOL    HW223661   4.396   3.312   3.683  0.5509 -0.3816  1.8643
 4010SOL     OW23662   3.027   2.639  12.077  0.4905  0.2648 -0.0627
 4010SOL    HW123663   2.937   2.673  12.083 -0.1643 -1.6152  0.7722
 4010SOL    HW223664   3.059   2.693  12.005 -2.0581  0.6800 -0.8945
 4011SOL     OW23665   3.402   4.659   9.388 -0.2699  0.3859  0.0063
 4011SOL    HW123666   3.357   4.681   9.305 -0.4326  2.6018  0.6683
 4011SOL    HW223667   3.442   4.574   9.372 -1.4909 -0.2311  0.2557
 4012SOL     OW23668   3.477   2.016   4.329  0.2135 -0.6401 -0.0622
 4012SOL    HW123669   3.394   2.020   4.281 -0.8870  0.7999  1.9319
 4012SOL    HW223670   3.524   1.940   4.296  2.5275 -0.0425  1.8763
 4013SOL     OW23671   1.761   1.188   9.697 -0.1666 -0.2794 -0.8133
 4013SOL    HW123672   1.697   1.173   9.767  0.4783 -2.0350 -0.6078
 4013SOL    HW223673   1.695   1.212   9.631 -0.5976  2.2211  0.5032
 4014SOL     OW23674   3.844   3.182   5.769  0.2846  0.5711  0.9413
 4014SOL    HW123675   3.879   3.197   5.857  0.3223 -0.5114  1.1170
 4014SOL    HW223676   3.922   3.158   5.720 -0.5820  1.4492 -0.8613
 4015SOL     OW23677   0.113   3.717   7.802 -0.1937  0.3384  0.3575
 4015SOL    HW123678   0.114   3.799   7.752 -1.2900  0.0701 -0.1035
 4015SOL    HW223679   0.029   3.687   7.767 -1.1666  2.4363  0.8414
 4016SOL     OW23680   4.222   0.733   4.112  0.3164 -0.2634 -0.0006
 4016SOL    HW123681   4.305   0.690   4.132 -0.0083 -0.8001  0.1907
 4016SOL    HW223682   4.223   0.805   4.176 -2.0913  0.4254 -0.7450
 4017SOL     OW23683   1.611   1.667   2.509 -0.3589  0.2405 -0.3466
 4017SOL    HW123684   1.684   1.722   2.479 -1.5843  2.4168  0.6346
 4017SOL    HW223685   1.551   1.675   2.435  1.2122  0.7202 -1.5599
 4018SOL     OW23686   1.849   1.982   0.618  0.1826 -0.1095  0.1929
 4018SOL    HW123687   1.843   2.043   0.544 -0.7158 -0.4516 -0.0158
 4018SOL    HW223688   1.756   1.968   0.636  0.1566 -0.3509 -0.1278
 4019SOL     OW23689   4.439   1.877   4.187 -0.0297  0.4587  0.7454
 4019SOL    HW123690   4.380   1.951   4.200 -0.1073  0.2077  1.8087
 4019SOL    HW223691   4.498   1.899   4.259 -0.1130 -0.1011  0.9770
 4020SOL     OW23692   2.157   0.660  12.704  0.1222 -0.2835 -0.0901
 4020SOL    HW123693   2.151   0.635  12.797 -0.5227  0.1249 -0.0259
 4020SOL    HW223694   2.167   0.755  12.713  2.6928 -0.5202 -0.4054
 4021SOL     OW23695   4.267   3.676   5.340 -0.2940  0.3344  0.2630
 4021SOL    HW123696   4.331   3.670   5.410 -0.2168 -0.2753  0.1409
 4021SOL    HW223697   4.234   3.765   5.357 -0.7010  0.0551  0.9080
 4022SOL     OW23698   1.047   3.775   3.982 -0.6504  0.3914 -0.1360
 4022SOL    HW123699   0.957   3.805   3.993 -0.6289  0.0796  0.9453
 4022SOL    HW223700   1.036   3.691   3.938  0.2918 -0.8617  2.0293
 4023SOL     OW23701   0.319   4.282   8.781 -0.3604  0.0472 -0.3462
 4023SOL    HW123702   0.357   4.356   8.734 -1.1782 -0.1002 -1.2513
 4023SOL    HW223703   0.348   4.299   8.871 -0.0609  1.2270 -0.6654
 4024SOL     OW23704   2.914   2.751  14.884 -0.1953 -0.7239 -0.0028
 4024SOL    HW123705   2.859   2.707  14.948 -0.0090 -1.4109 -0.3188
 4024SOL    HW223706   2.953   2.673  14.844  1.5293  0.4775 -0.6795
 4025SOL     OW23707   0.365   1.289   6.769  0.2670 -0.3049 -0.1251
 4025SOL    HW123708   0.402   1.341   6.841  0.7952 -1.1730  0.2317
 4025SOL    HW223709   0.334   1.372   6.731 -0.9420 -0.7383 -0.0677
 4026SOL     OW23710   0.258   0.160   5.466 -0.3764  0.7301  0.3911
 4026SOL    HW123711   0.329   0.205   5.512 -0.3502 -0.3669  1.4094
 4026SOL    HW223712   0.180   0.192   5.511 -0.1931 -0.1957  1.3509
 4027SOL     OW23713   2.996   0.805   4.067  0.2437 -0.9149  0.4021
 4027SOL    HW123714   3.015   0.755   3.987 -0.4224  0.1645 -0.4157
 4027SOL    HW223715   2.945   0.738   4.113 -4.4499  1.1058 -1.9447
 4028SOL     OW23716   0.217   4.707  17.016 -0.1727  0.1101  0.1879
 4028SOL    HW123717   0.238   0.005  16.928  2.1862 -2.2337 -0.1039
 4028SOL    HW223718   0.178   0.048  17.061  1.1486  0.4822  0.7114
 4029SOL     OW23719   2.125   4.194   9.724  0.3612  0.0996 -0.4109
 4029SOL    HW123720   2.177   4.268   9.691  2.4836 -0.3504  1.9177
 4029SOL    HW223721   2.040   4.235   9.739  0.9705  0.6797  1.4947
 4030SOL     OW23722   0.430   1.407   4.726 -0.1218 -0.1207  0.2900
 4030SOL    HW123723   0.491   1.338   4.700 -0.6175 -1.1139  1.7841
 4030SOL    HW223724   0.475   1.448   4.800 -1.0008 -0.2212  0.8768
 4031SOL     OW23725   0.026   1.134   1.991 -0.2479  0.0616  0.2249
 4031SOL    HW123726   0.112   1.140   1.950 -0.9372 -0.2980 -1.2788
 4031SOL    HW223727   4.719   1.207   1.946  0.7512 -0.5075 -1.6095
 4032SOL     OW23728   0.119   4.148  12.468 -0.0089 -0.1778 -0.0903
 4032SOL    HW123729   0.043   4.173  12.417  1.2008  0.4824 -1.5745
 4032SOL    HW223730   0.204   4.185  12.443  1.4152 -0.3435  4.5373
 4033SOL     OW23731   4.383   0.903   4.543  0.4767  0.1152 -0.0712
 4033SOL    HW123732   4.358   0.964   4.474 -1.4889  0.2678  0.7716
 4033SOL    HW223733   4.399   0.964   4.614  3.1404 -3.7387  2.6205
 4034SOL     OW23734   3.312   0.814  14.016 -0.5305 -0.0730 -0.6170
 4034SOL    HW123735   3.252   0.888  14.007 -0.8036 -0.4347 -1.8788
 4034SOL    HW223736   3.397   0.857  14.011 -0.3552 -0.4445 -0.8713
 4035SOL     OW23737   3.852   4.225  11.774 -0.3420 -0.5458 -0.4687
 4035SOL    HW123738   3.837   4.226  11.679  0.8693 -0.7456 -0.6656
 4035SOL    HW223739   3.791   4.297  11.791  1.5091  0.9931 -0.2742
 4036SOL     OW23740   1.132   0.882   8.929  0.2580  0.3361  0.1914
 4036SOL    HW123741   1.064   0.945   8.954  0.5466  1.0637 -0.8775
 4036SOL    HW223742   1.158   0.865   9.020  3.3698 -3.6673 -1.4814
 4037SOL     OW23743   3.768   3.275   3.448 -0.3332 -0.0222 -0.1557
 4037SOL    HW123744   3.718   3.296   3.527 -0.1594  0.5196 -0.1876
 4037SOL    HW223745   3.710   3.279   3.372  1.2618 -1.9649 -1.4494
 4038SOL     OW23746   3.656   1.026   1.920  0.7025  0.0874 -0.4353
 4038SOL    HW123747   3.733   0.970   1.911 -0.2246 -1.1112 -0.9069
 4038SOL    HW223748   3.702   1.110   1.915 -1.0801  1.0253 -0.8370
 4039SOL     OW23749   0.004   0.494   1.761  0.4166  0.0130 -0.0273
 4039SOL    HW123750   0.013   0.510   1.855  1.3815  1.0339 -0.2840
 4039SOL    HW223751   4.647   0.524   1.757 -0.4794 -2.7683 -0.6388
 4040SOL     OW23752   2.872   0.014   9.169 -0.3814  0.4962 -1.1706
 4040SOL    HW123753   2.912   0.094   9.135  0.3943 -0.4911 -2.6258
 4040SOL    HW223754   2.896   4.678   9.108  2.0593  1.1892 -1.0090
 4041SOL     OW23755   3.723   4.267  12.056  0.0595  0.4797  0.1068
 4041SOL    HW123756   3.799   4.324  12.048  0.6907 -0.5837 -1.4716
 4041SOL    HW223757   3.747   4.185  12.012  2.3322  1.6212 -0.7353
 4042SOL     OW23758   2.253   2.170   3.672 -0.0921 -0.2225 -0.3391
 4042SOL    HW123759   2.339   2.179   3.631  0.7923  0.6890  1.6821
 4042SOL    HW223760   2.247   2.075   3.678  1.5348 -0.3637 -0.9918
 4043SOL     OW23761   3.396   3.662   9.196 -0.5601 -0.0238 -0.5984
 4043SOL    HW123762   3.321   3.710   9.161 -1.6772 -2.1201 -1.0530
 4043SOL    HW223763   3.376   3.571   9.177 -2.0690 -0.0324  1.0010
 4044SOL     OW23764   1.745   2.336   8.102 -0.0476  0.5282  0.1339
 4044SOL    HW123765   1.798   2.292   8.168  0.8992  1.3544 -0.0817
 4044SOL    HW223766   1.774   2.291   8.023 -2.3022 -1.1676  0.2726
 4045SOL     OW23767   0.386   3.349   2.528 -0.0577  0.2587  0.1964
 4045SOL    HW123768   0.324   3.303   2.472  0.2184  1.4882 -1.1293
 4045SOL    HW223769   0.336   3.367   2.608  0.6917  0.0485  0.7141
 4046SOL     OW23770   2.125   1.905   3.627  0.0551  0.2665 -0.0259
 4046SOL    HW123771   2.134   1.887   3.533  0.5782 -0.0510  0.0815
 4046SOL    HW223772   2.168   1.826   3.659  0.6684  0.9755  0.8901
 4047SOL     OW23773   1.840   1.903   3.245 -0.0688  0.5151 -0.7543
 4047SOL    HW123774   1.913   1.959   3.271 -0.0060  1.0610 -2.0782
 4047SOL    HW223775   1.789   1.912   3.325  3.2711  0.9184  1.3165
 4048SOL     OW23776   4.408   0.186   7.605 -0.0826 -0.9528 -0.2356
 4048SOL    HW123777   4.410   0.280   7.623  3.5590 -1.4134  1.6755
 4048SOL    HW223778   4.502   0.169   7.600  0.5773  2.2838  1.4764
 4049SOL     OW23779   0.241   1.539   7.025 -0.0794 -0.2893 -0.0015
 4049SOL    HW123780   0.247   1.451   7.060 -1.4843 -0.9075 -1.3338
 4049SOL    HW223781   0.227   1.584   7.108  1.5680 -0.0554  0.1460
 4050SOL     OW23782   3.728   2.164   5.142 -0.7640 -0.7194  0.2421
 4050SOL    HW123783   3.748   2.194   5.231  0.6247 -1.1711  0.0841
 4050SOL    HW223784   3.657   2.105   5.165 -1.8047 -0.2190 -1.6583
 4051SOL     OW23785   0.977   0.353   1.108  0.3684  0.3423  0.4303
 4051SOL    HW123786   1.046   0.392   1.055  0.8784 -1.0150  0.1090
 4051SOL    HW223787   0.912   0.423   1.116  0.7263  0.4677  2.2143
 4052SOL     OW23788   3.375   2.260   9.968 -0.4460  0.1022  0.2147
 4052SOL    HW123789   3.393   2.315   9.892  2.4658 -0.4577  0.5335
 4052SOL    HW223790   3.285   2.232   9.951 -1.1130  1.2730  1.7550
 4053SOL     OW23791   1.535   1.685  15.027  0.4035  1.0204 -0.0245
 4053SOL    HW123792   1.597   1.753  15.053  1.8544 -1.1909  2.3570
 4053SOL    HW223793   1.571   1.618  15.086 -1.2920  1.0939  1.0757
 4054SOL     OW23794   0.854   3.071   3.206  0.0765 -0.0869 -0.4403
 4054SOL    HW123795   0.931   3.107   3.250 -1.3274  0.8590  1.2652
 4054SOL    HW223796   0.904   3.011   3.151  0.6834  0.7075 -0.7594
 4055SOL     OW23797   0.574   1.622  17.235  0.5009  0.1147 -0.1227
 4055SOL    HW123798   0.535   1.631  17.322  1.4639  0.2676  0.2850
 4055SOL    HW223799   0.500   1.574  17.196  1.9608 -3.2085  1.2676
 4056SOL     OW23800   0.152   4.128   2.355  0.0122 -0.2912  0.1704
 4056SOL    HW123801   0.102   4.206   2.381 -1.1240 -0.2919 -1.9767
 4056SOL    HW223802   0.079   4.069   2.334 -1.0557  0.7710  0.8372
 4057SOL     OW23803   3.874   2.335  15.759  0.4411 -0.2643 -0.3784
 4057SOL    HW123804   3.963   2.361  15.736 -0.0569  0.2540 -1.7613
 4057SOL    HW223805   3.842   2.406  15.815  1.5923  0.7599 -1.0234
 4058SOL     OW23806   1.795   2.714   5.574 -0.0999  0.7494  0.5885
 4058SOL    HW123807   1.858   2.766   5.625 -1.1324  2.5806 -0.0014
 4058SOL    HW223808   1.821   2.745   5.487  0.6964 -2.6101 -0.3939
 4059SOL     OW23809   3.963   1.236  17.190  0.0909 -0.0506  0.3568
 4059SOL    HW123810   4.056   1.218  17.176  0.1648  0.7527 -0.2008
 4059SOL    HW223811   3.969   1.309  17.253 -1.2534  0.6606 -0.3417
 4060SOL     OW23812   2.470   1.028   1.607  0.6976  0.2436  0.3437
 4060SOL    HW123813   2.477   0.989   1.694  1.3185 -2.5526 -0.9600
 4060SOL    HW223814   2.502   1.116   1.625  6.0839 -1.2030 -2.0350
 4061SOL     OW23815   2.789   2.341   2.697 -0.6910  0.1777 -0.1002
 4061SOL    HW123816   2.815   2.263   2.648 -0.6419  1.1421 -1.6134
 4061SOL    HW223817   2.712   2.375   2.652 -1.9628 -1.1055  1.1165
 4062SOL     OW23818   1.912   4.106   8.806 -0.6599  0.0826  0.2148
 4062SOL    HW123819   1.921   4.201   8.809  3.4833 -0.4502  3.8259
 4062SOL    HW223820   2.003   4.078   8.793 -0.1603  1.7277  0.2370
 4063SOL     OW23821   2.845   2.860   1.789  0.3630 -0.2434  0.2471
 4063SOL    HW123822   2.785   2.858   1.863 -0.1180  1.8031 -0.1105
 4063SOL    HW223823   2.920   2.882   1.845 -0.7271 -2.2817  2.5031
 4064SOL     OW23824   1.528   1.120   5.129 -0.0875  0.0571 -0.4497
 4064SOL    HW123825   1.598   1.185   5.125  0.5951 -0.7350 -0.9734
 4064SOL    HW223826   1.553   1.069   5.053 -0.3190 -0.2546 -0.3176
 4065SOL     OW23827   0.813   3.635   4.916 -0.9192 -0.5527  0.2109
 4065SOL    HW123828   0.880   3.579   4.876 -2.0216 -0.3732 -1.8921
 4065SOL    HW223829   0.792   3.586   4.995  0.0008 -0.2762  0.6324
 4066SOL     OW23830   0.358   3.978   9.004  0.3457 -0.4615  0.7419
 4066SOL    HW123831   0.358   4.020   9.090  2.0164 -0.8305  0.9282
 4066SOL    HW223832   0.383   3.890   9.033 -0.9379 -0.8683  0.6330
 4067SOL     OW23833   4.155   3.070   5.017  0.1382  0.2308  0.3099
 4067SOL    HW123834   4.124   3.160   5.017  1.8544  0.8239 -0.0164
 4067SOL    HW223835   4.078   3.018   5.041 -0.4362  0.9933  0.1140
 4068SOL     OW23836   1.967   4.678   2.260 -0.5261  0.1621 -0.0322
 4068SOL    HW123837   1.891   4.684   2.318 -0.2096  1.5648  0.2309
 4068SOL    HW223838   1.937   4.727   2.183 -1.7146 -1.1142 -0.3907
 4069SOL     OW23839   3.702   3.925   1.805 -0.1649 -0.2659 -0.2015
 4069SOL    HW123840   3.613   3.954   1.786 -0.3320 -1.6840 -1.6121
 4069SOL    HW223841   3.695   3.845   1.857 -1.6893  0.2650  0.3824
 4070SOL     OW23842   2.416   1.476   4.375  0.1739 -0.4761  0.0957
 4070SOL    HW123843   2.325   1.455   4.356  0.0559  1.3296 -1.3233
 4070SOL    HW223844   2.429   1.569   4.356  2.1608 -0.5213  1.3071
 4071SOL     OW23845   2.875   4.183   7.137 -0.4038 -0.0495  0.3707
 4071SOL    HW123846   2.902   4.181   7.046  0.3349  0.9461  0.5716
 4071SOL    HW223847   2.922   4.263   7.160  0.9274 -1.0294  1.0521
 4072SOL     OW23848   3.278   2.912   9.603 -0.2908  0.0357  0.4219
 4072SOL    HW123849   3.316   2.847   9.543  1.3830  1.9709 -0.6221
 4072SOL    HW223850   3.214   2.851   9.639 -2.4596  1.4804 -0.9376
 4073SOL     OW23851   3.508   3.837   8.287 -0.2963  0.6140 -0.0470
 4073SOL    HW123852   3.488   3.928   8.262 -1.2433  0.8594  1.5879
 4073SOL    HW223853   3.429   3.794   8.254  0.2902 -1.9845  1.9791
 4074SOL     OW23854   3.953   4.376   6.087  0.1834  0.3650  0.1060
 4074SOL    HW123855   3.917   4.293   6.056  0.1820 -0.2667  1.7574
 4074SOL    HW223856   3.921   4.382   6.178  2.0894  2.1319  0.6640
 4075SOL     OW23857   1.912   1.379   3.266  0.0500  0.5231  0.4322
 4075SOL    HW123858   1.982   1.347   3.210  2.8972  1.4219  3.4775
 4075SOL    HW223859   1.926   1.474   3.267 -1.7765  0.7972  2.5867
 4076SOL     OW23860   3.334   3.653  14.010  0.6383 -0.5656 -0.3556
 4076SOL    HW123861   3.329   3.731  14.065 -1.8890 -1.1651  0.2328
 4076SOL    HW223862   3.347   3.686  13.921  2.8249 -1.0499 -0.2145
 4077SOL     OW23863   2.841   0.710   7.837  0.2829 -0.3478 -0.0103
 4077SOL    HW123864   2.922   0.732   7.791  0.7064  0.1318  0.9717
 4077SOL    HW223865   2.863   0.648   7.906  1.9148  0.1927 -0.0308
 4078SOL     OW23866   3.068   4.201   4.774  0.3327 -0.1111  0.2450
 4078SOL    HW123867   3.115   4.131   4.819  1.4660  1.1620  1.0533
 4078SOL    HW223868   3.030   4.150   4.703  1.6516 -1.3491  0.4437
 4079SOL     OW23869   4.285   3.769   9.116  0.3804  0.7555  0.0474
 4079SOL    HW123870   4.192   3.788   9.112  0.2507  0.0714 -0.2067
 4079SOL    HW223871   4.311   3.766   9.024  0.1548  1.7368 -0.0487
 4080SOL     OW23872   3.263   1.121   7.526  0.2453  0.2062  0.2774
 4080SOL    HW123873   3.284   1.155   7.613  1.3400  1.3420 -0.4439
 4080SOL    HW223874   3.309   1.173   7.461 -0.0898  1.6808  1.2211
 4081SOL     OW23875   1.432   2.682   9.077  0.0747 -0.6259  0.8678
 4081SOL    HW123876   1.391   2.701   8.993  0.0025 -1.1749  0.7799
 4081SOL    HW223877   1.475   2.599   9.056  0.5857  0.4113 -2.1556
 4082SOL     OW23878   0.510   3.468   0.369 -0.1206  0.1018 -0.3275
 4082SOL    HW123879   0.592   3.432   0.400 -0.7371 -1.7690 -0.8862
 4082SOL    HW223880   0.450   3.424   0.428  1.2047 -1.8452 -0.4491
 4083SOL     OW23881   2.637   0.875  13.362 -0.1730  0.2630  0.2036
 4083SOL    HW123882   2.692   0.903  13.288 -1.5349  1.1514 -0.4609
 4083SOL    HW223883   2.633   0.953  13.418  1.3359  0.1215  0.5280
 4084SOL     OW23884   1.350   4.145   8.931 -0.1586 -0.0770 -0.0317
 4084SOL    HW123885   1.296   4.192   8.995 -0.6330  0.8521 -1.1082
 4084SOL    HW223886   1.416   4.209   8.906 -0.5076  0.3117  0.0383
 4085SOL     OW23887   0.945   0.846   5.837 -0.4256  0.1338 -0.2136
 4085SOL    HW123888   0.980   0.929   5.867  2.5164 -1.0527 -0.3150
 4085SOL    HW223889   0.997   0.843   5.756  0.4817 -0.7508  0.3972
 4086SOL     OW23890   1.849   0.581   2.667 -0.3056  0.1428  0.2935
 4086SOL    HW123891   1.942   0.558   2.670 -0.3933 -0.4478 -1.2755
 4086SOL    HW223892   1.815   0.536   2.590  0.3753 -1.2142  0.7788
 4087SOL     OW23893   4.300   2.472   6.397  0.1304 -0.3265 -0.3791
 4087SOL    HW123894   4.395   2.461   6.397  0.2463  0.6705  1.3142
 4087SOL    HW223895   4.296   2.545   6.459  1.6365  1.0742 -1.9299
 4088SOL     OW23896   3.787   1.772   1.658  0.3637 -0.2138  0.0194
 4088SOL    HW123897   3.836   1.845   1.622  0.7694 -1.7582 -2.6358
 4088SOL    HW223898   3.712   1.769   1.598  0.5058 -2.7503 -0.0473
 4089SOL     OW23899   1.888   3.341   2.361 -0.0584 -0.6222 -0.4861
 4089SOL    HW123900   1.798   3.311   2.352 -1.3224  2.6073  1.1059
 4089SOL    HW223901   1.875   3.405   2.431  2.1464  0.3766 -0.9681
 4090SOL     OW23902   0.703   0.905   7.353 -0.1987 -0.1292 -0.4167
 4090SOL    HW123903   0.663   0.947   7.277  2.7308  0.6404 -1.5411
 4090SOL    HW223904   0.691   0.810   7.354 -1.5859  0.0441  1.1745
 4091SOL     OW23905   3.226   2.447   3.737  0.0658  0.2903 -0.0246
 4091SOL    HW123906   3.202   2.503   3.811 -0.1102 -2.7906  2.2628
 4091SOL    HW223907   3.136   2.440   3.706  0.5443  0.9614 -1.5356
 4092SOL     OW23908   2.272   4.383   9.575  0.5774  0.0107  0.5889
 4092SOL    HW123909   2.297   4.428   9.495 -0.6236  2.0958  1.3654
 4092SOL    HW223910   2.339   4.416   9.635  1.7408  2.0270 -1.8250
 4093SOL     OW23911   2.621   4.063   6.953  0.0565  0.1050  0.4422
 4093SOL    HW123912   2.587   4.152   6.957  0.8268  0.4095  0.3823
 4093SOL    HW223913   2.716   4.072   6.965  0.2890 -1.3404 -0.2491
 4094SOL     OW23914   0.207   3.908   2.113  0.2090  0.2739  0.4636
 4094SOL    HW123915   0.117   3.939   2.109 -0.0353 -0.4991 -0.2475
 4094SOL    HW223916   0.229   3.902   2.020 -0.2204 -0.4836  0.4115
 4095SOL     OW23917   4.297   1.331   5.154 -0.1220  0.5913  0.1877
 4095SOL    HW123918   4.236   1.283   5.098 -0.2020 -1.5132  2.0778
 4095SOL    HW223919   4.345   1.254   5.186  1.1733  1.6820  0.8399
 4096SOL     OW23920   3.218   0.207   4.111 -0.0370 -0.2483 -0.1000
 4096SOL    HW123921   3.237   0.298   4.132 -3.9970  0.5855 -0.0290
 4096SOL    HW223922   3.304   0.186   4.075 -0.3008 -0.7868 -0.4172
 4097SOL     OW23923   0.429   3.753  16.170 -0.4375 -0.1957  0.7362
 4097SOL    HW123924   0.402   3.674  16.216  1.5074 -0.4896  1.3570
 4097SOL    HW223925   0.346   3.785  16.133  0.8995  1.0431 -1.1795
 4098SOL     OW23926   4.280   1.021   3.647  0.1370 -0.4109 -0.3324
 4098SOL    HW123927   4.185   1.009   3.640  0.3249 -1.3468 -1.4304
 4098SOL    HW223928   4.288   1.006   3.741 -1.3697  1.5556  0.1027
 4099SOL     OW23929   0.973   4.733   8.712  0.4198  0.5245  0.1892
 4099SOL    HW123930   1.061   0.012   8.747  1.0077  0.5798 -1.3015
 4099SOL    HW223931   0.969   0.062   8.640  1.2693 -0.7845 -1.0152
 4100SOL     OW23932   3.130   0.081   8.884  0.5297  0.5483  0.2559
 4100SOL    HW123933   3.156   0.159   8.835  2.1181 -0.9962 -1.3402
 4100SOL    HW223934   3.046   0.094   8.927  0.4105 -1.8887  0.7527
 4101SOL     OW23935   2.835   1.170   7.095 -0.3839  0.1772  0.2208
 4101SOL    HW123936   2.897   1.126   7.155  1.0724 -0.2261 -1.5627
 4101SOL    HW223937   2.874   1.150   7.010  1.7823 -1.0786  1.4754
 4102SOL     OW23938   3.810   1.176   9.238  0.0696  0.1171  0.1836
 4102SOL    HW123939   3.844   1.165   9.327  0.2675  0.5520  0.1573
 4102SOL    HW223940   3.789   1.269   9.237 -1.6193 -0.2375  2.9512
 4103SOL     OW23941   3.975   1.397   8.157 -0.5059  0.6305  0.0054
 4103SOL    HW123942   3.995   1.472   8.212  1.1069  0.7161 -0.6836
 4103SOL    HW223943   4.048   1.346   8.190 -1.2798  1.3657  2.8684
 4104SOL     OW23944   3.493   1.579   8.898 -0.4594 -0.4088  0.1522
 4104SOL    HW123945   3.410   1.541   8.927 -1.1265  0.7611 -0.2152
 4104SOL    HW223946   3.489   1.653   8.958  0.1547  0.4913 -0.9064
 4105SOL     OW23947   4.720   4.145  13.696  0.4165  0.3963 -0.2084
 4105SOL    HW123948   0.055   4.130  13.631  0.6229  1.5839 -0.2516
 4105SOL    HW223949   0.028   4.135  13.782 -1.4301 -0.6855  0.5629
 4106SOL     OW23950   2.297   2.545  10.134  0.5041  0.1351  0.0374
 4106SOL    HW123951   2.240   2.551  10.057 -1.1224  1.4457  1.3379
 4106SOL    HW223952   2.227   2.507  10.186  0.8918 -0.1260  0.3671
 4107SOL     OW23953   2.789   0.996   7.364  0.1403 -0.5405 -0.0500
 4107SOL    HW123954   2.803   0.928   7.430 -0.3013 -1.4470 -0.8930
 4107SOL    HW223955   2.874   1.041   7.360 -1.0848  1.9419  1.7543
 4108SOL     OW23956   2.610   3.234   2.562  0.1852  0.1367  0.2227
 4108SOL    HW123957   2.526   3.266   2.596 -0.7583 -1.3749 -0.7052
 4108SOL    HW223958   2.660   3.311   2.590  0.2637 -0.7305  2.4421
 4109SOL     OW23959   4.117   1.708   6.066  0.5261  0.2011 -0.3816
 4109SOL    HW123960   4.197   1.761   6.057  0.5086  0.3919  0.6271
 4109SOL    HW223961   4.068   1.781   6.103 -1.2309 -0.9255 -0.4929
 4110SOL     OW23962   2.850   2.925  16.942  0.5728  0.5378 -0.3942
 4110SOL    HW123963   2.839   2.952  16.851 -2.5673  0.1277 -0.1203
 4110SOL    HW223964   2.758   2.929  16.968  0.8122  0.8622  0.3863
 4111SOL     OW23965   4.456   1.473   3.038  0.4494  0.3157 -0.4100
 4111SOL    HW123966   4.396   1.425   2.980 -1.1817  1.3446  0.4468
 4111SOL    HW223967   4.398   1.495   3.110 -1.3123  1.5428 -2.2047
 4112SOL     OW23968   4.109   3.831   7.291  0.1375  0.2785 -0.2650
 4112SOL    HW123969   4.159   3.770   7.236 -0.4031  0.2897 -0.7592
 4112SOL    HW223970   4.046   3.774   7.335 -0.4949 -1.0721 -2.9362
 4113SOL     OW23971   3.796   3.925   4.826  0.0762  0.0165  0.0284
 4113SOL    HW123972   3.806   3.838   4.863  1.3335  0.3651  0.5152
 4113SOL    HW223973   3.774   3.982   4.900  0.5187  0.8277 -0.4558
 4114SOL     OW23974   1.191   4.381   7.944  0.0237  0.4939 -0.4579
 4114SOL    HW123975   1.100   4.390   7.915  0.0223 -0.8062 -0.8510
 4114SOL    HW223976   1.183   4.386   8.039  0.3540 -0.2909 -0.3857
 4115SOL     OW23977   1.269   3.431   4.304  0.0351 -0.4318  0.3308
 4115SOL    HW123978   1.249   3.525   4.303 -1.9732 -0.8664 -0.1491
 4115SOL    HW223979   1.319   3.418   4.385 -0.3606 -0.6611  0.5374
 4116SOL     OW23980   4.334   1.952   7.834  0.2558  0.7396 -0.3833
 4116SOL    HW123981   4.409   1.905   7.797 -1.1715 -1.3502 -0.6196
 4116SOL    HW223982   4.318   1.898   7.911 -0.8657  0.3557 -0.8760
 4117SOL     OW23983   0.884   1.834   7.360  0.7554  0.1133  0.2424
 4117SOL    HW123984   0.943   1.765   7.328  1.1464  0.3441  0.4733
 4117SOL    HW223985   0.942   1.900   7.396 -1.3841  0.3901  3.1978
 4118SOL     OW23986   2.734   0.257   3.965 -0.8371  0.0815  0.3165
 4118SOL    HW123987   2.830   0.253   3.960 -0.8318 -0.6717  1.2120
 4118SOL    HW223988   2.716   0.198   4.038 -0.5405  0.1521  0.4504
 4119SOL     OW23989   3.500   0.089   2.016 -0.1285 -0.4754 -0.5361
 4119SOL    HW123990   3.549   0.065   1.937 -1.8292  0.6907 -1.9551
 4119SOL    HW223991   3.492   0.183   2.002  1.9484 -0.1932  0.2139
 4120SOL     OW23992   2.899   4.317  10.996  0.2247  0.0690 -0.4136
 4120SOL    HW123993   2.948   4.238  10.974  1.2848  1.5069 -3.2579
 4120SOL    HW223994   2.848   4.331  10.916 -1.3420 -0.4936  0.4887
 4121SOL     OW23995   0.070   2.400   2.068 -0.5195  0.3717 -1.0152
 4121SOL    HW123996   4.726   2.381   2.121 -0.0161 -0.2290 -0.4737
 4121SOL    HW223997   0.049   2.366   1.981 -2.3785  0.8776 -0.7599
 4122SOL     OW23998   2.643   1.027   3.779 -0.3183  0.2055 -0.4630
 4122SOL    HW123999   2.649   0.931   3.783 -0.8883  0.1672 -0.5892
 4122SOL    HW224000   2.732   1.048   3.751 -1.2446 -0.2321 -3.7298
 4123SOL     OW24001   4.489   0.870  11.564  0.0837 -0.6448 -0.6873
 4123SOL    HW124002   4.400   0.862  11.600 -0.3279  2.9755 -0.8668
 4123SOL    HW224003   4.550   0.892  11.635  1.1830 -0.6606 -1.6322
 4124SOL     OW24004   2.126   0.062   3.918  0.3628  0.4453 -0.0864
 4124SOL    HW124005   2.126   0.097   4.007  0.2338  3.0631 -1.1263
 4124SOL    HW224006   2.036   0.077   3.890 -0.7934 -0.3638  3.1399
 4125SOL     OW24007   1.438   0.430   1.296 -0.2625 -0.7371  0.1683
 4125SOL    HW124008   1.517   0.384   1.326 -0.6701 -1.1284  0.6361
 4125SOL    HW224009   1.439   0.437   1.201  0.7176  2.0069  0.3739
 4126SOL     OW24010   4.571   2.813  11.118  0.3824  0.2839  0.6830
 4126SOL    HW124011   4.520   2.820  11.199  3.0914 -1.6265  2.5065
 4126SOL    HW224012   4.502   2.846  11.060 -0.4361  2.1765  2.7400
 4127SOL     OW24013   0.662   3.040   8.426  0.1165  0.7706 -0.0359
 4127SOL    HW124014   0.618   3.056   8.343 -0.8447  4.1851  1.1551
 4127SOL    HW224015   0.597   3.091   8.475 -0.5130 -0.1359  0.0766
 4128SOL     OW24016   3.134   1.856   6.940 -0.5658 -0.6820 -0.3801
 4128SOL    HW124017   3.152   1.763   6.928 -0.0216 -0.3994 -1.7180
 4128SOL    HW224018   3.049   1.871   6.899 -0.1109 -0.5373 -1.2566
 4129SOL     OW24019   3.928   2.702   2.886 -0.0205  0.1822 -0.7260
 4129SOL    HW124020   3.971   2.673   2.966  2.0422  0.0806 -1.8572
 4129SOL    HW224021   3.997   2.687   2.821  0.7036 -2.0126  0.5623
 4130SOL     OW24022   4.059   2.117   4.066  0.1858 -0.2112 -0.6175
 4130SOL    HW124023   4.014   2.143   4.146 -3.5987  0.5566 -3.0067
 4130SOL    HW224024   3.994   2.069   4.015 -1.2113  0.0014  0.9867
 4131SOL     OW24025   4.398   0.249   0.674  0.5290 -0.1354  0.2127
 4131SOL    HW124026   4.313   0.209   0.658  1.2685 -1.8311  0.4926
 4131SOL    HW224027   4.408   0.294   0.589 -0.0972  0.0970  0.2650
 4132SOL     OW24028   4.482   0.441  14.827  0.0727  0.1054  0.0446
 4132SOL    HW124029   4.568   0.481  14.820  0.2191  0.3277  2.8650
 4132SOL    HW224030   4.425   0.494  14.771 -2.3945  1.1143  3.4473
 4133SOL     OW24031   1.446   0.382   2.433  0.4565 -0.4745  0.1296
 4133SOL    HW124032   1.452   0.300   2.384 -0.2288 -0.7827  0.5652
 4133SOL    HW224033   1.540   0.394   2.446 -0.2256  2.6412  2.1050
 4134SOL     OW24034   4.367   3.493  12.926  0.1862  0.1772  0.8013
 4134SOL    HW124035   4.438   3.431  12.940 -1.3861 -1.4818  1.5071
 4134SOL    HW224036   4.315   3.486  13.006  1.1980  1.0348  1.5314
 4135SOL     OW24037   0.393   2.887   6.234 -0.1335  0.3241  0.0111
 4135SOL    HW124038   0.325   2.942   6.195  0.4531  1.2207  0.2507
 4135SOL    HW224039   0.397   2.818   6.167  1.3000 -0.8202  1.2759
 4136SOL     OW24040   2.198   0.415   1.526  0.3104 -0.1172  0.2079
 4136SOL    HW124041   2.283   0.441   1.490 -0.3539  0.1554 -1.1593
 4136SOL    HW224042   2.141   0.488   1.502 -1.6455 -1.3167  1.1196
 4137SOL     OW24043   4.138   1.680   8.777 -0.0182 -0.2131  0.5348
 4137SOL    HW124044   4.230   1.657   8.793 -0.6608 -2.0835  1.4605
 4137SOL    HW224045   4.141   1.774   8.796  1.3310 -0.3141  0.8465
 4138SOL     OW24046   1.955   0.791  15.040 -0.5710 -0.3475  0.1489
 4138SOL    HW124047   1.979   0.700  15.060 -0.3876 -0.2035  0.5954
 4138SOL    HW224048   2.008   0.814  14.964  0.4951 -1.9046  0.4018
 4139SOL     OW24049   3.355   2.753  12.188  0.0308  0.4510 -0.0893
 4139SOL    HW124050   3.424   2.687  12.189  0.2141  0.6464  0.1103
 4139SOL    HW224051   3.291   2.731  12.120 -0.7356 -1.1322  1.1750
 4140SOL     OW24052   0.695   2.087   6.551  0.0202 -0.2232  0.6195
 4140SOL    HW124053   0.763   2.020   6.553 -0.7352 -1.0188 -0.4533
 4140SOL    HW224054   0.628   2.054   6.492 -0.9224  0.2761  1.4217
 4141SOL     OW24055   2.145   3.059   3.905  0.6690 -0.1295 -0.4905
 4141SOL    HW124056   2.162   2.986   3.846 -0.3137  0.8388 -1.9613
 4141SOL    HW224057   2.230   3.069   3.948 -1.1514  0.8241  2.8791
 4142SOL     OW24058   0.135   3.581   2.492 -0.5220 -0.6482  0.2722
 4142SOL    HW124059   0.091   3.664   2.511 -0.1723 -0.6734  1.2200
 4142SOL    HW224060   0.159   3.605   2.403 -1.4126 -1.6760 -0.2295
 4143SOL     OW24061   1.536   0.654   1.684  0.2764 -0.1680  0.0889
 4143SOL    HW124062   1.459   0.597   1.685 -0.2115  0.4833 -0.8889
 4143SOL    HW224063   1.538   0.683   1.593  1.1219 -0.6091 -0.0304
 4144SOL     OW24064   4.685   0.643  13.552  0.1142 -0.1854 -0.2186
 4144SOL    HW124065   4.595   0.640  13.519 -0.6526  1.2436  1.7141
 4144SOL    HW224066   4.667   0.601  13.636  1.7114 -0.6532 -0.1191
 4145SOL     OW24067   3.713   2.184  10.333  0.4478 -0.5850 -0.4063
 4145SOL    HW124068   3.634   2.205  10.283  0.3334  3.6054  1.5455
 4145SOL    HW224069   3.750   2.272  10.346  0.8901 -0.4173 -2.7072
 4146SOL     OW24070   1.210   3.237  16.252  0.0093 -0.2035  0.4200
 4146SOL    HW124071   1.258   3.260  16.173  0.0369 -0.1548  0.4512
 4146SOL    HW224072   1.205   3.141  16.260  1.3310 -0.3581 -0.7162
 4147SOL     OW24073   3.543   4.095   0.158  0.0279 -0.3375  0.5481
 4147SOL    HW124074   3.490   4.148   0.098 -0.6003 -0.6608  0.8169
 4147SOL    HW224075   3.633   4.127   0.162 -0.8778  2.2945 -0.1260
 4148SOL     OW24076   2.599   3.591  10.878  0.2760  0.0058  0.4490
 4148SOL    HW124077   2.590   3.496  10.884 -0.5281 -0.0011 -0.7100
 4148SOL    HW224078   2.507   3.619  10.881 -0.1832 -1.3332 -1.0727
 4149SOL     OW24079   1.501   1.835  10.645 -0.9408  0.8870  0.0891
 4149SOL    HW124080   1.553   1.780  10.705 -0.1265 -0.2817 -1.6715
 4149SOL    HW224081   1.412   1.813  10.671 -1.1624  2.1630  0.4004
 4150SOL     OW24082   0.768   2.247   4.165  0.0422 -0.2891 -0.0748
 4150SOL    HW124083   0.839   2.185   4.148 -0.5964 -0.5080 -1.9488
 4150SOL    HW224084   0.709   2.185   4.209  0.2012  0.4688  1.2195
 4151SOL     OW24085   0.441   1.453   2.328  0.1711 -0.5594  0.3021
 4151SOL    HW124086   0.492   1.374   2.346  1.7263  0.3340 -0.1618
 4151SOL    HW224087   0.451   1.496   2.414  2.1343  0.9619 -0.6832
 4152SOL     OW24088   3.016   0.087  17.022 -0.6844 -0.1171 -0.1004
 4152SOL    HW124089   3.083   0.152  17.042 -0.5393 -0.7921  1.6298
 4152SOL    HW224090   2.940   0.139  16.995  0.7499  1.5238 -0.9184
 4153SOL     OW24091   0.458   3.880   3.226 -0.0274  0.6892  0.1982
 4153SOL    HW124092   0.473   3.795   3.185 -0.0938  0.5526  0.4575
 4153SOL    HW224093   0.368   3.868   3.256  0.3075 -2.1459  0.0175
 4154SOL     OW24094   0.875   1.176  17.355  0.0115 -0.5406 -0.0845
 4154SOL    HW124095   0.848   1.092  17.393  0.3783  0.0246  1.4545
 4154SOL    HW224096   0.948   1.151  17.298 -1.0893 -0.2990 -1.5960
 4155SOL     OW24097   1.939   3.766   2.262  0.1575 -0.0730 -0.2162
 4155SOL    HW124098   1.970   3.850   2.229  0.8600 -0.2288  0.0427
 4155SOL    HW224099   1.866   3.735   2.209 -0.0148  0.8603 -0.5205
 4156SOL     OW24100   1.192   4.177  15.453 -0.3411  0.3375  0.1377
 4156SOL    HW124101   1.203   4.090  15.414 -0.6773  1.1299 -1.6887
 4156SOL    HW224102   1.216   4.145  15.540 -2.0480 -0.7769  0.2026
 4157SOL     OW24103   3.034   1.345   2.024 -0.8727 -0.4615  0.4924
 4157SOL    HW124104   2.973   1.380   2.089  0.0263 -0.6997  1.4635
 4157SOL    HW224105   2.985   1.378   1.949 -0.6271 -0.8904  0.1475
 4158SOL     OW24106   1.550   0.372   6.522  0.2349 -0.3190  0.1363
 4158SOL    HW124107   1.526   0.338   6.435 -0.1689  0.6761 -0.1398
 4158SOL    HW224108   1.522   0.293   6.568 -2.0241  0.9993  1.0087
 4159SOL     OW24109   1.084   2.485   3.831  0.1325  0.2326  0.3949
 4159SOL    HW124110   1.076   2.565   3.779  0.0528  0.3555  0.5939
 4159SOL    HW224111   1.028   2.429   3.778 -1.0823  1.2471  0.5970
 4160SOL     OW24112   4.501   3.314  10.255 -0.4802  0.1587  0.3103
 4160SOL    HW124113   4.596   3.307  10.271 -0.3297  1.8454  0.2211
 4160SOL    HW224114   4.490   3.375  10.182 -1.1428  2.5678  2.4013
 4161SOL     OW24115   2.970   2.672  16.414  0.5140 -0.0408 -0.0853
 4161SOL    HW124116   2.992   2.642  16.502  1.2091  0.6665 -0.0164
 4161SOL    HW224117   3.041   2.735  16.406  0.8300 -0.4808 -0.6833
 4162SOL     OW24118   0.706   0.020   3.269  0.2517 -0.4586 -0.2362
 4162SOL    HW124119   0.724   0.018   3.175 -0.7463  0.5666 -0.4544
 4162SOL    HW224120   0.680   0.112   3.273  0.9465 -0.2472 -0.6204
 4163SOL     OW24121   1.393   4.507   6.848  0.7147 -0.6320  0.2532
 4163SOL    HW124122   1.378   4.570   6.919  2.4657 -0.1060  0.1654
 4163SOL    HW224123   1.361   4.427   6.890  2.1064 -0.6566  1.2812
 4164SOL     OW24124   3.228   4.001   9.721 -0.2439  0.0563  0.7080
 4164SOL    HW124125   3.318   4.013   9.753  0.0357  0.2000 -0.1216
 4164SOL    HW224126   3.202   3.917   9.758  0.1684 -1.0705 -1.5527
 4165SOL     OW24127   3.811   2.896  16.241  0.1177  0.0979  0.4255
 4165SOL    HW124128   3.787   2.942  16.161  0.6514 -1.0870 -0.4230
 4165SOL    HW224129   3.756   2.954  16.293 -1.8504 -0.0343 -1.5225
 4166SOL     OW24130   2.884   3.251   3.371 -0.3103 -0.1350  0.2223
 4166SOL    HW124131   2.949   3.283   3.310 -1.5543 -0.9240 -1.5237
 4166SOL    HW224132   2.945   3.189   3.412 -2.2209 -1.8786  0.4324
 4167SOL     OW24133   0.674   3.334   4.039 -0.5094  0.2559  0.0614
 4167SOL    HW124134   0.647   3.425   4.048  0.1952  0.4841 -0.1457
 4167SOL    HW224135   0.587   3.296   4.033 -1.9668  3.8669 -1.2532
 4168SOL     OW24136   0.892   3.857   2.194  0.4106  0.1869 -0.0923
 4168SOL    HW124137   0.877   3.847   2.100 -0.8004  1.6597 -0.0423
 4168SOL    HW224138   0.802   3.858   2.225  0.2579 -3.5762 -0.4080
 4169SOL     OW24139   2.109   1.093   8.306  0.0507 -0.1542 -0.1488
 4169SOL    HW124140   2.053   1.144   8.247 -1.2290  0.1344  1.3224
 4169SOL    HW224141   2.055   1.108   8.383  1.1287  1.4457  0.2856
 4170SOL     OW24142   0.014   1.410   8.339 -0.1867  0.6286  0.2404
 4170SOL    HW124143   0.008   1.381   8.248  2.2511 -0.4308  0.4067
 4170SOL    HW224144   0.109   1.399   8.352 -0.1934 -1.4653 -1.3143
 4171SOL     OW24145   4.605   1.935   1.403  0.4888 -0.1214  0.0790
 4171SOL    HW124146   4.549   2.001   1.443  0.7477  1.8439 -2.7934
 4171SOL    HW224147   4.687   1.982   1.421 -0.1875  1.2121 -0.3842
 4172SOL     OW24148   3.085   1.555   2.276 -0.6312 -0.0058  0.0016
 4172SOL    HW124149   3.055   1.466   2.294 -1.9929  0.9202  2.2743
 4172SOL    HW224150   3.158   1.574   2.335 -0.0171 -0.6774 -0.5378
 4173SOL     OW24151   4.278   0.370   4.991 -0.0105  0.4786 -0.0453
 4173SOL    HW124152   4.265   0.364   5.085  2.2743  2.4505  0.3976
 4173SOL    HW224153   4.281   0.466   4.990 -1.1930  0.5168  0.0223
 4174SOL     OW24154   3.186   3.473   1.138 -0.1000 -0.2688  0.0075
 4174SOL    HW124155   3.093   3.453   1.130 -0.1641 -0.2893  0.7768
 4174SOL    HW224156   3.187   3.547   1.077  0.5518 -0.6224 -0.4115
 4175SOL     OW24157   1.731   3.205   3.841 -0.6074 -0.2915 -0.2254
 4175SOL    HW124158   1.764   3.174   3.757  0.4874 -0.6951  0.3438
 4175SOL    HW224159   1.744   3.300   3.835 -3.6971  0.0654 -1.1682
 4176SOL     OW24160   3.985   3.348   7.418  0.3844  0.4153  0.0920
 4176SOL    HW124161   3.922   3.373   7.486 -0.5022  0.9782 -0.9351
 4176SOL    HW224162   4.055   3.307   7.469 -1.8163 -0.4739  2.4087
 4177SOL     OW24163   3.097   3.067  16.593  0.2381 -0.0670 -0.3659
 4177SOL    HW124164   3.044   2.994  16.561  0.6732 -0.6058  0.1449
 4177SOL    HW224165   3.045   3.142  16.565 -0.0717 -0.6594 -1.3973
 4178SOL     OW24166   0.769   4.392  12.078 -0.1189 -0.9231  0.1515
 4178SOL    HW124167   0.756   4.304  12.112 -3.3278 -0.4841  0.0339
 4178SOL    HW224168   0.794   4.373  11.988  1.2877 -1.3313  0.6268
 4179SOL     OW24169   4.035   3.829   8.500 -0.5141  0.7859 -0.1505
 4179SOL    HW124170   3.960   3.777   8.529  0.1937  0.3858  0.9911
 4179SOL    HW224171   4.078   3.845   8.584 -1.2173  1.9559 -0.0233
 4180SOL     OW24172   2.396   3.758   4.508  0.3074  0.2035 -0.0525
 4180SOL    HW124173   2.419   3.850   4.499 -4.6932  1.3124 -1.3145
 4180SOL    HW224174   2.315   3.759   4.457 -1.1327 -0.3523  2.2012
 4181SOL     OW24175   3.022   1.853   0.006 -0.7072 -0.6189 -0.4887
 4181SOL    HW124176   3.053   1.817   0.088 -1.9776 -1.2983 -0.3075
 4181SOL    HW224177   3.085   1.818  17.679 -0.1771 -0.2955 -0.1318
 4182SOL     OW24178   0.602   4.095   2.699  0.1628 -0.4002 -0.2965
 4182SOL    HW124179   0.535   4.150   2.739  1.5177  2.0029 -1.3128
 4182SOL    HW224180   0.662   4.161   2.664  1.9077 -1.1305  1.3194
 4183SOL     OW24181   3.840   4.347   3.855 -0.5368 -0.2464 -0.1206
 4183SOL    HW124182   3.912   4.306   3.902  0.6803 -1.2035 -2.8294
 4183SOL    HW224183   3.793   4.379   3.933 -1.0200 -1.1846 -0.0282
 4184SOL     OW24184   4.521   2.250   3.406  0.2793  0.0918  0.2574
 4184SOL    HW124185   4.527   2.175   3.348  1.0422 -1.0444  1.7952
 4184SOL    HW224186   4.569   2.318   3.359 -1.3230  0.2361 -1.1733
 4185SOL     OW24187   0.112   1.495   6.149  0.1661 -0.5273  0.2186
 4185SOL    HW124188   0.048   1.538   6.093  0.7188 -1.5434 -1.1613
 4185SOL    HW224189   0.066   1.510   6.232  0.7214  0.0234  0.4401
 4186SOL     OW24190   1.980   0.512  12.920  0.2232  0.2752  0.3452
 4186SOL    HW124191   1.943   0.498  12.833 -1.1281 -2.0353  1.3009
 4186SOL    HW224192   1.904   0.552  12.962 -0.4342  0.4427 -1.0098
 4187SOL     OW24193   0.439   2.846  12.458  0.0891  0.1501  0.1405
 4187SOL    HW124194   0.514   2.796  12.490  0.3638  1.2701  1.2226
 4187SOL    HW224195   0.361   2.811  12.502  1.3359 -0.9277  1.5127
 4188SOL     OW24196   1.118   3.271   5.681 -0.0873  0.1873 -0.3391
 4188SOL    HW124197   1.126   3.194   5.624  0.6034  0.0419 -0.0479
 4188SOL    HW224198   1.208   3.286   5.711  0.5441  1.1877 -2.8029
 4189SOL     OW24199   0.641   2.124   9.162 -0.9615  0.0974 -0.2919
 4189SOL    HW124200   0.587   2.053   9.195 -1.0435 -0.2061 -1.0892
 4189SOL    HW224201   0.655   2.094   9.072  1.1351 -0.4273  0.1888
 4190SOL     OW24202   2.990   1.438   4.264 -0.2267  0.8994 -0.0245
 4190SOL    HW124203   3.080   1.469   4.257  0.3083 -0.8466 -1.0330
 4190SOL    HW224204   2.949   1.524   4.252 -1.9441  0.0217 -0.4345
 4191SOL     OW24205   3.428   1.845   8.431 -0.2450 -0.3389  0.1294
 4191SOL    HW124206   3.492   1.886   8.373 -0.1490 -2.9498 -1.6253
 4191SOL    HW224207   3.399   1.915   8.490  0.6742 -0.5049  0.7769
 4192SOL     OW24208   4.033   4.301   3.565  0.0922 -0.5636 -0.3908
 4192SOL    HW124209   4.030   4.327   3.473  0.5639 -3.0084 -1.0813
 4192SOL    HW224210   3.943   4.300   3.598 -0.2709  0.8126 -1.3184
 4193SOL     OW24211   3.181   2.460  12.218  0.0891  0.4124 -0.0508
 4193SOL    HW124212   3.176   2.406  12.139 -0.0044  2.0093 -1.1492
 4193SOL    HW224213   3.134   2.539  12.191 -0.7837  0.3845  1.3478
 4194SOL     OW24214   3.940   0.347   2.605 -0.5511 -0.0685  0.5382
 4194SOL    HW124215   3.902   0.403   2.537  1.5287  1.9286  1.0311
 4194SOL    HW224216   3.932   0.399   2.685  0.8329  1.3161 -0.2329
 4195SOL     OW24217   3.493   4.140   4.721  0.1649 -0.3028  0.6478
 4195SOL    HW124218   3.479   4.234   4.709 -1.8073 -0.8579 -1.4640
 4195SOL    HW224219   3.407   4.123   4.761  1.9788 -1.2308  4.1661
 4196SOL     OW24220   1.249   0.838   2.642  0.5145 -0.1617  0.3987
 4196SOL    HW124221   1.330   0.810   2.601  1.3406  1.8985  0.6410
 4196SOL    HW224222   1.186   0.774   2.609  0.6594 -0.3314  0.4546
 4197SOL     OW24223   3.446   2.933  17.310 -0.3111 -0.0229 -0.3595
 4197SOL    HW124224   3.527   2.985  17.313 -0.2679  0.1246 -5.2069
 4197SOL    HW224225   3.448   2.913  17.404  1.2149  2.3484  0.1160
 4198SOL     OW24226   4.069   2.529   7.421 -0.0160  0.5119 -0.8243
 4198SOL    HW124227   4.103   2.450   7.465  0.1341  0.4809 -0.9967
 4198SOL    HW224228   3.974   2.523   7.432  0.5704  0.8847  4.4657
 4199SOL     OW24229   3.583   4.422   5.388  0.0579  0.1946 -0.8064
 4199SOL    HW124230   3.549   4.475   5.316  0.5578  2.3405  0.5649
 4199SOL    HW224231   3.498   4.417   5.434  1.4184 -1.0553  1.5858
 4200SOL     OW24232   2.693   2.639  10.036  0.4463 -0.2574  0.2804
 4200SOL    HW124233   2.758   2.680   9.979  0.1800 -1.6818 -1.0460
 4200SOL    HW224234   2.644   2.597   9.965 -1.5157  1.7637  0.4296
 4201SOL     OW24235   3.702   1.606   5.373  0.0071  0.2366 -0.0350
 4201SOL    HW124236   3.734   1.565   5.454 -2.1003 -3.6515 -1.1645
 4201SOL    HW224237   3.653   1.684   5.402 -1.5330 -0.7154 -0.0526
 4202SOL     OW24238   3.248   4.486   7.326  0.7318  0.5110  0.6221
 4202SOL    HW124239   3.309   4.516   7.259 -0.5590  2.7292  0.4606
 4202SOL    HW224240   3.299   4.417   7.370 -0.1703  0.0175  0.9031
 4203SOL     OW24241   2.477   4.024   9.804 -0.3640  0.1658 -0.2470
 4203SOL    HW124242   2.444   4.100   9.851  0.9581  0.5699  0.0135
 4203SOL    HW224243   2.572   4.024   9.814 -0.5041  0.3326  1.1660
 4204SOL     OW24244   1.832   3.621   7.345  0.0221 -0.2052 -0.1297
 4204SOL    HW124245   1.814   3.694   7.285 -0.7141  0.6377  1.1138
 4204SOL    HW224246   1.874   3.559   7.285  0.9739  1.2062 -0.9284
 4205SOL     OW24247   2.945   0.810  12.369 -0.7740  0.4729  0.3601
 4205SOL    HW124248   2.855   0.818  12.338  0.0400 -2.8195 -2.9051
 4205SOL    HW224249   2.930   0.754  12.445  3.4816 -0.7992  0.2999
 4206SOL     OW24250   0.523   0.771   7.543 -0.4525 -0.3699  0.0436
 4206SOL    HW124251   0.506   0.823   7.621 -0.8480 -0.4836  0.0312
 4206SOL    HW224252   0.441   0.737   7.507 -0.9653 -0.3334  1.1870
 4207SOL     OW24253   2.906   1.879  15.635 -0.2128 -0.1242  0.0822
 4207SOL    HW124254   2.836   1.825  15.599  0.2022  1.0798 -2.5713
 4207SOL    HW224255   2.961   1.911  15.563  1.7246 -2.5743  0.4594
 4208SOL     OW24256   3.079   2.352   3.399  0.0552 -0.0603 -0.4477
 4208SOL    HW124257   3.124   2.302   3.330  1.3015 -0.7839  0.8883
 4208SOL    HW224258   3.061   2.439   3.363  2.1692  0.6529  0.2291
 4209SOL     OW24259   4.138   3.649   5.084 -0.4163 -0.0303  0.5739
 4209SOL    HW124260   4.111   3.740   5.074 -0.6166 -0.1977 -0.3695
 4209SOL    HW224261   4.182   3.650   5.169 -1.5283  1.6399  1.1360
 4210SOL     OW24262   0.952   0.146  16.077  0.2663 -0.1027  0.6178
 4210SOL    HW124263   0.949   0.068  16.133  0.0164 -0.1955  0.4725
 4210SOL    HW224264   0.888   0.124  16.010  0.8230 -0.1441  0.0934
 4211SOL     OW24265   0.554   2.058   4.196  0.1647  0.0389  0.3530
 4211SOL    HW124266   0.474   2.053   4.143  0.0755  2.3871  0.2437
 4211SOL    HW224267   0.552   1.974   4.241 -2.0376  0.8590  1.8008
 4212SOL     OW24268   0.500   3.139   4.993  0.6028  0.3088 -0.0434
 4212SOL    HW124269   0.452   3.072   4.945  1.1398  1.1974 -1.8166
 4212SOL    HW224270   0.583   3.091   4.986  0.0296 -1.0727  2.4183
 4213SOL     OW24271   2.248   1.680   3.751  0.5252 -0.4646  0.3215
 4213SOL    HW124272   2.220   1.658   3.840  1.0182 -0.7245  0.4111
 4213SOL    HW224273   2.275   1.594   3.721 -1.3863  0.1360 -3.1253
 4214SOL     OW24274   2.045   1.681   4.393 -0.1130  0.0695 -0.2714
 4214SOL    HW124275   2.074   1.671   4.302  0.8261  0.0622  0.0299
 4214SOL    HW224276   2.019   1.592   4.414  1.4950 -0.8449 -2.1415
 4215SOL     OW24277   4.306   3.368   8.759  0.0579  0.4662  0.8485
 4215SOL    HW124278   4.372   3.414   8.810  1.0850  1.4514 -1.3745
 4215SOL    HW224279   4.352   3.373   8.675  0.3721 -2.3411  0.8571
 4216SOL     OW24280   2.925   3.410  16.133  0.2304  0.0324 -0.1047
 4216SOL    HW124281   2.862   3.379  16.197  1.1935  0.8356  1.2198
 4216SOL    HW224282   3.002   3.383  16.184  1.0282  1.2173 -0.6917
 4217SOL     OW24283   3.642   2.137   6.770 -0.0205  0.1926 -0.3113
 4217SOL    HW124284   3.726   2.097   6.793 -0.1711  0.3941  0.5933
 4217SOL    HW224285   3.663   2.203   6.704 -0.5172  1.2674  0.5973
 4218SOL     OW24286   1.963   4.080   7.593 -0.6137 -0.2449 -0.3948
 4218SOL    HW124287   1.960   4.085   7.498 -0.1881  0.4283 -0.3707
 4218SOL    HW224288   2.040   4.027   7.611  0.3467  0.9546 -1.0370
 4219SOL     OW24289   0.306   1.736   4.017  0.2266 -0.3586  0.5335
 4219SOL    HW124290   0.345   1.656   4.051  0.9717 -0.7462 -1.2103
 4219SOL    HW224291   0.376   1.764   3.957 -0.3183 -0.1433 -0.0127
 4220SOL     OW24292   2.051   4.565   3.120  0.0470 -0.6599  0.2792
 4220SOL    HW124293   2.102   4.499   3.073 -1.1355 -2.0822  0.9692
 4220SOL    HW224294   2.028   4.621   3.046 -0.4408  0.6161  1.4027
 4221SOL     OW24295   1.584   4.108   5.411  0.0473 -0.3075  0.0408
 4221SOL    HW124296   1.613   4.049   5.341 -0.3304  0.6521 -0.9307
 4221SOL    HW224297   1.505   4.064   5.444 -0.5442  0.0964 -0.8335
 4222SOL     OW24298   3.996   3.596   4.741  0.3653 -0.1106  0.0659
 4222SOL    HW124299   4.061   3.546   4.791  0.5118 -0.7918 -0.8244
 4222SOL    HW224300   3.994   3.680   4.788  1.9280  0.3768 -0.7395
 4223SOL     OW24301   1.961   1.423   2.277 -0.3038 -0.9052  0.2067
 4223SOL    HW124302   1.868   1.402   2.282  0.2821 -2.9457  2.2455
 4223SOL    HW224303   1.964   1.517   2.293 -2.7242 -1.0883  1.6529
 4224SOL     OW24304   3.385   4.266  17.222  0.3222  0.3130  0.0093
 4224SOL    HW124305   3.331   4.242  17.297  0.8349  0.3911  0.4041
 4224SOL    HW224306   3.332   4.334  17.181 -0.9970  0.3643  1.8139
 4225SOL     OW24307   1.547   3.395  15.552  0.2437  0.4728  0.4375
 4225SOL    HW124308   1.487   3.469  15.541 -1.7979 -1.3530 -0.6792
 4225SOL    HW224309   1.494   3.327  15.509 -1.7100  2.7398 -0.7397
 4226SOL     OW24310   4.592   3.453   3.501 -0.0155  0.2350 -0.0151
 4226SOL    HW124311   4.603   3.478   3.593  0.9337  0.1642 -0.1143
 4226SOL    HW224312   4.632   3.366   3.498  0.1704  0.3203 -0.0504
 4227SOL     OW24313   3.923   1.621   6.800  0.0891  0.2966  0.2452
 4227SOL    HW124314   3.836   1.582   6.798 -0.5471  1.6461  1.9112
 4227SOL    HW224315   3.958   1.609   6.711  0.3391 -1.5864  0.5923
 4228SOL     OW24316   0.747   0.124  12.747 -0.2797 -0.9948  0.1655
 4228SOL    HW124317   0.656   0.144  12.768  0.4991  3.1579 -0.5230
 4228SOL    HW224318   0.733   0.088  12.660 -1.4007  1.4420 -0.6501
 4229SOL     OW24319   2.601   2.954   2.551  0.2468 -0.5068  0.3451
 4229SOL    HW124320   2.623   3.047   2.562  1.3694 -0.6167 -1.0033
 4229SOL    HW224321   2.682   2.929   2.596  0.8910  1.8875  0.5295
 4230SOL     OW24322   3.832   0.839   0.422 -0.1793  0.2916 -0.1413
 4230SOL    HW124323   3.869   0.764   0.377  1.1650 -0.3735  2.0724
 4230SOL    HW224324   3.858   0.909   0.363 -0.9568  0.6080 -0.1084
 4231SOL     OW24325   1.714   4.674   2.775  0.2089  0.4681 -0.0899
 4231SOL    HW124326   1.748   4.642   2.692  0.6036  3.0708 -0.9393
 4231SOL    HW224327   1.673   0.022   2.746 -0.2796 -0.4475 -1.9799
 4232SOL     OW24328   3.661   1.716   9.148 -1.2027 -0.2615 -0.6876
 4232SOL    HW124329   3.677   1.781   9.216 -2.4839 -0.5484 -0.1253
 4232SOL    HW224330   3.727   1.735   9.081 -0.1437 -2.1922 -0.2030
 4233SOL     OW24331   0.365   2.869   7.115  0.0816  0.6466 -0.4999
 4233SOL    HW124332   0.344   2.785   7.076 -0.1230  0.7329 -0.5788
 4233SOL    HW224333   0.456   2.840   7.122 -0.6404 -1.6692 -0.7885
 4234SOL     OW24334   3.441   3.892  11.853 -0.0152  0.5568 -0.4034
 4234SOL    HW124335   3.465   3.984  11.842  0.0248  0.4640 -1.0609
 4234SOL    HW224336   3.521   3.842  11.841 -0.2336  0.1699 -0.2665
 4235SOL     OW24337   2.667   2.368   3.055 -0.1097  0.0346  0.4211
 4235SOL    HW124338   2.591   2.364   2.996 -0.3877 -0.8354  0.8360
 4235SOL    HW224339   2.721   2.440   3.021 -0.5833 -0.0554 -0.5402
 4236SOL     OW24340   2.386   1.796   7.847 -0.5589 -0.3992  0.1288
 4236SOL    HW124341   2.431   1.831   7.924  0.6138 -1.5343 -0.0473
 4236SOL    HW224342   2.450   1.796   7.776  1.2632  0.6133  1.7622
 4237SOL     OW24343   1.650   3.542   5.645 -0.1894  0.2446  0.3210
 4237SOL    HW124344   1.563   3.573   5.669  0.7328  0.8730  2.8404
 4237SOL    HW224345   1.650   3.539   5.550 -0.1041 -2.5223  0.4321
 4238SOL     OW24346   1.285   4.289   1.956  0.2828 -0.7272  0.2462
 4238SOL    HW124347   1.207   4.315   1.907  0.2162  0.4256  0.9627
 4238SOL    HW224348   1.253   4.330   2.036 -1.6673 -0.8764 -0.4292
 4239SOL     OW24349   4.542   1.939  16.746  0.2076  0.1505  0.2721
 4239SOL    HW124350   4.447   1.949  16.740 -0.0588 -2.4902  0.1574
 4239SOL    HW224351   4.575   2.029  16.747  1.3428 -0.2182 -1.9982
 4240SOL     OW24352   2.469   1.706  17.600  0.0222  0.4700  0.0699
 4240SOL    HW124353   2.468   1.616  17.568 -1.7516  0.5615 -0.1011
 4240SOL    HW224354   2.444   1.696  17.692  1.3814 -1.8395  0.1944
 4241SOL     OW24355   2.429   4.145   8.031  0.1957  0.0593  0.2344
 4241SOL    HW124356   2.476   4.077   8.079 -1.1283 -0.1749  1.1919
 4241SOL    HW224357   2.351   4.104   7.993 -0.4304 -1.0002  2.6577
 4242SOL     OW24358   0.797   3.986   5.636 -0.3532 -0.3664  0.0433
 4242SOL    HW124359   0.803   4.057   5.573 -2.1788 -0.3832 -0.1547
 4242SOL    HW224360   0.702   3.976   5.637 -0.4230 -0.0513 -3.0868
 4243SOL     OW24361   1.772   1.084   9.287  0.6809  0.3634  0.2834
 4243SOL    HW124362   1.809   1.016   9.230 -0.7989 -1.1894  1.1535
 4243SOL    HW224363   1.735   1.030   9.357  1.0685 -0.2593  0.0140
 4244SOL     OW24364   0.422   4.578   6.460  0.4676 -0.0262  0.7176
 4244SOL    HW124365   0.517   4.573   6.470  0.4701 -1.7981 -0.3202
 4244SOL    HW224366   0.413   4.499   6.407  0.5975  0.6294 -0.2852
 4245SOL     OW24367   0.872   2.560  11.590 -0.0266 -0.1396  1.1143
 4245SOL    HW124368   0.904   2.541  11.502 -2.6926 -1.3092  0.4144
 4245SOL    HW224369   0.837   2.476  11.620 -0.7240 -0.1464  0.2697
 4246SOL     OW24370   3.779   1.451   5.160  0.1522 -0.1606 -0.0674
 4246SOL    HW124371   3.745   1.494   5.239  1.6199  2.9570 -1.1214
 4246SOL    HW224372   3.868   1.485   5.164  0.1109 -0.1181  0.6041
 4247SOL     OW24373   1.110   0.192   7.916  0.0090  0.0948 -0.1592
 4247SOL    HW124374   1.019   0.220   7.900  0.1708  0.3156 -0.7054
 4247SOL    HW224375   1.119   0.136   7.839  2.1536 -0.1608  0.3023
 4248SOL     OW24376   2.319   3.299   8.161  0.2712  0.1782 -0.3796
 4248SOL    HW124377   2.290   3.317   8.072 -2.6967 -0.3257  0.4773
 4248SOL    HW224378   2.304   3.382   8.206 -1.8895 -0.0593 -0.6302
 4249SOL     OW24379   2.106   3.841   6.593  0.8297 -0.3453  0.2238
 4249SOL    HW124380   2.088   3.775   6.660  1.3120 -1.4925 -0.7780
 4249SOL    HW224381   2.132   3.913   6.650  0.4067 -2.6354  3.2973
 4250SOL     OW24382   3.898   0.345   3.193  0.3137 -0.4423  0.6167
 4250SOL    HW124383   3.805   0.364   3.201 -0.6244 -3.6481 -2.7995
 4250SOL    HW224384   3.936   0.419   3.241  0.2977 -0.2838  0.3830
 4251SOL     OW24385   2.289   2.053   0.917 -0.4927  0.3237 -0.5434
 4251SOL    HW124386   2.368   2.008   0.888 -0.9279 -0.2991 -0.7447
 4251SOL    HW224387   2.259   2.090   0.834  0.1816 -0.3005 -1.0604
 4252SOL     OW24388   1.807   0.719   3.550 -0.0711 -0.1192 -0.4296
 4252SOL    HW124389   1.814   0.624   3.561  0.0005 -0.1218 -0.4939
 4252SOL    HW224390   1.730   0.722   3.494  0.9585 -0.1510 -1.8611
 4253SOL     OW24391   3.680   2.731   8.520 -0.5149 -0.6395  0.0904
 4253SOL    HW124392   3.652   2.822   8.529 -0.1674 -0.4535 -0.7307
 4253SOL    HW224393   3.687   2.726   8.425 -1.0828 -2.5161  0.1462
 4254SOL     OW24394   1.889   4.343   9.167 -0.2205 -0.6483 -0.2521
 4254SOL    HW124395   1.907   4.262   9.120 -2.1721 -1.5864  0.6178
 4254SOL    HW224396   1.904   4.306   9.254  1.5464 -0.6424 -0.5570
 4255SOL     OW24397   0.794   1.397   4.720  0.0009 -0.1955  0.4559
 4255SOL    HW124398   0.778   1.478   4.673  0.2512 -1.4970 -1.8961
 4255SOL    HW224399   0.776   1.329   4.655 -0.2935 -0.7056  1.0692
 4256SOL     OW24400   4.374   3.141   5.401  0.2694  0.4385  0.5679
 4256SOL    HW124401   4.278   3.136   5.396  0.2390  1.5067  0.1249
 4256SOL    HW224402   4.402   3.049   5.400  1.0666  0.6648  2.0294
 4257SOL     OW24403   3.681   1.553   6.393 -0.2739  0.5590  0.2340
 4257SOL    HW124404   3.774   1.531   6.389 -0.3534  0.5530 -1.4348
 4257SOL    HW224405   3.690   1.643   6.425  4.0533 -0.4968  1.9117
 4258SOL     OW24406   2.348   0.760   9.285  0.0598 -0.1664 -0.0339
 4258SOL    HW124407   2.297   0.685   9.256 -1.8286  1.8617 -1.9524
 4258SOL    HW224408   2.285   0.803   9.343  0.9817  2.2594 -0.8092
 4259SOL     OW24409   0.246   2.070   9.043 -0.3831 -0.5003 -0.1812
 4259SOL    HW124410   0.276   1.996   8.989  0.0843  0.6661 -1.4944
 4259SOL    HW224411   0.319   2.130   9.031 -1.2354  0.1781 -1.8293
 4260SOL     OW24412   2.240   3.144   9.825  0.3518  0.7021  0.2159
 4260SOL    HW124413   2.190   3.216   9.864  0.6017  0.5276  0.8491
 4260SOL    HW224414   2.316   3.186   9.785  0.3389  0.1952 -0.3328
 4261SOL     OW24415   3.053   1.428   8.415  0.4753  0.0904  0.1909
 4261SOL    HW124416   2.979   1.410   8.357  0.0741  2.5557 -0.0479
 4261SOL    HW224417   3.010   1.386   8.490 -0.9185  1.1834 -0.0006
 4262SOL     OW24418   2.712   1.797   9.203 -0.4629 -0.8326 -0.0633
 4262SOL    HW124419   2.688   1.886   9.230 -0.6119 -0.2694 -2.0957
 4262SOL    HW224420   2.631   1.750   9.225  0.2390 -1.6469  0.7896
 4263SOL     OW24421   0.956   0.944  15.935  0.1197 -0.3833  0.2555
 4263SOL    HW124422   1.017   1.017  15.945 -0.4494  0.1939 -0.5272
 4263SOL    HW224423   0.984   0.886  16.007  1.6360  1.0762  0.8429
 4264SOL     OW24424   1.277   0.337   1.530 -0.2080 -0.0370  0.1594
 4264SOL    HW124425   1.315   0.353   1.444 -2.1151  1.6039 -0.3832
 4264SOL    HW224426   1.183   0.340   1.512  0.1086  0.3003 -1.4913
 4265SOL     OW24427   4.573   3.258   7.164  0.4500 -0.8436  0.0016
 4265SOL    HW124428   4.628   3.245   7.241  0.2231 -1.7411  0.0181
 4265SOL    HW224429   4.644   3.252   7.100 -0.4109 -2.1742 -0.8416
 4266SOL     OW24430   1.477   2.095   6.378 -0.0224  0.1499  0.1391
 4266SOL    HW124431   1.383   2.082   6.389  0.6397 -4.2119  0.8619
 4266SOL    HW224432   1.494   2.076   6.285  0.6502  1.7339 -0.0565
 4267SOL     OW24433   3.326   3.169   3.201  0.1502 -0.0877 -0.1663
 4267SOL    HW124434   3.363   3.254   3.226  0.1636 -0.1241 -0.0642
 4267SOL    HW224435   3.400   3.124   3.159 -0.1414 -0.7687  0.0545
 4268SOL     OW24436   2.001   3.123   6.149  0.0146  0.2057  0.6741
 4268SOL    HW124437   1.962   3.106   6.064 -0.6474  1.1468  0.7937
 4268SOL    HW224438   1.927   3.169   6.190  0.6350  0.6736  1.2717
 4269SOL     OW24439   3.728   1.605  10.030 -0.4723 -0.5594 -0.0757
 4269SOL    HW124440   3.723   1.625   9.937  0.1558 -0.9755 -0.1951
 4269SOL    HW224441   3.637   1.621  10.055  0.0713  1.3912  0.6573
 4270SOL     OW24442   3.359   1.259  13.609  0.0819  0.4454 -0.0864
 4270SOL    HW124443   3.315   1.217  13.535 -2.1742  0.8585  1.0151
 4270SOL    HW224444   3.394   1.182  13.654  1.2911  1.8939  1.4391
 4271SOL     OW24445   4.305   1.829   1.628 -0.1217 -0.2389  0.2387
 4271SOL    HW124446   4.227   1.835   1.684 -0.0716  0.0630  0.2783
 4271SOL    HW224447   4.342   1.915   1.648 -0.2599  0.2465 -1.6166
 4272SOL     OW24448   0.464   0.907  15.176 -0.1821  0.2213 -0.1098
 4272SOL    HW124449   0.369   0.900  15.181 -0.4122  0.7639 -3.3685
 4272SOL    HW224450   0.465   0.940  15.086  0.8286  0.2677 -0.0739
 4273SOL     OW24451   0.550   0.008  14.625  0.3505  0.4716  0.4424
 4273SOL    HW124452   0.475   0.049  14.582  0.7000 -0.6659 -1.2356
 4273SOL    HW224453   0.586   4.698  14.549  0.3021 -2.1733  1.9418
 4274SOL     OW24454   0.276   0.187   9.014  0.8248 -0.3328 -0.1500
 4274SOL    HW124455   0.206   0.122   9.010 -0.7703  1.5209 -1.9799
 4274SOL    HW224456   0.320   0.175   9.098 -2.0563  0.1104  1.4113
 4275SOL     OW24457   4.347   3.929   4.988  0.6216  0.6326  0.2212
 4275SOL    HW124458   4.343   3.846   5.037  1.7189 -0.4953 -1.5869
 4275SOL    HW224459   4.439   3.922   4.962  0.1933 -0.8973 -0.8878
 4276SOL     OW24460   3.296   3.517   3.376 -0.0481 -0.1490 -0.1693
 4276SOL    HW124461   3.258   3.568   3.305 -1.7852  0.7391  1.3830
 4276SOL    HW224462   3.236   3.531   3.449 -0.2751 -1.4597 -0.1047
 4277SOL     OW24463   3.483   4.483  16.421  0.5397  0.0857 -0.5351
 4277SOL    HW124464   3.525   4.459  16.505  2.5408 -0.1668 -1.5989
 4277SOL    HW224465   3.440   4.399  16.410  0.4465  0.0172  0.2897
 4278SOL     OW24466   1.120   2.765   3.337 -0.2137  0.1637 -0.3269
 4278SOL    HW124467   1.144   2.773   3.430  1.6147 -1.6994 -0.6544
 4278SOL    HW224468   1.120   2.671   3.321  1.6580 -0.0739  1.0732
 4279SOL     OW24469   2.912   4.546   2.879 -0.3548  0.5587  0.4357
 4279SOL    HW124470   2.903   4.453   2.855 -0.8892  0.3567  1.4286
 4279SOL    HW224471   2.991   4.566   2.829 -1.4630  0.7568 -1.2221
 4280SOL     OW24472   3.562   1.622   2.590  0.4455 -0.3774  0.1079
 4280SOL    HW124473   3.583   1.536   2.553  0.8282  0.0861 -0.7646
 4280SOL    HW224474   3.466   1.617   2.591  0.4124 -0.5500 -3.7162
 4281SOL     OW24475   1.187   3.684   6.447 -0.0915 -0.2800 -1.0567
 4281SOL    HW124476   1.160   3.773   6.471  0.3438 -1.2148  2.8977
 4281SOL    HW224477   1.222   3.708   6.361 -0.9832 -1.1817 -1.6681
 4282SOL     OW24478   2.384   0.386  17.700  0.9681  0.1364  0.1532
 4282SOL    HW124479   2.308   0.431   0.000 -1.7306 -2.1182 -2.8093
 4282SOL    HW224480   2.448   0.425   0.024 -0.7054  1.5961  0.9820
 4283SOL     OW24481   4.543   3.535  16.140  0.2586  0.5673  0.0845
 4283SOL    HW124482   4.515   3.448  16.168  1.4256  0.9503  2.4150
 4283SOL    HW224483   4.636   3.519  16.126  0.5221  0.8208  1.5605
 4284SOL     OW24484   1.411   0.205   8.690 -0.0699 -0.8616  0.7207
 4284SOL    HW124485   1.428   0.271   8.623  0.9082 -1.3769  0.4631
 4284SOL    HW224486   1.316   0.194   8.681 -0.2265  1.5209 -0.3998
 4285SOL     OW24487   1.809   4.281   7.648 -0.1820 -0.2798  0.9018
 4285SOL    HW124488   1.727   4.288   7.599  0.6985  0.8280 -0.4092
 4285SOL    HW224489   1.854   4.201   7.623  0.4103 -0.3085  2.0714
 4286SOL     OW24490   2.136   3.319   4.744  0.3049  0.7595  0.2190
 4286SOL    HW124491   2.119   3.245   4.686  2.0563  0.6994 -0.2031
 4286SOL    HW224492   2.156   3.271   4.824 -0.7686 -1.2507 -0.7059
 4287SOL     OW24493   3.995   0.386  11.299  0.3178 -0.4515  0.0265
 4287SOL    HW124494   4.047   0.453  11.254 -0.0170  0.9024  1.6498
 4287SOL    HW224495   4.062   0.323  11.324 -0.0526 -1.0011 -0.3469
 4288SOL     OW24496   4.364   2.561  15.714 -0.3002 -0.0146 -0.0099
 4288SOL    HW124497   4.279   2.549  15.758 -0.9933 -1.2993 -1.7009
 4288SOL    HW224498   4.410   2.618  15.775 -0.1802 -0.6923  0.5274
 4289SOL     OW24499   1.713   3.524   4.734  0.1678  0.1065  0.1328
 4289SOL    HW124500   1.746   3.479   4.657  0.2627 -1.1878  0.9209
 4289SOL    HW224501   1.781   3.506   4.798  0.0441 -0.8188  0.0137
 4290SOL     OW24502   1.898   0.248  12.090 -1.2534 -0.4608 -0.4186
 4290SOL    HW124503   1.861   0.172  12.136  0.6376 -1.3893 -0.4036
 4290SOL    HW224504   1.873   0.230  11.999  1.6739  0.0690 -1.3254
 4291SOL     OW24505   2.525   2.613  12.394  0.0614  0.1036 -0.0483
 4291SOL    HW124506   2.461   2.617  12.322  0.0058  1.2321  0.0690
 4291SOL    HW224507   2.594   2.556  12.359 -1.0103 -0.1754 -1.7205
 4292SOL     OW24508   2.377   2.397   5.946 -0.0314  0.4521  0.1962
 4292SOL    HW124509   2.435   2.334   5.990  0.1995  0.1473 -0.5426
 4292SOL    HW224510   2.296   2.395   5.996 -1.4928  1.4845 -2.1637
 4293SOL     OW24511   3.481   0.419  16.733  0.2355 -0.4281 -0.1790
 4293SOL    HW124512   3.529   0.336  16.735 -0.1513 -0.6400  0.3561
 4293SOL    HW224513   3.445   0.433  16.821  1.2051  1.1487 -0.0312
 4294SOL     OW24514   3.105   3.667   3.606 -0.4626 -0.3864 -0.2813
 4294SOL    HW124515   3.068   3.695   3.690  2.4255  1.2704  0.4119
 4294SOL    HW224516   3.163   3.740   3.583  0.5694 -0.5110  1.9405
 4295SOL     OW24517   4.515   0.379  17.510 -0.0939  0.3357  0.0884
 4295SOL    HW124518   4.543   0.336  17.429  0.4534  0.4402  0.2263
 4295SOL    HW224519   4.437   0.326  17.529  0.8113 -1.2017 -0.4554
 4296SOL     OW24520   1.553   3.371   1.846  0.2058 -0.1460 -0.0434
 4296SOL    HW124521   1.572   3.342   1.757  0.9113  1.4809 -0.4189
 4296SOL    HW224522   1.487   3.440   1.836 -0.4886 -0.9688 -1.0887
 4297SOL     OW24523   4.131   1.581   3.824  0.0125  0.0381  0.1721
 4297SOL    HW124524   4.210   1.635   3.833  0.9062 -1.0910 -0.8002
 4297SOL    HW224525   4.153   1.514   3.888 -1.3343 -0.7566 -0.2200
 4298SOL     OW24526   1.218   3.833   2.613 -0.2606  0.1437  0.1792
 4298SOL    HW124527   1.151   3.849   2.547 -1.5292 -2.5562  0.8374
 4298SOL    HW224528   1.171   3.776   2.674  1.9101  0.5329  2.2583
 4299SOL     OW24529   0.253   1.037   6.803  0.2351 -0.2319 -0.4014
 4299SOL    HW124530   0.246   1.045   6.898  0.4600  2.3234 -0.6034
 4299SOL    HW224531   0.280   1.127   6.787  1.3329 -1.1304 -3.4675
 4300SOL     OW24532   1.569   0.465   5.451  0.1539 -0.6687  0.5200
 4300SOL    HW124533   1.607   0.526   5.514 -0.7861 -1.7233  2.0966
 4300SOL    HW224534   1.517   0.408   5.508  0.4342  0.2532  1.6916
 4301SOL     OW24535   3.484   3.447  12.586  0.5424 -0.0815  0.0299
 4301SOL    HW124536   3.402   3.418  12.546  0.2689  2.4179 -1.2237
 4301SOL    HW224537   3.471   3.408  12.673 -2.4378 -0.4916 -0.5947
 4302SOL     OW24538   0.470   0.262   0.832 -0.0064  0.0957 -0.2973
 4302SOL    HW124539   0.507   0.331   0.777  1.2655 -0.6131 -0.3229
 4302SOL    HW224540   0.408   0.217   0.774  1.3178 -3.3927  1.0388
 4303SOL     OW24541   3.921   3.165   3.944 -0.1521  0.8241  0.1803
 4303SOL    HW124542   3.998   3.187   3.892 -2.0606  1.2808 -2.4508
 4303SOL    HW224543   3.962   3.193   4.026  3.8742 -1.8664 -0.9132
 4304SOL     OW24544   3.871   2.904   6.049  0.2659  0.0284  0.3621
 4304SOL    HW124545   3.801   2.958   6.013  1.5236  0.9094 -0.7941
 4304SOL    HW224546   3.948   2.946   6.011 -0.2427  0.4025 -0.2449
 4305SOL     OW24547   1.531   1.511   1.838 -0.6918 -0.8386 -0.0545
 4305SOL    HW124548   1.508   1.418   1.835 -1.4006 -0.6952  0.7168
 4305SOL    HW224549   1.578   1.525   1.920  2.7669 -1.5749 -1.9357
 4306SOL     OW24550   4.086   3.429  14.161 -0.1665  0.3363  0.2150
 4306SOL    HW124551   4.033   3.470  14.093 -0.6618 -0.1919  0.2804
 4306SOL    HW224552   4.027   3.355  14.174  2.1551 -1.3825  1.0324
 4307SOL     OW24553   2.508   1.267   3.106  0.4600 -0.2686  0.6673
 4307SOL    HW124554   2.484   1.310   3.188  3.8881  1.1259  0.9572
 4307SOL    HW224555   2.485   1.334   3.041 -0.5821 -1.0938  0.1986
 4308SOL     OW24556   4.630   0.728   7.383 -0.0391 -0.2414  0.7455
 4308SOL    HW124557   4.621   0.640   7.419 -2.9560 -1.0660 -1.9787
 4308SOL    HW224558   4.631   0.709   7.289  0.9915  1.9774  0.3267
 4309SOL     OW24559   1.693   2.632   0.763  0.0515  0.2193 -0.5963
 4309SOL    HW124560   1.745   2.663   0.689 -3.2095  3.8084 -1.4207
 4309SOL    HW224561   1.653   2.716   0.787 -1.5286 -1.6258  3.2291
 4310SOL     OW24562   0.231   1.123   9.452 -0.1204 -0.0794  0.2718
 4310SOL    HW124563   0.155   1.181   9.443  0.2886  0.4929  0.4602
 4310SOL    HW224564   0.200   1.038   9.421  2.6311 -1.5138  1.3822
 4311SOL     OW24565   4.147   2.283   1.953 -0.3511  0.1303 -0.3435
 4311SOL    HW124566   4.167   2.191   1.971  0.0201  0.5880  1.5298
 4311SOL    HW224567   4.064   2.274   1.905 -1.0292 -0.1435  0.8814
 4312SOL     OW24568   2.930   0.411   5.451 -0.1186 -0.2500  0.1079
 4312SOL    HW124569   2.996   0.480   5.452 -0.4122  0.0673 -1.6234
 4312SOL    HW224570   2.893   0.432   5.365 -0.7892 -1.0931  0.1866
 4313SOL     OW24571   3.653   4.123   9.619  0.1667  0.5878 -0.2234
 4313SOL    HW124572   3.597   4.064   9.670 -1.1082  1.2930 -0.7883
 4313SOL    HW224573   3.591   4.132   9.546 -2.3476  2.0125  2.0465
 4314SOL     OW24574   0.573   0.141  12.268  0.3398 -0.1858 -0.3225
 4314SOL    HW124575   0.615   0.201  12.206  0.5668  0.1936  0.2016
 4314SOL    HW224576   0.600   0.060  12.226  0.6884  0.9244 -2.2390
 4315SOL     OW24577   1.376   2.491  16.357 -0.2361  0.4470 -0.4764
 4315SOL    HW124578   1.294   2.495  16.407  0.0218 -0.9671  0.0557
 4315SOL    HW224579   1.434   2.513  16.430  0.3956 -0.0792 -0.8235
 4316SOL     OW24580   4.098   0.068  14.684 -0.0318  0.6765  0.0089
 4316SOL    HW124581   4.010   0.103  14.694  0.3239  1.5403  0.1191
 4316SOL    HW224582   4.150   0.145  14.663 -0.4032  1.4150  1.7813
 4317SOL     OW24583   4.056   1.541   6.576 -0.6767 -0.0228 -0.0532
 4317SOL    HW124584   4.144   1.572   6.557 -0.2516  1.1413  3.7029
 4317SOL    HW224585   4.064   1.446   6.578 -1.4257 -0.1033 -0.9334
 4318SOL     OW24586   2.495   2.167   3.538 -0.2133 -0.1485 -0.5458
 4318SOL    HW124587   2.577   2.120   3.551  1.2560  2.2268 -1.1217
 4318SOL    HW224588   2.518   2.234   3.473  1.3477 -0.4484 -0.3155
 4319SOL     OW24589   2.381   3.356   6.287  0.0406 -0.6013 -0.3039
 4319SOL    HW124590   2.316   3.300   6.330  0.6173  0.3247  1.7763
 4319SOL    HW224591   2.318   3.388   6.223  0.1666  2.3445  1.0531
 4320SOL     OW24592   2.878   3.125   5.427 -0.9817  0.4816  0.1048
 4320SOL    HW124593   2.881   3.190   5.357 -0.4909 -0.6745 -0.9485
 4320SOL    HW224594   2.783   3.119   5.423 -1.1079  2.7276 -0.1074
 4321SOL     OW24595   0.352   0.532   4.381  0.8537 -0.7075 -0.0388
 4321SOL    HW124596   0.423   0.468   4.376  2.2353  1.1205 -3.8205
 4321SOL    HW224597   0.387   0.610   4.338  1.4366  0.2005  2.1156
 4322SOL     OW24598   4.633   1.483   5.741 -0.1330  0.3602 -0.5346
 4322SOL    HW124599   4.726   1.467   5.726  0.5545  2.1342  1.7250
 4322SOL    HW224600   4.635   1.517   5.831  2.2306  0.9237 -0.7966
 4323SOL     OW24601   4.167   0.100   3.042 -0.0354  0.5400 -0.0776
 4323SOL    HW124602   4.095   0.154   3.011 -0.0040 -0.5180 -2.0556
 4323SOL    HW224603   4.229   0.158   3.085 -0.0282  0.8875 -0.5542
 4324SOL     OW24604   0.555   4.359   5.571  0.0299  0.1276  0.1035
 4324SOL    HW124605   0.594   4.436   5.530 -1.2422 -0.1842 -1.6480
 4324SOL    HW224606   0.548   4.396   5.659  1.6541  1.0998 -0.1686
 4325SOL     OW24607   0.819   3.211  11.957 -0.0111  0.6785 -0.1005
 4325SOL    HW124608   0.888   3.256  11.909 -1.2362  0.6584 -1.8693
 4325SOL    HW224609   0.866   3.136  11.994  0.0808  0.6187 -0.3384
 4326SOL     OW24610   0.152   0.707  10.921 -0.2444 -0.2426 -0.6700
 4326SOL    HW124611   0.183   0.620  10.948 -3.1903 -0.7217  1.1039
 4326SOL    HW224612   0.088   0.736  10.986 -0.2411 -2.7373  0.4414
 4327SOL     OW24613   4.480   3.200  13.992  0.2855 -0.1097  0.2176
 4327SOL    HW124614   4.478   3.139  14.066  0.8927  0.1403  0.4372
 4327SOL    HW224615   4.438   3.274  14.037 -0.8878 -0.2362 -0.6818
 4328SOL     OW24616   3.267   2.609   8.016 -0.4247 -0.3543  0.0256
 4328SOL    HW124617   3.231   2.549   7.950  0.2452 -1.6202  0.7975
 4328SOL    HW224618   3.332   2.553   8.059 -0.2005 -0.4102 -0.3854
 4329SOL     OW24619   3.862   2.611   0.984  0.8796  0.5852 -1.1099
 4329SOL    HW124620   3.800   2.545   0.951 -0.3257 -0.5716  3.4406
 4329SOL    HW224621   3.891   2.667   0.913  0.3750  1.2346 -0.8021
 4330SOL     OW24622   0.847   0.779   3.068 -0.2518  0.2389 -0.2478
 4330SOL    HW124623   0.896   0.738   2.997 -2.7945 -2.0810 -0.6537
 4330SOL    HW224624   0.763   0.798   3.026 -1.5525 -0.0623  2.2023
 4331SOL     OW24625   3.119   0.011  17.374 -0.4848  0.0655 -0.3774
 4331SOL    HW124626   3.033   0.001  17.334  1.1328  0.1531 -3.8271
 4331SOL    HW224627   3.156   4.663  17.343  0.5032  0.7944 -1.1220
 4332SOL     OW24628   1.936   3.495   7.108  0.1027 -0.1851  0.1843
 4332SOL    HW124629   2.008   3.436   7.087  1.1682  0.6230  1.5531
 4332SOL    HW224630   1.901   3.514   7.021  0.8204  0.9138  0.1420
 4333SOL     OW24631   0.009   0.963  12.241  0.4109  0.6623  0.3033
 4333SOL    HW124632   0.002   0.874  12.206  3.7362  1.3471 -2.1424
 4333SOL    HW224633   0.027   0.940  12.332  1.2257  0.6101  0.1307
 4334SOL     OW24634   0.142   4.700   8.931 -0.4668  0.3337 -0.3066
 4334SOL    HW124635   0.145   4.616   8.976  3.0230  0.7142  0.1451
 4334SOL    HW224636   0.163   4.670   8.843 -1.1931 -1.6554  0.2035
 4335SOL     OW24637   2.434   4.502  12.865 -0.3859 -0.2462  0.3172
 4335SOL    HW124638   2.428   4.593  12.834  3.8993 -0.7261 -1.8684
 4335SOL    HW224639   2.486   4.456  12.799 -0.4582 -0.7680  0.6216
 4336SOL     OW24640   2.861   4.299   1.271 -0.4164 -0.0039 -0.1188
 4336SOL    HW124641   2.885   4.267   1.358  1.1110  0.2161 -0.4580
 4336SOL    HW224642   2.860   4.391   1.297  1.4025 -0.1749  0.6109
 4337SOL     OW24643   0.843   4.345   9.852  0.0921  0.1699 -0.3753
 4337SOL    HW124644   0.932   4.312   9.862  0.5278  0.9212 -1.7752
 4337SOL    HW224645   0.868   4.438   9.857  0.6535  0.0048 -0.0195
 4338SOL     OW24646   3.263   3.449   2.922 -0.2125  0.1467 -0.2002
 4338SOL    HW124647   3.206   3.506   2.870 -0.7128 -0.9546 -0.8637
 4338SOL    HW224648   3.211   3.447   3.003 -0.5472  4.3958 -0.3311
 4339SOL     OW24649   0.049   1.015   4.778 -0.9213  0.3072 -0.8239
 4339SOL    HW124650   0.134   1.058   4.766 -0.5294 -0.9961 -2.6184
 4339SOL    HW224651   0.026   1.035   4.868 -0.2693  1.5872 -0.9313
 4340SOL     OW24652   4.256   1.363  14.029  0.2241  0.1411  0.0745
 4340SOL    HW124653   4.295   1.275  14.023 -1.6043 -0.7390  1.1833
 4340SOL    HW224654   4.294   1.389  13.945  1.2241 -1.0004  0.1695
 4341SOL     OW24655   3.612   0.910   7.872 -0.3652  0.3197 -0.0594
 4341SOL    HW124656   3.606   0.897   7.778  0.4568 -0.7216  0.0303
 4341SOL    HW224657   3.694   0.861   7.880  1.1083  2.6118 -1.0694
 4342SOL     OW24658   4.249   1.053  12.009  0.0944  0.1980  0.5900
 4342SOL    HW124659   4.208   0.971  12.037 -0.6730  0.8134  1.2617
 4342SOL    HW224660   4.183   1.120  12.028  1.3602  2.0097 -1.4609
 4343SOL     OW24661   2.568   2.641   1.166 -0.0362 -0.8824  0.0988
 4343SOL    HW124662   2.562   2.691   1.085  1.1649  0.7721  1.0285
 4343SOL    HW224663   2.539   2.700   1.235  0.1661 -0.6907  0.0199
 4344SOL     OW24664   1.395   3.654   7.342  0.7689 -0.6030  0.6060
 4344SOL    HW124665   1.346   3.620   7.417  1.3809 -0.4706  1.0632
 4344SOL    HW224666   1.413   3.572   7.296 -2.3103 -1.0994  0.2763
 4345SOL     OW24667   2.694   3.173   1.694  0.0295  0.1441  0.1137
 4345SOL    HW124668   2.721   3.147   1.781 -2.4674  2.5386  1.6158
 4345SOL    HW224669   2.602   3.149   1.703  0.1071  0.3632  1.5000
 4346SOL     OW24670   1.813   4.659   4.586 -0.3711 -0.2626 -0.0777
 4346SOL    HW124671   1.803   4.682   4.494 -0.7612 -0.3022 -0.0454
 4346SOL    HW224672   1.730   4.612   4.597  0.8361 -1.9011  2.0451
 4347SOL     OW24673   4.019   1.319  15.639  0.0651  0.2671 -0.0344
 4347SOL    HW124674   3.936   1.284  15.672  0.8916 -0.4370  1.3156
 4347SOL    HW224675   4.049   1.237  15.599  0.5415  0.8659 -0.8973
 4348SOL     OW24676   1.580   2.482   2.934 -0.9906 -0.1771 -0.1219
 4348SOL    HW124677   1.676   2.484   2.937 -0.9900  2.3549 -1.3394
 4348SOL    HW224678   1.561   2.492   3.027  0.4709 -3.1439  0.4863
 4349SOL     OW24679   3.630   0.391  11.097  0.5226 -1.0730 -0.1729
 4349SOL    HW124680   3.562   0.386  11.031  0.9699  0.9849 -0.7911
 4349SOL    HW224681   3.682   0.464  11.062 -1.4702  0.3629 -0.1322
 4350SOL     OW24682   1.734   1.230   4.184 -0.3272 -0.3282 -0.3201
 4350SOL    HW124683   1.740   1.316   4.143  0.5696  0.3036  1.1348
 4350SOL    HW224684   1.827   1.211   4.195 -0.6246 -1.3614  0.3832
 4351SOL     OW24685   0.923   3.776  15.978  0.3346 -0.7985  0.0730
 4351SOL    HW124686   0.933   3.803  15.886 -2.3025  1.0842  0.3433
 4351SOL    HW224687   0.889   3.857  16.016  3.5414  0.5856 -0.0039
 4352SOL     OW24688   2.864   4.261   7.525 -0.8449  0.5136 -0.2772
 4352SOL    HW124689   2.957   4.263   7.500 -0.9310 -1.7705 -0.7175
 4352SOL    HW224690   2.874   4.196   7.595 -2.1637  0.3523 -0.2409
 4353SOL     OW24691   2.658   2.584   6.630  0.4140  0.0221 -0.0298
 4353SOL    HW124692   2.747   2.562   6.604  0.8765  0.9362  0.7756
 4353SOL    HW224693   2.663   2.646   6.703 -2.4976 -0.5382  0.6780
 4354SOL     OW24694   4.688   3.360   1.685  0.2562  0.2807 -0.1902
 4354SOL    HW124695   0.044   3.331   1.670  0.6300  1.8365 -0.8882
 4354SOL    HW224696   4.690   3.372   1.780 -0.6973 -1.0683  0.0165
 4355SOL     OW24697   0.649   1.393   9.954  0.1705 -0.1766 -0.4808
 4355SOL    HW124698   0.597   1.464   9.918 -1.8743 -1.6874 -0.4803
 4355SOL    HW224699   0.694   1.441  10.024 -0.8237 -0.1027  0.1014
 4356SOL     OW24700   3.128   4.080   7.884 -0.0690  0.2655 -0.2813
 4356SOL    HW124701   3.117   3.996   7.929  0.8835  0.9725  1.3052
 4356SOL    HW224702   3.148   4.118   7.970 -0.5505 -0.8232  0.3106
 4357SOL     OW24703   3.921   1.031   3.856  0.1828  0.1055  0.5423
 4357SOL    HW124704   3.940   1.125   3.849  2.6153 -0.2135  2.7951
 4357SOL    HW224705   3.826   1.038   3.845  0.4617  1.1031 -1.3080
 4358SOL     OW24706   2.429   0.151  17.168 -0.5486  0.1135 -0.3981
 4358SOL    HW124707   2.339   0.117  17.168  0.0391 -1.4177  0.0566
 4358SOL    HW224708   2.429   0.210  17.243 -0.2233 -1.6033  0.9374
 4359SOL     OW24709   3.797   2.887   4.444 -0.4180  0.1260  0.2552
 4359SOL    HW124710   3.837   2.864   4.528  2.7288  0.5991 -1.0884
 4359SOL    HW224711   3.875   2.903   4.391  0.1781 -2.4308  0.3862
 4360SOL     OW24712   0.206   2.880   8.879  0.6320 -0.2809 -0.6125
 4360SOL    HW124713   0.248   2.963   8.901 -1.3267  0.9517 -1.5186
 4360SOL    HW224714   0.229   2.862   8.788 -0.1539  0.5183 -0.9669
 4361SOL     OW24715   2.941   3.559   3.383  0.2130 -0.0370 -0.3038
 4361SOL    HW124716   2.966   3.619   3.453  0.3033 -0.6859  0.2263
 4361SOL    HW224717   2.850   3.581   3.361 -0.0865 -1.3464 -0.3814
 4362SOL     OW24718   4.010   1.404   7.141 -0.2739  0.0657 -0.2170
 4362SOL    HW124719   3.922   1.429   7.170 -1.1126 -2.0481 -0.9534
 4362SOL    HW224720   4.044   1.356   7.217 -1.9229  0.4508  0.7697
 4363SOL     OW24721   2.556   3.638  12.989  0.1789  0.2005  0.2540
 4363SOL    HW124722   2.592   3.669  12.906  0.1360  0.4435  0.3265
 4363SOL    HW224723   2.488   3.578  12.961 -1.0034  0.4880  2.5022
 4364SOL     OW24724   1.049   0.509   7.681 -0.4123  0.4228 -0.5123
 4364SOL    HW124725   0.989   0.577   7.649  2.8544  2.4911 -2.1974
 4364SOL    HW224726   1.111   0.576   7.710  1.0155 -0.4249 -1.6582
 4365SOL     OW24727   1.530   3.454  15.273  0.1726  0.1872  0.0819
 4365SOL    HW124728   1.496   3.382  15.219 -2.5780  3.6042 -2.7023
 4365SOL    HW224729   1.568   3.400  15.343 -0.6924  0.0837  0.4766
 4366SOL     OW24730   1.949   2.795   8.917  0.4180 -0.1532 -0.0718
 4366SOL    HW124731   1.947   2.876   8.867 -0.5582 -0.0746  0.1088
 4366SOL    HW224732   2.021   2.754   8.869  1.4905  0.7825  0.7375
 4367SOL     OW24733   4.681   2.140  10.428 -0.4196  0.3908  0.5497
 4367SOL    HW124734   4.643   2.073  10.485  0.1600 -0.1598  0.2931
 4367SOL    HW224735   0.032   2.153  10.469 -0.9001  0.5664  1.5003
 4368SOL     OW24736   0.423   3.642   6.431 -0.1748  0.2487  0.1227
 4368SOL    HW124737   0.507   3.623   6.471 -0.8368 -3.1667 -0.1481
 4368SOL    HW224738   0.401   3.721   6.481 -1.7552  0.2890 -0.6264
 4369SOL     OW24739   2.779   1.674  17.583  0.3633  0.6022 -0.1703
 4369SOL    HW124740   2.830   1.749  17.552  0.7620  1.0995  1.6587
 4369SOL    HW224741   2.688   1.701  17.594 -0.0980 -1.5854  1.2128
 4370SOL     OW24742   2.686   4.232   5.600  0.7542  0.2479 -0.3623
 4370SOL    HW124743   2.663   4.171   5.670  0.2493  0.4644 -0.3396
 4370SOL    HW224744   2.697   4.316   5.645  0.8472 -0.0545  0.1728
 4371SOL     OW24745   4.396   0.720   8.015 -0.1175  0.1510  0.8768
 4371SOL    HW124746   4.472   0.746   7.962 -0.7320  2.0716  0.9721
 4371SOL    HW224747   4.436   0.643   8.056  0.3916  1.4701  2.8134
 4372SOL     OW24748   4.120   4.066   9.372  0.2753 -0.1092  0.3489
 4372SOL    HW124749   4.031   4.070   9.408  0.4327  1.6838  0.5231
 4372SOL    HW224750   4.095   4.117   9.296  0.0235  0.5081  0.8485
 4373SOL     OW24751   3.263   0.284   7.177 -1.0297  0.3591  0.0495
 4373SOL    HW124752   3.307   0.369   7.177 -1.2400  0.4686  1.6252
 4373SOL    HW224753   3.267   0.263   7.271 -0.1659  3.7493  0.7489
 4374SOL     OW24754   2.586   1.051   1.340  0.5665 -0.3665 -0.7224
 4374SOL    HW124755   2.583   0.992   1.265 -0.6784  0.0249 -0.9769
 4374SOL    HW224756   2.559   1.001   1.417  2.4957  0.3860  0.4388
 4375SOL     OW24757   2.902   1.996   6.761 -0.2333  0.6376  0.3788
 4375SOL    HW124758   2.817   1.971   6.724  0.9227 -1.2711 -0.9584
 4375SOL    HW224759   2.885   2.077   6.810 -1.3320 -0.1558  1.2970
 4376SOL     OW24760   2.706   2.931   2.023 -0.1564 -0.1978 -0.4248
 4376SOL    HW124761   2.776   2.887   2.071 -0.0852  0.7115  0.3062
 4376SOL    HW224762   2.630   2.925   2.081 -0.1450 -0.4601 -0.4403
 4377SOL     OW24763   0.597   3.992   6.799  0.3885 -0.6129 -0.6967
 4377SOL    HW124764   0.587   3.897   6.800  1.2153 -0.7061 -1.7030
 4377SOL    HW224765   0.505   4.017   6.802  0.6866  0.5330 -1.3590
 4378SOL     OW24766   3.937   3.755   3.003  0.0716  0.0587  0.1706
 4378SOL    HW124767   3.925   3.666   2.969  0.9808 -1.0341  2.7036
 4378SOL    HW224768   3.992   3.733   3.078 -0.5628 -2.2282 -0.0082
 4379SOL     OW24769   1.811   4.193  12.840  0.8209  1.0619 -0.2063
 4379SOL    HW124770   1.810   4.180  12.934  0.0535  0.4402 -0.2996
 4379SOL    HW224771   1.827   4.287  12.834  0.7837  1.0345 -0.7758
 4380SOL     OW24772   4.450   2.710   2.395 -0.0287  0.3450  0.1894
 4380SOL    HW124773   4.389   2.744   2.330  2.6944  2.4994 -1.2619
 4380SOL    HW224774   4.503   2.790   2.400  0.6163 -0.1638  1.4589
 4381SOL     OW24775   4.557   1.135   3.216  0.4251  0.2749  0.5074
 4381SOL    HW124776   4.517   1.083   3.286 -1.1260 -1.0964 -1.4145
 4381SOL    HW224777   4.648   1.145   3.243  0.5461  1.3129 -0.2774
 4382SOL     OW24778   0.225   4.489   4.996 -1.0032 -0.0995  0.2894
 4382SOL    HW124779   0.142   4.525   4.966  0.8108 -0.3935 -5.1041
 4382SOL    HW224780   0.234   4.412   4.939 -0.9052 -0.3411  0.6320
 4383SOL     OW24781   3.889   4.683  17.416  0.6223  0.1150 -0.1051
 4383SOL    HW124782   3.876   4.639  17.500  0.8785 -1.7477 -1.0452
 4383SOL    HW224783   3.968   4.640  17.382  1.4228  0.3722  1.4077
 4384SOL     OW24784   1.177   0.839   6.198  0.2609  0.7063  0.6052
 4384SOL    HW124785   1.099   0.786   6.177 -0.9027  2.8553 -0.4491
 4384SOL    HW224786   1.140   0.907   6.255  0.4999  0.6518  0.8257
 4385SOL     OW24787   4.206   3.554   9.310 -0.4290 -0.0625 -0.1237
 4385SOL    HW124788   4.285   3.529   9.357 -0.4799 -0.9419 -0.4904
 4385SOL    HW224789   4.197   3.649   9.318 -0.5036  0.0072 -1.0924
 4386SOL     OW24790   3.532   2.593   8.711 -0.2890 -0.9436 -0.3289
 4386SOL    HW124791   3.441   2.611   8.687 -0.0407 -2.2523 -2.2609
 4386SOL    HW224792   3.572   2.640   8.637 -1.7317  0.0341 -0.5025
 4387SOL     OW24793   2.224   1.388  14.618 -0.1637  0.3729 -0.1434
 4387SOL    HW124794   2.173   1.446  14.563  1.5625 -1.3170 -3.4974
 4387SOL    HW224795   2.159   1.321  14.639 -0.0205  0.4538  0.5703
 4388SOL     OW24796   2.600   3.089   2.910 -0.0307 -0.1467  0.2239
 4388SOL    HW124797   2.625   3.180   2.897  0.6824 -0.4500 -0.5111
 4388SOL    HW224798   2.682   3.045   2.931  0.3907  0.3095 -0.4646
 4389SOL     OW24799   2.066   2.037   4.059  0.4077  0.1946 -0.1211
 4389SOL    HW124800   2.015   1.966   4.020  1.6729 -1.8135  1.8756
 4389SOL    HW224801   2.022   2.115   4.026 -2.7675 -0.8644  1.6302
 4390SOL     OW24802   1.856   3.032   2.513 -0.1302 -0.1464 -0.3004
 4390SOL    HW124803   1.823   3.014   2.601 -1.5599 -0.7200 -0.9379
 4390SOL    HW224804   1.774   3.039   2.464  0.8928 -2.0586 -2.2617
 4391SOL     OW24805   0.531   3.414  15.707  0.4480 -0.2924 -0.0528
 4391SOL    HW124806   0.559   3.497  15.667  1.0263 -0.0144  0.9245
 4391SOL    HW224807   0.471   3.454  15.771  0.6954 -0.7313  0.4570
 4392SOL     OW24808   2.837   3.490   7.483  0.4793 -0.9518  0.3540
 4392SOL    HW124809   2.860   3.509   7.574 -2.4726 -0.8908  1.0770
 4392SOL    HW224810   2.917   3.515   7.437  0.8311 -0.6266  1.1509
 4393SOL     OW24811   4.547   3.994  17.732  0.4105  0.2362 -0.0200
 4393SOL    HW124812   4.561   4.085   0.022 -0.8145  0.1127  1.0990
 4393SOL    HW224813   4.552   3.949   0.081  2.2832 -0.2072 -0.3657
 4394SOL     OW24814   0.650   3.602   6.619 -0.2657 -0.6518 -0.1817
 4394SOL    HW124815   0.734   3.570   6.651  0.5512  0.2090 -1.4544
 4394SOL    HW224816   0.605   3.522   6.591 -0.0283 -0.9874  0.4029
 4395SOL     OW24817   2.144   2.413   0.175 -0.3398  0.1579 -0.3666
 4395SOL    HW124818   2.087   2.476   0.131  0.4000  1.1780  0.1354
 4395SOL    HW224819   2.159   2.466   0.253  4.2433 -2.7729  0.7582
 4396SOL     OW24820   1.335   1.560   8.342 -0.0212  0.3731  0.5133
 4396SOL    HW124821   1.387   1.635   8.370  1.6599 -0.0727 -1.3746
 4396SOL    HW224822   1.248   1.584   8.372 -0.2606  0.9875 -0.6640
 4397SOL     OW24823   2.611   2.649  13.833 -0.5406 -0.3204 -0.1538
 4397SOL    HW124824   2.628   2.599  13.753 -0.3809 -0.0270 -0.3041
 4397SOL    HW224825   2.600   2.736  13.795  0.1161  0.3504  1.2016
 4398SOL     OW24826   3.949   3.146   6.929 -0.1727 -0.0176 -0.1973
 4398SOL    HW124827   3.945   3.241   6.915  0.0657  0.0160 -0.0325
 4398SOL    HW224828   3.889   3.108   6.865  0.0275 -0.8634  0.1246
 4399SOL     OW24829   2.787   1.712  12.585 -0.2246  0.3015 -0.3606
 4399SOL    HW124830   2.823   1.652  12.650 -2.0275  0.5673  0.8587
 4399SOL    HW224831   2.709   1.749  12.627  0.0207 -0.3556  0.6828
 4400SOL     OW24832   2.018   2.870   0.344 -0.1650 -0.1597  0.1602
 4400SOL    HW124833   2.040   2.778   0.362  0.0659  0.3492  2.4779
 4400SOL    HW224834   2.106   2.905   0.326  0.7464 -1.4957  2.0336
 4401SOL     OW24835   2.166   2.699  16.833  0.1034  0.1491  0.3200
 4401SOL    HW124836   2.130   2.778  16.793  0.5123 -0.6947 -1.7445
 4401SOL    HW224837   2.131   2.708  16.921 -3.7944  0.0255 -1.2385
 4402SOL     OW24838   3.936   4.422   2.489 -0.0062  0.2636 -0.2631
 4402SOL    HW124839   3.977   4.362   2.551 -0.9171  0.0606  0.1384
 4402SOL    HW224840   4.012   4.460   2.444 -0.1112 -0.8511 -1.3917
 4403SOL     OW24841   3.654   3.071   6.051  0.4705 -0.2716  0.1231
 4403SOL    HW124842   3.603   2.990   6.060 -0.4350  0.1409 -1.3549
 4403SOL    HW224843   3.675   3.086   6.144 -1.8270  0.2953  0.5497
 4404SOL     OW24844   1.181   0.391   4.850 -0.1421 -0.4557 -0.3336
 4404SOL    HW124845   1.156   0.313   4.901  0.5209 -0.1128  0.5223
 4404SOL    HW224846   1.243   0.439   4.904 -0.7024  0.0342 -0.1324
 4405SOL     OW24847   3.627   2.956   7.016 -0.1956  0.1692  0.1478
 4405SOL    HW124848   3.545   2.974   7.062 -0.1215  0.3778  0.1969
 4405SOL    HW224849   3.681   2.976   7.093  1.2226 -1.3016 -0.4501
 4406SOL     OW24850   0.149   2.027   6.097  0.3505  0.0774  0.2293
 4406SOL    HW124851   0.151   2.057   6.006  3.4285  1.7360  0.8776
 4406SOL    HW224852   0.242   2.010   6.109  0.1842 -1.6910 -0.9579
 4407SOL     OW24853   4.568   2.758   2.744 -0.1530 -0.1348  0.5119
 4407SOL    HW124854   4.638   2.812   2.782  0.7993  0.2300 -1.7465
 4407SOL    HW224855   4.623   2.699   2.693 -1.7118 -0.7534 -0.4279
 4408SOL     OW24856   4.050   2.674  15.976 -0.2814 -0.1967 -0.1172
 4408SOL    HW124857   4.083   2.711  16.058  0.3047  2.4837 -1.5643
 4408SOL    HW224858   4.062   2.753  15.923 -0.9940 -0.1951 -0.2753
 4409SOL     OW24859   1.856   0.573   7.617  0.3546  0.4170  0.7263
 4409SOL    HW124860   1.790   0.557   7.550 -1.0707 -1.6143  2.5816
 4409SOL    HW224861   1.810   0.531   7.690  3.1409 -0.9154  1.7298
 4410SOL     OW24862   1.252   0.978   5.844 -0.9852  0.2477  0.1283
 4410SOL    HW124863   1.324   1.030   5.879  1.0444 -0.9946 -2.2090
 4410SOL    HW224864   1.299   0.898   5.820  0.6086  0.5309  2.3643
 4411SOL     OW24865   0.029   0.341   4.643 -0.8281 -0.3824  0.0718
 4411SOL    HW124866   0.086   0.417   4.656 -0.2377 -0.8286  0.0450
 4411SOL    HW224867   4.681   0.390   4.651  0.0282  1.0804 -0.1514
 4412SOL     OW24868   3.650   3.394   2.433  0.3566 -0.4135 -0.0058
 4412SOL    HW124869   3.575   3.382   2.374  3.0900  0.2044 -3.5918
 4412SOL    HW224870   3.655   3.489   2.441 -0.5986 -0.4128  0.6004
 4413SOL     OW24871   3.022   2.055   9.652  0.1062 -0.8613  0.0520
 4413SOL    HW124872   3.041   1.967   9.685  1.6762 -1.5041 -2.6215
 4413SOL    HW224873   3.000   2.026   9.563  1.0775  1.9665 -1.0995
 4414SOL     OW24874   4.137   2.770   4.659 -0.3947  0.5449  0.2463
 4414SOL    HW124875   4.051   2.809   4.641 -0.8652 -0.8744 -0.5947
 4414SOL    HW224876   4.189   2.831   4.607  0.0610  1.2022  1.4642
 4415SOL     OW24877   0.519   3.692   2.212  0.2210 -0.3201 -0.2504
 4415SOL    HW124878   0.541   3.784   2.229 -1.1319 -0.3318  1.5825
 4415SOL    HW224879   0.564   3.645   2.282  1.0911  1.3315  0.3197
 4416SOL     OW24880   3.951   0.890   2.000  0.8258 -0.1726  0.2958
 4416SOL    HW124881   3.909   0.841   2.071 -0.8914  3.5635  1.8738
 4416SOL    HW224882   4.017   0.939   2.049 -1.7896  2.3289  1.3165
 4417SOL     OW24883   4.225   4.081   7.373 -0.1718 -0.3958  0.5819
 4417SOL    HW124884   4.153   4.023   7.349 -0.4102  0.8226 -1.6124
 4417SOL    HW224885   4.272   4.025   7.435 -0.6178 -1.9224 -0.4661
 4418SOL     OW24886   2.508   3.471   6.604  0.1832 -0.2199  0.2328
 4418SOL    HW124887   2.557   3.542   6.564  0.2376  1.1112  2.6096
 4418SOL    HW224888   2.431   3.479   6.548 -1.9821 -0.1291  3.1988
 4419SOL     OW24889   4.033   2.295   9.152 -0.8490  0.2447 -0.3461
 4419SOL    HW124890   4.078   2.377   9.129  0.3652 -0.1502  0.6261
 4419SOL    HW224891   4.096   2.253   9.211  0.2984  1.8067 -0.4640
 4420SOL     OW24892   3.000   2.969   1.331 -0.7610  1.1556 -0.0972
 4420SOL    HW124893   3.022   3.056   1.298 -2.2121  2.8198  3.3825
 4420SOL    HW224894   2.933   2.992   1.396 -1.6507 -0.5056 -0.4301
 4421SOL     OW24895   0.257   0.617   6.852 -0.0527  0.8642  0.2280
 4421SOL    HW124896   0.188   0.650   6.795  0.1194  3.1228  1.3411
 4421SOL    HW224897   0.246   0.673   6.929 -0.2767  1.3788 -0.1850
 4422SOL     OW24898   2.390   3.837   8.894  0.0961 -0.2005 -0.6800
 4422SOL    HW124899   2.422   3.928   8.891  2.0042 -0.8406  0.0994
 4422SOL    HW224900   2.307   3.853   8.940  0.7675 -0.7216  0.7155
 4423SOL     OW24901   2.188   2.989   5.586  0.0892  0.1099  0.0435
 4423SOL    HW124902   2.249   3.062   5.581 -1.7837  1.6995  0.2280
 4423SOL    HW224903   2.112   3.048   5.585  0.9277  1.1710 -0.0879
 4424SOL     OW24904   3.048   0.188   2.010  0.3503  0.4038 -0.3867
 4424SOL    HW124905   3.104   0.266   2.007  2.3511 -1.0058  0.4571
 4424SOL    HW224906   3.008   0.196   2.097  1.5768 -1.4577  0.3544
 4425SOL     OW24907   4.031   3.702   5.474  0.4747 -0.6525 -0.0905
 4425SOL    HW124908   3.950   3.693   5.423 -0.6739 -0.0244  1.6080
 4425SOL    HW224909   4.098   3.652   5.427  0.4039  0.4711 -1.4156
 4426SOL     OW24910   2.565   1.217  17.308  0.0041  0.1767  0.1804
 4426SOL    HW124911   2.607   1.250  17.228  0.0875  1.3157  0.6960
 4426SOL    HW224912   2.636   1.191  17.367 -0.6022 -0.7162  0.5124
 4427SOL     OW24913   4.609   4.215   4.514  0.3328  0.2234 -0.1751
 4427SOL    HW124914   4.610   4.275   4.588 -0.7397 -0.0937  0.1079
 4427SOL    HW224915   4.562   4.140   4.551 -0.1881 -0.0205 -1.3212
 4428SOL     OW24916   3.205   4.318   3.222  0.0320  0.3304 -0.5985
 4428SOL    HW124917   3.173   4.234   3.255 -3.7905  1.9695 -0.2063
 4428SOL    HW224918   3.150   4.379   3.270 -1.8857 -1.7507 -0.1389
 4429SOL     OW24919   4.684   0.792   1.041 -0.3141 -0.5332  0.0590
 4429SOL    HW124920   4.719   0.745   1.116 -0.1635 -1.9678 -0.9228
 4429SOL    HW224921   4.656   0.718   0.987  3.4808  0.1023 -2.8004
 4430SOL     OW24922   1.425   3.894   9.022 -0.5159  0.4564 -0.2586
 4430SOL    HW124923   1.422   3.983   8.985 -2.0135 -0.1898 -1.7097
 4430SOL    HW224924   1.467   3.909   9.106 -0.6855 -0.8777  0.0628
 4431SOL     OW24925   1.868   0.249   8.134 -0.7972 -0.4841  0.1116
 4431SOL    HW124926   1.879   0.229   8.228 -0.3604 -0.5994  0.0341
 4431SOL    HW224927   1.952   0.216   8.102 -0.3330 -2.0635  2.9223
 4432SOL     OW24928   4.462   3.721   2.337  0.3654 -0.0836  0.2173
 4432SOL    HW124929   4.519   3.753   2.266 -1.9356  0.1180 -1.5305
 4432SOL    HW224930   4.374   3.754   2.320  0.4149 -0.0253  0.0649
 4433SOL     OW24931   3.581   3.784   9.332 -0.1904 -0.0029  0.0271
 4433SOL    HW124932   3.514   3.740   9.279 -1.0663  0.4670  0.7527
 4433SOL    HW224933   3.571   3.732   9.412 -0.0632  0.4145  0.3168
 4434SOL     OW24934   1.086   2.454  16.143 -0.0766 -0.3718  0.0972
 4434SOL    HW124935   1.064   2.538  16.103 -1.9140 -1.2596 -0.7781
 4434SOL    HW224936   1.001   2.411  16.155  0.0923 -1.2239 -1.5934
 4435SOL     OW24937   0.448   2.706   4.942 -0.2446  0.0750 -0.1526
 4435SOL    HW124938   0.509   2.767   4.902 -1.1741  0.6531 -0.6960
 4435SOL    HW224939   0.496   2.626   4.922  1.6835  0.7366  1.9735
 4436SOL     OW24940   3.956   0.623  10.936 -0.4505  0.4244 -0.4314
 4436SOL    HW124941   4.030   0.651  10.882 -0.4634 -0.4296 -0.8934
 4436SOL    HW224942   3.891   0.679  10.893 -3.1460 -1.1296  1.6280
 4437SOL     OW24943   2.670   3.550   7.252 -0.0785  0.0780  0.0357
 4437SOL    HW124944   2.704   3.519   7.336 -2.0863  0.2611  0.8969
 4437SOL    HW224945   2.675   3.646   7.256  2.4192 -0.1050  1.4062
 4438SOL     OW24946   1.977   3.010   3.231 -0.1661  0.1792  0.7342
 4438SOL    HW124947   2.036   2.965   3.291  1.4790  3.0405  1.2872
 4438SOL    HW224948   2.031   3.061   3.170 -1.6413  0.0846 -0.6426
 4439SOL     OW24949   0.389   0.026   6.133  0.0447 -0.1077 -0.0088
 4439SOL    HW124950   0.340   0.105   6.109 -1.2577 -1.3113 -1.3349
 4439SOL    HW224951   0.412   0.047   6.223 -0.6585  0.3350  0.0683
 4440SOL     OW24952   0.599   4.646   3.513  0.5707  0.3330  0.1372
 4440SOL    HW124953   0.646   4.645   3.429  1.9786  0.2728  0.9138
 4440SOL    HW224954   0.568   0.002   3.520 -0.3820 -0.0331  0.5084
 4441SOL     OW24955   2.189   3.078   7.597 -0.5190 -0.5056 -0.0135
 4441SOL    HW124956   2.150   3.046   7.679 -0.2214  0.3518  0.4651
 4441SOL    HW224957   2.276   3.041   7.611 -0.1327  0.7686  1.0381
 4442SOL     OW24958   3.486   3.233   4.989 -0.2285  0.0473  0.0660
 4442SOL    HW124959   3.527   3.319   5.002 -0.8153 -0.1880  3.3295
 4442SOL    HW224960   3.549   3.164   5.009 -0.3394 -0.3243 -0.8875
 4443SOL     OW24961   3.145   1.517   5.453  0.3357  0.6372  0.1801
 4443SOL    HW124962   3.186   1.558   5.378 -1.6960 -2.0090 -2.3637
 4443SOL    HW224963   3.154   1.422   5.442  1.6168  0.7477  0.2758
 4444SOL     OW24964   2.314   4.260   6.140  0.1782  0.2404  0.0554
 4444SOL    HW124965   2.323   4.354   6.125  2.8663 -0.1884 -1.0167
 4444SOL    HW224966   2.220   4.242   6.129  0.2954  1.1814 -2.5453
 4445SOL     OW24967   4.291   3.969   5.310 -0.7849 -0.0927 -0.0749
 4445SOL    HW124968   4.275   4.015   5.228  1.4297 -0.4901 -0.7338
 4445SOL    HW224969   4.376   4.003   5.339 -0.8199 -0.4865  0.5011
 4446SOL     OW24970   2.505   0.420   3.080  0.3824 -0.1326  0.1399
 4446SOL    HW124971   2.471   0.331   3.075 -1.3091  0.5461 -0.8023
 4446SOL    HW224972   2.417   0.452   3.103 -0.0843 -0.6249 -0.9426
 4447SOL     OW24973   1.372   0.636  11.676  0.5241 -0.8059 -0.2226
 4447SOL    HW124974   1.435   0.673  11.737  1.5589 -1.2931 -0.9964
 4447SOL    HW224975   1.326   0.562  11.717 -1.8965  0.5326 -0.5185
 4448SOL     OW24976   3.074   0.493  15.814  0.1640 -0.2744 -0.1877
 4448SOL    HW124977   3.131   0.527  15.745 -1.7740  0.6965 -1.3006
 4448SOL    HW224978   3.084   0.562  15.879  1.8933  0.3834 -1.1464
 4449SOL     OW24979   0.984   2.863   3.925 -0.4088 -0.4461 -0.1067
 4449SOL    HW124980   0.976   2.801   3.998 -0.9111 -1.1542 -0.7593
 4449SOL    HW224981   1.073   2.890   3.948  0.8169 -1.5579 -3.3856
 4450SOL     OW24982   0.443   2.366   3.168 -0.0359 -0.4969  0.2184
 4450SOL    HW124983   0.414   2.372   3.259  1.2074  0.3132  0.5584
 4450SOL    HW224984   0.472   2.456   3.154 -1.1891 -0.1822 -0.2098
 4451SOL     OW24985   4.683   2.791   8.794 -0.0825  0.2597 -0.2046
 4451SOL    HW124986   4.727   2.869   8.759  3.4254 -0.9907  1.3869
 4451SOL    HW224987   4.685   2.802   8.889 -0.8966 -0.2645 -0.1240
 4452SOL     OW24988   2.853   3.555  10.790  0.0013 -0.1769  0.1130
 4452SOL    HW124989   2.774   3.568  10.842 -0.8866  1.0485 -1.5518
 4452SOL    HW224990   2.831   3.578  10.699 -0.1631  2.2402  0.7602
 4453SOL     OW24991   1.667   2.680   6.018 -0.2912  0.3933 -0.0109
 4453SOL    HW124992   1.660   2.717   5.930  1.9798 -1.0977 -0.8262
 4453SOL    HW224993   1.698   2.593   5.993  0.4931  1.4656 -2.7685
 4454SOL     OW24994   4.143   0.426   6.529  0.6662 -0.0727  0.1461
 4454SOL    HW124995   4.126   0.395   6.440 -2.3254  1.2598  0.2445
 4454SOL    HW224996   4.084   0.501   6.535  0.6736  0.1212 -2.3144
 4455SOL     OW24997   3.215   4.210  15.503 -0.1533  0.6728 -0.4178
 4455SOL    HW124998   3.135   4.173  15.467 -0.9525  0.0485  2.0415
 4455SOL    HW224999   3.259   4.254  15.430 -1.7404  2.0793 -0.5126
 4456SOL     OW25000   0.140   1.037   1.641 -0.2713  0.0143 -0.9874
 4456SOL    HW125001   0.220   0.984   1.634  0.0106 -0.2338  3.8896
 4456SOL    HW225002   0.166   1.095   1.713  0.4642  0.5891 -1.7001
 4457SOL     OW25003   2.122   4.571   9.740 -0.0839  0.6093 -0.0165
 4457SOL    HW125004   2.059   4.538   9.676 -0.2355  0.2801  0.2988
 4457SOL    HW225005   2.180   4.630   9.692  0.0208 -0.9715 -1.8346
 4458SOL     OW25006   2.158   2.068   9.430  0.1163 -0.5858  0.0580
 4458SOL    HW125007   2.069   2.081   9.397  0.2970 -0.5349 -0.4071
 4458SOL    HW225008   2.184   1.984   9.393 -0.1920 -0.7432  0.2001
 4459SOL     OW25009   4.651   3.168   5.492  0.0717  0.1760  0.0952
 4459SOL    HW125010   4.663   3.077   5.520 -1.0449 -0.2416 -0.8343
 4459SOL    HW225011   4.563   3.160   5.457 -0.0523  0.8379  0.2664
 4460SOL     OW25012   4.048   2.605   8.382 -0.0994  0.0600 -0.0538
 4460SOL    HW125013   3.978   2.581   8.442  0.7827  0.3440  1.0696
 4460SOL    HW225014   3.996   2.591   8.302 -1.2350  1.4005  0.4527
 4461SOL     OW25015   1.501   0.241   3.059 -0.1354 -0.6853 -0.3115
 4461SOL    HW125016   1.534   0.239   3.149  0.9299 -0.5125 -0.6865
 4461SOL    HW225017   1.567   0.296   3.015  0.7632 -1.3262  0.2302
 4462SOL     OW25018   2.991   2.852   7.698 -0.1853 -0.2384  0.3353
 4462SOL    HW125019   2.944   2.831   7.778 -2.7448  0.5634 -0.9723
 4462SOL    HW225020   3.077   2.868   7.738  0.5479 -1.6073 -0.6850
 4463SOL     OW25021   0.744   3.320   2.281  0.5135 -0.4946  0.3791
 4463SOL    HW125022   0.670   3.377   2.260  2.4309  1.0533 -2.2377
 4463SOL    HW225023   0.822   3.373   2.294 -0.1722  0.9314 -1.3181
 4464SOL     OW25024   3.711   3.060   5.037  0.1403 -0.2702  0.2214
 4464SOL    HW125025   3.800   3.028   5.051 -0.3140 -1.5384  0.1681
 4464SOL    HW225026   3.694   3.111   5.117  1.7380 -0.2287  0.5175
 4465SOL     OW25027   4.081   4.400   8.789  0.5946  0.8722  0.4898
 4465SOL    HW125028   4.152   4.365   8.735  1.3092 -0.6335  2.3735
 4465SOL    HW225029   4.131   4.431   8.865 -0.5898 -0.2756  1.7297
 4466SOL     OW25030   2.077   2.181  10.775 -0.2088  0.5349 -0.2280
 4466SOL    HW125031   2.165   2.180  10.737  0.2582 -0.4805  0.8631
 4466SOL    HW225032   2.040   2.096  10.754  1.0504 -0.0736  0.0444
 4467SOL     OW25033   0.102   1.482   1.581  0.0356 -0.2897 -0.8983
 4467SOL    HW125034   0.171   1.460   1.644 -0.9523  1.0545  0.6427
 4467SOL    HW225035   0.082   1.573   1.605  0.1348 -0.8102  1.2021
 4468SOL     OW25036   3.565   2.911  12.164  0.1185 -0.0680  0.5506
 4468SOL    HW125037   3.493   2.860  12.201 -1.7782  1.0216 -1.6616
 4468SOL    HW225038   3.522   2.970  12.102  3.9630  1.0687 -0.9975
 4469SOL     OW25039   2.205   0.418   2.334 -0.2636 -0.1584 -0.2846
 4469SOL    HW125040   2.200   0.471   2.413 -1.2495  1.1720 -1.2413
 4469SOL    HW225041   2.218   0.328   2.366 -0.7456  0.1562  0.7704
 4470SOL     OW25042   3.010   0.548   7.987  1.3001  0.0411  0.2542
 4470SOL    HW125043   2.993   0.631   8.031  1.0193  0.4870 -0.6815
 4470SOL    HW225044   3.102   0.538   8.009  1.4920 -1.0898 -1.0830
 4471SOL     OW25045   0.960   2.108   7.351  0.0353  0.1510  0.0515
 4471SOL    HW125046   0.955   2.133   7.443 -1.2395  2.5809 -0.6761
 4471SOL    HW225047   0.869   2.112   7.320  0.4295  2.9416 -0.7086
 4472SOL     OW25048   0.012   3.430   4.423 -0.1827 -0.1942  0.2530
 4472SOL    HW125049   0.021   3.470   4.336  0.6308 -0.2503  0.3068
 4472SOL    HW225050   0.069   3.354   4.412 -0.9319 -0.7884  0.4783
 4473SOL     OW25051   4.502   1.559   3.784  0.2353 -0.1469  0.3132
 4473SOL    HW125052   4.495   1.644   3.740 -0.2415 -0.9872 -1.2338
 4473SOL    HW225053   4.543   1.597   3.862  1.6429 -0.1901 -0.4270
 4474SOL     OW25054   1.860   2.299   2.005 -0.0658  0.1469 -0.5704
 4474SOL    HW125055   1.866   2.208   1.977 -1.6817  0.2511 -1.2830
 4474SOL    HW225056   1.772   2.323   1.977  0.2619  1.2454 -0.6546
 4475SOL     OW25057   0.795   4.692   5.924 -0.2268  0.1023 -0.0481
 4475SOL    HW125058   0.823   4.628   5.858  0.7468  0.5612 -0.0737
 4475SOL    HW225059   0.784   4.637   6.002 -1.1261  2.0432  1.1819
 4476SOL     OW25060   1.647   0.063   7.143  0.2482 -0.4456  0.5166
 4476SOL    HW125061   1.652   4.722   7.202  1.4171  0.6954  1.8585
 4476SOL    HW225062   1.720   0.111   7.180  1.5123 -0.4906 -1.8976
 4477SOL     OW25063   1.027   3.411   2.020 -0.6309 -0.4535  0.4537
 4477SOL    HW125064   1.081   3.335   1.999  2.3197  1.3289  1.5940
 4477SOL    HW225065   1.062   3.444   2.103  0.1761 -0.6144  0.1765
 4478SOL     OW25066   4.138   4.621   3.184 -0.1083 -0.0221  0.5451
 4478SOL    HW125067   4.157   4.706   3.143 -1.1001 -0.9030 -1.7548
 4478SOL    HW225068   4.220   4.586   3.218  0.6448  0.8440 -0.3465
 4479SOL     OW25069   3.737   1.484   4.300  0.0466 -0.1865  0.2979
 4479SOL    HW125070   3.781   1.476   4.385  0.8136  1.2336  0.0391
 4479SOL    HW225071   3.813   1.502   4.245 -0.0167  1.2190  0.6596
 4480SOL     OW25072   3.200   4.560   2.614  0.0741 -0.2851 -0.0720
 4480SOL    HW125073   3.205   4.466   2.626 -0.6362 -0.2227  0.6445
 4480SOL    HW225074   3.290   4.591   2.630  0.9223 -2.5378 -0.4482
 4481SOL     OW25075   4.526   2.523   2.988 -0.2197  0.1587  0.4899
 4481SOL    HW125076   4.466   2.597   2.975 -1.0059 -0.4781  0.4387
 4481SOL    HW225077   4.495   2.450   2.934 -0.5037  1.6916 -1.4234
 4482SOL     OW25078   0.654   3.864  15.613  0.4428  0.4623 -0.5257
 4482SOL    HW125079   0.581   3.910  15.654  2.0190  1.3377  1.3080
 4482SOL    HW225080   0.719   3.935  15.612  2.2229 -1.1986 -3.8833
 4483SOL     OW25081   2.145   1.791  16.640  0.8691 -0.2292  0.2354
 4483SOL    HW125082   2.081   1.862  16.647  2.6912  1.5693 -1.3957
 4483SOL    HW225083   2.210   1.818  16.705  2.0276  0.6459 -1.2713
 4484SOL     OW25084   0.422   1.908   8.548 -0.3152 -0.0602 -0.0901
 4484SOL    HW125085   0.396   1.999   8.539 -0.1534  0.1929  1.9910
 4484SOL    HW225086   0.418   1.911   8.643  0.4837 -1.2999 -0.0161
 4485SOL     OW25087   4.728   4.274  10.515  0.0375 -0.3637 -0.1426
 4485SOL    HW125088   0.072   4.327  10.533  0.9242 -2.2665  1.5672
 4485SOL    HW225089   0.017   4.188  10.548 -0.0096 -0.0194  0.7862
 4486SOL     OW25090   0.033   0.737   8.483  0.1009 -0.6849 -0.7044
 4486SOL    HW125091   0.085   0.674   8.533 -1.2798 -0.0863  1.4620
 4486SOL    HW225092   4.683   0.737   8.529  0.4259 -1.1908 -0.1090
 4487SOL     OW25093   1.678   0.997   5.829  0.1194  0.0394 -0.0028
 4487SOL    HW125094   1.666   1.029   5.918  1.9680  0.0098  0.2683
 4487SOL    HW225095   1.727   1.070   5.788 -1.0724  0.2064 -1.1206
 4488SOL     OW25096   1.972   1.533   3.566 -0.1522 -0.0273  0.1961
 4488SOL    HW125097   2.065   1.516   3.580 -0.0537  0.3127 -0.0432
 4488SOL    HW225098   1.971   1.588   3.488  0.7193 -1.6416 -0.9522
 4489SOL     OW25099   3.780   0.287   6.356 -0.7425  0.0587  0.3956
 4489SOL    HW125100   3.809   0.350   6.422 -0.8327  0.0682  0.4265
 4489SOL    HW225101   3.777   0.349   6.283 -3.6706 -2.0171 -1.2507
 4490SOL     OW25102   0.110   2.967  16.184  0.3523 -0.2468 -0.5063
 4490SOL    HW125103   0.078   3.053  16.210 -0.8282 -1.0532  0.7191
 4490SOL    HW225104   0.203   2.968  16.207 -0.2229 -0.5014  1.8181
 4491SOL     OW25105   4.088   0.486   4.033  0.1516 -0.0916  0.4603
 4491SOL    HW125106   4.115   0.572   4.067 -2.4640  1.1991 -0.7023
 4491SOL    HW225107   4.063   0.447   4.117  1.1660  0.4259  1.0115
 4492SOL     OW25108   0.948   3.626   3.065  0.3649  0.2347  0.4623
 4492SOL    HW125109   0.993   3.698   3.110 -0.4556  1.3630 -0.5072
 4492SOL    HW225110   0.884   3.600   3.131  0.4739 -0.0112  0.4709
 4493SOL     OW25111   0.860   3.001  12.263  0.3682  0.3848  0.1804
 4493SOL    HW125112   0.890   3.002  12.172  2.7921 -1.0125  0.9407
 4493SOL    HW225113   0.850   2.906  12.276 -1.0313  0.6700  1.0804
 4494SOL     OW25114   1.764   0.774   1.498  0.1434  0.0416  0.8024
 4494SOL    HW125115   1.735   0.834   1.429 -1.9836 -0.1884  1.5077
 4494SOL    HW225116   1.690   0.715   1.488  0.8887 -0.9745  1.3937
 4495SOL     OW25117   3.691   1.816   6.908  0.4370  0.2886  0.1396
 4495SOL    HW125118   3.784   1.812   6.886 -0.1766 -2.4945 -1.8571
 4495SOL    HW225119   3.683   1.896   6.960 -1.4795 -0.0952  0.4180
 4496SOL     OW25120   3.106   2.752   8.350  0.0332  0.2419 -0.7338
 4496SOL    HW125121   3.149   2.833   8.376 -1.1032  0.5280  0.2564
 4496SOL    HW225122   3.062   2.726   8.431  0.6872  1.8878  0.1481
 4497SOL     OW25123   2.876   1.940  16.739  0.2589  0.3555 -0.1402
 4497SOL    HW125124   2.857   1.904  16.826  1.2399 -1.1174 -0.5240
 4497SOL    HW225125   2.896   2.031  16.762  0.0814  0.4911 -0.5311
 4498SOL     OW25126   3.252   2.329   6.153  0.3765  0.3390 -0.3153
 4498SOL    HW125127   3.262   2.423   6.169 -0.1905  0.2303  0.6577
 4498SOL    HW225128   3.312   2.288   6.215 -0.3225  1.3005  0.9928
 4499SOL     OW25129   3.176   0.667  13.835  0.0309  0.6093 -0.3039
 4499SOL    HW125130   3.220   0.723  13.898 -0.8788  1.9169 -0.8149
 4499SOL    HW225131   3.255   0.620  13.808  0.5102 -0.1533  2.5417
 4500SOL     OW25132   2.026   0.177  11.584 -0.2517 -0.8678  0.0298
 4500SOL    HW125133   2.103   0.228  11.612  0.2579 -1.9622  0.6288
 4500SOL    HW225134   1.984   0.185  11.670 -0.5708 -0.6402 -0.1495
 4501SOL     OW25135   4.635   2.338   0.346  0.4739  0.6896  0.1544
 4501SOL    HW125136   4.601   2.319   0.433 -1.2925  0.6924 -0.5161
 4501SOL    HW225137   4.611   2.262   0.293 -1.5424  1.0123  0.6095
 4502SOL     OW25138   0.256   4.215  16.032 -0.5434 -0.0778 -0.0532
 4502SOL    HW125139   0.219   4.258  15.954  0.3466  1.0345  0.1388
 4502SOL    HW225140   0.266   4.291  16.089 -1.2695  0.3776 -0.5301
 4503SOL     OW25141   3.395   3.397   2.302 -0.0797 -0.0097  0.9204
 4503SOL    HW125142   3.332   3.469   2.302  1.7319  1.6122 -1.1253
 4503SOL    HW225143   3.378   3.355   2.218  0.7930 -1.4467  1.4691
 4504SOL     OW25144   2.492   1.486   2.927  0.1864  0.9142  0.6952
 4504SOL    HW125145   2.573   1.535   2.918  2.3437 -2.9464 -1.1162
 4504SOL    HW225146   2.437   1.561   2.907 -1.7236 -0.9695 -1.1208
 4505SOL     OW25147   4.094   1.050  11.579  0.0015  0.2853  0.1020
 4505SOL    HW125148   4.172   1.086  11.536  1.3697 -0.2421  2.1548
 4505SOL    HW225149   4.126   0.963  11.602 -4.5494 -1.1758  0.8457
 4506SOL     OW25150   3.507   0.885   8.920  0.4359 -0.2225 -0.1120
 4506SOL    HW125151   3.499   0.843   8.835 -0.0776  0.7367 -0.5363
 4506SOL    HW225152   3.539   0.810   8.970  2.1832  0.2569 -0.5055
 4507SOL     OW25153   2.330   2.794  12.913 -0.6248 -0.3868 -0.6399
 4507SOL    HW125154   2.284   2.848  12.848 -1.4869  0.4410  0.6645
 4507SOL    HW225155   2.279   2.718  12.886 -0.3423 -0.3298 -1.3459
 4508SOL     OW25156   2.948   3.676   9.889  0.0503  0.0767  0.4421
 4508SOL    HW125157   2.934   3.582   9.901 -1.6287  0.6454  2.8311
 4508SOL    HW225158   2.913   3.709   9.972  1.3043 -0.3674  1.1525
 4509SOL     OW25159   1.470   2.060   5.038  0.2224  0.6839  0.5221
 4509SOL    HW125160   1.528   2.106   5.098  1.6204 -2.4729  1.5996
 4509SOL    HW225161   1.383   2.094   5.057 -0.2022  1.3438 -2.6345
 4510SOL     OW25162   1.731   0.266   7.858  0.1079 -0.0029 -0.0983
 4510SOL    HW125163   1.755   0.272   7.950 -1.3407  0.4543  0.2440
 4510SOL    HW225164   1.649   0.315   7.852  0.6414  1.0959  1.6892
 4511SOL     OW25165   1.630   1.424   7.949 -0.1241 -0.4075 -0.0416
 4511SOL    HW125166   1.617   1.500   8.006 -3.0807 -0.6378 -0.4286
 4511SOL    HW225167   1.621   1.351   8.009  0.5630 -0.9793 -0.6459
 4512SOL     OW25168   0.311   0.708   4.926  0.2180  0.1789  0.5785
 4512SOL    HW125169   0.364   0.628   4.922  0.3921  0.4338 -2.8813
 4512SOL    HW225170   0.223   0.670   4.931  0.6030 -0.8415 -0.3381
 4513SOL     OW25171   3.673   0.059   6.799 -0.4982 -0.0875 -0.6413
 4513SOL    HW125172   3.654   0.152   6.792 -0.3861 -0.1385 -1.5889
 4513SOL    HW225173   3.735   0.048   6.727  1.8566  0.5569  1.2446
 4514SOL     OW25174   0.341   2.151   4.572  0.2552  0.9586 -0.1907
 4514SOL    HW125175   0.301   2.235   4.590  2.0105  1.7291  0.1316
 4514SOL    HW225176   0.338   2.135   4.666 -3.0531 -0.6952 -0.5856
 4515SOL     OW25177   2.841   0.867   1.368 -0.3743  0.5772 -0.2590
 4515SOL    HW125178   2.798   0.874   1.283  1.5838 -2.8366 -1.5521
 4515SOL    HW225179   2.842   0.958   1.398  3.7726 -0.4254  2.6916
 4516SOL     OW25180   2.539   3.283  14.780 -0.3979 -0.0848  1.0591
 4516SOL    HW125181   2.546   3.216  14.847  0.3186 -0.8306  0.2391
 4516SOL    HW225182   2.470   3.338  14.818 -0.3881  0.6581  0.0091
 4517SOL     OW25183   1.923   0.418   2.298  0.7398  0.9807 -0.0334
 4517SOL    HW125184   1.909   0.430   2.204  0.3886  0.9132  0.0113
 4517SOL    HW225185   2.015   0.446   2.300  1.2416 -0.6141 -0.7769
 4518SOL     OW25186   4.665   2.740   2.162  0.2050  0.1325  0.0759
 4518SOL    HW125187   4.598   2.761   2.097 -0.8529 -0.0861  1.0986
 4518SOL    HW225188   4.650   2.648   2.187  0.3380 -0.3359 -1.6086
 4519SOL     OW25189   0.823   0.739   7.597 -0.0175  0.3803  0.3671
 4519SOL    HW125190   0.749   0.742   7.537  0.0072 -1.0949  0.2580
 4519SOL    HW225191   0.771   0.775   7.669 -0.6354  1.5633 -0.6644
 4520SOL     OW25192   2.083   1.474   0.437 -0.1641 -0.1214  0.5652
 4520SOL    HW125193   2.038   1.559   0.437  1.6417  0.8264  0.5873
 4520SOL    HW225194   2.166   1.501   0.475 -0.5592  2.1522 -0.1670
 4521SOL     OW25195   0.036   3.043   5.867 -0.3588 -0.0588  0.5628
 4521SOL    HW125196   4.705   2.988   5.823  0.9027 -0.2247 -1.0887
 4521SOL    HW225197   4.710   3.117   5.874  2.0714  1.5966  3.7556
 4522SOL     OW25198   3.402   0.803   3.974 -0.2052 -0.3357  0.1969
 4522SOL    HW125199   3.487   0.764   3.956  1.5641  1.8521  3.7940
 4522SOL    HW225200   3.344   0.751   3.919  1.3612 -2.2378  0.3534
 4523SOL     OW25201   1.619   0.217   5.176 -0.3549  0.1354  0.9783
 4523SOL    HW125202   1.616   0.157   5.250  0.0038  1.1118  1.7874
 4523SOL    HW225203   1.536   0.195   5.134 -0.4825  0.4758  1.0513
 4524SOL     OW25204   4.503   2.917   2.971  0.3630  0.1259 -0.1620
 4524SOL    HW125205   4.551   2.872   3.041  3.2612  1.9146 -0.9900
 4524SOL    HW225206   4.455   2.843   2.935  0.9926 -0.9117  1.1182
 4525SOL     OW25207   2.189   3.246  14.307  0.2909 -0.0624 -0.3701
 4525SOL    HW125208   2.150   3.327  14.274  0.1962  0.3373  0.7215
 4525SOL    HW225209   2.176   3.188  14.232  1.2355 -0.6539 -0.0871
 4526SOL     OW25210   2.305   3.880   6.133 -0.1759 -0.1430 -0.1110
 4526SOL    HW125211   2.330   3.787   6.129 -0.2458 -0.1647 -0.0400
 4526SOL    HW225212   2.391   3.921   6.143 -0.8532  1.1608  0.2934
 4527SOL     OW25213   1.095   1.909   4.060 -0.6659 -0.0942  0.1579
 4527SOL    HW125214   1.003   1.887   4.041 -1.2844  0.7333  2.1544
 4527SOL    HW225215   1.084   1.971   4.133  0.9904  1.2363 -0.7428
 4528SOL     OW25216   0.237   3.824  14.580  0.0869 -0.8799  0.0120
 4528SOL    HW125217   0.285   3.786  14.507 -1.4490  0.2990 -1.5936
 4528SOL    HW225218   0.302   3.810  14.649  1.7937  1.6365 -1.0588
 4529SOL     OW25219   2.337   0.653  12.481  0.2724  0.1250  0.0697
 4529SOL    HW125220   2.390   0.592  12.533 -0.0557 -0.0371  0.2174
 4529SOL    HW225221   2.282   0.690  12.551  1.6625  2.5233 -0.0926
 4530SOL     OW25222   0.805   4.684   3.033 -0.1271 -0.2033 -0.3834
 4530SOL    HW125223   0.887   4.713   2.993  0.4352  0.5023  1.3000
 4530SOL    HW225224   0.770   4.659   2.947 -3.1978  0.7401  0.5814
 4531SOL     OW25225   1.151   4.683  15.315 -0.0168  0.0046 -0.3534
 4531SOL    HW125226   1.180   4.617  15.378 -0.0130  0.1179 -0.2371
 4531SOL    HW225227   1.226   0.007  15.310  0.8396 -1.0980 -0.2979
 4532SOL     OW25228   1.576   3.290  11.081 -0.4612  0.1973  0.1271
 4532SOL    HW125229   1.653   3.345  11.068  1.3052 -2.1968  0.3490
 4532SOL    HW225230   1.526   3.346  11.022  0.9686  1.5379  0.1799
 4533SOL     OW25231   2.885   4.625  13.768 -0.1949 -0.0915  0.2406
 4533SOL    HW125232   2.850   4.714  13.764 -0.5900 -0.2820 -0.5810
 4533SOL    HW225233   2.834   4.580  13.701  0.2913  0.6550 -0.6347
 4534SOL     OW25234   1.762   3.186   8.865  0.2651 -0.4706 -0.1000
 4534SOL    HW125235   1.809   3.260   8.826  1.3989 -0.7284  0.7859
 4534SOL    HW225236   1.817   3.113   8.838 -0.0243 -0.9936  0.7010
 4535SOL     OW25237   4.050   1.297   3.236 -0.0376 -0.2526  0.0892
 4535SOL    HW125238   3.972   1.352   3.233  1.1978  1.4695 -1.2664
 4535SOL    HW225239   4.025   1.208   3.257 -0.0594 -0.1317  0.5661
 4536SOL     OW25240   2.484   2.037   5.294 -0.2885  0.3088 -0.2687
 4536SOL    HW125241   2.501   1.946   5.269 -1.9300 -0.2290  0.5812
 4536SOL    HW225242   2.554   2.046   5.359 -0.9491 -1.1282  0.6610
 4537SOL     OW25243   2.123   1.844   7.850  0.8496  0.2760 -0.6597
 4537SOL    HW125244   2.218   1.834   7.860  0.3708 -0.9855  2.7787
 4537SOL    HW225245   2.107   1.828   7.757  1.6251  2.1396 -1.0977
 4538SOL     OW25246   4.194   3.296   1.702 -0.0780  0.3560  0.4554
 4538SOL    HW125247   4.227   3.301   1.792 -3.7159 -1.0544  1.8658
 4538SOL    HW225248   4.254   3.351   1.652  0.6294  1.7390  2.8520
 4539SOL     OW25249   4.089   0.106   9.039  0.1922 -0.3372 -0.1987
 4539SOL    HW125250   4.107   0.045   8.968  1.6705  0.7738 -0.7877
 4539SOL    HW225251   4.005   0.135   9.003  0.4616 -1.3486 -1.6496
 4540SOL     OW25252   2.470   1.880   3.720  0.1240  0.6800  0.1752
 4540SOL    HW125253   2.400   1.850   3.779  0.5624 -1.4456 -0.3653
 4540SOL    HW225254   2.499   1.964   3.756 -0.4370 -0.3715  3.1385
 4541SOL     OW25255   2.913   3.473   4.250 -0.4324 -0.6989 -0.0937
 4541SOL    HW125256   2.869   3.510   4.327  0.4806  1.5063 -0.6079
 4541SOL    HW225257   2.909   3.553   4.197  1.1985 -1.8378 -1.9322
 4542SOL     OW25258   2.390   3.450   4.026 -0.5718  0.4612 -0.2610
 4542SOL    HW125259   2.458   3.442   4.093 -2.5640  1.4488  1.9045
 4542SOL    HW225260   2.445   3.465   3.950  1.3470  0.4247  1.1267
 4543SOL     OW25261   4.129   0.538   1.696 -0.1588 -0.0673 -0.0610
 4543SOL    HW125262   4.167   0.486   1.625  0.1769  2.7305 -1.8920
 4543SOL    HW225263   4.126   0.477   1.770 -3.6445 -1.0081 -0.9494
 4544SOL     OW25264   2.284   2.953  15.523 -0.0039  0.4932  0.4254
 4544SOL    HW125265   2.274   3.045  15.501 -0.2300  0.9667  2.4833
 4544SOL    HW225266   2.375   2.939  15.496 -0.1854 -0.1710  0.1579
 4545SOL     OW25267   0.041   2.684  13.085  0.4856 -0.7942  0.1267
 4545SOL    HW125268   0.089   2.689  13.168  1.5547 -0.1296 -0.5474
 4545SOL    HW225269   0.005   2.596  13.097  0.1854 -0.8883 -1.5149
 4546SOL     OW25270   0.927   3.066   8.363 -0.1154 -0.2615 -0.2532
 4546SOL    HW125271   0.843   3.040   8.401  0.4154 -0.1373  0.9997
 4546SOL    HW225272   0.902   3.152   8.327 -1.8032 -1.4480 -1.9380
 4547SOL     OW25273   0.194   3.461  17.153 -0.1030  1.0516  0.1229
 4547SOL    HW125274   0.252   3.488  17.082 -1.7499  1.6221 -0.9835
 4547SOL    HW225275   0.116   3.474  17.100  0.0845 -2.6909 -1.0631
 4548SOL     OW25276   1.153   0.639   1.217  0.5254  0.0968 -0.1947
 4548SOL    HW125277   1.069   0.668   1.179  0.1673 -0.4461  0.1835
 4548SOL    HW225278   1.181   0.566   1.162 -0.3603  1.1032 -1.9921
 4549SOL     OW25279   0.676   3.755   9.877  0.2540  0.4891 -0.4154
 4549SOL    HW125280   0.613   3.791   9.815  0.9670 -0.4252 -1.6729
 4549SOL    HW225281   0.762   3.754   9.834 -1.0997  0.4301 -3.0929
 4550SOL     OW25282   4.629   3.831  14.216  0.3990  0.5236  0.1536
 4550SOL    HW125283   4.697   3.874  14.268  0.5061  1.4063 -0.7160
 4550SOL    HW225284   4.600   3.771  14.285 -0.6757 -1.7618 -2.3223
 4551SOL     OW25285   0.480   4.158   8.022 -0.3595 -0.0888  0.3877
 4551SOL    HW125286   0.421   4.094   7.982  1.1228  0.0785 -2.0617
 4551SOL    HW225287   0.417   4.218   8.062 -2.7999 -1.2319 -1.7567
 4552SOL     OW25288   1.318   1.549  11.607 -0.1576 -0.1873  0.0557
 4552SOL    HW125289   1.322   1.473  11.549  1.3941  0.3101 -0.5052
 4552SOL    HW225290   1.410   1.575  11.606  0.0155 -0.9613 -4.0687
 4553SOL     OW25291   3.199   0.968  11.530  0.6581 -0.3286  0.0999
 4553SOL    HW125292   3.229   1.023  11.457  1.9877  0.0371  0.9270
 4553SOL    HW225293   3.210   0.880  11.494  1.4635  0.1626 -0.8618
 4554SOL     OW25294   4.409   1.691  12.710 -0.2753  0.4575  0.3017
 4554SOL    HW125295   4.463   1.619  12.744  0.1870  0.3788 -0.6054
 4554SOL    HW225296   4.405   1.690  12.614 -1.0518 -0.7495  0.3532
 4555SOL     OW25297   2.177   3.798   3.384 -0.4867 -0.1060 -0.6030
 4555SOL    HW125298   2.085   3.797   3.409 -0.3077  1.6250  0.1516
 4555SOL    HW225299   2.198   3.882   3.426 -3.2081 -1.0952  2.6904
 4556SOL     OW25300   1.002   0.507  10.522  0.2620 -0.7717 -0.4323
 4556SOL    HW125301   1.062   0.581  10.530 -0.0270 -1.0626  4.2223
 4556SOL    HW225302   0.936   0.518  10.590  1.6729  0.0346  0.7798
 4557SOL     OW25303   3.833   2.314   5.946 -0.3533 -0.1041 -0.6816
 4557SOL    HW125304   3.827   2.232   5.897  1.2844 -0.6740  0.0979
 4557SOL    HW225305   3.924   2.310   5.975 -0.6999 -0.0095  0.4016
 4558SOL     OW25306   2.955   4.154   6.883 -0.3570 -0.1403  0.1704
 4558SOL    HW125307   2.956   4.090   6.812  0.0553 -0.4115  0.4223
 4558SOL    HW225308   3.025   4.109   6.931 -0.5689  0.2620  0.8639
 4559SOL     OW25309   0.043   3.646  14.610 -0.3639 -0.0019 -0.3484
 4559SOL    HW125310   0.039   3.637  14.705  1.5731 -0.3910 -0.3184
 4559SOL    HW225311   0.113   3.710  14.600  0.5716 -1.1274 -0.9760
 4560SOL     OW25312   3.189   1.452   7.735 -0.2270 -0.4952  0.3233
 4560SOL    HW125313   3.248   1.379   7.755  0.4929  0.0079  0.0010
 4560SOL    HW225314   3.103   1.421   7.764  0.3440 -2.0232  0.4132
 4561SOL     OW25315   1.944   4.007  17.398  0.6434 -0.0171 -0.5820
 4561SOL    HW125316   1.925   4.014  17.304 -0.5448 -0.6943 -0.3946
 4561SOL    HW225317   1.966   3.914  17.396  0.4662 -0.1090  1.9093
 4562SOL     OW25318   4.304   1.084   3.045 -0.3016 -0.5268 -0.2327
 4562SOL    HW125319   4.255   1.032   3.109 -1.4385  1.5271  0.5799
 4562SOL    HW225320   4.377   1.107   3.103  1.9093  1.0762 -3.7011
 4563SOL     OW25321   0.630   1.932   3.268  0.2565 -0.5680 -0.5840
 4563SOL    HW125322   0.686   1.889   3.204  1.0301  1.3140 -1.1742
 4563SOL    HW225323   0.618   1.857   3.326  1.0353  0.1442  0.5066
 4564SOL     OW25324   2.997   1.581   6.508  0.1870 -0.1773 -0.5653
 4564SOL    HW125325   2.962   1.530   6.581  1.6951 -0.3141  0.0620
 4564SOL    HW225326   3.072   1.525   6.490 -0.7175 -1.0032 -1.6745
 4565SOL     OW25327   1.785   3.964   3.573 -0.2531 -0.2138  0.2189
 4565SOL    HW125328   1.830   3.985   3.491 -1.0640  2.3314  0.4149
 4565SOL    HW225329   1.843   4.014   3.630 -0.8909 -0.0902  0.7545
 4566SOL     OW25330   2.799   1.172  15.738  0.7837 -0.0298 -0.4602
 4566SOL    HW125331   2.723   1.128  15.699  0.1998  0.0527  0.5946
 4566SOL    HW225332   2.846   1.108  15.791 -2.5787 -2.2758 -0.2073
 4567SOL     OW25333   4.215   0.802  11.636 -0.0465 -0.1443 -0.7004
 4567SOL    HW125334   4.175   0.759  11.560  1.7251  1.7058 -2.6674
 4567SOL    HW225335   4.254   0.733  11.690  1.5975  2.5333  1.5630
 4568SOL     OW25336   3.078   2.431   5.726  0.1658 -0.4995 -0.0312
 4568SOL    HW125337   3.062   2.475   5.809  1.0094 -0.4742  0.1119
 4568SOL    HW225338   3.157   2.475   5.697  0.0037 -1.5018 -2.0139
 4569SOL     OW25339   3.563   2.238   2.273 -0.1328  0.2006  0.9214
 4569SOL    HW125340   3.504   2.247   2.199  0.0705  2.0329  0.9770
 4569SOL    HW225341   3.521   2.288   2.343 -1.6989  0.0151  0.1121
 4570SOL     OW25342   2.070   0.436  11.995  0.1548  0.8329 -0.5963
 4570SOL    HW125343   2.027   0.360  12.034  0.4366  1.2538  0.5341
 4570SOL    HW225344   2.044   0.508  12.052  2.0132 -0.1531  1.4882
 4571SOL     OW25345   4.123   3.094   4.332 -0.0698 -0.2563  0.0666
 4571SOL    HW125346   4.085   3.140   4.257  0.8214  0.1888 -0.1100
 4571SOL    HW225347   4.207   3.139   4.338  1.2317 -2.3020 -2.7787
 4572SOL     OW25348   0.689   0.245   3.104  0.5443 -0.7895 -0.2427
 4572SOL    HW125349   0.706   0.234   3.011 -0.6874 -1.4566 -0.3778
 4572SOL    HW225350   0.777   0.259   3.141 -0.0840 -0.1095  0.9960
 4573SOL     OW25351   2.655   1.698  10.451 -0.3012  0.6870 -0.4527
 4573SOL    HW125352   2.663   1.706  10.546 -1.2391 -1.1840 -0.2108
 4573SOL    HW225353   2.744   1.669  10.430 -0.6579  0.3980 -1.5687
 4574SOL     OW25354   0.929   3.585  12.902 -0.2315  0.4818  0.1204
 4574SOL    HW125355   0.914   3.659  12.962  2.2116  0.2820  0.9645
 4574SOL    HW225356   0.942   3.515  12.966  0.2035  1.1025  0.7162
 4575SOL     OW25357   2.216   4.596   9.276  0.0854  0.0969  0.3782
 4575SOL    HW125358   2.242   4.675   9.229  2.1089 -1.5866 -1.3062
 4575SOL    HW225359   2.244   4.530   9.212  1.3478  0.8329  0.1675
 4576SOL     OW25360   1.460   1.570   3.371  0.1944 -0.0146  0.1379
 4576SOL    HW125361   1.393   1.580   3.439  2.1934  1.1659  1.9532
 4576SOL    HW225362   1.433   1.481   3.350  0.5690  0.3705 -1.9922
 4577SOL     OW25363   0.751   3.415   0.470  0.6114 -0.2633  0.5569
 4577SOL    HW125364   0.708   3.481   0.526  0.2997  1.1674 -1.3675
 4577SOL    HW225365   0.837   3.457   0.464  0.4017  0.3054  1.4262
 4578SOL     OW25366   2.113   4.699  16.953  0.5689  0.1203 -0.1898
 4578SOL    HW125367   2.189   0.008  16.913  0.9513  0.5005  0.9322
 4578SOL    HW225368   2.114   4.719  17.047 -1.6739 -0.6892 -0.0030
 4579SOL     OW25369   1.900   2.437   2.596  0.2003  0.2234  0.1150
 4579SOL    HW125370   1.846   2.504   2.554  0.5126 -0.5939 -1.5924
 4579SOL    HW225371   1.973   2.431   2.535  0.0106  0.1714 -0.1076
 4580SOL     OW25372   3.692   0.124  12.170 -0.7293 -0.2133 -0.1470
 4580SOL    HW125373   3.777   0.122  12.127 -1.2396  0.5025 -1.1677
 4580SOL    HW225374   3.662   0.214  12.165  1.4773  0.4918 -0.3979
 4581SOL     OW25375   1.758   2.322   7.469 -0.4084 -0.0360  0.1489
 4581SOL    HW125376   1.706   2.364   7.400 -0.8410  0.8909  1.0196
 4581SOL    HW225377   1.681   2.301   7.523 -0.1219 -2.1670 -0.2940
 4582SOL     OW25378   3.458   0.668  15.467  0.0978 -0.4959  0.1192
 4582SOL    HW125379   3.489   0.633  15.551 -0.5428  1.5103  1.1810
 4582SOL    HW225380   3.506   0.750  15.469 -1.6235  0.5151 -0.5423
 4583SOL     OW25381   2.322   0.876   2.017 -0.1957 -0.1705 -0.7813
 4583SOL    HW125382   2.365   0.905   2.098 -3.9160 -0.4907  1.2963
 4583SOL    HW225383   2.289   0.962   1.991  0.5955  0.5269  0.4844
 4584SOL     OW25384   0.151   3.373  16.338  0.2779  0.5844 -0.4295
 4584SOL    HW125385   0.160   3.389  16.432 -0.0201 -1.1199 -0.1164
 4584SOL    HW225386   0.199   3.448  16.304  1.8004  0.6905  1.9126
 4585SOL     OW25387   2.184   3.675   3.749 -0.8557 -0.0001  0.1309
 4585SOL    HW125388   2.146   3.753   3.710  0.4244  0.9291  0.7213
 4585SOL    HW225389   2.191   3.618   3.673 -2.5405 -1.8345  1.3441
 4586SOL     OW25390   3.198   1.717  11.087  0.1270  0.2098  0.3874
 4586SOL    HW125391   3.210   1.701  11.181 -3.0819 -1.1034  0.5632
 4586SOL    HW225392   3.285   1.710  11.048  0.2733 -0.8675  0.9164
 4587SOL     OW25393   2.078   0.461  17.437  0.0277 -0.1830 -0.0172
 4587SOL    HW125394   2.051   0.370  17.445  0.5779 -0.3642 -0.2135
 4587SOL    HW225395   1.997   0.512  17.445  1.7890  2.4717  0.9322
 4588SOL     OW25396   1.858   1.799   4.673  0.2434  0.1159  0.1863
 4588SOL    HW125397   1.812   1.850   4.739  1.4281 -1.1280  1.9702
 4588SOL    HW225398   1.835   1.708   4.693  1.0812  0.2152  1.5935
 4589SOL     OW25399   0.119   0.760   4.669 -0.6897  0.8282  0.0305
 4589SOL    HW125400   0.031   0.727   4.685  1.2828 -2.9167  2.9644
 4589SOL    HW225401   0.118   0.837   4.726  2.0297  0.1949  0.9447
 4590SOL     OW25402   0.389   1.696  11.774  0.1820  0.3562  0.1249
 4590SOL    HW125403   0.405   1.735  11.688 -0.3459 -2.1720 -1.1229
 4590SOL    HW225404   0.295   1.704  11.758  0.1629 -1.6936 -0.7926
 4591SOL     OW25405   3.476   2.697   0.326 -0.0173  0.1873  0.2569
 4591SOL    HW125406   3.532   2.738   0.260 -0.4077 -0.8959 -0.7247
 4591SOL    HW225407   3.424   2.772   0.355  0.1451 -0.7375  2.9470
 4592SOL     OW25408   1.555   1.097   5.483 -0.2588  0.8010  0.0799
 4592SOL    HW125409   1.509   1.177   5.506 -1.2405  0.4753 -0.7640
 4592SOL    HW225410   1.640   1.129   5.453  1.5799 -3.6645  0.5302
 4593SOL     OW25411   2.447   2.405  10.312 -0.3636 -0.2390 -0.2554
 4593SOL    HW125412   2.456   2.438  10.402  3.0198  0.9503 -1.0332
 4593SOL    HW225413   2.404   2.474  10.262 -0.8660  0.7496  1.5591
 4594SOL     OW25414   4.523   0.675  14.237 -0.4251 -0.2458  0.5857
 4594SOL    HW125415   4.495   0.584  14.237 -2.5016  0.3993  1.4062
 4594SOL    HW225416   4.438   0.719  14.236 -0.5811 -0.4585  5.1047
 4595SOL     OW25417   0.186   0.825  14.844 -0.3958  0.6418 -0.2511
 4595SOL    HW125418   0.239   0.775  14.905  0.3538  1.8285  0.0745
 4595SOL    HW225419   0.236   0.906  14.835 -1.0515  0.9086 -1.6919
 4596SOL     OW25420   0.116   0.049   0.418  0.9361 -0.2910  0.1858
 4596SOL    HW125421   0.168   4.716   0.462 -0.8705 -1.0654  1.1623
 4596SOL    HW225422   0.141   0.042   0.326 -0.2733  0.0686 -0.1738
 4597SOL     OW25423   1.701   1.327   8.239 -0.4028  0.4345  0.0294
 4597SOL    HW125424   1.741   1.397   8.290  0.2443 -1.0433  1.5260
 4597SOL    HW225425   1.626   1.295   8.289  0.4775  0.1656  1.1516
 4598SOL     OW25426   4.645   4.476  10.980 -0.2911  0.4771  0.3205
 4598SOL    HW125427   4.601   4.444  10.901 -0.5591 -0.1421  0.7127
 4598SOL    HW225428   4.729   4.440  10.952 -0.3526  2.4830 -2.4398
 4599SOL     OW25429   3.251   4.621   3.996 -0.4699  0.6465  0.2734
 4599SOL    HW125430   3.322   4.569   3.957 -0.6829  1.7207 -1.5492
 4599SOL    HW225431   3.213   4.662   3.918 -0.3685  2.2961  1.0899
 4600SOL     OW25432   4.234   1.456   6.993  0.0375  0.3245 -0.1755
 4600SOL    HW125433   4.315   1.435   7.040  1.2125  1.6295 -1.6255
 4600SOL    HW225434   4.164   1.422   7.048  0.5304 -1.7854 -0.8470
 4601SOL     OW25435   0.710   1.789  15.549 -1.3211  0.3098  0.5216
 4601SOL    HW125436   0.685   1.853  15.483 -0.6726 -0.2186 -0.2321
 4601SOL    HW225437   0.659   1.715  15.516  0.7044 -0.0361 -1.8072
 4602SOL     OW25438   3.337   2.571   8.337  0.0284  0.6266  0.1438
 4602SOL    HW125439   3.328   2.588   8.431 -1.2221 -0.7146  0.2677
 4602SOL    HW225440   3.264   2.622   8.301 -1.3386  2.0758  4.8269
 4603SOL     OW25441   1.154   4.407  11.299 -0.0255  0.5200 -0.7511
 4603SOL    HW125442   1.113   4.428  11.383 -0.2432  1.2065 -1.0212
 4603SOL    HW225443   1.155   4.313  11.315  0.7756  0.3568 -1.7590
 4604SOL     OW25444   2.721   2.764  16.524  0.7612  0.3795 -0.1813
 4604SOL    HW125445   2.650   2.775  16.460 -0.0692  0.9427  0.8307
 4604SOL    HW225446   2.802   2.735  16.483  0.4190  0.9848 -1.2725
 4605SOL     OW25447   0.377   0.638   5.434  0.5358  0.3741 -0.1573
 4605SOL    HW125448   0.304   0.698   5.440  0.3258  0.1757 -0.7386
 4605SOL    HW225449   0.455   0.694   5.430 -0.1757  1.3126 -0.5940
 4606SOL     OW25450   1.381   2.015   7.170  0.6388 -0.3878 -0.1707
 4606SOL    HW125451   1.409   2.005   7.079 -0.6173 -2.3365 -0.3321
 4606SOL    HW225452   1.287   2.004   7.159  0.4880 -0.7138  1.5635
 4607SOL     OW25453   1.621   2.896   7.540  0.1693  0.2857  0.3231
 4607SOL    HW125454   1.559   2.907   7.468  1.9066 -0.3339 -1.2541
 4607SOL    HW225455   1.565   2.905   7.617 -1.4462 -1.7246 -0.6004
 4608SOL     OW25456   1.938   2.728  13.816 -0.1268 -0.0763  0.3564
 4608SOL    HW125457   1.997   2.652  13.819  0.2711  0.1931 -0.4731
 4608SOL    HW225458   1.900   2.727  13.728  1.0783 -2.2744 -0.1264
 4609SOL     OW25459   1.224   1.999   2.698 -0.1966 -0.3117  0.3344
 4609SOL    HW125460   1.175   2.054   2.638 -0.2339 -1.8954 -1.0772
 4609SOL    HW225461   1.243   1.924   2.643 -0.6780 -1.7964  2.1967
 4610SOL     OW25462   1.856   1.381   1.199  0.3270 -0.2977 -0.3449
 4610SOL    HW125463   1.835   1.354   1.110  1.4049 -1.2981 -0.2889
 4610SOL    HW225464   1.902   1.461   1.176  1.3344 -0.7861 -0.0311
 4611SOL     OW25465   3.444   0.580  13.854 -0.7497 -1.0024  0.1284
 4611SOL    HW125466   3.417   0.490  13.837 -1.5537 -0.5532 -0.9222
 4611SOL    HW225467   3.495   0.604  13.777  1.0911  1.4837  2.0828
 4612SOL     OW25468   2.092   1.932  11.137 -0.5303  0.0888  0.0320
 4612SOL    HW125469   2.012   1.936  11.188  0.7349 -2.0101  2.1848
 4612SOL    HW225470   2.101   2.024  11.113  1.4301  0.3074  1.5819
 4613SOL     OW25471   1.137   4.419   5.977  0.5511  0.0626 -0.2546
 4613SOL    HW125472   1.090   4.389   6.055 -0.1899  2.0099  0.0497
 4613SOL    HW225473   1.132   4.515   5.981 -2.4830 -0.0429 -1.1014
 4614SOL     OW25474   2.571   3.104   7.219  0.1840 -0.5451 -1.1081
 4614SOL    HW125475   2.626   3.144   7.285  0.1964 -1.8299 -0.3411
 4614SOL    HW225476   2.620   3.027   7.189  1.5821  1.0129 -2.8391
 4615SOL     OW25477   3.604   3.956   8.836 -0.1380 -0.5114  0.0487
 4615SOL    HW125478   3.535   4.000   8.786 -0.9621 -1.7669  0.0827
 4615SOL    HW225479   3.673   3.976   8.773  1.9441 -3.2602  1.4325
 4616SOL     OW25480   3.970   4.288   8.336  0.1763  0.4207  0.1617
 4616SOL    HW125481   3.988   4.263   8.245 -0.2067  0.5216  0.0575
 4616SOL    HW225482   3.879   4.318   8.327 -0.0373 -0.4318 -0.5502
 4617SOL     OW25483   0.072   0.568   4.943  0.0310 -0.3417 -0.1156
 4617SOL    HW125484   0.106   0.492   4.990  1.1204  0.1969 -0.0245
 4617SOL    HW225485   4.715   0.551   4.920 -0.1234  1.1807 -0.6858
 4618SOL     OW25486   3.726   1.144  10.833 -0.3418  0.2976 -0.4736
 4618SOL    HW125487   3.691   1.193  10.759  2.2997  2.3614 -0.3731
 4618SOL    HW225488   3.811   1.186  10.850 -0.1436 -0.3279  0.0640
 4619SOL     OW25489   2.711   2.066   0.731 -0.1510 -0.0888 -0.1499
 4619SOL    HW125490   2.724   2.032   0.643 -3.8211 -1.5878 -0.1340
 4619SOL    HW225491   2.788   2.025   0.769  0.0603  0.9951  0.5874
 4620SOL     OW25492   3.028   2.109   7.682  0.4368 -0.3938  0.5689
 4620SOL    HW125493   3.006   2.030   7.633 -0.7634  0.9893 -1.1280
 4620SOL    HW225494   3.060   2.163   7.610  0.7410 -1.4915 -0.1211
 4621SOL     OW25495   4.079   3.187   0.147  0.5601 -0.8760 -0.2288
 4621SOL    HW125496   4.082   3.272   0.103  2.6456 -0.2224  1.1954
 4621SOL    HW225497   4.169   3.165   0.125  0.8059  0.5687 -0.6688
 4622SOL     OW25498   3.053   0.293  15.622 -0.1470 -0.3022 -0.3719
 4622SOL    HW125499   3.038   0.374  15.672 -0.7777 -1.0375  0.6222
 4622SOL    HW225500   3.053   0.323  15.531 -0.0819  0.7641 -0.0275
 4623SOL     OW25501   0.866   0.460   0.417 -0.2258  0.2680 -0.1394
 4623SOL    HW125502   0.823   0.393   0.470  1.3521 -0.1690  0.6101
 4623SOL    HW225503   0.859   0.534   0.477  2.4107 -0.8875  1.6165
 4624SOL     OW25504   4.465   3.999  12.781 -0.3650  0.4592  0.4611
 4624SOL    HW125505   4.553   3.969  12.805 -0.5535  0.4048  1.0666
 4624SOL    HW225506   4.416   3.918  12.800 -1.1623  0.8745  0.1739
 4625SOL     OW25507   0.212   2.962  17.410  0.6340  0.0054 -0.3899
 4625SOL    HW125508   0.249   3.041  17.370  0.8214 -0.7700 -1.7480
 4625SOL    HW225509   0.283   2.904  17.437 -1.4264 -1.8338  1.0339
 4626SOL     OW25510   4.227   2.237   7.167  0.2974  0.1406  0.1040
 4626SOL    HW125511   4.205   2.292   7.092  0.8354  0.3650  0.1109
 4626SOL    HW225512   4.296   2.292   7.206  0.3018  0.3501 -0.2022
 4627SOL     OW25513   1.888   0.922   6.794 -0.5718  0.4526  0.0185
 4627SOL    HW125514   1.808   0.915   6.846 -1.3479  1.5221 -1.0267
 4627SOL    HW225515   1.877   0.845   6.738 -1.3649  0.1213  0.6271
 4628SOL     OW25516   0.831   3.589   2.680 -0.1784 -0.1240  0.5218
 4628SOL    HW125517   0.736   3.579   2.686 -0.1783  0.7471  1.9579
 4628SOL    HW225518   0.830   3.685   2.673  2.6086 -0.1457 -0.0426
 4629SOL     OW25519   1.141   3.311   7.936 -0.0447 -0.4864 -0.5695
 4629SOL    HW125520   1.210   3.303   8.002  2.2391  2.4473 -2.6291
 4629SOL    HW225521   1.124   3.405   7.949 -0.3210 -0.6169  0.0311
 4630SOL     OW25522   0.092   3.879   4.120  0.2919 -0.5372  0.1463
 4630SOL    HW125523   0.032   3.951   4.137  1.9292  0.7622  0.4057
 4630SOL    HW225524   0.143   3.911   4.046 -0.5923 -3.2533 -1.6236
 4631SOL     OW25525   0.376   0.112   0.593  0.2333 -0.7824 -0.2318
 4631SOL    HW125526   0.448   0.146   0.539  0.2627  1.9386  1.5265
 4631SOL    HW225527   0.347   0.030   0.554 -1.0653 -0.6764  0.5362
 4632SOL     OW25528   2.872   4.204   3.165  0.3556  0.4318 -0.1214
 4632SOL    HW125529   2.858   4.166   3.079  0.1928  1.3020 -0.4853
 4632SOL    HW225530   2.959   4.175   3.191 -0.3882 -1.2354  0.5212
 4633SOL     OW25531   0.962   1.437  16.419  0.2516  0.3063 -0.4682
 4633SOL    HW125532   0.977   1.348  16.389  0.6384  0.7971 -1.7467
 4633SOL    HW225533   0.978   1.434  16.513  0.9136 -0.3895 -0.6046
 4634SOL     OW25534   2.503   3.123   8.715  0.2386 -0.1161 -0.5341
 4634SOL    HW125535   2.455   3.158   8.640 -2.0013 -2.2835 -0.1293
 4634SOL    HW225536   2.518   3.204   8.763  0.9918 -1.0933  0.8842
 4635SOL     OW25537   0.623   4.610   8.011 -0.1410 -0.1324 -0.0135
 4635SOL    HW125538   0.695   4.549   7.997 -0.8622 -1.0791  0.3018
 4635SOL    HW225539   0.664   4.679   8.062  2.5173 -0.2167 -2.0647
 4636SOL     OW25540   1.895   0.345  13.635  0.4675  0.2103 -0.2124
 4636SOL    HW125541   1.955   0.325  13.564  0.9015  1.2394 -0.1397
 4636SOL    HW225542   1.817   0.298  13.606  0.6526 -0.2336  0.0085
 4637SOL     OW25543   1.815   4.376  15.096 -0.2897 -0.4990  0.0111
 4637SOL    HW125544   1.810   4.314  15.170 -3.0454 -0.3829 -0.0894
 4637SOL    HW225545   1.733   4.362  15.050 -0.5510  2.1814 -0.3121
 4638SOL     OW25546   3.553   3.144  15.791 -0.2364  0.2764 -0.5816
 4638SOL    HW125547   3.568   3.055  15.757  1.7197  0.5095 -0.3759
 4638SOL    HW225548   3.530   3.199  15.717 -1.4413 -0.3015 -0.6300
 4639SOL     OW25549   1.407   1.651   2.152 -0.4510  0.0934  0.3819
 4639SOL    HW125550   1.398   1.595   2.230  0.4424 -1.8256 -0.8974
 4639SOL    HW225551   1.357   1.607   2.084  0.1585 -0.4776  0.2974
 4640SOL     OW25552   0.339   0.302   7.564 -0.4486 -0.1239  0.0430
 4640SOL    HW125553   0.413   0.341   7.611  0.1129 -0.1769 -0.7860
 4640SOL    HW225554   0.345   0.209   7.588 -1.5008 -0.8543 -2.4540
 4641SOL     OW25555   1.670   4.195   8.717  0.8812 -0.3755 -0.0340
 4641SOL    HW125556   1.660   4.266   8.780  0.3315 -2.2212  1.9509
 4641SOL    HW225557   1.675   4.118   8.774  1.3485 -0.6016 -0.3734
 4642SOL     OW25558   1.753   2.238   5.666  0.3893 -0.3029  0.2960
 4642SOL    HW125559   1.727   2.233   5.758  1.6177 -2.8881  0.4974
 4642SOL    HW225560   1.724   2.329   5.662  0.3053 -0.2916  1.0612
 4643SOL     OW25561   3.228   0.083   2.233 -0.6824  0.0092 -0.1258
 4643SOL    HW125562   3.173   0.011   2.262 -0.9679  0.3696  0.2289
 4643SOL    HW225563   3.221   0.090   2.137  1.1385  2.7321 -0.0704
 4644SOL     OW25564   4.039   1.529  10.634 -0.5935  0.4904 -0.6129
 4644SOL    HW125565   4.111   1.553  10.574  0.8459 -1.3779  0.3716
 4644SOL    HW225566   4.085   1.461  10.683 -0.6640  0.6790 -0.2896
 4645SOL     OW25567   3.903   1.025  11.032 -0.4118 -0.1065  0.0121
 4645SOL    HW125568   3.913   1.109  10.986  2.8854 -0.9098 -0.7756
 4645SOL    HW225569   3.809   1.013  11.038 -0.4860  2.2821  3.3400
 4646SOL     OW25570   4.209   1.018   9.377  1.0140  0.2920 -0.4607
 4646SOL    HW125571   4.296   1.055   9.361  1.1454 -0.3822 -1.2950
 4646SOL    HW225572   4.214   0.933   9.333  1.7292  1.0348 -1.8031
 4647SOL     OW25573   2.098   2.160   7.119  0.6054  0.6784  0.4896
 4647SOL    HW125574   2.097   2.167   7.214  0.7183 -1.4075  0.6459
 4647SOL    HW225575   2.192   2.146   7.112 -0.0256 -2.7729 -1.3042
 4648SOL     OW25576   1.299   0.053  17.048  0.1617  0.2828 -0.3661
 4648SOL    HW125577   1.279   0.009  16.965  0.9950 -0.1178 -0.3584
 4648SOL    HW225578   1.336   0.131  17.007 -4.4047  2.1581 -0.8718
 4649SOL     OW25579   0.929   3.911   1.334 -0.5678  0.3918 -0.3575
 4649SOL    HW125580   0.931   3.817   1.350 -2.0740  0.5937  1.0637
 4649SOL    HW225581   0.912   3.949   1.421  0.1030  0.1187 -0.1109
 4650SOL     OW25582   4.677   1.152  14.765 -0.3465 -0.4148  1.1266
 4650SOL    HW125583   0.020   1.130  14.712 -3.5055 -0.3514 -3.4642
 4650SOL    HW225584   4.610   1.097  14.724 -1.2582  1.1113  0.5665
 4651SOL     OW25585   3.140   4.414   5.244  0.0969 -0.0638 -0.4502
 4651SOL    HW125586   3.126   4.453   5.158 -1.5232  1.0666  0.3280
 4651SOL    HW225587   3.218   4.462   5.274 -2.1681  2.9779  0.5493
 4652SOL     OW25588   1.255   1.543   5.707 -0.0244 -0.1250 -0.7902
 4652SOL    HW125589   1.350   1.553   5.698 -0.1051  0.4393 -1.0154
 4652SOL    HW225590   1.250   1.461   5.754  2.4748  1.1565  1.6982
 4653SOL     OW25591   1.245   4.580   7.559  0.2299 -0.4328 -0.0675
 4653SOL    HW125592   1.260   4.485   7.553  1.0415 -0.3904  1.2607
 4653SOL    HW225593   1.298   4.617   7.488 -2.0963  1.3699 -0.8549
 4654SOL     OW25594   1.390   4.391   1.693  0.0281  0.4462 -0.2489
 4654SOL    HW125595   1.351   4.312   1.730  2.0331 -0.7670 -0.7302
 4654SOL    HW225596   1.320   4.451   1.717  0.2623 -0.1242  1.8837
 4655SOL     OW25597   2.552   3.685   2.498  0.1933 -0.1903 -0.5559
 4655SOL    HW125598   2.484   3.622   2.473 -0.7539  0.3329  0.6844
 4655SOL    HW225599   2.512   3.767   2.469  0.7696  0.1146 -0.4848
 4656SOL     OW25600   1.935   0.798  16.291  0.3759  0.0204 -1.1374
 4656SOL    HW125601   1.948   0.737  16.364 -0.1664  0.8992 -0.3087
 4656SOL    HW225602   1.852   0.759  16.265  0.5540  0.1003 -1.8096
 4657SOL     OW25603   0.785   0.224   0.640 -0.2669 -0.0130 -0.0485
 4657SOL    HW125604   0.737   0.238   0.721 -0.6280 -0.2117 -0.2287
 4657SOL    HW225605   0.873   0.234   0.677 -0.3583 -0.4520  0.2771
 4658SOL     OW25606   0.515   2.825  11.955  0.1130 -0.2560  0.8461
 4658SOL    HW125607   0.477   2.814  12.043 -1.9271  0.7645  0.0885
 4658SOL    HW225608   0.487   2.915  11.937  0.7086 -0.3358 -0.4298
 4659SOL     OW25609   1.607   4.603  10.372 -0.2950  0.5235  0.0424
 4659SOL    HW125610   1.665   4.552  10.316  0.8949  1.2942  0.5747
 4659SOL    HW225611   1.560   4.661  10.312  0.0567  1.2166  0.4391
 4660SOL     OW25612   0.111   2.443   7.926  0.0909 -0.2296  0.2838
 4660SOL    HW125613   0.035   2.500   7.913  0.5064 -0.3000 -2.4125
 4660SOL    HW225614   0.062   2.360   7.927 -2.1428  1.1039  0.7462
 4661SOL     OW25615   4.209   3.227  11.358 -0.0487  0.1377 -0.3709
 4661SOL    HW125616   4.293   3.187  11.338  0.5191  1.4411 -0.5915
 4661SOL    HW225617   4.183   3.173  11.433 -0.5168 -0.3005 -0.8448
 4662SOL     OW25618   1.577   4.280   9.644  0.5516  0.4787  0.0399
 4662SOL    HW125619   1.567   4.228   9.564 -0.9683 -0.1575  0.6527
 4662SOL    HW225620   1.499   4.258   9.695  0.6953 -0.7296 -0.2631
 4663SOL     OW25621   4.394   0.654   3.379  0.0874  0.2961 -0.2460
 4663SOL    HW125622   4.444   0.663   3.460  1.0614  0.2786 -0.8514
 4663SOL    HW225623   4.310   0.660   3.426  1.8573  1.4695  2.7342
 4664SOL     OW25624   4.595   0.624   2.881  0.2324  0.4623 -0.7166
 4664SOL    HW125625   4.679   0.668   2.869  0.5148  0.5020  1.3872
 4664SOL    HW225626   4.631   0.552   2.932 -0.7367 -0.0809 -0.7940
 4665SOL     OW25627   2.713   1.278   0.794 -0.3929 -0.4919 -0.1562
 4665SOL    HW125628   2.647   1.248   0.730 -1.4339  1.4667 -0.0016
 4665SOL    HW225629   2.762   1.196   0.785  0.0067 -0.1961 -0.6616
 4666SOL     OW25630   1.217   1.257   2.542 -0.6771  0.1074  0.8510
 4666SOL    HW125631   1.128   1.263   2.509  0.1657 -0.4132 -1.5422
 4666SOL    HW225632   1.212   1.214   2.628  1.1104 -1.2266  0.2734
 4667SOL     OW25633   3.025   0.267   6.213 -0.2606 -0.0384  0.0920
 4667SOL    HW125634   3.010   0.301   6.125  0.5122  1.3531  0.5028
 4667SOL    HW225635   3.004   0.173   6.214 -1.4244  0.1652 -3.3996
 4668SOL     OW25636   4.105   0.967   2.680  0.0366 -0.0261 -0.2205
 4668SOL    HW125637   4.073   1.022   2.752 -0.9384  0.6347 -1.1346
 4668SOL    HW225638   4.184   0.930   2.717 -1.3206 -3.3876 -0.7198
 4669SOL     OW25639   2.770   3.827   2.332  0.3685  0.2726  0.0752
 4669SOL    HW125640   2.741   3.917   2.319  0.9519  0.7760  2.2299
 4669SOL    HW225641   2.780   3.797   2.242 -1.2144  1.6033 -0.5357
 4670SOL     OW25642   0.607   3.636  12.822 -0.3081 -0.1816  0.6450
 4670SOL    HW125643   0.695   3.613  12.794 -0.5489 -1.1924  0.6988
 4670SOL    HW225644   0.612   3.730  12.809  0.3484 -0.4292 -0.7934
 4671SOL     OW25645   2.177   3.480   4.538  0.4162  0.4534 -0.1442
 4671SOL    HW125646   2.092   3.473   4.495 -0.0571  0.1297  0.8450
 4671SOL    HW225647   2.160   3.427   4.616  3.5813  0.5274  0.6064
 4672SOL     OW25648   1.149   0.359   8.935 -0.2964 -0.2939 -0.1527
 4672SOL    HW125649   1.217   0.374   9.001  0.2165  0.7551 -0.9394
 4672SOL    HW225650   1.081   0.421   8.964 -1.2263 -2.6579  2.8107
 4673SOL     OW25651   2.587   2.354   3.325 -0.2059  0.4741  0.4312
 4673SOL    HW125652   2.600   2.398   3.241 -0.1978 -0.0723  0.1408
 4673SOL    HW225653   2.606   2.424   3.387  1.9428  1.1963 -1.0409
 4674SOL     OW25654   4.396   2.213  11.193 -0.8976  0.3157  0.0750
 4674SOL    HW125655   4.319   2.243  11.145 -1.1674 -0.4416  0.0252
 4674SOL    HW225656   4.375   2.120  11.179  0.1932 -0.0604  0.9368
 4675SOL     OW25657   3.855   2.451   4.694 -0.1864  0.2417  0.9059
 4675SOL    HW125658   3.909   2.453   4.773 -2.1438 -0.3308  2.2803
 4675SOL    HW225659   3.918   2.471   4.625 -0.4317  1.6846  1.0893
 4676SOL     OW25660   4.204   1.408  10.970  0.4166 -0.0715 -0.4803
 4676SOL    HW125661   4.199   1.501  10.991  1.7273  0.5306 -2.8497
 4676SOL    HW225662   4.263   1.394  11.044 -1.5221 -1.4111  0.8192
 4677SOL     OW25663   2.940   3.367   2.936 -0.0768 -0.1595  0.3872
 4677SOL    HW125664   2.914   3.422   2.863  1.2410 -2.1414 -1.6023
 4677SOL    HW225665   2.977   3.287   2.897  1.9589 -0.8447  3.6593
 4678SOL     OW25666   1.052   0.568   2.908  0.2537 -0.5406  0.2344
 4678SOL    HW125667   1.085   0.508   2.975 -1.2921 -0.6494  0.8955
 4678SOL    HW225668   0.963   0.533   2.905  0.5574 -1.2585 -0.5633
 4679SOL     OW25669   2.736   1.494   0.645 -0.1919  0.0338  0.2414
 4679SOL    HW125670   2.831   1.486   0.639 -0.3222 -0.7002 -1.0243
 4679SOL    HW225671   2.720   1.422   0.706  4.1853 -1.0431  0.1609
 4680SOL     OW25672   0.033   0.088   2.337 -0.4004 -0.4449  0.4029
 4680SOL    HW125673   0.094   0.129   2.398  1.5120 -2.9919  0.1901
 4680SOL    HW225674   0.094   0.029   2.292 -0.8284  0.7697 -1.7528
 4681SOL     OW25675   4.649   0.860   3.785  0.8378  0.3049 -0.7987
 4681SOL    HW125676   4.585   0.789   3.784  0.2648  0.8162 -0.1962
 4681SOL    HW225677   4.730   0.813   3.764  0.2877 -0.2337 -1.7520
 4682SOL     OW25678   2.630   2.519  13.264  0.0463 -0.2382  0.3238
 4682SOL    HW125679   2.650   2.593  13.322 -1.7632  0.5463 -0.0412
 4682SOL    HW225680   2.567   2.463  13.310 -0.3415  0.6457  0.8840
 4683SOL     OW25681   0.989   0.689   2.189  0.1651 -0.0235 -0.2002
 4683SOL    HW125682   0.978   0.601   2.224  1.5324 -0.9135 -2.0033
 4683SOL    HW225683   1.074   0.701   2.233 -0.7452  0.4302  1.4213
 4684SOL     OW25684   0.208   0.932   0.113 -0.2426  0.2131 -0.2778
 4684SOL    HW125685   0.186   0.916   0.022 -0.2742 -0.3908 -0.1674
 4684SOL    HW225686   0.282   0.871   0.109 -0.7751 -0.6014  1.9077
 4685SOL     OW25687   1.467   3.429   9.181 -0.5891 -0.1437 -0.2012
 4685SOL    HW125688   1.472   3.447   9.087  0.5537  4.3755  0.7272
 4685SOL    HW225689   1.511   3.344   9.188 -1.1258 -0.5016 -1.0083
 4686SOL     OW25690   2.071   2.033  12.139  0.4074  0.0819 -0.4127
 4686SOL    HW125691   2.146   2.087  12.163  1.3840  0.0970 -3.4848
 4686SOL    HW225692   2.098   2.010  12.050 -0.1302 -0.6460 -0.3981
 4687SOL     OW25693   0.580   2.170  15.741 -0.2419  0.7933 -0.5206
 4687SOL    HW125694   0.627   2.242  15.783  0.2554  0.1827 -0.0180
 4687SOL    HW225695   0.600   2.201  15.653 -0.2287 -1.5568 -1.3531
 4688SOL     OW25696   0.100   4.141   6.603  0.2378 -0.0015  0.0832
 4688SOL    HW125697   0.069   4.062   6.558 -0.0146  0.0105  0.2365
 4688SOL    HW225698   0.195   4.134   6.615  0.2052 -0.9449 -0.2482
 4689SOL     OW25699   3.731   3.263   6.250 -0.2239 -0.3251 -0.0863
 4689SOL    HW125700   3.680   3.251   6.330  0.2524 -2.3861 -0.0919
 4689SOL    HW225701   3.761   3.353   6.267  0.7851 -0.8160  0.7702
 4690SOL     OW25702   3.182   0.994   2.787  0.1780  0.4438 -0.7186
 4690SOL    HW125703   3.194   0.978   2.694 -2.3803  2.3623 -1.3817
 4690SOL    HW225704   3.096   0.956   2.804  0.9930 -0.1039  2.2135
 4691SOL     OW25705   0.426   2.700  14.329  0.7690  0.2102 -0.4198
 4691SOL    HW125706   0.427   2.796  14.321 -2.0065  0.3835  1.4697
 4691SOL    HW225707   0.346   2.684  14.379  0.1685  1.7122 -0.8839
 4692SOL     OW25708   1.837   4.660   1.429  0.2734  0.0767 -0.1924
 4692SOL    HW125709   1.885   4.734   1.467  1.6524  0.1037 -1.9548
 4692SOL    HW225710   1.750   4.689   1.401  0.4405  0.0055 -0.7833
 4693SOL     OW25711   2.618   1.095   4.258  0.2793 -0.2706  0.0295
 4693SOL    HW125712   2.633   1.189   4.249 -1.3990 -0.2452 -2.3343
 4693SOL    HW225713   2.663   1.072   4.340 -0.3104  0.7607  0.6463
 4694SOL     OW25714   2.044   1.720   5.882  0.4403 -0.1648  0.2888
 4694SOL    HW125715   1.969   1.777   5.862 -0.5159 -0.2885  3.5229
 4694SOL    HW225716   2.114   1.776   5.848  1.6187  0.0810  3.0839
 4695SOL     OW25717   2.716   4.425   8.131 -0.7511 -0.4137 -0.2379
 4695SOL    HW125718   2.667   4.508   8.137  0.4702  0.2832 -0.0050
 4695SOL    HW225719   2.702   4.407   8.039 -0.0945  2.2354 -0.8471
 4696SOL     OW25720   2.107   3.972  12.076 -0.4162 -0.1553 -0.1752
 4696SOL    HW125721   2.075   3.891  12.116 -1.5317 -0.0145 -0.7896
 4696SOL    HW225722   2.187   3.938  12.036  0.2336  0.3454  0.6946
 4697SOL     OW25723   2.531   1.956   4.586 -0.2464 -0.2937  0.0648
 4697SOL    HW125724   2.531   2.044   4.624  1.2968 -1.2850  2.3610
 4697SOL    HW225725   2.617   1.914   4.588  0.5962  1.5245  2.1132
 4698SOL     OW25726   1.696   3.647   7.565 -0.3631 -0.1002  0.0610
 4698SOL    HW125727   1.745   3.658   7.483  0.4907  0.6205  0.6642
 4698SOL    HW225728   1.769   3.655   7.626 -0.7288 -3.8601  0.9664
 4699SOL     OW25729   1.149   3.770   2.126 -1.1648 -0.3889 -0.1189
 4699SOL    HW125730   1.060   3.803   2.134 -0.8722  0.6901 -1.4498
 4699SOL    HW225731   1.160   3.797   2.035 -1.4378 -1.4465 -0.4644
 4700SOL     OW25732   0.786   4.625   2.761 -0.7274 -0.0487  0.4693
 4700SOL    HW125733   0.818   4.536   2.748  2.7892  1.1459  0.9823
 4700SOL    HW225734   0.859   4.675   2.723 -2.2655  0.4067 -1.8883
 4701SOL     OW25735   1.514   2.088  11.151  0.3943  0.7940 -0.0289
 4701SOL    HW125736   1.565   2.119  11.226  2.4541 -1.9700 -0.2723
 4701SOL    HW225737   1.436   2.059  11.199  0.4476  0.9515  0.1531
 4702SOL     OW25738   1.877   0.641  13.565 -0.1764  0.4372  0.1230
 4702SOL    HW125739   1.847   0.642  13.656  0.4158  0.6596  0.3134
 4702SOL    HW225740   1.914   0.554  13.555  0.0913  0.4243  1.2457
 4703SOL     OW25741   3.330   3.276   0.982 -0.1561 -0.4726 -0.5749
 4703SOL    HW125742   3.311   3.183   0.996 -0.7325 -0.1834  0.5452
 4703SOL    HW225743   3.304   3.319   1.063 -1.8603  0.9561 -1.8774
 4704SOL     OW25744   2.067   2.927   1.924  0.2031 -0.4383 -0.7828
 4704SOL    HW125745   1.974   2.945   1.933  0.7543  2.4611 -0.7219
 4704SOL    HW225746   2.109   2.983   1.989 -0.7631 -1.7543  0.9335
 4705SOL     OW25747   4.095   2.969   5.894 -0.2609 -0.4848 -0.2229
 4705SOL    HW125748   4.077   2.932   5.807  2.0483 -0.1429 -0.8619
 4705SOL    HW225749   4.118   3.059   5.873 -2.8855  0.5225  1.3121
 4706SOL     OW25750   3.490   4.563   4.499 -0.5463 -0.3505 -0.5306
 4706SOL    HW125751   3.434   4.584   4.425  1.3190 -1.9226 -2.3736
 4706SOL    HW225752   3.555   4.632   4.494 -0.7442 -0.1111  0.1172
 4707SOL     OW25753   3.918   3.595   2.296  0.5590 -0.7435  0.1189
 4707SOL    HW125754   3.919   3.640   2.211 -2.7075 -0.8466 -0.0083
 4707SOL    HW225755   3.880   3.510   2.273 -0.7049 -0.5960  1.6941
 4708SOL     OW25756   4.252   0.011   5.781 -0.1097  0.3888  0.1581
 4708SOL    HW125757   4.257   4.728   5.875 -2.1034 -1.3891 -0.0442
 4708SOL    HW225758   4.173   4.694   5.763 -0.0322  0.6684 -0.9923
 4709SOL     OW25759   1.132   1.663   7.477 -0.2931 -0.0178  0.0225
 4709SOL    HW125760   1.224   1.662   7.450  0.0553 -1.2600  1.2339
 4709SOL    HW225761   1.142   1.629   7.566 -2.4621  0.4112  0.4451
 4710SOL     OW25762   3.688   3.158   9.266  0.0676 -0.4454  0.4813
 4710SOL    HW125763   3.769   3.121   9.299 -0.4694 -0.0200  2.3075
 4710SOL    HW225764   3.646   3.157   9.352 -0.4985  0.9959  0.2283
 4711SOL     OW25765   4.561   1.865   7.362  0.0337  0.1994  0.8804
 4711SOL    HW125766   4.589   1.943   7.410  0.1131  1.1990 -0.7887
 4711SOL    HW225767   4.502   1.897   7.293  0.6012  0.2380  0.4097
 4712SOL     OW25768   3.927   4.731   2.124 -0.0541 -0.0826 -0.2228
 4712SOL    HW125769   3.916   0.005   2.030  0.7951  0.3731 -0.2925
 4712SOL    HW225770   3.942   4.637   2.129  1.1388 -0.0158 -2.6659
 4713SOL     OW25771   0.287   4.037   7.838 -0.1088  0.7372  0.2237
 4713SOL    HW125772   0.247   4.123   7.828 -1.1656  0.1216 -0.7926
 4713SOL    HW225773   0.227   3.989   7.782 -1.6500  2.3677  0.4944
 4714SOL     OW25774   0.246   0.411  17.718  0.1687 -0.1851 -0.0514
 4714SOL    HW125775   0.254   0.449  17.630  0.0267  0.4968  0.2277
 4714SOL    HW225776   0.158   0.436   0.010  0.1386 -0.5666  0.2060
 4715SOL     OW25777   0.043   3.577   7.220  0.2490  0.2427 -0.1766
 4715SOL    HW125778   0.079   3.520   7.288 -0.7623 -1.4647 -1.0688
 4715SOL    HW225779   4.685   3.588   7.245  0.3745 -1.7627  1.1428
 4716SOL     OW25780   4.127   1.652   2.479  0.3314 -0.4543  0.3176
 4716SOL    HW125781   4.062   1.685   2.416 -1.4568 -0.4840  2.1688
 4716SOL    HW225782   4.214   1.642   2.440 -0.1633  0.5403 -1.0616
 4717SOL     OW25783   2.426   0.060   6.024  0.3386 -0.0744 -0.1809
 4717SOL    HW125784   2.505   0.107   6.000  0.2452  0.0512 -0.2442
 4717SOL    HW225785   2.441   4.700   6.039 -1.7893 -0.3011  0.6058
 4718SOL     OW25786   1.195   2.209   5.026 -0.3159  0.2289  0.3462
 4718SOL    HW125787   1.125   2.150   5.053  0.4004 -0.8843 -0.2411
 4718SOL    HW225788   1.148   2.287   4.994 -0.3472  0.0550 -0.0313
 4719SOL     OW25789   2.226   1.671  16.928  0.3003  0.3232  0.0982
 4719SOL    HW125790   2.205   1.760  16.900  0.3312  1.1025  2.5161
 4719SOL    HW225791   2.136   1.639  16.931  0.4005 -0.3009 -4.4893
 4720SOL     OW25792   4.579   3.587   9.572  0.1356  1.0601 -0.5033
 4720SOL    HW125793   4.509   3.534   9.534  1.0982 -0.2506 -0.4507
 4720SOL    HW225794   4.566   3.672   9.531  2.5629  1.7691  0.1400
 4721SOL     OW25795   4.340   0.620   4.513 -0.5513 -0.4774 -0.1341
 4721SOL    HW125796   4.338   0.635   4.419  0.2210 -1.1437 -0.2496
 4721SOL    HW225797   4.370   0.708   4.538 -0.2378 -0.1898 -1.5235
 4722SOL     OW25798   1.333   0.115   1.180 -0.7572 -0.2866 -0.3144
 4722SOL    HW125799   1.241   0.107   1.158 -0.8952 -2.1198  0.9298
 4722SOL    HW225800   1.377   0.128   1.096  0.0170 -0.7405  0.0225
 4723SOL     OW25801   1.905   3.443  13.443 -0.0670 -0.4052  0.4558
 4723SOL    HW125802   1.947   3.357  13.438 -0.0456 -0.4912  2.1479
 4723SOL    HW225803   1.814   3.421  13.464 -0.6933  0.6102 -1.1760
 4724SOL     OW25804   4.498   2.027   4.777 -0.1311 -0.3658  0.5368
 4724SOL    HW125805   4.432   1.962   4.753  0.4601 -0.6369 -0.3433
 4724SOL    HW225806   4.470   2.098   4.720  1.5303 -1.2793 -1.4479
 4725SOL     OW25807   1.110   3.541   5.097  0.3792  0.4367 -0.1004
 4725SOL    HW125808   1.171   3.528   5.025 -1.9867  3.5634 -2.6611
 4725SOL    HW225809   1.139   3.481   5.167  0.2359 -0.0658 -0.4692
 4726SOL     OW25810   1.558   4.023   2.360  0.0753  0.3461  0.6366
 4726SOL    HW125811   1.640   4.055   2.398  1.0278 -1.2575 -0.0807
 4726SOL    HW225812   1.537   3.945   2.411 -1.1047  2.0807  2.7700
 4727SOL     OW25813   0.614   2.017  11.996  0.8478  0.1598 -0.2037
 4727SOL    HW125814   0.633   1.961  11.921  0.8629  2.8682 -2.1893
 4727SOL    HW225815   0.647   1.959  12.065 -3.1224 -0.3002  1.3096
 4728SOL     OW25816   3.106   1.580   6.913 -0.0163 -0.2216 -0.0456
 4728SOL    HW125817   3.184   1.551   6.864  1.3569  1.5552  1.0777
 4728SOL    HW225818   3.043   1.541   6.853  0.2181  2.1297 -1.8328
 4729SOL     OW25819   4.274   2.885   6.090  0.0157  0.7242 -0.1192
 4729SOL    HW125820   4.204   2.911   6.031 -0.5126  0.6996  0.5025
 4729SOL    HW225821   4.318   2.971   6.092 -0.5709  0.9923  1.5734
 4730SOL     OW25822   1.848   3.039   5.950  0.1280 -0.0591 -0.0440
 4730SOL    HW125823   1.810   3.123   5.924  0.0483  0.5960  2.1834
 4730SOL    HW225824   1.864   2.989   5.871 -0.0870 -0.2701  0.0452
 4731SOL     OW25825   0.988   4.613   3.566 -0.9977 -0.2072  0.2448
 4731SOL    HW125826   0.898   4.638   3.546 -0.1153  2.5648 -0.2681
 4731SOL    HW225827   1.021   4.703   3.567  3.9040 -1.9643 -1.8290
 4732SOL     OW25828   3.359   2.665   6.605 -0.5884 -0.4930 -0.0170
 4732SOL    HW125829   3.280   2.635   6.650  0.5374 -1.0553  1.5876
 4732SOL    HW225830   3.398   2.720   6.674 -0.8624 -0.7555  0.3446
 4733SOL     OW25831   4.239   1.394   8.537  0.0058  0.0554 -0.1232
 4733SOL    HW125832   4.329   1.419   8.558  0.1210 -0.8410  0.4432
 4733SOL    HW225833   4.234   1.303   8.565 -1.9245  0.2621  0.2243
 4734SOL     OW25834   1.595   4.476   9.139 -0.1632 -0.0278  0.0904
 4734SOL    HW125835   1.539   4.477   9.217  1.0850  0.6461  0.9904
 4734SOL    HW225836   1.648   4.556   9.145  1.4971 -1.1028 -0.0855
 4735SOL     OW25837   2.063   1.390  10.171 -0.1248 -0.2165  0.0274
 4735SOL    HW125838   1.998   1.434  10.226  0.0754  0.8742 -0.6235
 4735SOL    HW225839   2.018   1.391  10.087  1.2541  1.3418 -0.6936
 4736SOL     OW25840   2.741   4.007   9.811  0.0853 -0.2262 -0.7633
 4736SOL    HW125841   2.794   4.017   9.890  0.7031 -2.8445 -0.8603
 4736SOL    HW225842   2.807   3.969   9.753  0.9108 -1.1416  0.7801
 4737SOL     OW25843   3.442   4.642   5.160 -0.0429  0.1244  0.0283
 4737SOL    HW125844   3.458   0.002   5.172  0.9452 -0.3069  2.0956
 4737SOL    HW225845   3.363   4.665   5.110 -0.0407 -0.1644 -0.1087
 4738SOL     OW25846   4.427   0.460  16.112 -0.0210 -0.0030 -0.4620
 4738SOL    HW125847   4.403   0.409  16.190 -0.7927  0.8443 -0.1494
 4738SOL    HW225848   4.427   0.553  16.135 -1.0811  0.3740 -1.9778
 4739SOL     OW25849   1.623   2.343   2.280 -0.1238 -0.2561  0.1500
 4739SOL    HW125850   1.570   2.399   2.336  0.9652  0.4131  0.5070
 4739SOL    HW225851   1.689   2.404   2.248 -0.9549 -0.0705 -1.2179
 4740SOL     OW25852   4.373   2.046  16.380 -0.4874  0.3506  0.5278
 4740SOL    HW125853   4.451   2.047  16.436 -1.3286  1.9245  1.6432
 4740SOL    HW225854   4.356   1.952  16.377 -0.2238  0.2565  1.9565
 4741SOL     OW25855   0.023   2.547   8.680  0.1589 -0.0502 -0.1885
 4741SOL    HW125856   4.685   2.485   8.667  0.9040 -1.1204  0.8197
 4741SOL    HW225857   4.727   2.593   8.758  1.0817  0.1684  0.0348
 4742SOL     OW25858   4.364   3.673  11.220 -0.1588  0.6249 -0.9169
 4742SOL    HW125859   4.324   3.588  11.239  2.6561 -0.0708  2.0577
 4742SOL    HW225860   4.290   3.723  11.186 -0.4341  0.3841 -0.6728
 4743SOL     OW25861   0.107   0.121   5.192  0.5256 -0.1288 -0.0101
 4743SOL    HW125862   0.118   0.107   5.286  0.3557  2.9323  0.4669
 4743SOL    HW225863   0.034   0.062   5.171  1.8146 -1.8634  0.3428
 4744SOL     OW25864   1.984   1.051   7.202 -0.2493 -0.5642  0.2681
 4744SOL    HW125865   2.066   1.014   7.170  0.3989 -0.1661  1.4845
 4744SOL    HW225866   1.991   1.142   7.174  1.9197 -1.2653 -1.4731
 4745SOL     OW25867   2.124   3.993  10.401 -0.3117  0.0524  0.1957
 4745SOL    HW125868   2.058   4.025  10.339 -1.9191 -2.5201  0.6252
 4745SOL    HW225869   2.168   3.932  10.342 -0.7797 -0.4128  0.3239
 4746SOL     OW25870   1.760   3.834   8.643  0.1551 -0.2286  0.0370
 4746SOL    HW125871   1.805   3.750   8.652 -1.4560 -1.0735  0.2508
 4746SOL    HW225872   1.762   3.854   8.736 -4.0226  3.8802 -0.7629
 4747SOL     OW25873   4.369   1.173   6.337 -0.6755 -0.0038  0.4101
 4747SOL    HW125874   4.451   1.154   6.291 -0.1656  2.3020  0.3202
 4747SOL    HW225875   4.408   1.149   6.421  1.0012  0.4345 -0.2406
 4748SOL     OW25876   2.116   3.641   6.349  0.4221 -0.7688  0.2503
 4748SOL    HW125877   2.175   3.637   6.424  0.6261 -1.8704  0.0436
 4748SOL    HW225878   2.104   3.735   6.340  0.1559 -0.8639 -0.3714
 4749SOL     OW25879   1.333   1.391   6.557 -0.2401 -0.2612 -0.0411
 4749SOL    HW125880   1.388   1.370   6.632 -0.5840 -0.5625  0.1286
 4749SOL    HW225881   1.404   1.404   6.495  0.3527  2.3502  1.1815
 4750SOL     OW25882   3.965   3.448  13.745 -0.6718  1.1739  0.2109
 4750SOL    HW125883   3.935   3.417  13.659 -2.0520 -0.5398  1.3039
 4750SOL    HW225884   4.026   3.377  13.767 -3.8161 -1.0879  1.7527
 4751SOL     OW25885   0.676   2.501   3.767 -0.1573  0.0601 -0.2476
 4751SOL    HW125886   0.628   2.418   3.763  0.5772 -0.4505  1.7144
 4751SOL    HW225887   0.685   2.507   3.862  1.0667  0.6126 -0.3989
 4752SOL     OW25888   3.487   1.434   4.379  0.1358  0.2521 -0.5189
 4752SOL    HW125889   3.531   1.460   4.460 -0.8668 -0.8066  0.3659
 4752SOL    HW225890   3.551   1.458   4.313  1.4117 -3.6233 -0.7109
 4753SOL     OW25891   3.127   0.603   5.471  0.2006 -0.2409  0.0154
 4753SOL    HW125892   3.177   0.658   5.532  1.1130 -1.7851  0.6723
 4753SOL    HW225893   3.071   0.674   5.440  0.8175 -0.1567 -0.8812
 4754SOL     OW25894   1.527   0.882   4.677 -0.7122 -0.3528  0.3690
 4754SOL    HW125895   1.470   0.824   4.626 -1.4704  0.1520  0.6457
 4754SOL    HW225896   1.600   0.823   4.693 -0.0621  0.1535 -0.6757
 4755SOL     OW25897   3.389   2.996   7.119  0.8706 -0.1863  0.1744
 4755SOL    HW125898   3.346   2.924   7.165  1.1116 -1.3225 -1.3567
 4755SOL    HW225899   3.325   3.021   7.053 -0.2724  1.0018  1.7461
 4756SOL     OW25900   2.665   0.242   3.705  0.0460 -0.6396  1.0429
 4756SOL    HW125901   2.735   0.189   3.668  0.4387 -0.4270  1.4938
 4756SOL    HW225902   2.672   0.237   3.800 -0.0880  0.1514  1.0958
 4757SOL     OW25903   1.089   3.507   6.794  0.1704 -0.5552 -0.0702
 4757SOL    HW125904   1.106   3.459   6.875  0.4181 -0.1075  0.1434
 4757SOL    HW225905   1.097   3.598   6.821  0.0088 -1.2549  2.3067
 4758SOL     OW25906   3.567   2.782   1.172  0.4928  0.3903 -0.2354
 4758SOL    HW125907   3.661   2.797   1.184  0.2759  0.9469  0.7797
 4758SOL    HW225908   3.559   2.839   1.095  1.6448  1.1416  0.1844
 4759SOL     OW25909   0.448   2.334  15.950 -0.1899  0.8555  0.1499
 4759SOL    HW125910   0.458   2.268  15.880  1.5203  1.3579 -0.0818
 4759SOL    HW225911   0.356   2.356  15.935 -0.3392  0.5845  0.6802
 4760SOL     OW25912   3.463   3.795   6.285  0.2738 -0.4953  0.8794
 4760SOL    HW125913   3.398   3.727   6.266  0.3895 -0.5001  0.4948
 4760SOL    HW225914   3.489   3.819   6.196  0.3078 -1.5249  0.6018
 4761SOL     OW25915   2.622   0.340   6.998 -0.4357 -0.3753 -0.4363
 4761SOL    HW125916   2.670   0.313   7.076  0.8815  1.0457 -0.7595
 4761SOL    HW225917   2.611   0.261   6.945  0.0748 -0.5703 -0.2558
 4762SOL     OW25918   0.528   1.969   6.375 -0.0805  0.0979 -0.1037
 4762SOL    HW125919   0.556   1.882   6.402 -2.0342 -0.3845  0.3727
 4762SOL    HW225920   0.445   1.959   6.329  0.3094 -2.0895 -0.3054
 4763SOL     OW25921   3.433   2.838   6.052  0.2736  0.3921 -0.3296
 4763SOL    HW125922   3.405   2.902   6.117  0.9180 -1.5639  1.8427
 4763SOL    HW225923   3.385   2.866   5.974  0.0139 -0.2248 -0.3843
 4764SOL     OW25924   0.094   1.906   3.678 -0.6354 -0.1711  0.1413
 4764SOL    HW125925   0.007   1.946   3.670 -2.0372 -2.7336  2.2812
 4764SOL    HW225926   0.118   1.895   3.586 -0.2951 -0.4625  0.2691
 4765SOL     OW25927   0.233   3.628   5.942 -0.0607  0.1761  0.4196
 4765SOL    HW125928   0.275   3.712   5.922 -0.0191  0.2531  0.8391
 4765SOL    HW225929   0.276   3.599   6.022 -0.8257 -0.2944  0.6559
 4766SOL     OW25930   0.819   2.700   4.984  0.2283 -0.3858 -0.2231
 4766SOL    HW125931   0.828   2.782   4.935  0.5555 -0.8260 -0.9033
 4766SOL    HW225932   0.745   2.658   4.940 -1.3291  0.8239  1.2426
 4767SOL     OW25933   2.956   2.622   2.036 -0.1961 -0.0333 -0.3102
 4767SOL    HW125934   3.016   2.565   1.986 -0.9181  0.0814 -1.3009
 4767SOL    HW225935   2.944   2.563   2.110 -2.5678  2.5636  1.3298
 4768SOL     OW25936   0.973   1.881  15.216  0.4198  0.2246 -0.2878
 4768SOL    HW125937   1.015   1.950  15.165  1.9954 -0.3835  0.1677
 4768SOL    HW225938   1.035   1.808  15.221  1.8490  1.5199  1.0422
 4769SOL     OW25939   1.601   3.336   4.265  0.0605  0.2958  0.8042
 4769SOL    HW125940   1.588   3.420   4.221 -1.9586 -0.7522 -0.5859
 4769SOL    HW225941   1.565   3.348   4.353 -0.4190  0.5688  0.5718
 4770SOL     OW25942   0.480   3.332   7.172 -0.9363  0.1730  0.3587
 4770SOL    HW125943   0.501   3.395   7.103  1.4881 -0.2641  0.6821
 4770SOL    HW225944   0.449   3.261   7.117 -1.4668 -0.9554  2.1081
 4771SOL     OW25945   3.155   2.670   9.611 -0.1287 -0.0182 -0.0621
 4771SOL    HW125946   3.110   2.586   9.599 -0.9412  0.1845  1.5616
 4771SOL    HW225947   3.216   2.664   9.538 -1.3252  0.8575 -1.1287
 4772SOL     OW25948   0.403   0.416   3.733 -0.0920  0.0385  0.2610
 4772SOL    HW125949   0.481   0.362   3.731  0.0733  0.2243  1.7905
 4772SOL    HW225950   0.382   0.409   3.826  2.1149 -1.2367  0.6537
 4773SOL     OW25951   0.709   1.327  15.364 -0.0468  0.3757  0.1962
 4773SOL    HW125952   0.803   1.345  15.367  0.1614 -0.6436 -0.1005
 4773SOL    HW225953   0.701   1.278  15.446 -2.4923 -1.7222 -1.2966
 4774SOL     OW25954   1.787   2.809   5.338  0.4277 -0.1467  0.0447
 4774SOL    HW125955   1.697   2.836   5.322  0.3095 -0.9031 -0.5799
 4774SOL    HW225956   1.810   2.752   5.264  2.4508  0.6708  0.0275
 4775SOL     OW25957   0.928   4.327  14.726  0.3234 -0.0619  0.4135
 4775SOL    HW125958   0.918   4.412  14.683  0.1811 -0.6154 -0.6490
 4775SOL    HW225959   0.887   4.277  14.656 -0.7374  2.4116 -0.7655
 4776SOL     OW25960   2.535   0.140   5.522 -0.2856 -0.2065  0.0702
 4776SOL    HW125961   2.582   0.223   5.526 -1.4851  0.4028  1.1931
 4776SOL    HW225962   2.526   0.124   5.428 -2.7383  1.3318  0.0496
 4777SOL     OW25963   0.263   1.175   4.723  0.1899 -0.0178 -0.2027
 4777SOL    HW125964   0.237   1.218   4.641 -2.0920 -1.1428 -0.0660
 4777SOL    HW225965   0.297   1.251   4.770 -1.8361  1.6862 -1.4335
 4778SOL     OW25966   1.454   1.963  16.670  0.5998  0.0504  0.5706
 4778SOL    HW125967   1.526   1.976  16.731 -0.6252 -1.5924  2.3429
 4778SOL    HW225968   1.463   2.036  16.609  2.0858  0.0201  0.7479
 4779SOL     OW25969   3.560   2.591  12.194 -0.0770  0.9326 -0.5506
 4779SOL    HW125970   3.645   2.626  12.220  0.5434  1.6047 -3.4812
 4779SOL    HW225971   3.586   2.527  12.128 -3.0530  0.2074 -1.0098
 4780SOL     OW25972   4.035   1.595  12.848  0.1899 -0.1969  0.1135
 4780SOL    HW125973   3.990   1.583  12.931  0.0104  1.5065  0.2724
 4780SOL    HW225974   3.982   1.660  12.801  0.4717 -1.6291 -2.1970
 4781SOL     OW25975   4.218   2.910   5.380 -0.4684  0.5782  0.1263
 4781SOL    HW125976   4.248   2.852   5.450  1.3094  0.7293 -0.5114
 4781SOL    HW225977   4.124   2.898   5.396 -0.2204  1.2654  2.0355
 4782SOL     OW25978   3.940   0.934   0.013  0.4012 -0.3709 -0.3335
 4782SOL    HW125979   4.009   0.872   0.040 -0.0433  0.7533  3.3988
 4782SOL    HW225980   3.922   0.985   0.092  0.3196 -0.3440 -0.3693
 4783SOL     OW25981   1.600   1.946   7.623 -0.0436 -0.0332 -0.6103
 4783SOL    HW125982   1.607   2.018   7.686  0.2817 -0.5379 -0.0657
 4783SOL    HW225983   1.692   1.919   7.616  0.2322  0.5124  0.8960
 4784SOL     OW25984   3.583   2.805   8.002  0.5262 -0.4286 -0.1338
 4784SOL    HW125985   3.551   2.871   8.063  3.3178 -1.0340  1.9335
 4784SOL    HW225986   3.564   2.728   8.056 -1.0375  0.4333  0.5510
 4785SOL     OW25987   4.636   4.318  11.581  0.4998 -0.8827 -0.6848
 4785SOL    HW125988   4.623   4.228  11.551 -0.7031 -1.0966  0.5027
 4785SOL    HW225989   4.718   4.324  11.532 -0.5578  2.4968 -1.9969
 4786SOL     OW25990   2.859   2.465  11.613  0.6301  0.1845 -0.0749
 4786SOL    HW125991   2.945   2.503  11.632  1.3758 -1.3169 -0.4108
 4786SOL    HW225992   2.803   2.538  11.587 -1.0385 -1.3314 -0.7616
 4787SOL     OW25993   4.258   0.539  12.221  0.1753 -0.0973  0.5477
 4787SOL    HW125994   4.231   0.560  12.310 -0.4394  1.3382  0.0161
 4787SOL    HW225995   4.178   0.573  12.181  0.2149 -1.2017 -0.4713
 4788SOL     OW25996   2.184   4.654   0.641  0.0727  0.1121 -0.0542
 4788SOL    HW125997   2.157   0.011   0.634 -1.2905 -0.2801  0.1546
 4788SOL    HW225998   2.280   4.660   0.644 -0.0907  1.6147  1.8849
 4789SOL     OW25999   3.013   2.660   3.141 -0.0673 -0.4465  0.0442
 4789SOL    HW126000   3.097   2.678   3.184  0.3463  2.2703 -1.8628
 4789SOL    HW226001   3.015   2.565   3.132 -0.4231 -0.3443 -1.2013
 4790SOL     OW26002   3.787   2.661   2.120  0.2585 -0.3595 -0.0037
 4790SOL    HW126003   3.824   2.573   2.121 -0.5053 -0.6619  1.7629
 4790SOL    HW226004   3.696   2.643   2.141  0.7012 -0.2920  1.9677
 4791SOL     OW26005   3.088   2.517   2.746  1.1077 -0.0296 -0.7335
 4791SOL    HW126006   3.014   2.480   2.796 -0.3217  1.4940 -1.7361
 4791SOL    HW226007   3.070   2.609   2.767 -0.9605 -0.8862  1.2466
 4792SOL     OW26008   2.541   3.678  13.870 -0.1786 -0.4658 -0.4490
 4792SOL    HW126009   2.514   3.756  13.918  0.6402 -0.6901  0.3775
 4792SOL    HW226010   2.458   3.639  13.842 -1.5982  1.4800  1.0115
 4793SOL     OW26011   0.046   2.317   5.283 -0.4337 -0.3248  0.3972
 4793SOL    HW126012   4.714   2.283   5.343 -1.6933  4.1287  1.5403
 4793SOL    HW226013   0.000   2.395   5.253  1.7125 -0.1973 -2.6094
 4794SOL     OW26014   3.244   0.875   9.811  0.2616 -0.1971 -0.7479
 4794SOL    HW126015   3.213   0.867   9.721 -0.2345  0.2473 -0.6174
 4794SOL    HW226016   3.332   0.838   9.800  0.7785  0.9663 -0.5024
 4795SOL     OW26017   4.052   4.272   8.068 -0.2429 -0.3079 -0.0191
 4795SOL    HW126018   4.087   4.347   8.019  0.8525 -1.8952 -1.6709
 4795SOL    HW226019   4.136   4.228   8.083 -0.6763 -0.1442  2.7875
 4796SOL     OW26020   0.795   4.072   9.756  0.2239  0.2822  0.0768
 4796SOL    HW126021   0.838   4.135   9.813  0.1824  2.2812 -2.0972
 4796SOL    HW226022   0.834   3.990   9.784  1.5550  0.4936 -1.1647
 4797SOL     OW26023   1.202   3.710   4.257 -0.4748  0.3399 -0.0644
 4797SOL    HW126024   1.232   3.800   4.256 -1.5729  0.7209  2.0108
 4797SOL    HW226025   1.193   3.704   4.162 -0.1614  0.5293 -0.1039
 4798SOL     OW26026   0.657   3.286   6.112 -0.6934  0.0441 -0.0187
 4798SOL    HW126027   0.700   3.372   6.112 -1.2040  0.3051  3.1569
 4798SOL    HW226028   0.666   3.254   6.202 -1.3759 -1.3672 -0.4560
 4799SOL     OW26029   0.866   2.048   4.760  0.5542 -0.1153 -0.5041
 4799SOL    HW126030   0.883   2.066   4.667 -0.3708  2.3599 -0.1910
 4799SOL    HW226031   0.910   2.127   4.792  2.8074 -1.4391 -0.3355
 4800SOL     OW26032   2.253   3.703   7.828 -0.2158 -0.3764 -0.3976
 4800SOL    HW126033   2.322   3.638   7.813  0.2492  0.0689 -0.2149
 4800SOL    HW226034   2.185   3.658   7.777  0.1321 -0.3187 -0.9175
 4801SOL     OW26035   0.100   3.886   6.491 -0.3744  0.0397  0.2364
 4801SOL    HW126036   0.041   3.814   6.515  0.2709 -0.9224 -1.1129
 4801SOL    HW226037   0.107   3.870   6.397 -3.6356  0.8629 -0.1547
 4802SOL     OW26038   2.304   0.474  13.554  0.4945  0.2862  0.3079
 4802SOL    HW126039   2.382   0.492  13.502  0.6234  0.7626  0.6565
 4802SOL    HW226040   2.307   0.381  13.576  1.5585 -0.0449 -1.2164
 4803SOL     OW26041   0.701   1.034   8.817 -0.5282 -0.0568  0.4261
 4803SOL    HW126042   0.654   1.040   8.734 -0.4350 -2.2632  0.2169
 4803SOL    HW226043   0.652   1.092   8.876  1.7540 -0.6398  2.8522
 4804SOL     OW26044   3.669   3.222  12.641  0.2039  0.0752  0.9787
 4804SOL    HW126045   3.720   3.189  12.567  1.2392  1.1943  1.1923
 4804SOL    HW226046   3.617   3.288  12.595  0.8535  1.2940  1.9737
 4805SOL     OW26047   1.711   1.721  12.660 -0.2783 -0.2229  0.1077
 4805SOL    HW126048   1.805   1.703  12.664 -0.4400 -1.0449  0.1395
 4805SOL    HW226049   1.670   1.643  12.697 -1.0795 -0.5824 -1.5542
 4806SOL     OW26050   2.526   0.300   8.738 -0.3045  0.2960 -0.2849
 4806SOL    HW126051   2.470   0.257   8.803  1.8659  3.3379  3.6040
 4806SOL    HW226052   2.514   0.393   8.755 -0.1383  0.5551 -1.5942
 4807SOL     OW26053   2.656   0.372  10.639  0.0927  0.3549 -0.1290
 4807SOL    HW126054   2.636   0.350  10.730 -1.4316 -0.0297 -0.5639
 4807SOL    HW226055   2.748   0.399  10.646 -0.1036  0.8798  0.4833
 4808SOL     OW26056   2.936   0.432   4.505  0.6071 -0.1114  0.2079
 4808SOL    HW126057   2.950   0.523   4.531  1.1951  0.4147 -1.8799
 4808SOL    HW226058   3.022   0.410   4.468  0.9905 -0.3796  1.2635
 4809SOL     OW26059   1.377   0.630  11.385  0.0078  0.0764  0.1426
 4809SOL    HW126060   1.368   0.615  11.479  1.9107 -0.5404  0.2072
 4809SOL    HW226061   1.285   0.608  11.369 -0.0629  0.5023 -0.0473
 4810SOL     OW26062   3.941   3.582  16.589 -0.1864  0.2362 -0.3426
 4810SOL    HW126063   3.967   3.673  16.597 -0.0843  0.2380 -0.6944
 4810SOL    HW226064   4.012   3.542  16.538 -0.4683 -0.6148 -0.0670
 4811SOL     OW26065   2.460   1.042   7.906  0.6105  0.6096  0.2294
 4811SOL    HW126066   2.537   0.991   7.932 -1.5367 -3.7018 -1.9556
 4811SOL    HW226067   2.484   1.059   7.815  0.3285  0.9010  0.2117
 4812SOL     OW26068   3.871   3.978   9.831 -0.0472 -0.2880 -0.5470
 4812SOL    HW126069   3.784   3.990   9.869 -0.5854  0.4045 -2.0138
 4812SOL    HW226070   3.885   4.067   9.800  1.0965 -0.6873 -1.1722
 4813SOL     OW26071   2.253   4.730  16.160  0.1499  0.5437  0.1693
 4813SOL    HW126072   2.315   4.663  16.131  0.0670 -0.4553  2.3196
 4813SOL    HW226073   2.222   0.024  16.073  1.2154 -0.1633 -0.4435
 4814SOL     OW26074   1.299   1.389   3.104  0.4025 -0.1097  0.1951
 4814SOL    HW126075   1.391   1.365   3.115  0.0199 -0.5655  2.3171
 4814SOL    HW226076   1.313   1.473   3.060  1.3045 -0.5549 -0.3749
 4815SOL     OW26077   3.043   2.666  16.689 -0.3481 -0.3319  0.4275
 4815SOL    HW126078   3.031   2.674  16.783  0.1579 -1.3085  0.5757
 4815SOL    HW226079   3.030   2.573  16.673 -2.8106 -0.0879  1.0857
 4816SOL     OW26080   2.213   2.490   4.972 -0.2295  0.0061  0.0390
 4816SOL    HW126081   2.157   2.435   5.027  0.5084 -0.1155  0.6565
 4816SOL    HW226082   2.265   2.528   5.043  2.1622  1.0916 -2.2863
 4817SOL     OW26083   1.720   4.533   8.262 -0.2569  0.3213  0.5742
 4817SOL    HW126084   1.632   4.567   8.245 -0.4440 -0.9667 -0.9776
 4817SOL    HW226085   1.725   4.507   8.354 -1.5839  1.9615  1.1196
 4818SOL     OW26086   2.927   0.016   6.125 -0.0340  0.6389  0.6055
 4818SOL    HW126087   2.880   0.038   6.045  0.6201 -0.9502 -0.2163
 4818SOL    HW226088   2.859   4.694   6.164 -0.8133  0.1711 -1.4344
 4819SOL     OW26089   3.337   3.824   3.566 -0.5602  0.0852  0.2161
 4819SOL    HW126090   3.394   3.889   3.606  0.3809  0.4973 -1.7828
 4819SOL    HW226091   3.351   3.839   3.472  0.8914  0.1674  0.4545
 4820SOL     OW26092   3.088   1.210  16.407 -0.0546  0.0749 -0.3661
 4820SOL    HW126093   3.152   1.280  16.421  1.1282 -1.1230  0.2584
 4820SOL    HW226094   3.086   1.172  16.494 -0.0865 -2.1950 -1.3598
 4821SOL     OW26095   1.680   3.613  12.938 -0.4340 -0.3038 -0.7294
 4821SOL    HW126096   1.704   3.530  12.897 -0.7493 -0.8010  0.0911
 4821SOL    HW226097   1.716   3.682  12.882 -3.4673 -0.5784 -3.0074
 4822SOL     OW26098   3.139   4.504   6.721  0.1682 -0.4038 -0.8177
 4822SOL    HW126099   3.135   4.595   6.692 -1.2045 -0.7721 -1.7699
 4822SOL    HW226100   3.046   4.495   6.741  0.4428  0.0197  0.6484
 4823SOL     OW26101   0.543   2.293   7.042  0.2417 -0.4793 -0.0611
 4823SOL    HW126102   0.477   2.361   7.052 -0.6137 -1.3153 -0.0278
 4823SOL    HW226103   0.497   2.225   6.991  0.7322 -0.5715 -0.3822
 4824SOL     OW26104   3.442   4.705   7.543  0.0834 -0.0350  0.0788
 4824SOL    HW126105   3.471   4.624   7.587 -0.0638 -1.0020 -1.5936
 4824SOL    HW226106   3.485   0.040   7.593 -0.5191  0.1944  0.2736
 4825SOL     OW26107   1.219   4.016   9.886  0.1788 -0.1224  0.7026
 4825SOL    HW126108   1.216   3.975   9.973 -0.0625 -3.2566 -0.7651
 4825SOL    HW226109   1.266   3.953   9.831  0.0996  0.7183 -0.3019
 4826SOL     OW26110   4.640   2.932   8.167  0.3247  0.8019 -0.5693
 4826SOL    HW126111   4.593   2.915   8.085 -0.7202 -0.3860  0.2813
 4826SOL    HW226112   4.730   2.933   8.133  1.4783  2.3849  2.5355
 4827SOL     OW26113   3.809   3.042   6.704 -0.0148  0.5207  0.0436
 4827SOL    HW126114   3.770   2.962   6.669 -1.6783  0.3167  2.3204
 4827SOL    HW226115   3.897   3.039   6.668  0.3819  1.0068  0.9711
 4828SOL     OW26116   0.918   4.615   4.898  0.8319  0.6053 -0.0072
 4828SOL    HW126117   0.909   4.536   4.952  0.0915 -1.7241 -3.5282
 4828SOL    HW226118   0.827   4.624   4.870  0.7514  1.8382  0.6591
 4829SOL     OW26119   4.313   2.329   8.949  0.0774 -0.8280  0.1009
 4829SOL    HW126120   4.227   2.366   8.969  0.0644 -0.2568 -1.0212
 4829SOL    HW226121   4.290   2.236   8.951  2.3345 -1.3564  1.5304
 4830SOL     OW26122   4.080   0.382  10.241  0.4079  0.8034 -0.5045
 4830SOL    HW126123   4.122   0.468  10.246  1.9959  0.0819 -1.3249
 4830SOL    HW226124   4.037   0.398  10.325  1.6742  3.0565 -0.2981
 4831SOL     OW26125   4.536   1.200  11.303  0.5817  0.0978  0.1092
 4831SOL    HW126126   4.544   1.278  11.357 -0.7494  0.5769 -0.4032
 4831SOL    HW226127   4.627   1.183  11.277  0.6490  0.8878 -0.1480
 4832SOL     OW26128   3.726   4.307   1.549 -0.5235  0.3038 -0.1841
 4832SOL    HW126129   3.639   4.345   1.553  0.4672  2.2114  2.9085
 4832SOL    HW226130   3.785   4.365   1.597 -0.1632 -0.6965  0.5812
 4833SOL     OW26131   0.578   3.548   2.625  0.1528 -0.3353 -0.3025
 4833SOL    HW126132   0.531   3.472   2.593 -0.1363 -0.6021  0.7661
 4833SOL    HW226133   0.525   3.627   2.635 -1.2897 -0.9930 -2.9249
 4834SOL     OW26134   2.337   4.287   6.626 -0.2682 -0.2298  0.1557
 4834SOL    HW126135   2.408   4.234   6.663 -0.9208  0.9882  3.1530
 4834SOL    HW226136   2.269   4.228   6.594 -1.1481 -0.2308  2.0327
 4835SOL     OW26137   3.681   2.087   3.791  0.6758  0.5255 -0.4572
 4835SOL    HW126138   3.617   2.040   3.844 -0.9237  2.4701 -0.6906
 4835SOL    HW226139   3.721   2.020   3.735  1.8905 -1.3140  2.6201
 4836SOL     OW26140   0.597   2.215  17.197  0.0869 -0.0144 -0.3887
 4836SOL    HW126141   0.576   2.280  17.130 -0.1273  0.4411  0.1226
 4836SOL    HW226142   0.569   2.133  17.156  0.1615  0.2619 -0.9979
 4837SOL     OW26143   4.311   2.102  14.842 -0.6976 -0.2820 -0.9540
 4837SOL    HW126144   4.312   2.102  14.938  0.4722  1.8873 -0.9644
 4837SOL    HW226145   4.310   2.197  14.835  1.8167 -0.3235 -1.9070
 4838SOL     OW26146   2.964   3.701   0.231  0.7205  0.7178  0.4628
 4838SOL    HW126147   3.033   3.763   0.208 -0.9498  2.5276  0.3293
 4838SOL    HW226148   2.969   3.704   0.326  1.1796  0.6150  0.4422
 4839SOL     OW26149   3.794   2.673   7.551 -0.5810  0.2815 -0.1832
 4839SOL    HW126150   3.773   2.668   7.644  0.0143  2.3388  0.0646
 4839SOL    HW226151   3.869   2.732   7.562  0.1887 -1.2241  2.5594
 4840SOL     OW26152   0.017   4.457   2.669 -0.3769 -0.5403  0.1726
 4840SOL    HW126153   4.700   4.376   2.679  0.7741 -1.3791 -0.8083
 4840SOL    HW226154   4.712   4.507   2.740  1.3819 -2.2090  2.3316
 4841SOL     OW26155   0.760   4.308   1.435 -0.8635 -0.2563 -0.2018
 4841SOL    HW126156   0.702   4.234   1.456 -2.0081  0.4434 -0.9011
 4841SOL    HW226157   0.794   4.273   1.352 -0.9163  0.7321 -0.6318
 4842SOL     OW26158   2.045   1.292  15.511  0.0622 -0.2903  0.2658
 4842SOL    HW126159   2.001   1.376  15.520  2.4168  0.9355  0.4891
 4842SOL    HW226160   1.996   1.244  15.577 -2.1794 -0.8171 -1.8104
 4843SOL     OW26161   1.914   0.500   4.930 -0.4731 -0.1708 -0.3306
 4843SOL    HW126162   1.887   0.523   5.019 -0.5187  1.2377 -0.7128
 4843SOL    HW226163   1.833   0.457   4.904  0.2219 -2.0865  0.6853
 4844SOL     OW26164   4.454   1.364  12.096 -0.0171  0.3513  0.0994
 4844SOL    HW126165   4.472   1.449  12.137  0.4453  1.3318 -2.1262
 4844SOL    HW226166   4.359   1.357  12.084 -0.1530  3.5997 -0.7586
 4845SOL     OW26167   2.597   4.568   1.460  0.3523  0.0188  0.2195
 4845SOL    HW126168   2.678   4.598   1.501  0.9739  0.8178 -1.6257
 4845SOL    HW226169   2.544   4.561   1.540  0.3319  1.3221  0.3305
 4846SOL     OW26170   0.008   4.222  15.457 -0.1591  0.0422 -0.3439
 4846SOL    HW126171   0.043   4.311  15.445 -0.1113 -0.1617 -1.7676
 4846SOL    HW226172   4.706   4.195  15.372  0.9518 -0.0226 -0.8107
 4847SOL     OW26173   0.148   2.256   8.740 -0.3944  0.2783  0.0419
 4847SOL    HW126174   0.145   2.348   8.714  2.1433  0.2647 -0.2256
 4847SOL    HW226175   0.073   2.253   8.799  0.8978  0.5050  1.6605
 4848SOL     OW26176   1.358   4.707   1.429  0.3559 -0.2526  0.5724
 4848SOL    HW126177   1.401   4.622   1.421 -0.3492 -0.5148 -0.3852
 4848SOL    HW226178   1.392   0.026   1.357  1.1646 -1.4234  0.0861
 4849SOL     OW26179   0.710   4.345  15.637  0.5676 -0.6397 -0.4795
 4849SOL    HW126180   0.764   4.407  15.685  0.7791  0.9998 -2.8529
 4849SOL    HW226181   0.627   4.364  15.681  0.9908  1.4231 -0.5756
 4850SOL     OW26182   1.876   1.846   7.644 -0.2837 -0.0178  0.2830
 4850SOL    HW126183   1.890   1.923   7.588 -1.0476 -0.8628 -1.0789
 4850SOL    HW226184   1.905   1.774   7.589 -2.7391 -0.6505 -0.2161
 4851SOL     OW26185   2.977   1.607   6.207 -0.1299 -0.3429  0.0636
 4851SOL    HW126186   2.956   1.588   6.116  0.2254  1.5766 -0.4334
 4851SOL    HW226187   2.910   1.560   6.257 -1.8543  0.2201 -1.7463
 4852SOL     OW26188   0.041   3.321  10.308  0.3903 -0.1565  0.1286
 4852SOL    HW126189   0.075   3.232  10.295 -0.8651 -1.0995  3.4149
 4852SOL    HW226190   0.117   3.371  10.338 -1.5199  2.1185  1.1609
 4853SOL     OW26191   0.429   0.334   1.092  0.0467 -0.5816  0.4278
 4853SOL    HW126192   0.434   0.309   1.000 -1.0558 -2.8198  0.9795
 4853SOL    HW226193   0.374   0.412   1.082 -1.2799 -1.4825  0.6543
 4854SOL     OW26194   3.753   1.392   2.832  0.4520  0.0469  0.2764
 4854SOL    HW126195   3.711   1.458   2.886  0.4959 -0.7044  1.2279
 4854SOL    HW226196   3.841   1.429   2.829  1.3027 -2.0295 -0.5402
 4855SOL     OW26197   4.405   0.717   2.400  0.3592 -0.2790  0.2330
 4855SOL    HW126198   4.427   0.810   2.404 -0.6126 -0.0305 -0.1221
 4855SOL    HW226199   4.446   0.685   2.481  0.4163  0.8668  0.6613
 4856SOL     OW26200   4.488   0.214  11.388 -0.0390 -0.2370  0.1307
 4856SOL    HW126201   4.470   0.280  11.454 -1.4601  1.3747 -1.8468
 4856SOL    HW226202   4.556   0.250  11.331  0.0866  0.0865  0.4930
 4857SOL     OW26203   2.376   3.165   6.605  0.5321  0.0090  0.1518
 4857SOL    HW126204   2.285   3.150   6.630 -0.0924  1.4278 -1.2267
 4857SOL    HW226205   2.426   3.156   6.686  0.1995  1.0744  0.4753
 4858SOL     OW26206   3.837   2.023   2.437  0.1417 -0.1540  0.3550
 4858SOL    HW126207   3.772   1.972   2.389 -0.3770 -0.4283  1.3383
 4858SOL    HW226208   3.807   2.032   2.528 -1.3984  0.6000 -0.2312
 4859SOL     OW26209   0.453   3.780  14.777  0.2153 -0.0287  0.3181
 4859SOL    HW126210   0.547   3.778  14.794  0.5354 -2.2981 -1.6284
 4859SOL    HW226211   0.420   3.744  14.859 -0.3384  1.7527  0.8713
 4860SOL     OW26212   2.337   3.177  12.352  0.2648  0.3378 -0.1007
 4860SOL    HW126213   2.262   3.132  12.392  0.4933  1.4679  1.6095
 4860SOL    HW226214   2.404   3.110  12.364  0.3293  0.8491  2.5018
 4861SOL     OW26215   1.295   4.078   9.283  0.7598 -0.0357 -0.1272
 4861SOL    HW126216   1.224   4.054   9.343  0.1083 -0.9090 -1.2548
 4861SOL    HW226217   1.324   3.995   9.246 -3.4543 -1.8857  0.7870
 4862SOL     OW26218   3.125   2.378   8.036 -0.1699 -0.0466 -0.5640
 4862SOL    HW126219   3.176   2.323   8.096 -2.1400 -0.0690  1.0797
 4862SOL    HW226220   3.106   2.309   7.973  1.0903 -1.6872  0.8540
 4863SOL     OW26221   3.851   1.967   5.413 -0.1207 -0.2153  0.2749
 4863SOL    HW126222   3.763   1.941   5.441 -0.0172 -0.0239  0.7829
 4863SOL    HW226223   3.845   2.062   5.424  1.9344 -0.2317  1.5689
 4864SOL     OW26224   3.643   1.485   3.725  0.0659  0.7882  0.2223
 4864SOL    HW126225   3.609   1.539   3.796  1.4897  1.6027  0.2825
 4864SOL    HW226226   3.556   1.474   3.686  1.1870  0.4521 -2.1838
 4865SOL     OW26227   0.984   3.337   7.165 -0.0289  0.4037 -0.0080
 4865SOL    HW126228   1.051   3.269   7.156 -0.5617  0.2792 -2.8472
 4865SOL    HW226229   1.033   3.418   7.149 -0.1201  0.7992  1.6841
 4866SOL     OW26230   4.549   1.347   5.519 -0.7804  0.0188  0.4471
 4866SOL    HW126231   4.560   1.399   5.599 -0.5809  0.4579  0.1289
 4866SOL    HW226232   4.549   1.258   5.555  1.1466 -0.3567 -0.5223
 4867SOL     OW26233   0.353   3.293   1.757  0.5173 -0.1510  0.6020
 4867SOL    HW126234   0.367   3.265   1.847  1.3645 -0.8868  0.2347
 4867SOL    HW226235   0.267   3.261   1.730  1.1464 -0.8254 -0.6055
 4868SOL     OW26236   1.948   1.000   4.590 -0.4852 -0.2205 -0.4572
 4868SOL    HW126237   2.043   1.004   4.580 -0.6914  0.6457 -2.2326
 4868SOL    HW226238   1.926   0.912   4.621  0.4558 -0.5249 -0.6690
 4869SOL     OW26239   1.662   0.081   7.553 -0.4347 -0.1872  0.0559
 4869SOL    HW126240   1.619   0.060   7.636 -0.8571  0.5627  0.0222
 4869SOL    HW226241   1.754   0.098   7.570 -0.2491 -0.7101 -0.3893
 4870SOL     OW26242   0.219   1.297   7.135 -0.3101  0.0208  0.1029
 4870SOL    HW126243   0.192   1.292   7.227  1.9687  0.5693  0.8157
 4870SOL    HW226244   0.238   1.206   7.115 -0.5371  0.3467 -1.6348
 4871SOL     OW26245   2.508   3.362   8.858  0.1021  0.4151  0.3181
 4871SOL    HW126246   2.438   3.339   8.920 -0.2514  3.0535  0.8634
 4871SOL    HW226247   2.577   3.401   8.910  0.2943  1.1766 -0.5060
 4872SOL     OW26248   4.463   2.293   0.862  0.0179 -0.9926 -0.2040
 4872SOL    HW126249   4.429   2.204   0.866 -1.8410 -0.2352  0.5892
 4872SOL    HW226250   4.489   2.296   0.770  1.9279 -3.7073  0.2311
 4873SOL     OW26251   2.620   4.342   6.696  0.3756  0.1717  0.5774
 4873SOL    HW126252   2.585   4.324   6.783 -1.2387 -2.2409 -0.5645
 4873SOL    HW226253   2.571   4.420   6.672  0.1873 -0.4324 -1.0068
 4874SOL     OW26254   0.365   3.318   5.660 -0.2012 -0.1160  0.8658
 4874SOL    HW126255   0.379   3.223   5.663  1.1464  0.0151 -1.3093
 4874SOL    HW226256   0.284   3.333   5.709 -0.7603  0.1225 -0.1352
 4875SOL     OW26257   3.731   1.930   7.487 -0.0625 -0.3056 -0.6336
 4875SOL    HW126258   3.767   1.927   7.398 -0.3380  0.3076 -0.7684
 4875SOL    HW226259   3.752   1.841   7.516  0.3978  0.1276  0.3503
 4876SOL     OW26260   0.909   4.268   3.960  0.4369 -0.3218  0.0741
 4876SOL    HW126261   0.920   4.292   4.052 -0.2978 -0.7441  0.2731
 4876SOL    HW226262   0.958   4.338   3.917 -2.1261  1.1688 -0.4450
 4877SOL     OW26263   4.341   0.834  16.825 -0.3442  0.4735 -0.2628
 4877SOL    HW126264   4.367   0.836  16.733  0.0540  2.0022 -0.1293
 4877SOL    HW226265   4.287   0.912  16.840  0.0915  0.5832  0.7411
 4878SOL     OW26266   0.132   2.283   4.785  0.5145 -0.3550  0.1594
 4878SOL    HW126267   0.106   2.193   4.765  2.0466 -0.7053 -0.2647
 4878SOL    HW226268   0.207   2.263   4.842 -0.9581 -0.2852  2.1319
 4879SOL     OW26269   1.897   2.839   6.728 -0.7520 -0.2657 -0.4955
 4879SOL    HW126270   1.815   2.856   6.681  0.6962  3.2878 -1.7375
 4879SOL    HW226271   1.860   2.854   6.815  0.6162 -5.3714  0.9540
 4880SOL     OW26272   3.824   4.046  13.748 -0.3094 -1.0735  0.0444
 4880SOL    HW126273   3.895   4.104  13.775 -0.4186 -1.3841  0.9767
 4880SOL    HW226274   3.779   4.105  13.687 -1.9202  0.2790  2.5251
 4881SOL     OW26275   0.062   0.261   3.247  0.2933 -0.1709  0.2877
 4881SOL    HW126276   0.130   0.320   3.213 -0.4889 -0.0097 -1.0216
 4881SOL    HW226277   0.006   0.239   3.172  1.0502  0.4084 -0.4440
 4882SOL     OW26278   2.819   2.577   3.356 -0.6686  0.5980  0.2711
 4882SOL    HW126279   2.732   2.594   3.392 -0.3992 -0.6759  1.5346
 4882SOL    HW226280   2.854   2.664   3.339 -0.2752  0.3980  0.0290
 4883SOL     OW26281   3.586   2.493   3.092 -0.5295 -0.3109  0.0310
 4883SOL    HW126282   3.637   2.412   3.078 -0.4094 -0.1094 -0.7146
 4883SOL    HW226283   3.532   2.459   3.162 -0.8732 -0.3056 -0.2321
 4884SOL     OW26284   1.472   4.049   2.790 -0.2458  0.0335 -0.4340
 4884SOL    HW126285   1.531   3.980   2.761  0.8583  2.2082 -3.3809
 4884SOL    HW226286   1.494   4.053   2.883  1.4902 -0.0535 -0.8486
 4885SOL     OW26287   2.034   2.420   1.591 -0.3141  0.1501 -0.0968
 4885SOL    HW126288   1.959   2.479   1.595  1.1126  1.9085  0.7454
 4885SOL    HW226289   2.046   2.399   1.684  0.2671 -0.1980 -0.2466
 4886SOL     OW26290   0.860   0.169   5.492  0.3036 -0.2416 -0.4019
 4886SOL    HW126291   0.812   0.209   5.564 -0.7020  0.1599 -1.2967
 4886SOL    HW226292   0.906   0.104   5.545  0.9043  0.4338 -0.1160
 4887SOL     OW26293   0.968   0.927   4.027 -0.2245 -0.4467  0.0508
 4887SOL    HW126294   0.939   0.864   3.961  0.0026  1.1736 -1.5842
 4887SOL    HW226295   0.974   1.008   3.977  2.4918 -1.3165 -1.0070
 4888SOL     OW26296   3.818   4.036   3.136  0.1275  0.6163  0.4531
 4888SOL    HW126297   3.806   3.945   3.109 -1.6443  0.4906  1.6663
 4888SOL    HW226298   3.875   4.029   3.212  0.6904  0.3246  0.0060
 4889SOL     OW26299   3.815   3.692   5.011  0.3407 -0.0707 -0.5250
 4889SOL    HW126300   3.872   3.769   5.005  0.1865  0.0202 -0.8171
 4889SOL    HW226301   3.829   3.669   5.103 -3.4281  0.6723  0.2189
 4890SOL     OW26302   0.401   4.433   4.035 -0.5174 -0.0230 -0.6331
 4890SOL    HW126303   0.334   4.483   4.083  1.9456 -0.4005  3.1491
 4890SOL    HW226304   0.349   4.401   3.961 -0.7499  0.5317 -0.7142
 4891SOL     OW26305   1.306   1.579   7.889 -0.6552 -0.1702 -0.1056
 4891SOL    HW126306   1.217   1.564   7.858 -0.7564 -1.0060  0.6124
 4891SOL    HW226307   1.356   1.598   7.810  0.7182 -1.0369  0.5618
 4892SOL     OW26308   3.989   4.161   2.945 -0.2489  0.1691 -0.6370
 4892SOL    HW126309   3.924   4.101   2.982  1.3495 -2.6009 -2.3200
 4892SOL    HW226310   4.031   4.177   3.030 -1.2747  0.1747 -0.1285
 4893SOL     OW26311   3.046   1.884  10.926  0.7315  0.2425 -0.2708
 4893SOL    HW126312   3.074   1.837  10.847  0.2240 -2.6072  1.2519
 4893SOL    HW226313   3.042   1.815  10.992 -3.5411 -0.8439 -1.6638
 4894SOL     OW26314   0.762   0.827  15.797 -0.0425  0.2336 -0.0238
 4894SOL    HW126315   0.829   0.883  15.835 -1.4314  1.9477 -0.1359
 4894SOL    HW226316   0.756   0.856  15.706  0.2845 -0.0808 -0.1479
 4895SOL     OW26317   3.574   0.164   6.540  0.2312 -0.4604 -0.1987
 4895SOL    HW126318   3.557   0.093   6.479  2.1533 -1.6835  0.6720
 4895SOL    HW226319   3.662   0.181   6.506  0.9110 -1.8574  0.8729
 4896SOL     OW26320   4.226   3.093   6.916  0.3897  0.2836  0.0247
 4896SOL    HW126321   4.133   3.112   6.927  0.0009 -0.2599 -2.3722
 4896SOL    HW226322   4.256   3.176   6.881 -2.1058  1.8950  1.6779
 4897SOL     OW26323   0.752   4.361   2.098 -0.2704  0.2964  0.8118
 4897SOL    HW126324   0.821   4.300   2.073 -0.6823  0.4447 -0.6695
 4897SOL    HW226325   0.722   4.392   2.013  0.6015 -1.6274 -0.2070
 4898SOL     OW26326   0.657   2.788   7.179 -0.2029  0.1868  0.1067
 4898SOL    HW126327   0.624   2.718   7.122  1.4060  0.3634 -1.0532
 4898SOL    HW226328   0.740   2.805   7.135  1.0886 -1.3038  1.9379
 4899SOL     OW26329   1.537   4.550  15.647  0.3483 -0.1726  0.0280
 4899SOL    HW126330   1.460   4.498  15.622  0.1011 -0.5084  1.4704
 4899SOL    HW226331   1.570   4.498  15.720 -1.0237 -1.7584 -0.4794
 4900SOL     OW26332   3.620   1.328  11.243 -0.0546 -0.5004  0.1002
 4900SOL    HW126333   3.709   1.324  11.279 -0.6400  0.2462  1.6649
 4900SOL    HW226334   3.612   1.234  11.230 -0.1235 -0.6236  1.0373
 4901SOL     OW26335   2.570   4.127   2.514 -0.2245 -0.0263  0.6632
 4901SOL    HW126336   2.508   4.060   2.486 -0.0624  0.9102 -1.9512
 4901SOL    HW226337   2.514   4.203   2.501 -0.2533 -0.3022 -0.8151
 4902SOL     OW26338   1.346   4.458   5.540 -0.2224  0.1638 -0.1934
 4902SOL    HW126339   1.306   4.497   5.618  0.2340  1.3470 -0.5486
 4902SOL    HW226340   1.392   4.537   5.512 -0.3643  0.2755 -0.1063
 4903SOL     OW26341   3.992   3.895   5.080  0.2416 -0.7012 -0.2537
 4903SOL    HW126342   3.981   3.980   5.038  0.4372 -0.2476  0.6148
 4903SOL    HW226343   3.952   3.924   5.162 -1.8492  0.5758 -1.7125
 4904SOL     OW26344   4.484   0.977   7.162 -0.0263 -0.2103  0.3790
 4904SOL    HW126345   4.488   1.006   7.071 -0.5351  1.3223  0.8410
 4904SOL    HW226346   4.399   1.008   7.193  0.2555 -0.3400  1.2754
 4905SOL     OW26347   1.129   2.886   2.908  0.4647  0.1095  0.3764
 4905SOL    HW126348   1.117   2.981   2.904  0.4605  0.1079  0.3499
 4905SOL    HW226349   1.172   2.876   2.822 -1.0041 -0.7041 -0.2656
 4906SOL     OW26350   1.803   0.544   7.870 -0.1887 -0.7817 -0.7476
 4906SOL    HW126351   1.775   0.513   7.956  0.6451  0.5226 -0.0072
 4906SOL    HW226352   1.737   0.613   7.858  3.9267  3.2304 -0.2788
 4907SOL     OW26353   3.653   1.147  13.534  0.0105  0.2212  0.0045
 4907SOL    HW126354   3.627   1.148  13.442 -1.8403 -1.4835  0.5114
 4907SOL    HW226355   3.581   1.094  13.568  0.4910  0.2641  1.0820
 4908SOL     OW26356   0.858   2.437   1.181  1.1519  0.1585  0.4383
 4908SOL    HW126357   0.873   2.386   1.261  1.0950 -1.0899 -0.3475
 4908SOL    HW226358   0.762   2.434   1.177  1.1599 -1.2015  0.9703
 4909SOL     OW26359   4.272   2.472   1.768 -0.4893  0.1732 -0.1353
 4909SOL    HW126360   4.189   2.446   1.807 -1.2115 -1.1834 -2.6052
 4909SOL    HW226361   4.255   2.546   1.711 -2.1607 -1.0072 -1.1772
 4910SOL     OW26362   1.573   3.712   6.991 -0.4210 -0.0704 -0.2925
 4910SOL    HW126363   1.551   3.634   7.043  0.6001 -0.6731 -0.7551
 4910SOL    HW226364   1.520   3.769   7.046  0.4372  0.2503  0.1909
 4911SOL     OW26365   1.776   3.261  16.813  0.3637 -0.1215  0.3947
 4911SOL    HW126366   1.758   3.348  16.849  2.2904  0.1352  0.7544
 4911SOL    HW226367   1.832   3.232  16.885 -0.3597 -1.5278  0.3893
 4912SOL     OW26368   2.381   1.702   4.199  0.0448  0.0447 -0.1538
 4912SOL    HW126369   2.363   1.738   4.112 -1.0430 -2.0774 -0.8175
 4912SOL    HW226370   2.356   1.774   4.257 -0.8945  0.3690 -0.9652
 4913SOL     OW26371   2.769   2.402   7.137  0.3344  0.6097  0.5700
 4913SOL    HW126372   2.743   2.410   7.228  0.1515 -0.1312  0.5849
 4913SOL    HW226373   2.687   2.434   7.100  0.6890 -0.1503 -0.8796
 4914SOL     OW26374   3.751   2.854   0.407 -0.6418  0.3877 -0.4557
 4914SOL    HW126375   3.843   2.865   0.430 -0.2041 -0.1534 -1.9714
 4914SOL    HW226376   3.739   2.901   0.325  0.4714 -0.2217 -0.9698
 4915SOL     OW26377   0.612   3.972  16.178 -0.7247 -0.2923 -0.0549
 4915SOL    HW126378   0.686   3.964  16.237 -0.3982  2.2585 -0.1237
 4915SOL    HW226379   0.575   3.884  16.190  0.3835 -0.7360  0.0770
 4916SOL     OW26380   2.075   0.111   1.805  0.4863 -0.1654 -0.1442
 4916SOL    HW126381   2.028   0.117   1.888  1.9926  0.2658  0.6665
 4916SOL    HW226382   2.125   0.192   1.803 -1.4933  1.0095 -2.8497
 4917SOL     OW26383   0.573   1.643   6.252 -0.5828 -0.2617 -0.7426
 4917SOL    HW126384   0.504   1.604   6.198  0.2371 -0.8058 -1.4101
 4917SOL    HW226385   0.531   1.664   6.335  0.8324  0.1638 -0.1330
 4918SOL     OW26386   1.643   1.495   2.102  0.3167 -0.1474 -0.4693
 4918SOL    HW126387   1.571   1.554   2.126  0.4067 -0.2754  0.1333
 4918SOL    HW226388   1.637   1.432   2.175  3.4514  0.0354 -0.0876
 4919SOL     OW26389   0.174   3.201   4.335 -0.0159  0.1496  0.1451
 4919SOL    HW126390   0.265   3.173   4.339  0.2328  1.0734  0.9405
 4919SOL    HW226391   0.145   3.169   4.420  1.3800  4.4727  2.2540
 4920SOL     OW26392   0.796   1.248   8.178 -0.2478 -0.0995  0.1113
 4920SOL    HW126393   0.854   1.173   8.187  0.3427  0.4563  0.9079
 4920SOL    HW226394   0.791   1.265   8.272  1.1576  0.4617  0.0834
 4921SOL     OW26395   0.403   1.441   6.146  0.0653  0.3749  0.5156
 4921SOL    HW126396   0.309   1.450   6.132  0.2320 -0.4820 -1.0746
 4921SOL    HW226397   0.417   1.394   6.229 -0.6095 -0.8801 -0.0898
 4922SOL     OW26398   4.226   3.806  15.994 -0.0228 -0.0746 -0.0255
 4922SOL    HW126399   4.139   3.826  15.959 -0.2027  1.9292  1.5653
 4922SOL    HW226400   4.283   3.818  15.918 -1.4639 -0.3976 -1.1769
 4923SOL     OW26401   2.344   0.994   5.841 -0.0823 -0.1420  0.1935
 4923SOL    HW126402   2.313   1.084   5.830 -0.9241 -0.5183 -0.4729
 4923SOL    HW226403   2.345   0.973   5.748 -2.4104  0.5927  0.0023
 4924SOL     OW26404   3.433   4.712   2.897 -0.1842  0.5674 -0.1545
 4924SOL    HW126405   3.438   4.618   2.880 -1.2657  0.6238 -0.7279
 4924SOL    HW226406   3.525   4.729   2.920 -0.1151 -0.4246  0.3132
 4925SOL     OW26407   0.665   0.976   2.033  0.1333 -0.1057  0.1641
 4925SOL    HW126408   0.674   1.067   2.062  0.9702 -0.2917  0.4689
 4925SOL    HW226409   0.599   0.986   1.964  0.9150  2.2879 -0.2456
 4926SOL     OW26410   1.711   1.320   6.290  0.3272 -0.0941 -0.5180
 4926SOL    HW126411   1.798   1.309   6.328 -0.1199  0.5995  0.7229
 4926SOL    HW226412   1.725   1.409   6.259  0.4229 -0.3856 -1.3000
 4927SOL     OW26413   3.376   3.708  10.847  0.3326  0.2488  0.2554
 4927SOL    HW126414   3.420   3.626  10.871  0.9156  0.0228 -1.6332
 4927SOL    HW226415   3.308   3.718  10.914 -0.1827  2.1145 -0.5535
 4928SOL     OW26416   3.788   0.329  13.156  0.5632  0.6116  0.5724
 4928SOL    HW126417   3.729   0.254  13.163  1.6136 -0.1332  1.4136
 4928SOL    HW226418   3.788   0.369  13.243 -0.0473  0.4192  0.6618
 4929SOL     OW26419   0.005   0.377  10.961 -0.1746  0.4914  0.1549
 4929SOL    HW126420   4.711   0.420  10.880 -0.4552  0.8932  0.4640
 4929SOL    HW226421   4.690   0.295  10.960  1.4623 -0.4702 -0.7706
 4930SOL     OW26422   2.549   1.720   7.165  0.0772  0.1277  0.1410
 4930SOL    HW126423   2.531   1.799   7.113 -2.8622  0.1606  1.2018
 4930SOL    HW226424   2.610   1.674   7.108 -2.5866  0.4565 -2.9138
 4931SOL     OW26425   1.786   1.538  17.688  0.0314  0.7087  0.2100
 4931SOL    HW126426   1.866   1.588  17.698  0.2185  0.4639 -0.0634
 4931SOL    HW226427   1.815   1.449  17.665 -1.1728  0.3189  0.1851
 4932SOL     OW26428   1.574   4.644  12.425 -0.0902 -0.0810  0.2874
 4932SOL    HW126429   1.642   4.708  12.445 -1.1938 -0.0399  3.8630
 4932SOL    HW226430   1.534   4.624  12.509 -1.3115 -2.5327 -0.9073
 4933SOL     OW26431   1.331   3.349   4.040  0.4501 -0.8668 -0.4356
 4933SOL    HW126432   1.252   3.312   4.002 -0.1966  0.4274 -0.3365
 4933SOL    HW226433   1.303   3.352   4.131 -0.3431  0.4617 -0.7199
 4934SOL     OW26434   0.480   4.374   8.991 -0.2379 -0.3202  0.2258
 4934SOL    HW126435   0.504   4.426   9.067  0.2359  0.2385 -0.3046
 4934SOL    HW226436   0.563   4.338   8.958 -0.8371  0.0377 -1.6755
 4935SOL     OW26437   0.256   2.468   6.203 -0.2448 -0.2306 -0.0349
 4935SOL    HW126438   0.319   2.411   6.247 -0.0295  0.7808  0.9471
 4935SOL    HW226439   0.192   2.489   6.271  0.6925 -0.5091  0.9287
 4936SOL     OW26440   4.013   2.815  14.005  0.1437 -0.1919 -0.0562
 4936SOL    HW126441   4.039   2.890  14.057 -0.5739 -0.9347  1.3625
 4936SOL    HW226442   3.940   2.848  13.952 -1.0461 -0.6793  1.2815
 4937SOL     OW26443   0.608   1.906  16.299  0.1446 -0.0838 -0.2300
 4937SOL    HW126444   0.669   1.850  16.348  0.6531  0.4302 -0.2673
 4937SOL    HW226445   0.544   1.836  16.288  0.3484 -0.2262 -0.4851
 4938SOL     OW26446   0.480   3.380   2.271 -0.3990 -0.0378 -0.1893
 4938SOL    HW126447   0.411   3.401   2.334  0.6617  1.3865  0.4857
 4938SOL    HW226448   0.489   3.285   2.285 -0.6878 -0.0525 -0.1036
 4939SOL     OW26449   0.107   2.831   6.561 -0.0943  0.3877  0.3553
 4939SOL    HW126450   0.108   2.866   6.472 -1.4119 -1.3544 -0.3341
 4939SOL    HW226451   0.026   2.783   6.546  0.0252 -0.1160  1.3413
 4940SOL     OW26452   0.244   3.297   4.617  0.3149 -0.4772  0.3203
 4940SOL    HW126453   0.265   3.321   4.708  0.2642 -0.7949  0.4170
 4940SOL    HW226454   0.329   3.258   4.597  1.2823  0.4208  2.6356
 4941SOL     OW26455   1.074   0.284  14.213 -0.1839 -0.2339  0.3137
 4941SOL    HW126456   1.093   0.317  14.301  1.0942 -1.8857  0.6657
 4941SOL    HW226457   1.038   0.362  14.172  0.8931  1.0734  1.8192
 4942SOL     OW26458   3.185   2.050   2.130 -0.5263  0.5731 -0.0114
 4942SOL    HW126459   3.127   2.093   2.067 -0.3304 -0.3830 -0.8591
 4942SOL    HW226460   3.258   2.110   2.140 -0.1101  0.5946 -3.0550
 4943SOL     OW26461   3.015   1.154   7.425 -0.0277  0.1408 -0.2547
 4943SOL    HW126462   2.987   1.203   7.502 -1.3193 -0.4499 -0.3488
 4943SOL    HW226463   3.098   1.120   7.459 -0.3402 -0.2949  0.0661
 4944SOL     OW26464   3.554   4.616   2.175  0.0266  0.1842  0.3721
 4944SOL    HW126465   3.614   4.668   2.229  2.6253 -2.4534 -0.0118
 4944SOL    HW226466   3.530   4.696   2.128 -0.9543 -0.7394 -0.6969
 4945SOL     OW26467   4.133   1.598   2.987 -0.3663  0.0209 -0.0454
 4945SOL    HW126468   4.127   1.528   2.922 -3.1331  1.2425 -1.1374
 4945SOL    HW226469   4.043   1.632   2.991 -1.0333 -2.0512  3.5419
 4946SOL     OW26470   4.137   1.220  10.591  0.3642 -0.0329  0.0398
 4946SOL    HW126471   4.192   1.225  10.513 -0.8985 -0.1067 -0.8648
 4946SOL    HW226472   4.180   1.289  10.641  2.1589 -1.4909  0.5061
 4947SOL     OW26473   4.631   0.043   1.786 -0.1577 -0.7562  0.2737
 4947SOL    HW126474   4.569   0.116   1.789  0.3650 -0.5411  5.1797
 4947SOL    HW226475   4.598   4.716   1.720  1.6116  2.5945 -3.6809
 4948SOL     OW26476   4.669   3.671   6.448 -0.1113 -0.0782  0.0566
 4948SOL    HW126477   4.642   3.691   6.538 -1.1300  1.1574 -0.5285
 4948SOL    HW226478   4.608   3.602   6.424  0.9846 -1.6643  1.7494
 4949SOL     OW26479   2.153   0.436  14.242 -0.1731  0.3116  0.0699
 4949SOL    HW126480   2.098   0.369  14.203  0.7726 -0.3566 -0.1015
 4949SOL    HW226481   2.198   0.481  14.170 -0.1420 -2.6637 -1.7526
 4950SOL     OW26482   0.095   3.838   9.779  0.3560  0.3183 -0.2761
 4950SOL    HW126483   0.157   3.906   9.807  0.2444  1.0404 -1.7513
 4950SOL    HW226484   0.018   3.890   9.753  0.6708  0.1497 -1.5483
 4951SOL     OW26485   2.961   2.535   8.807 -0.0197  0.4750  0.3774
 4951SOL    HW126486   2.971   2.624   8.843 -0.5353  0.5324  0.3855
 4951SOL    HW226487   3.037   2.488   8.840 -0.7329 -2.1495 -1.7563
 4952SOL     OW26488   2.159   1.746   7.040 -0.2544 -0.1341  0.0696
 4952SOL    HW126489   2.186   1.740   7.132 -0.6545 -2.2424  0.0593
 4952SOL    HW226490   2.211   1.673   7.007  1.9059  1.3471  0.1905
 4953SOL     OW26491   0.776   3.773   4.076 -0.0930 -0.7615 -0.0097
 4953SOL    HW126492   0.731   3.702   4.124 -1.6619  1.2615  1.5153
 4953SOL    HW226493   0.709   3.834   4.045  1.5496  1.4490  0.8011
 4954SOL     OW26494   1.546   1.907   0.683  0.0953  0.5565  0.2083
 4954SOL    HW126495   1.568   1.994   0.717 -1.1390  0.5773  0.9877
 4954SOL    HW226496   1.487   1.865   0.746  0.9383  0.2215  0.7775
 4955SOL     OW26497   2.338   4.613   7.440  0.7142  0.1013  0.5555
 4955SOL    HW126498   2.244   4.616   7.419  0.3836 -0.8037  1.9321
 4955SOL    HW226499   2.371   4.676   7.376  2.4945 -0.7937  0.6079
 4956SOL     OW26500   1.924   3.729   3.491  0.1421  0.1895  0.2886
 4956SOL    HW126501   1.872   3.655   3.461  0.2159  0.4515 -0.4801
 4956SOL    HW226502   1.862   3.802   3.496  0.1183  0.0619  2.0211
 4957SOL     OW26503   4.562   4.578   9.125  0.0224  0.2327 -0.2640
 4957SOL    HW126504   4.467   4.586   9.130  0.0167  1.5974 -2.3179
 4957SOL    HW226505   4.580   4.503   9.181  0.4837  1.5467  1.3761
 4958SOL     OW26506   2.815   3.219   9.805  0.2675  0.3416  0.0846
 4958SOL    HW126507   2.866   3.145   9.770 -2.1075 -1.1379 -0.2247
 4958SOL    HW226508   2.763   3.177   9.873  0.2364 -0.8910 -0.6909
 4959SOL     OW26509   3.597   2.131  13.718  0.4177 -0.3072  0.1884
 4959SOL    HW126510   3.552   2.201  13.766 -1.3400 -2.2031  1.3349
 4959SOL    HW226511   3.608   2.062  13.783 -1.0433  0.4712  1.2707
 4960SOL     OW26512   0.584   2.970   9.548 -0.5206 -0.1614  0.1515
 4960SOL    HW126513   0.514   3.034   9.536  1.1334  1.4585 -0.9922
 4960SOL    HW226514   0.667   3.017   9.540 -0.5267 -0.2829 -0.6739
 4961SOL     OW26515   1.506   3.583  12.638 -0.0552  0.2674 -0.2345
 4961SOL    HW126516   1.425   3.635  12.636  1.0403  1.9628 -0.3955
 4961SOL    HW226517   1.578   3.646  12.640 -0.1088  0.3027  0.6092
 4962SOL     OW26518   0.970   0.720   0.828 -0.0430 -0.4498 -0.1284
 4962SOL    HW126519   0.893   0.721   0.885  0.9337  0.4430  1.1611
 4962SOL    HW226520   0.924   0.704   0.745  0.2413  0.1978 -0.4092
 4963SOL     OW26521   4.543   4.607   5.848 -0.1127  0.3901  0.0798
 4963SOL    HW126522   4.491   4.526   5.851  1.4659 -0.6615 -0.9203
 4963SOL    HW226523   4.480   4.679   5.848 -1.4637 -0.7813  0.6528
 4964SOL     OW26524   0.909   3.964  10.750 -0.1070  0.2195  0.1488
 4964SOL    HW126525   0.889   3.951  10.657 -0.9166  1.2698  0.1705
 4964SOL    HW226526   0.997   3.931  10.764  0.5503  1.1010 -1.8804
 4965SOL     OW26527   0.342   2.355   2.087 -0.0431  0.0965 -0.2317
 4965SOL    HW126528   0.252   2.388   2.090 -0.7385 -1.6632 -1.8969
 4965SOL    HW226529   0.392   2.414   2.144  0.9332 -0.1041 -0.8740
 4966SOL     OW26530   0.292   0.418   8.043  0.1723  0.1484  0.8825
 4966SOL    HW126531   0.377   0.449   8.012  0.2953 -1.9690 -0.9297
 4966SOL    HW226532   0.256   0.506   8.051 -3.5285 -1.5166  2.3752
 4967SOL     OW26533   2.133   1.974   6.879 -0.2220 -0.7774  0.4549
 4967SOL    HW126534   2.160   1.935   6.962  1.0107 -0.2516  0.3083
 4967SOL    HW226535   2.045   1.940   6.862 -1.0638  2.0974 -0.9628
 4968SOL     OW26536   3.034   2.764   8.077 -0.3670  0.2688 -0.4543
 4968SOL    HW126537   3.121   2.747   8.043 -0.0858  2.2544 -0.7629
 4968SOL    HW226538   3.050   2.778   8.171  0.0496  1.1657 -0.6565
 4969SOL     OW26539   2.387   4.040   3.461 -0.0870  0.0935  0.3036
 4969SOL    HW126540   2.410   4.127   3.427  0.2125  0.6685  1.9774
 4969SOL    HW226541   2.470   4.016   3.503 -0.2252  0.8110  0.9822
 4970SOL     OW26542   3.984   4.136   4.990 -0.2928 -0.3118 -0.6250
 4970SOL    HW126543   4.062   4.185   5.015  0.5804 -1.5615 -0.9142
 4970SOL    HW226544   3.939   4.197   4.931 -1.1397  0.0037  0.3336
 4971SOL     OW26545   4.450   1.571   1.787 -0.0885  0.3934  0.1555
 4971SOL    HW126546   4.465   1.596   1.696  2.1767  1.8204  0.9263
 4971SOL    HW226547   4.460   1.661   1.817  1.5355 -0.3741  1.9683
 4972SOL     OW26548   1.465   1.746   3.833  0.3345  0.1423 -0.5972
 4972SOL    HW126549   1.505   1.734   3.747 -1.7254  0.0674 -1.5638
 4972SOL    HW226550   1.375   1.774   3.814  0.1318 -0.5113 -0.5851
 4973SOL     OW26551   3.310   2.991   5.817 -0.1342 -0.5952 -0.2450
 4973SOL    HW126552   3.401   2.987   5.786 -0.8183 -3.1657 -1.8554
 4973SOL    HW226553   3.256   2.984   5.739 -0.7439 -1.3109  0.2445
 4974SOL     OW26554   1.929   1.728   0.418 -0.4405 -0.1434  0.0415
 4974SOL    HW126555   1.976   1.775   0.487 -1.7105  1.3264 -0.1060
 4974SOL    HW226556   1.847   1.776   0.431  0.8434  1.6842  1.5046
 4975SOL     OW26557   4.057   4.727   4.767 -0.5387 -0.0795  0.2150
 4975SOL    HW126558   4.073   4.637   4.794  0.6575  0.4396  1.2275
 4975SOL    HW226559   4.119   0.050   4.812 -0.0382  0.2130 -0.8428
 4976SOL     OW26560   2.431   2.661  14.925 -0.3171  0.3627 -0.2038
 4976SOL    HW126561   2.384   2.696  15.002 -2.3168 -0.1762 -1.1789
 4976SOL    HW226562   2.377   2.586  14.899  1.1103 -0.4188 -0.8803
 4977SOL     OW26563   3.732   1.432   7.176  0.2061  0.4643  0.2640
 4977SOL    HW126564   3.682   1.488   7.236 -2.5361  2.0544 -3.5556
 4977SOL    HW226565   3.663   1.408   7.114  1.0809 -1.5417  0.0550
 4978SOL     OW26566   0.796   3.213   2.788  0.0365 -0.2096 -0.6364
 4978SOL    HW126567   0.863   3.279   2.806 -2.6383  1.0833  4.4848
 4978SOL    HW226568   0.757   3.237   2.703  1.6707  1.5450 -0.8818
 4979SOL     OW26569   1.124   1.428  11.009  0.4227 -0.1782  0.1427
 4979SOL    HW126570   1.137   1.369  11.083  0.5554  1.3703  1.3613
 4979SOL    HW226571   1.212   1.464  10.992  0.4539 -1.6553 -2.8224
 4980SOL     OW26572   2.345   3.332   2.531 -0.1010  0.2117 -0.2304
 4980SOL    HW126573   2.314   3.417   2.500 -0.8684  0.2957  0.7787
 4980SOL    HW226574   2.264   3.291   2.562 -0.0390 -1.3320 -2.1088
 4981SOL     OW26575   2.248   3.365   2.105  0.6245 -0.1887  0.5537
 4981SOL    HW126576   2.253   3.427   2.033 -0.0079 -0.8805 -0.0821
 4981SOL    HW226577   2.174   3.400   2.155 -0.6922 -1.2854 -0.6416
 4982SOL     OW26578   2.473   3.927  14.747 -0.5994  0.1033 -0.1633
 4982SOL    HW126579   2.561   3.960  14.759 -0.0604 -1.8213  1.2121
 4982SOL    HW226580   2.421   3.927  14.827  1.4249  1.1773  1.1312
 4983SOL     OW26581   1.294   0.758   2.259 -0.2064 -0.5738 -0.4869
 4983SOL    HW126582   1.269   0.845   2.289  3.1224 -0.0837  0.9311
 4983SOL    HW226583   1.389   0.763   2.271 -0.3180 -0.3851  0.2796
 4984SOL     OW26584   4.589   1.254   6.004  0.5189  0.0595  0.1975
 4984SOL    HW126585   4.680   1.236   5.983  1.3645 -0.0712  3.9817
 4984SOL    HW226586   4.587   1.308   6.083  1.9300  0.1710  0.1456
 4985SOL     OW26587   0.609   4.002   8.860  0.2352  0.0255 -0.3955
 4985SOL    HW126588   0.668   4.057   8.911 -0.1112  0.7698 -0.8066
 4985SOL    HW226589   0.526   4.043   8.884  0.2269 -0.5151  0.4902
 4986SOL     OW26590   4.113   3.240  11.649 -0.1245 -0.6541  0.0808
 4986SOL    HW126591   4.120   3.336  11.658 -0.3227 -0.9056  2.9566
 4986SOL    HW226592   4.022   3.236  11.678 -0.2464  3.0101  0.3232
 4987SOL     OW26593   4.369   3.796   3.498 -0.6790  0.2360 -0.9085
 4987SOL    HW126594   4.378   3.703   3.517  2.8723  0.6930 -0.3848
 4987SOL    HW226595   4.328   3.826   3.579 -0.1891 -2.4522  0.3465
 4988SOL     OW26596   1.505   2.489   3.265  0.4837  0.1179 -0.0645
 4988SOL    HW126597   1.600   2.494   3.251  0.5244  0.8205  0.4290
 4988SOL    HW226598   1.501   2.497   3.361  0.2670 -2.0605  0.1133
 4989SOL     OW26599   1.172   2.862  13.454 -0.0463 -0.0046 -0.4884
 4989SOL    HW126600   1.171   2.783  13.508 -0.9138 -1.9860 -3.3988
 4989SOL    HW226601   1.160   2.926  13.525 -1.1799  1.1880 -1.7468
 4990SOL     OW26602   1.986   1.264   1.749  0.3639 -0.5911  0.0351
 4990SOL    HW126603   1.901   1.252   1.792  0.3276 -0.1395  0.0925
 4990SOL    HW226604   1.963   1.313   1.670  1.1342 -0.1234  0.0991
 4991SOL     OW26605   2.201   0.974   3.327  0.2156  0.1287  0.0862
 4991SOL    HW126606   2.151   0.892   3.333  1.9225 -0.9792 -0.7709
 4991SOL    HW226607   2.203   1.000   3.419 -1.4985 -0.4705  0.2989
 4992SOL     OW26608   1.332   2.467   8.372 -0.6401  0.4067 -0.6652
 4992SOL    HW126609   1.397   2.426   8.315 -0.1077 -1.7855  1.4986
 4992SOL    HW226610   1.291   2.521   8.306  0.5871  0.9366 -0.9963
 4993SOL     OW26611   4.157   3.083   2.186 -0.3009  0.1110  0.1341
 4993SOL    HW126612   4.105   3.094   2.106  1.8671 -0.0049 -1.2817
 4993SOL    HW226613   4.096   3.129   2.244  1.1227 -0.0904  1.7965
 4994SOL     OW26614   1.353   2.394   0.233 -0.6208 -0.1871  0.0952
 4994SOL    HW126615   1.404   2.313   0.228 -0.3467 -0.0447  0.6053
 4994SOL    HW226616   1.416   2.448   0.280  1.6177 -3.6761  1.1316
 4995SOL     OW26617   0.026   0.829   6.428 -0.5826 -0.2825 -0.4358
 4995SOL    HW126618   0.096   0.803   6.488  1.2091  3.2204 -1.0476
 4995SOL    HW226619   0.031   0.924   6.427 -0.0803 -0.3142 -1.1411
 4996SOL     OW26620   3.391   0.999  12.635  0.1169 -0.0630  0.4046
 4996SOL    HW126621   3.409   1.063  12.704 -1.1724 -1.8710  2.4402
 4996SOL    HW226622   3.432   0.918  12.668  1.5366  0.5643  0.1731
 4997SOL     OW26623   2.825   3.208   8.320 -0.1700 -0.2804 -0.0520
 4997SOL    HW126624   2.869   3.264   8.256 -0.6000  0.3267  0.1790
 4997SOL    HW226625   2.738   3.186   8.287 -0.0658  0.1197 -0.5911
 4998SOL     OW26626   2.230   4.146   8.717 -0.2291 -0.0802 -0.1055
 4998SOL    HW126627   2.307   4.119   8.767  0.3719  0.5286 -0.7030
 4998SOL    HW226628   2.237   4.073   8.654 -1.3743 -0.0519 -0.2772
 4999SOL     OW26629   4.378   2.590   2.629  0.4285 -0.2351 -0.0203
 4999SOL    HW126630   4.434   2.633   2.694  0.5821 -3.3760  1.9192
 4999SOL    HW226631   4.397   2.634   2.546 -2.7956  0.2388 -0.4971
 5000SOL     OW26632   2.649   4.641  14.006  0.4978  0.2132  0.6530
 5000SOL    HW126633   2.742   4.621  14.014  0.3325 -0.0977  1.7615
 5000SOL    HW226634   2.652   4.727  13.964 -0.5577  0.8520  1.8705
 5001SOL     OW26635   1.993   1.737   5.601  0.0348  0.1086 -0.0257
 5001SOL    HW126636   2.005   1.740   5.507 -0.7662  1.5645 -0.0820
 5001SOL    HW226637   2.078   1.766   5.635 -1.2410  2.8252  0.8420
 5002SOL     OW26638   0.669   4.360   6.564 -0.2767  0.0220  0.3066
 5002SOL    HW126639   0.702   4.306   6.636  0.1531  0.6048  0.5436
 5002SOL    HW226640   0.576   4.349   6.582  0.1169 -1.4452  1.4639
 5003SOL     OW26641   2.182   3.782   9.307  0.1320  0.0408 -0.4792
 5003SOL    HW126642   2.214   3.709   9.360 -1.6786  0.1409  0.7178
 5003SOL    HW226643   2.092   3.761   9.283  0.4204  0.7826 -2.2239
 5004SOL     OW26644   3.042   2.893   2.388  0.1945  0.0449  0.1260
 5004SOL    HW126645   3.119   2.850   2.351  0.8437  1.1913  0.1189
 5004SOL    HW226646   3.079   2.977   2.418 -0.8431  0.6942 -0.4105
 5005SOL     OW26647   3.200   3.444   5.964 -0.6634 -0.4323  0.1343
 5005SOL    HW126648   3.257   3.379   6.006 -0.7740 -2.1248 -2.3579
 5005SOL    HW226649   3.256   3.468   5.890  0.3413  0.8381  1.2881
 5006SOL     OW26650   2.917   1.433   3.640 -0.2694  0.1489 -0.2308
 5006SOL    HW126651   2.922   1.358   3.699 -1.6110  1.2588  1.3041
 5006SOL    HW226652   2.832   1.473   3.657  0.2057  1.7135 -1.4794
 5007SOL     OW26653   1.040   0.931   7.814  0.7331  0.2343 -0.1911
 5007SOL    HW126654   1.128   0.939   7.852  0.4856 -0.5478  0.5474
 5007SOL    HW226655   1.059   0.856   7.757  2.2756  0.1624  0.4183
 5008SOL     OW26656   3.147   1.074  16.647 -0.0035  0.8535 -0.5703
 5008SOL    HW126657   3.123   1.009  16.582  0.2779  1.4913 -1.3054
 5008SOL    HW226658   3.174   1.013  16.716 -1.7886  0.4695 -0.2025
 5009SOL     OW26659   4.658   0.467   7.444 -0.3358 -1.3939 -0.8297
 5009SOL    HW126660   4.731   0.452   7.505 -2.0755 -3.4018  0.7838
 5009SOL    HW226661   4.685   0.415   7.368 -0.2224 -1.5200 -0.7040
 5010SOL     OW26662   4.244   4.587  14.588 -0.0136 -0.6093  0.1453
 5010SOL    HW126663   4.253   4.670  14.542 -0.9570 -0.1749  0.7346
 5010SOL    HW226664   4.308   4.597  14.658 -0.4854 -0.8653  0.6188
 5011SOL     OW26665   2.132   2.859   3.702 -0.0448 -0.6032  0.2802
 5011SOL    HW126666   2.126   2.782   3.646 -2.4581 -1.3530  1.6150
 5011SOL    HW226667   2.180   2.922   3.648 -4.3610  2.8056  0.4150
 5012SOL     OW26668   2.769   1.533   8.018  0.1115 -0.4248  0.2068
 5012SOL    HW126669   2.846   1.499   7.973  1.5460  1.2107  1.4552
 5012SOL    HW226670   2.773   1.624   7.989 -0.8800 -0.9104 -1.5117
 5013SOL     OW26671   2.204   3.737  15.707 -0.2270  0.6648 -0.2448
 5013SOL    HW126672   2.247   3.808  15.659  3.4898 -1.0573  0.5219
 5013SOL    HW226673   2.123   3.779  15.737 -1.3933 -2.1647  0.5580
 5014SOL     OW26674   1.681   3.402   5.016 -0.0044  0.6354 -0.0940
 5014SOL    HW126675   1.607   3.457   5.042  1.5535  2.5697  0.2108
 5014SOL    HW226676   1.757   3.441   5.059  2.7481 -2.9453 -1.7436
 5015SOL     OW26677   4.587   4.584   5.539  0.0070  0.6563 -0.2438
 5015SOL    HW126678   4.525   4.647   5.501 -0.5696 -0.4766 -1.1722
 5015SOL    HW226679   4.571   4.602   5.632 -0.0063 -0.8782  0.0400
 5016SOL     OW26680   4.166   1.975   6.237 -0.1379 -0.3635  0.1344
 5016SOL    HW126681   4.213   2.040   6.289 -0.8910  2.0177 -2.1845
 5016SOL    HW226682   4.074   2.001   6.234 -0.0254  0.2227  2.5719
 5017SOL     OW26683   4.231   2.889   3.153 -0.7296  0.2659  0.0060
 5017SOL    HW126684   4.177   2.809   3.152  0.4158 -0.5326  1.9221
 5017SOL    HW226685   4.251   2.896   3.060 -1.2746 -3.0357 -0.3548
 5018SOL     OW26686   4.191   0.567   3.789  0.1157  0.4846  0.1557
 5018SOL    HW126687   4.216   0.475   3.799 -0.0365  0.4169 -0.0872
 5018SOL    HW226688   4.139   0.570   3.869  0.9209  0.4048  0.6856
 5019SOL     OW26689   1.483   1.309   8.662 -0.2911 -1.0687  0.1441
 5019SOL    HW126690   1.475   1.404   8.656  2.2264 -1.0273 -2.6514
 5019SOL    HW226691   1.466   1.291   8.570  0.2487  0.5266 -0.2608
 5020SOL     OW26692   2.071   4.557   8.594 -0.1811 -0.2262  0.1322
 5020SOL    HW126693   2.141   4.588   8.537 -1.8675  1.8950 -0.7508
 5020SOL    HW226694   2.024   4.636   8.619 -0.6490  0.2460 -2.3073
 5021SOL     OW26695   1.437   1.591   4.860  0.0662 -0.3543 -0.5445
 5021SOL    HW126696   1.493   1.556   4.791 -1.1298 -1.9544 -0.6906
 5021SOL    HW226697   1.348   1.584   4.826 -0.0580 -1.3065 -0.0294
 5022SOL     OW26698   3.206   3.120  16.849  0.0819  0.0069  0.2237
 5022SOL    HW126699   3.192   3.100  16.756  0.6170  3.1661 -0.5525
 5022SOL    HW226700   3.220   3.033  16.885 -2.1530 -0.1569  0.7318
 5023SOL     OW26701   1.848   3.470   8.889 -0.4195 -0.6371 -0.0769
 5023SOL    HW126702   1.943   3.462   8.897 -0.3851 -0.3238 -0.1510
 5023SOL    HW226703   1.823   3.509   8.972  0.0890 -0.0427 -0.2088
 5024SOL     OW26704   3.993   3.741  16.282 -0.4198  1.1994  0.0072
 5024SOL    HW126705   3.976   3.725  16.189 -1.3228  0.8668  0.2348
 5024SOL    HW226706   3.945   3.822  16.298 -0.5298  1.1032  0.1616
 5025SOL     OW26707   4.657   1.956  10.632  0.1277  0.5235  0.3211
 5025SOL    HW126708   4.640   1.959  10.726  1.7181 -1.3863  0.6506
 5025SOL    HW226709   4.730   1.895  10.631 -1.1007 -0.8929 -2.3552
 5026SOL     OW26710   1.466   0.839   4.269  0.3284  0.4886  0.3781
 5026SOL    HW126711   1.470   0.907   4.201 -0.9534 -0.6222 -0.7983
 5026SOL    HW226712   1.373   0.815   4.269  0.3703  0.3193  1.4688
 5027SOL     OW26713   0.572   3.054  11.386 -0.0906 -0.7246 -0.2862
 5027SOL    HW126714   0.623   3.119  11.337  0.4637 -0.3701  0.7579
 5027SOL    HW226715   0.506   3.098  11.439  0.3504 -0.8600  0.3722
 5028SOL     OW26716   4.452   3.965  15.539 -0.3896  0.4134  0.1936
 5028SOL    HW126717   4.474   3.877  15.506 -0.4130  0.4858 -0.0160
 5028SOL    HW226718   4.396   4.005  15.473  0.7488  1.5696 -0.0718
 5029SOL     OW26719   4.073   1.600   1.503 -0.7284 -0.6686 -0.2120
 5029SOL    HW126720   4.100   1.660   1.434 -1.1124 -2.8390 -2.2543
 5029SOL    HW226721   4.069   1.526   1.443 -1.7691 -0.7032 -0.0950
 5030SOL     OW26722   0.353   2.612   7.023  0.3953  0.5069  0.0028
 5030SOL    HW126723   0.310   2.540   7.069 -1.3928  0.2932 -1.9841
 5030SOL    HW226724   0.307   2.602   6.939  1.5699 -0.3644 -0.5350
 5031SOL     OW26725   1.878   3.311   8.495 -0.2728  0.2255 -0.4931
 5031SOL    HW126726   1.791   3.273   8.510  0.6935 -0.6507  3.1837
 5031SOL    HW226727   1.920   3.256   8.430  3.2802 -1.6482  3.3826
 5032SOL     OW26728   4.329   3.429   5.092  0.4383  0.4088 -0.6380
 5032SOL    HW126729   4.397   3.496   5.098  2.7435 -1.8471 -1.6343
 5032SOL    HW226730   4.280   3.460   5.016  0.4612  1.2100 -0.3285
 5033SOL     OW26731   0.900   2.104   3.287 -0.3206  0.0710 -0.4677
 5033SOL    HW126732   0.849   2.026   3.266 -1.5521  0.1135  2.3808
 5033SOL    HW226733   0.863   2.139   3.369 -0.5193 -0.0197 -0.5192
 5034SOL     OW26734   4.277   4.201   4.962 -0.1374 -0.1625 -0.0247
 5034SOL    HW126735   4.345   4.133   4.965  1.2846  1.2170 -1.0395
 5034SOL    HW226736   4.235   4.190   5.047 -1.8411  1.5330 -0.6522
 5035SOL     OW26737   3.563   4.017   5.386 -0.0405 -0.0220 -0.3937
 5035SOL    HW126738   3.513   3.949   5.430  0.7235 -0.4270 -0.1628
 5035SOL    HW226739   3.511   4.093   5.414  0.5058 -0.5559  2.0756
 5036SOL     OW26740   1.332   1.717  16.701 -0.0893  0.6552 -0.3041
 5036SOL    HW126741   1.364   1.806  16.690 -0.5512  0.7108 -1.1324
 5036SOL    HW226742   1.377   1.664  16.635 -3.0033 -0.2597 -1.5500
 5037SOL     OW26743   3.989   0.183   8.128  0.4704  0.7205 -0.2298
 5037SOL    HW126744   4.066   0.199   8.183  1.1693 -1.0406 -0.7060
 5037SOL    HW226745   3.915   0.194   8.188  2.0277  1.5315  1.5469
 5038SOL     OW26746   3.332   0.312   7.973 -0.7696  0.6297  0.0521
 5038SOL    HW126747   3.285   0.307   7.890 -0.0514 -0.3020 -0.3028
 5038SOL    HW226748   3.324   0.406   7.990  1.6842  0.7995  0.1999
 5039SOL     OW26749   4.194   1.888  12.013  0.2372 -0.2625 -0.3039
 5039SOL    HW126750   4.270   1.947  12.015 -1.0062  1.3386  0.0385
 5039SOL    HW226751   4.118   1.947  12.011 -1.2565 -2.2030 -0.5112
 5040SOL     OW26752   0.989   1.206   5.041 -0.2493 -0.8846  0.4284
 5040SOL    HW126753   0.985   1.207   5.137  0.2480 -1.7690  0.4477
 5040SOL    HW226754   1.084   1.210   5.032 -0.1413 -0.8004  1.5594
 5041SOL     OW26755   0.893   4.384   7.798 -0.5549  0.0806  0.1352
 5041SOL    HW126756   0.805   4.385   7.759 -1.1888 -0.6061  1.5430
 5041SOL    HW226757   0.872   4.410   7.888  0.7686  1.5212  0.0348
 5042SOL     OW26758   3.125   0.825   1.406 -0.3228 -0.3441  0.1225
 5042SOL    HW126759   3.034   0.836   1.376 -0.6848  1.6939  1.9466
 5042SOL    HW226760   3.134   0.908   1.453 -1.2772 -0.9372  1.3556
 5043SOL     OW26761   2.983   2.967  17.554  0.1780 -0.1927  0.0035
 5043SOL    HW126762   2.987   3.041  17.493  1.9295  0.5400  0.9930
 5043SOL    HW226763   3.053   2.910  17.521  0.2525 -0.7078  1.0519
 5044SOL     OW26764   2.385   2.451  16.432  0.0457  0.2740  0.1689
 5044SOL    HW126765   2.308   2.456  16.376 -0.6731  0.5318  1.1771
 5044SOL    HW226766   2.351   2.446  16.522  1.3413 -0.7611  0.6064
 5045SOL     OW26767   1.294   3.953  15.754 -0.8931 -0.4281  0.0272
 5045SOL    HW126768   1.278   3.862  15.778  0.4770 -0.6488  0.0694
 5045SOL    HW226769   1.290   3.987  15.843 -3.6585 -2.6915  0.7833
 5046SOL     OW26770   2.610   3.135  13.703  0.0198 -0.4349 -0.8021
 5046SOL    HW126771   2.671   3.182  13.759  0.0463  2.7470 -3.5329
 5046SOL    HW226772   2.560   3.209  13.670 -0.9800 -0.8058 -0.1495
 5047SOL     OW26773   4.229   0.895   3.244 -0.1180  0.1913  0.0305
 5047SOL    HW126774   4.212   0.830   3.177 -2.7107 -1.8168  2.6716
 5047SOL    HW226775   4.153   0.874   3.299 -0.4089 -0.1774 -0.5185
 5048SOL     OW26776   3.055   0.150   5.431 -0.2264 -0.0078 -0.5885
 5048SOL    HW126777   2.993   0.119   5.364 -1.0058 -1.7228  0.9235
 5048SOL    HW226778   3.028   0.242   5.436  0.0557 -0.0604  1.7952
 5049SOL     OW26779   4.109   2.623   2.687  0.1641 -0.3048  0.5763
 5049SOL    HW126780   4.202   2.613   2.663  0.5852  1.2781  1.5664
 5049SOL    HW226781   4.085   2.676   2.611  1.7421  0.4655  0.6064
 5050SOL     OW26782   3.991   0.612   0.272 -0.4543 -0.1648  0.8793
 5050SOL    HW126783   4.062   0.627   0.210 -0.3813 -0.1776  0.9603
 5050SOL    HW226784   3.964   0.525   0.245  1.7324 -0.6003  0.1585
 5051SOL     OW26785   3.018   0.042   3.435  0.0389  0.0900 -0.2189
 5051SOL    HW126786   3.043   0.079   3.519 -1.1502 -1.5766  0.8737
 5051SOL    HW226787   3.080   0.088   3.378 -1.4631  3.1101  0.6125
 5052SOL     OW26788   2.532   3.415   3.724  0.1868  0.2018 -1.0212
 5052SOL    HW126789   2.625   3.408   3.745  0.0991  1.5675 -0.1736
 5052SOL    HW226790   2.527   3.360   3.646 -0.8632 -0.7609 -0.2611
 5053SOL     OW26791   2.519   3.060   3.770 -0.2161 -0.3507  0.1298
 5053SOL    HW126792   2.601   3.095   3.736 -0.1639 -0.7165 -0.1243
 5053SOL    HW226793   2.455   3.083   3.703  0.4664  3.6388  0.8129
 5054SOL     OW26794   2.073   0.369   0.471  0.4125 -0.3956  0.4369
 5054SOL    HW126795   2.116   0.408   0.547  1.0150 -2.5411  1.1901
 5054SOL    HW226796   1.979   0.368   0.491  0.4297 -3.5651  0.3585
 5055SOL     OW26797   0.801   3.197   8.075  0.3138  0.4702 -0.4003
 5055SOL    HW126798   0.882   3.229   8.116  0.5506 -1.2384  0.4520
 5055SOL    HW226799   0.805   3.104   8.098 -0.8672  0.3492 -0.6857
 5056SOL     OW26800   2.015   4.584   5.322 -0.4128 -0.1954  0.8232
 5056SOL    HW126801   1.991   4.675   5.303  1.1206  0.1378  0.5435
 5056SOL    HW226802   1.926   4.549   5.322  0.1338 -1.5667  0.5716
 5057SOL     OW26803   3.192   1.336   4.866  0.0330 -0.2340 -0.2692
 5057SOL    HW126804   3.246   1.258   4.877  0.1580  0.1014  1.5116
 5057SOL    HW226805   3.231   1.385   4.938 -1.0693  2.0898 -1.2624
 5058SOL     OW26806   3.773   1.724   4.904  0.4665 -0.6696  0.1525
 5058SOL    HW126807   3.860   1.710   4.940  0.2582  1.1663  1.3773
 5058SOL    HW226808   3.720   1.770   4.969  0.8370 -0.4238  0.2766
 5059SOL     OW26809   1.471   3.741   3.306  0.2061  0.5472 -0.0635
 5059SOL    HW126810   1.455   3.824   3.350 -0.5118 -1.0317  2.6925
 5059SOL    HW226811   1.553   3.767   3.263  2.1042  0.3032  3.3625
 5060SOL     OW26812   1.679   2.095   7.241  0.2100 -0.1854  0.0283
 5060SOL    HW126813   1.656   2.181   7.206  0.8223  1.0742  2.7187
 5060SOL    HW226814   1.609   2.089   7.306 -0.2381  1.6714 -0.2748
 5061SOL     OW26815   1.589   1.296   1.252 -0.0955  0.2525 -0.1927
 5061SOL    HW126816   1.660   1.358   1.271  0.1574  0.1167 -0.7039
 5061SOL    HW226817   1.632   1.212   1.236 -0.9627 -0.4717  1.2281
 5062SOL     OW26818   2.307   0.208   3.105 -0.4930  0.8370 -0.0292
 5062SOL    HW126819   2.251   0.190   3.030 -2.5189  2.0165  1.1882
 5062SOL    HW226820   2.239   0.186   3.168 -0.6809 -3.6183 -1.8511
 5063SOL     OW26821   3.162   3.909   7.135  0.1883  0.3005 -0.2874
 5063SOL    HW126822   3.119   3.925   7.219  0.9099 -3.3180  0.7616
 5063SOL    HW226823   3.202   3.995   7.122  0.3190  0.1286 -0.9919
 5064SOL     OW26824   1.476   4.388   8.179 -0.2190  0.4686  0.4920
 5064SOL    HW126825   1.401   4.429   8.135 -0.1756  2.6468  2.4218
 5064SOL    HW226826   1.500   4.323   8.113 -0.4764 -0.8299  1.7022
 5065SOL     OW26827   0.087   3.967   7.672  1.0153  0.3581  0.6414
 5065SOL    HW126828   0.019   4.034   7.677 -0.7965 -1.3110 -1.3017
 5065SOL    HW226829   0.077   3.940   7.580 -0.3919  0.0362  0.8885
 5066SOL     OW26830   0.514   2.640   3.177  0.1223  0.4917  0.1705
 5066SOL    HW126831   0.595   2.663   3.130  0.4862  1.2601  1.1882
 5066SOL    HW226832   0.499   2.727   3.214  0.7265  0.3690  0.6976
 5067SOL     OW26833   0.705   0.659   0.972 -0.1863 -0.2706  0.0913
 5067SOL    HW126834   0.656   0.716   0.912  0.1577  0.4461  0.4931
 5067SOL    HW226835   0.652   0.656   1.051 -0.0256  1.0317  0.2557
 5068SOL     OW26836   2.227   1.283   5.091  0.2424 -0.1032 -0.2321
 5068SOL    HW126837   2.226   1.270   4.996 -1.2714 -0.0089 -0.2328
 5068SOL    HW226838   2.309   1.236   5.107  0.4738  0.5591  0.5186
 5069SOL     OW26839   2.449   3.638   0.171 -0.8621  0.0295 -0.2212
 5069SOL    HW126840   2.494   3.665   0.251  2.0265  1.5349 -2.3908
 5069SOL    HW226841   2.397   3.563   0.202  0.7297 -0.4135  1.3595
 5070SOL     OW26842   3.085   1.216   5.095  0.5653 -0.1707 -0.3757
 5070SOL    HW126843   3.007   1.243   5.046 -0.5226  0.9691  1.9908
 5070SOL    HW226844   3.127   1.147   5.044 -0.3577 -0.8613 -0.1926
 5071SOL     OW26845   4.635   4.072   6.113 -0.3262  0.6523  0.4595
 5071SOL    HW126846   4.584   4.145   6.149  0.3685  1.6283 -0.5308
 5071SOL    HW226847   4.611   4.003   6.174  0.8799  0.1721  0.3849
 5072SOL     OW26848   4.139   3.469  11.253  0.3033 -0.2683 -0.0166
 5072SOL    HW126849   4.134   3.459  11.158  0.0148  2.1985 -0.2633
 5072SOL    HW226850   4.148   3.382  11.292  2.3522 -0.8148 -1.6867
 5073SOL     OW26851   1.893   1.378   1.470 -0.1160 -0.1487  0.3867
 5073SOL    HW126852   1.817   1.419   1.511  0.1494  1.0105 -0.2813
 5073SOL    HW226853   1.882   1.409   1.380 -0.6764  0.7814  0.7647
 5074SOL     OW26854   1.445   3.385  12.833  0.5801  0.1470  0.0860
 5074SOL    HW126855   1.384   3.445  12.877  0.0631  1.2283 -2.1366
 5074SOL    HW226856   1.454   3.434  12.751  2.0275 -0.7245 -0.2687
 5075SOL     OW26857   4.029   1.832   4.725 -0.2911  0.5540  0.2179
 5075SOL    HW126858   3.954   1.827   4.785  0.4468 -0.5247  1.0500
 5075SOL    HW226859   3.993   1.803   4.641 -3.2430  2.3543  0.8502
 5076SOL     OW26860   2.778   1.688  10.688 -0.3255  0.3745  0.3673
 5076SOL    HW126861   2.872   1.683  10.675 -0.2990 -2.0915  1.3651
 5076SOL    HW226862   2.766   1.608  10.740  0.5685  0.8284  1.2683
 5077SOL     OW26863   4.042   2.815   1.757  0.3404  0.5559 -0.0128
 5077SOL    HW126864   4.018   2.829   1.848 -1.5652  2.8795 -0.8357
 5077SOL    HW226865   3.971   2.873   1.728  1.8988  1.1477 -2.6974
 5078SOL     OW26866   1.948   0.482   9.369 -0.1889 -0.0070 -0.2283
 5078SOL    HW126867   1.927   0.391   9.390 -1.6423  0.5055  0.6079
 5078SOL    HW226868   1.860   0.507   9.339 -0.1478 -2.0525 -2.0527
 5079SOL     OW26869   3.569   2.261  16.487  0.6357  0.5115  0.5748
 5079SOL    HW126870   3.588   2.212  16.407  0.2914 -0.6418  1.2015
 5079SOL    HW226871   3.480   2.233  16.506  1.0967 -0.4813  1.2391
 5080SOL     OW26872   3.116   3.357  16.341 -0.1085 -0.0035  0.3941
 5080SOL    HW126873   3.090   3.329  16.429  1.6670  0.7538  1.1542
 5080SOL    HW226874   3.152   3.444  16.354 -0.0687  0.1453 -0.6949
 5081SOL     OW26875   3.786   1.315   5.951 -0.6249  0.5911  0.4517
 5081SOL    HW126876   3.837   1.395   5.936  0.2181  0.2473  1.4778
 5081SOL    HW226877   3.850   1.246   5.968 -0.6212  1.1608  2.8647
 5082SOL     OW26878   4.461   2.174  16.954  0.1009 -0.6248  0.6076
 5082SOL    HW126879   4.381   2.224  16.941 -1.0628 -2.8283 -0.7662
 5082SOL    HW226880   4.533   2.224  16.916  0.7137 -3.2261 -1.7157
 5083SOL     OW26881   3.364   3.561  10.267  0.0750  0.3090 -0.1452
 5083SOL    HW126882   3.404   3.580  10.353 -1.1415  0.8652  0.2960
 5083SOL    HW226883   3.324   3.476  10.286  0.7958  0.0350  0.1766
 5084SOL     OW26884   0.182   4.328   1.243 -0.2991 -0.0604 -0.6010
 5084SOL    HW126885   0.231   4.409   1.256  0.8299 -0.8232 -0.0495
 5084SOL    HW226886   0.191   4.313   1.149  0.9649 -0.5609 -0.4034
 5085SOL     OW26887   2.910   2.069   4.658 -0.0740 -0.4801  0.1861
 5085SOL    HW126888   2.985   2.126   4.644  1.8559 -3.5905 -1.9900
 5085SOL    HW226889   2.882   2.103   4.744 -1.0594 -1.3671  0.2182
 5086SOL     OW26890   1.682   0.801   8.766  0.2328 -0.3749 -0.1471
 5086SOL    HW126891   1.693   0.893   8.745 -0.7747 -0.2645 -0.2098
 5086SOL    HW226892   1.715   0.790   8.856 -0.4101 -1.1215 -0.0026
 5087SOL     OW26893   2.918   2.423  16.641 -0.5198  0.3660  0.0031
 5087SOL    HW126894   2.838   2.413  16.590 -1.7686  1.2189  1.7649
 5087SOL    HW226895   2.896   2.401  16.732  0.2129  0.6316  0.2448
 5088SOL     OW26896   4.073   0.314   4.776 -0.5812  0.1513  0.5202
 5088SOL    HW126897   4.140   0.310   4.844  1.5697  2.7459 -1.4890
 5088SOL    HW226898   3.990   0.337   4.818 -1.4152  2.2268 -2.2812
 5089SOL     OW26899   2.608   2.411   7.818 -0.1559 -0.3262  0.1983
 5089SOL    HW126900   2.563   2.433   7.737  0.7249  0.4165 -0.0914
 5089SOL    HW226901   2.631   2.318   7.808  0.2458 -0.2670  0.5747
 5090SOL     OW26902   3.714   0.170   0.799  0.1933  0.0972 -0.1756
 5090SOL    HW126903   3.712   0.266   0.793 -1.5427  0.1635  1.2106
 5090SOL    HW226904   3.682   0.156   0.889 -2.4937  0.8040 -1.0140
 5091SOL     OW26905   1.300   4.687   8.571 -0.0615  0.2716 -0.0720
 5091SOL    HW126906   1.336   4.606   8.534  1.7000  1.1769 -0.3044
 5091SOL    HW226907   1.363   0.019   8.543 -1.5262  1.1566 -1.2665
 5092SOL     OW26908   3.400   4.510  14.923 -0.2679  0.2881 -0.2137
 5092SOL    HW126909   3.450   4.545  14.850  2.7624 -1.0838  1.2092
 5092SOL    HW226910   3.475   4.490  14.980 -0.2078 -2.5111 -1.2826
 5093SOL     OW26911   4.282   4.523  10.793  0.3713 -0.2424 -0.0402
 5093SOL    HW126912   4.269   4.592  10.729 -1.2203 -0.4990  0.0078
 5093SOL    HW226913   4.351   4.475  10.746 -0.4280 -0.6685 -0.7655
 5094SOL     OW26914   0.259   1.336   1.209  0.0768  0.0178  0.3555
 5094SOL    HW126915   0.173   1.314   1.173  0.2301  0.5799 -0.3530
 5094SOL    HW226916   0.259   1.261   1.268  2.1107 -1.2694 -1.2903
 5095SOL     OW26917   1.939   1.368   9.932  0.1051 -0.1559  0.5065
 5095SOL    HW126918   1.987   1.330   9.858 -1.0468  0.0147 -0.3296
 5095SOL    HW226919   1.910   1.450   9.893  0.8654 -0.5404 -0.8721
 5096SOL     OW26920   2.325   1.533   6.947  0.0971  0.0235  0.2725
 5096SOL    HW126921   2.345   1.465   7.011  0.1945 -0.0050  0.2124
 5096SOL    HW226922   2.272   1.476   6.890  0.7758 -1.2541  0.9338
 5097SOL     OW26923   1.833   4.073   3.332 -0.2432  0.3938  0.0391
 5097SOL    HW126924   1.751   4.122   3.337  0.2780  1.1351  1.5164
 5097SOL    HW226925   1.892   4.131   3.284  2.4338  0.0640  2.9218
 5098SOL     OW26926   1.624   0.435  12.125 -0.2391 -0.3501  0.3437
 5098SOL    HW126927   1.550   0.395  12.172 -0.3354 -1.3749 -0.6914
 5098SOL    HW226928   1.697   0.376  12.146  0.9537  0.3993 -1.7499
 5099SOL     OW26929   1.895   3.840   2.995 -0.4077 -0.3169 -1.0503
 5099SOL    HW126930   1.945   3.838   2.914  0.0262  0.4722 -0.7995
 5099SOL    HW226931   1.965   3.888   3.038  0.9030 -2.2273 -1.0225
 5100SOL     OW26932   4.277   4.717  17.689  0.5882 -0.7301  0.1938
 5100SOL    HW126933   4.325   4.673  17.619  2.0109 -0.7206  1.1396
 5100SOL    HW226934   4.332   4.724   0.032 -0.3555  2.3681  0.5783
 5101SOL     OW26935   0.881   2.802   2.549  0.7151 -0.3777 -0.2742
 5101SOL    HW126936   0.882   2.863   2.622 -0.3463  1.2174 -1.6051
 5101SOL    HW226937   0.874   2.863   2.475  0.3654 -0.3554 -0.2196
 5102SOL     OW26938   4.034   3.787   7.860  0.2634  0.3531 -0.3573
 5102SOL    HW126939   3.965   3.841   7.822 -0.9481 -0.9635 -0.0371
 5102SOL    HW226940   4.064   3.842   7.932  0.7788  1.4204 -1.3994
 5103SOL     OW26941   3.132   2.108   6.655  0.2170 -0.0847  0.1303
 5103SOL    HW126942   3.212   2.070   6.691  1.1350 -0.6408 -2.5259
 5103SOL    HW226943   3.066   2.049   6.693  0.6688  1.6724  3.5985
 5104SOL     OW26944   1.470   2.908   1.310 -0.0282 -0.5101  0.3516
 5104SOL    HW126945   1.409   2.938   1.242 -0.0974  0.8048  1.0053
 5104SOL    HW226946   1.465   2.979   1.373  1.1257  1.1629 -1.4410
 5105SOL     OW26947   4.720   2.885  15.696 -0.0946  0.2231  1.0502
 5105SOL    HW126948   4.638   2.934  15.705 -1.8998 -2.9016  1.8424
 5105SOL    HW226949   0.055   2.948  15.715  0.9057 -0.7198  0.5348
 5106SOL     OW26950   0.219   1.226   1.838  0.0702  0.1181 -0.5160
 5106SOL    HW126951   0.225   1.317   1.869 -1.5537  0.7037 -1.9296
 5106SOL    HW226952   0.309   1.194   1.842 -0.2352 -0.4408  1.8513
 5107SOL     OW26953   3.481   4.293  13.682 -0.3370 -0.0441  0.2013
 5107SOL    HW126954   3.519   4.255  13.603  0.2415  1.5834 -0.2987
 5107SOL    HW226955   3.454   4.209  13.720  1.2536 -0.4087  0.4911
 5108SOL     OW26956   3.269   4.128   5.246 -0.2657 -0.0180 -0.2529
 5108SOL    HW126957   3.320   4.138   5.326  0.4902 -1.6152 -0.5462
 5108SOL    HW226958   3.247   4.221   5.237 -0.0576 -0.2365 -3.0721
 5109SOL     OW26959   2.209   0.634   1.974 -0.4334  0.1990 -0.1920
 5109SOL    HW126960   2.125   0.649   2.018 -2.0157 -2.3428 -2.3393
 5109SOL    HW226961   2.254   0.718   1.982 -3.1844  1.6965 -0.4495
 5110SOL     OW26962   3.647   0.569  13.684 -0.0123  0.3024  0.2730
 5110SOL    HW126963   3.706   0.615  13.743 -1.5944  0.3283  1.8183
 5110SOL    HW226964   3.703   0.498  13.652  1.3024  1.0854  0.8388
 5111SOL     OW26965   0.832   0.599   4.762  0.0525 -0.7589 -0.4365
 5111SOL    HW126966   0.838   0.513   4.721 -0.8229 -0.0028 -2.2102
 5111SOL    HW226967   0.920   0.626   4.789 -0.5001 -0.0602  0.6636
 5112SOL     OW26968   1.888   4.566   3.806 -0.4462 -0.0825 -0.2353
 5112SOL    HW126969   1.851   4.633   3.863 -0.4592  0.3583 -0.7705
 5112SOL    HW226970   1.900   4.617   3.726 -0.2918 -0.2795 -0.3406
 5113SOL     OW26971   0.207   1.511   4.610  0.0794  0.1804 -0.4949
 5113SOL    HW126972   0.209   1.598   4.572  1.4201  0.9083  1.2395
 5113SOL    HW226973   0.298   1.489   4.633 -0.7347  1.8950  4.2781
 5114SOL     OW26974   1.129   0.009  10.579  0.5150 -0.1257 -0.9361
 5114SOL    HW126975   1.126   4.727  10.673  0.0992  0.6226 -0.8229
 5114SOL    HW226976   1.056   0.068  10.562 -0.8135 -2.0051 -1.6886
 5115SOL     OW26977   4.430   3.367  15.060  0.3589 -0.0188  0.2877
 5115SOL    HW126978   4.394   3.301  15.001 -1.7573  1.4151  0.0034
 5115SOL    HW226979   4.381   3.349  15.140 -0.1188 -1.6127 -0.3674
 5116SOL     OW26980   4.657   2.599   4.149 -0.8805  0.7161 -0.1609
 5116SOL    HW126981   4.719   2.657   4.194 -0.3407  1.0405 -1.3359
 5116SOL    HW226982   4.591   2.584   4.216 -1.6670  1.3683 -0.7934
 5117SOL     OW26983   1.608   4.363   1.878 -0.5563  0.8713 -0.8721
 5117SOL    HW126984   1.667   4.412   1.821  2.4419 -2.4006 -0.6013
 5117SOL    HW226985   1.523   4.401   1.856 -0.8760 -0.2257 -1.5623
 5118SOL     OW26986   3.437   3.998   1.797  0.0923 -0.1248  0.0912
 5118SOL    HW126987   3.389   3.977   1.717  1.3393  2.2164 -1.2742
 5118SOL    HW226988   3.378   4.052   1.850  0.3161  0.7888 -0.5803
 5119SOL     OW26989   3.027   2.412   2.478 -0.2776 -0.5599  0.3219
 5119SOL    HW126990   3.048   2.436   2.568  2.5959 -0.0756 -0.4772
 5119SOL    HW226991   3.009   2.318   2.483 -1.1451 -0.4670 -1.0430
 5120SOL     OW26992   3.293   0.390   3.301 -0.0472 -0.0198 -0.2231
 5120SOL    HW126993   3.252   0.304   3.290 -0.4709  0.2983 -1.1702
 5120SOL    HW226994   3.279   0.427   3.214 -0.3236 -1.0492 -0.6167
 5121SOL     OW26995   0.589   1.341   1.984  0.6538 -0.2094 -0.0799
 5121SOL    HW126996   0.552   1.314   1.900  1.7784 -1.8182 -0.0314
 5121SOL    HW226997   0.558   1.432   1.978 -1.5706 -1.1261 -2.9671
 5122SOL     OW26998   3.526   1.150   7.962 -0.2456  0.0366  0.6785
 5122SOL    HW126999   3.562   1.071   7.921 -1.3418 -1.7236  3.0579
 5122SOL    HW227000   3.601   1.174   8.016  0.7042 -0.2938 -0.4909
 5123SOL     OW27001   0.186   2.913  11.963 -0.2246  0.3444 -0.1867
 5123SOL    HW127002   0.241   2.991  11.966  4.0600 -2.5842 -0.8832
 5123SOL    HW227003   0.111   2.953  11.919 -0.4518 -0.0337 -0.1490
 5124SOL     OW27004   0.627   3.868   5.307 -0.3154 -0.2708  0.5885
 5124SOL    HW127005   0.660   3.816   5.380  0.9214 -1.0199 -0.4993
 5124SOL    HW227006   0.595   3.798   5.250 -4.7807  2.5600 -0.3761
 5125SOL     OW27007   2.274   3.806   9.799  0.0980  0.0784 -0.3381
 5125SOL    HW127008   2.314   3.724   9.827  0.0450  0.1575 -0.0375
 5125SOL    HW227009   2.345   3.867   9.815 -0.5409  0.7009  0.1045
 5126SOL     OW27010   3.435   2.183  11.364  0.3678 -0.4902  0.3941
 5126SOL    HW127011   3.411   2.093  11.342 -2.6347  0.1028  1.2605
 5126SOL    HW227012   3.529   2.170  11.371 -0.0542 -1.1486  4.9437
 5127SOL     OW27013   0.875   0.629   8.405  0.3953  0.7389  0.1859
 5127SOL    HW127014   0.890   0.547   8.358 -2.0895  0.8252 -0.7166
 5127SOL    HW227015   0.822   0.587   8.473 -0.1143  1.0445 -0.0276
 5128SOL     OW27016   0.419   1.090  12.302 -0.1844 -0.7870  0.3481
 5128SOL    HW127017   0.390   1.085  12.393  1.0879 -0.6386  0.7594
 5128SOL    HW227018   0.513   1.092  12.318 -0.0759 -0.0722 -0.4044
 5129SOL     OW27019   3.837   1.958   7.243  0.4677  0.1299 -0.0084
 5129SOL    HW127020   3.895   1.885   7.220 -0.6909 -0.2919 -1.5856
 5129SOL    HW227021   3.771   1.958   7.174 -1.0579  0.2774  1.4726
 5130SOL     OW27022   4.329   1.105   8.429  0.6231  0.0158  0.0064
 5130SOL    HW127023   4.399   1.132   8.488  1.1751  0.0451 -0.6658
 5130SOL    HW227024   4.386   1.052   8.374  1.7444 -0.6360  1.7746
 5131SOL     OW27025   1.659   2.483   5.570 -0.3320 -0.1181  0.9024
 5131SOL    HW127026   1.716   2.560   5.570 -1.3973  0.6782  0.1284
 5131SOL    HW227027   1.612   2.509   5.490  2.3819 -1.6905 -1.2191
 5132SOL     OW27028   1.098   0.943   1.487 -0.3010  0.0013 -0.4826
 5132SOL    HW127029   1.104   1.037   1.469  2.7643 -0.0549  0.2589
 5132SOL    HW227030   1.176   0.911   1.441 -0.5356 -1.3735  0.0942
 5133SOL     OW27031   2.784   1.442  13.454  0.1762 -0.0503  0.2452
 5133SOL    HW127032   2.735   1.369  13.415 -0.9143  0.2607  1.0351
 5133SOL    HW227033   2.833   1.403  13.526  1.6392 -1.0182 -1.2667
 5134SOL     OW27034   2.580   3.655   4.177  0.1272 -0.3164  0.0780
 5134SOL    HW127035   2.627   3.694   4.250 -0.8533  0.9874  0.0075
 5134SOL    HW227036   2.621   3.568   4.176 -0.5629 -0.6243 -2.9543
 5135SOL     OW27037   2.720   3.757   8.880  0.5435 -0.0928  0.6339
 5135SOL    HW127038   2.624   3.748   8.883  0.5266 -1.2461 -2.8191
 5135SOL    HW227039   2.739   3.799   8.964  0.6411  2.4251 -0.6457
 5136SOL     OW27040   3.212   3.536   7.594 -0.2953 -0.0473  0.3694
 5136SOL    HW127041   3.284   3.541   7.657 -0.7192  2.6320  0.6287
 5136SOL    HW227042   3.175   3.624   7.587 -1.4228 -0.6121 -0.9210
 5137SOL     OW27043   2.396   4.457   4.987  0.2719  0.6172 -0.1521
 5137SOL    HW127044   2.374   4.368   4.958 -0.7867  0.3860  1.3785
 5137SOL    HW227045   2.490   4.442   4.998  0.1639 -1.0015 -1.4473
 5138SOL     OW27046   3.275   2.687  14.837  0.2592  0.6875 -0.2312
 5138SOL    HW127047   3.291   2.742  14.759 -0.9780  0.4933 -0.6216
 5138SOL    HW227048   3.200   2.633  14.814  0.1517  0.9010 -0.3888
 5139SOL     OW27049   0.502   3.631   5.201  0.4699 -0.1695  0.6542
 5139SOL    HW127050   0.558   3.560   5.171  0.3568 -1.0002  2.4055
 5139SOL    HW227051   0.446   3.588   5.266 -0.0351  0.5919  0.7205
 5140SOL     OW27052   2.903   2.394   4.734 -0.3548 -0.3827  0.3516
 5140SOL    HW127053   2.853   2.471   4.762 -0.2946 -0.2490  0.1002
 5140SOL    HW227054   2.896   2.404   4.639  1.3050  1.1208  0.3688
 5141SOL     OW27055   0.001   3.063   6.705  0.3375 -0.1769 -0.7316
 5141SOL    HW127056   0.058   3.001   6.660  1.0481 -1.0304  1.3484
 5141SOL    HW227057   4.704   3.000   6.770 -0.4911  0.0739 -0.8813
 5142SOL     OW27058   0.650   0.727  11.537  0.4122 -0.2166  0.2292
 5142SOL    HW127059   0.568   0.715  11.490  0.1260  0.3110  0.5856
 5142SOL    HW227060   0.608   0.715  11.622 -0.5884 -0.8443 -0.3603
 5143SOL     OW27061   0.930   2.961  12.009  0.8060 -0.2424  0.1326
 5143SOL    HW127062   0.923   2.881  11.957  0.2810 -0.5548  0.6711
 5143SOL    HW227063   1.004   3.011  11.975 -1.2804  2.5911 -0.2243
 5144SOL     OW27064   3.358   0.648   9.176  0.5187  0.9757 -0.1771
 5144SOL    HW127065   3.407   0.607   9.105  3.4438  1.0445  1.8235
 5144SOL    HW227066   3.268   0.630   9.147  0.8469  2.1751 -1.9188
 5145SOL     OW27067   3.955   4.167   4.035  0.0506 -0.1676 -0.0424
 5145SOL    HW127068   3.981   4.107   3.965  0.6172  1.0307 -0.8752
 5145SOL    HW227069   4.033   4.222   4.050  0.3370  0.1018 -2.4842
 5146SOL     OW27070   3.936   1.116   6.379 -0.1969  0.0978 -0.3283
 5146SOL    HW127071   3.875   1.064   6.327 -1.0599  0.8604 -0.0808
 5146SOL    HW227072   3.875   1.177   6.420 -1.0238 -0.2465 -1.0432
 5147SOL     OW27073   4.189   1.493   0.465 -0.3402 -0.1768 -0.0505
 5147SOL    HW127074   4.203   1.444   0.384 -2.6715 -0.8782 -0.0274
 5147SOL    HW227075   4.116   1.547   0.434  0.8678  1.5502  0.1208
 5148SOL     OW27076   3.585   2.667  14.752 -0.3178  0.0287  0.0811
 5148SOL    HW127077   3.512   2.629  14.703  0.7622 -1.3315 -0.4850
 5148SOL    HW227078   3.559   2.663  14.844 -0.6594  1.2505  0.0294
 5149SOL     OW27079   0.561   0.885   0.036 -0.5545 -0.3258 -0.5637
 5149SOL    HW127080   0.613   0.898   0.116 -0.6323  1.8539 -0.8767
 5149SOL    HW227081   0.507   0.812   0.066 -0.7409 -1.1513 -2.9771
 5150SOL     OW27082   3.613   0.378   3.118 -0.0141 -0.5102 -0.2077
 5150SOL    HW127083   3.577   0.460   3.153  0.5523  0.2929 -1.4859
 5150SOL    HW227084   3.537   0.339   3.075 -1.8878  1.5128  1.2693
 5151SOL     OW27085   3.128   3.086   6.161  0.8708 -0.6343  0.1558
 5151SOL    HW127086   3.121   2.991   6.167  0.0279 -0.4779  1.8596
 5151SOL    HW227087   3.039   3.108   6.135  1.5851  1.9075 -0.1160
 5152SOL     OW27088   3.280   0.267   5.312 -0.5225 -0.1685  0.2524
 5152SOL    HW127089   3.204   0.217   5.342  1.2312 -2.1988  1.2359
 5152SOL    HW227090   3.351   0.209   5.338 -1.1157 -1.2733 -0.5798
 5153SOL     OW27091   0.212   0.099  15.302  0.2334  0.4807  0.5220
 5153SOL    HW127092   0.221   0.177  15.357  0.6493  0.2430  0.7909
 5153SOL    HW227093   0.297   0.056  15.313 -0.3594 -0.6610  0.6143
 5154SOL     OW27094   2.977   3.329   4.549  0.2928 -0.1211 -0.3938
 5154SOL    HW127095   2.934   3.244   4.543 -0.2306  0.2419 -1.8361
 5154SOL    HW227096   2.913   3.386   4.590 -0.2005 -0.4183 -0.7629
 5155SOL     OW27097   3.489   1.288  15.222  0.1384 -0.2234 -0.2578
 5155SOL    HW127098   3.448   1.373  15.238  0.1606 -0.0951 -0.9211
 5155SOL    HW227099   3.539   1.310  15.144 -0.6014  1.5311 -0.2513
 5156SOL     OW27100   1.638   4.302   2.824  0.1123  0.4845  0.4201
 5156SOL    HW127101   1.615   4.368   2.890  0.1288  0.7696  0.1364
 5156SOL    HW227102   1.550   4.281   2.793 -0.2298 -0.2522  1.8890
 5157SOL     OW27103   2.168   2.536   6.874  0.2534 -0.3519 -0.2315
 5157SOL    HW127104   2.216   2.510   6.795  1.0870  1.3345 -0.3017
 5157SOL    HW227105   2.154   2.623   6.837 -1.1014  0.0982  1.3646
 5158SOL     OW27106   4.573   2.305   8.626 -0.3554  0.0894 -0.1095
 5158SOL    HW127107   4.486   2.338   8.602 -1.0337 -2.4033 -1.0242
 5158SOL    HW227108   4.567   2.212   8.604 -1.7095  0.0881  0.2387
 5159SOL     OW27109   2.536   0.554   8.864 -0.0722 -0.4064 -0.1688
 5159SOL    HW127110   2.494   0.551   8.950  1.6721  2.9328  0.8102
 5159SOL    HW227111   2.468   0.600   8.814  0.2039  0.8397  0.5908
 5160SOL     OW27112   4.598   3.854   3.380  0.2817 -0.4505  0.6180
 5160SOL    HW127113   4.511   3.846   3.420  1.0983 -2.0405  2.0519
 5160SOL    HW227114   4.593   3.774   3.328  0.1382 -0.3800  0.5231
 5161SOL     OW27115   2.969   2.399   9.123 -0.2868  0.1699  0.4002
 5161SOL    HW127116   2.917   2.391   9.043  0.3363 -0.8013  0.0957
 5161SOL    HW227117   2.954   2.313   9.162  1.7779  0.6989  2.3466
 5162SOL     OW27118   2.205   2.830   3.314 -0.1685  0.2785 -0.3106
 5162SOL    HW127119   2.300   2.842   3.317 -0.0707 -0.8394  1.0339
 5162SOL    HW227120   2.199   2.809   3.221  0.8723  1.1204 -0.5603
 5163SOL     OW27121   2.649   1.411   5.961 -0.4084  0.9874 -0.3108
 5163SOL    HW127122   2.653   1.422   6.056 -0.2756  0.5808 -0.2678
 5163SOL    HW227123   2.556   1.414   5.942 -0.2627  2.9127 -0.7494
 5164SOL     OW27124   4.712   4.259   3.940 -0.1160  0.5900  0.1504
 5164SOL    HW127125   0.067   4.293   3.929 -0.3956  1.0602 -0.6275
 5164SOL    HW227126   4.720   4.198   3.867 -0.2902  0.5340  0.1800
 5165SOL     OW27127   0.553   1.096   0.556  0.2738 -0.5066 -0.2132
 5165SOL    HW127128   0.551   1.113   0.462 -2.5828 -0.9293 -0.2294
 5165SOL    HW227129   0.463   1.064   0.566 -0.6696  2.3802  0.5911
 5166SOL     OW27130   0.462   0.623   6.313  0.2385 -0.2670  0.0665
 5166SOL    HW127131   0.518   0.607   6.238  1.7516 -0.6686  1.2848
 5166SOL    HW227132   0.526   0.611   6.383  0.7203  1.9571  0.0145
 5167SOL     OW27133   3.771   1.139   5.245 -0.0163 -0.2000  0.5315
 5167SOL    HW127134   3.771   1.233   5.228 -0.2906 -0.0820  1.2068
 5167SOL    HW227135   3.769   1.150   5.340  2.5696  1.5850  0.3880
 5168SOL     OW27136   4.356   0.056   7.914  0.6314  0.3678  0.0147
 5168SOL    HW127137   4.429   0.011   7.870  1.3525  0.6942  0.8744
 5168SOL    HW227138   4.377   0.146   7.891  1.1894  0.2428  0.0345
 5169SOL     OW27139   4.367   4.513   3.256  0.1565 -0.6749  0.4589
 5169SOL    HW127140   4.432   4.538   3.191 -2.7130  4.0056 -0.6590
 5169SOL    HW227141   4.393   4.565   3.333 -1.6082 -1.3627  1.5244
 5170SOL     OW27142   0.922   2.381   4.796 -0.7029 -0.1428  0.4724
 5170SOL    HW127143   0.852   2.335   4.841  0.0580 -0.9201  0.8504
 5170SOL    HW227144   0.954   2.438   4.866  1.1564 -1.0346  0.3235
 5171SOL     OW27145   3.985   3.042  12.478  0.3418  0.1773 -0.3867
 5171SOL    HW127146   3.891   3.055  12.481  0.0743 -1.5559 -1.4895
 5171SOL    HW227147   4.013   3.109  12.416  0.5913 -0.2663 -0.7509
 5172SOL     OW27148   2.263   3.699  14.755 -0.0105 -0.0959 -0.2638
 5172SOL    HW127149   2.241   3.617  14.710 -2.6794 -0.3527  1.5404
 5172SOL    HW227150   2.324   3.674  14.825 -1.3686  0.5233  1.1387
 5173SOL     OW27151   4.132   3.192   5.774 -0.1668  0.0540 -0.8182
 5173SOL    HW127152   4.203   3.198   5.709 -1.0011  0.4939 -1.6957
 5173SOL    HW227153   4.090   3.278   5.771 -2.5382 -1.1622 -2.2816
 5174SOL     OW27154   1.967   1.319   2.743  0.0326  0.4509  0.1145
 5174SOL    HW127155   1.910   1.289   2.814 -1.1715  0.2295 -0.9465
 5174SOL    HW227156   1.907   1.362   2.683 -0.9433 -0.1539  0.6670
 5175SOL     OW27157   0.852   3.318   5.754 -0.2690 -0.3358  0.1867
 5175SOL    HW127158   0.944   3.315   5.730 -0.4187  1.7583 -0.6222
 5175SOL    HW227159   0.841   3.346   5.845 -0.1113 -2.0246  0.7197
 5176SOL     OW27160   3.100   3.369  11.738 -0.3118 -0.2245  0.1290
 5176SOL    HW127161   3.140   3.449  11.706  2.7614 -1.4032  1.0763
 5176SOL    HW227162   3.016   3.370  11.693 -0.5930  2.6186  0.7007
 5177SOL     OW27163   2.181   4.462   4.776  0.0403 -0.6741  0.2766
 5177SOL    HW127164   2.122   4.467   4.702 -1.5169 -2.0267  1.4234
 5177SOL    HW227165   2.219   4.548   4.758 -1.8660  0.3991  1.3834
 5178SOL     OW27166   2.828   3.407   2.627 -0.5327 -0.2065 -0.1424
 5178SOL    HW127167   2.830   3.439   2.536  0.3600 -0.6111 -0.2670
 5178SOL    HW227168   2.840   3.495   2.663 -1.7709 -0.2181  0.3007
 5179SOL     OW27169   2.866   0.983   4.970  0.2878  0.0788 -0.0328
 5179SOL    HW127170   2.833   1.064   4.932 -1.5476 -0.3218  0.7344
 5179SOL    HW227171   2.805   0.926   4.924  0.7806 -0.0623 -0.5118
 5180SOL     OW27172   1.533   0.113   0.934  0.0695 -0.0253  0.1085
 5180SOL    HW127173   1.512   0.022   0.953  0.7199 -0.4403 -1.1750
 5180SOL    HW227174   1.619   0.120   0.977  1.5276 -0.0397 -2.8241
 5181SOL     OW27175   3.389   1.819   9.505 -0.5851 -0.1307  0.0101
 5181SOL    HW127176   3.479   1.808   9.535 -0.5828 -0.6030 -0.1689
 5181SOL    HW227177   3.386   1.914   9.513  0.4582  0.0511 -1.6999
 5182SOL     OW27178   2.396   2.851   9.022  0.4204  0.1197 -0.0322
 5182SOL    HW127179   2.446   2.891   9.093 -2.0059 -0.0101  1.7447
 5182SOL    HW227180   2.378   2.768   9.066  0.5934  0.7702  1.2850
 5183SOL     OW27181   4.342   3.102   7.207  0.0457  0.2944 -0.1983
 5183SOL    HW127182   4.426   3.147   7.196 -0.9937  2.3839  0.2850
 5183SOL    HW227183   4.309   3.103   7.117 -1.0117  3.2091  0.2235
 5184SOL     OW27184   1.733   3.904   9.421 -0.2891 -0.1121  0.8822
 5184SOL    HW127185   1.651   3.854   9.426 -0.2459 -0.5353 -2.8863
 5184SOL    HW227186   1.768   3.901   9.510 -2.2624 -3.1826  1.5765
 5185SOL     OW27187   1.286   4.713   6.719 -0.2888  0.0885  1.2589
 5185SOL    HW127188   1.192   4.706   6.734 -0.4037  0.7944  0.8682
 5185SOL    HW227189   1.314   4.644   6.779 -0.6552 -1.4378 -0.3434
 5186SOL     OW27190   4.694   1.999   8.123 -0.0144  0.2774 -0.3347
 5186SOL    HW127191   4.652   1.913   8.129  1.8245 -0.5814  0.0745
 5186SOL    HW227192   4.640   2.038   8.192  0.7883  3.5058 -1.5445
 5187SOL     OW27193   0.918   0.081  15.391 -0.2197 -0.2797  0.1813
 5187SOL    HW127194   1.008   0.052  15.375 -0.1719 -0.3182  0.5326
 5187SOL    HW227195   0.917   0.140  15.315 -1.3660  0.0862  0.4760
 5188SOL     OW27196   3.404   1.522  15.390  0.0320  0.2744  0.0392
 5188SOL    HW127197   3.455   1.556  15.463  1.5674 -0.8978 -0.4905
 5188SOL    HW227198   3.331   1.493  15.446  1.3492  1.4168  2.3553
 5189SOL     OW27199   0.916   0.378  14.974  0.2409 -0.0653 -0.0748
 5189SOL    HW127200   0.851   0.438  15.011 -0.3024  0.8988 -2.6097
 5189SOL    HW227201   0.937   0.326  15.052  0.8041  1.6649  0.9354
 5190SOL     OW27202   0.127   3.917  14.835  0.4006 -0.1324 -0.2351
 5190SOL    HW127203   0.109   3.834  14.877 -1.1490  0.5318  0.4018
 5190SOL    HW227204   0.107   3.888  14.746 -1.7670  1.9530 -0.4245
 5191SOL     OW27205   0.790   3.920   4.798 -0.7116 -0.3353 -0.1828
 5191SOL    HW127206   0.885   3.933   4.798 -0.7364 -0.1518 -1.4602
 5191SOL    HW227207   0.784   3.829   4.828  1.2426 -0.7020 -0.8947
 5192SOL     OW27208   2.023   3.679  12.908  0.1660 -0.3684 -0.0268
 5192SOL    HW127209   1.994   3.588  12.913 -0.5488 -0.2085 -1.2200
 5192SOL    HW227210   2.072   3.687  12.826  1.2811  1.7384  0.8540
 5193SOL     OW27211   2.362   1.999   8.851  0.3006 -0.8427 -0.5773
 5193SOL    HW127212   2.311   1.962   8.779 -1.0087  1.7667 -0.9862
 5193SOL    HW227213   2.433   1.935   8.859 -0.4013 -1.8792 -2.9405
 5194SOL     OW27214   3.098   0.825   7.737  0.1662 -0.1156 -0.5944
 5194SOL    HW127215   3.160   0.819   7.664 -1.4395 -2.2793 -1.7663
 5194SOL    HW227216   3.128   0.902   7.785 -1.0517 -1.4795  2.3461
 5195SOL     OW27217   3.953   3.101   0.377 -0.2811  0.0630 -0.0924
 5195SOL    HW127218   4.001   3.115   0.295  0.3464 -1.5411 -0.0095
 5195SOL    HW227219   3.946   3.191   0.407  1.7753  0.4486 -0.7328
 5196SOL     OW27220   0.546   3.143   1.596 -0.0021 -0.4731 -0.2046
 5196SOL    HW127221   0.554   3.186   1.681  2.2041  2.0350 -1.6768
 5196SOL    HW227222   0.484   3.196   1.545  0.3483 -0.2089 -0.3630
 5197SOL     OW27223   1.550   1.271  17.493 -0.3563  0.7914  0.6336
 5197SOL    HW127224   1.637   1.237  17.512 -0.7008  0.1585  1.0656
 5197SOL    HW227225   1.546   1.355  17.539  0.1938  1.0183  0.2623
 5198SOL     OW27226   0.558   4.153   0.442  0.2869 -0.0888 -0.2873
 5198SOL    HW127227   0.610   4.074   0.454 -1.0231 -1.1087 -1.3458
 5198SOL    HW227228   0.562   4.163   0.347  0.2300 -0.3636 -0.3204
 5199SOL     OW27229   4.426   1.069   4.753  0.3714 -0.0188  0.0030
 5199SOL    HW127230   4.470   1.043   4.834 -0.0596 -1.5274 -0.2473
 5199SOL    HW227231   4.479   1.146   4.735 -2.3848  1.6140 -1.1785
 5200SOL     OW27232   4.552   4.554   6.585 -0.7607 -0.1942  0.0265
 5200SOL    HW127233   4.618   4.491   6.558 -1.1106  0.9348 -3.4885
 5200SOL    HW227234   4.490   4.494   6.626  1.1524 -2.4252 -0.3661
 5201SOL     OW27235   2.063   2.841   2.801 -0.2472 -0.0661 -0.0236
 5201SOL    HW127236   2.087   2.844   2.708 -0.6143 -0.0201 -0.1169
 5201SOL    HW227237   1.972   2.871   2.798 -1.1472 -2.8788 -1.3111
 5202SOL     OW27238   3.784   1.060  13.961  0.1703  0.4155  0.0411
 5202SOL    HW127239   3.764   1.148  13.926  0.4038 -0.0585 -1.2851
 5202SOL    HW227240   3.878   1.064  13.978 -0.1534  1.2032  1.6900
 5203SOL     OW27241   2.697   4.215   6.474  0.4843 -0.0666  0.1359
 5203SOL    HW127242   2.664   4.254   6.554 -0.0240 -0.4965  0.1402
 5203SOL    HW227243   2.623   4.241   6.419  0.8711  0.0259 -0.3483
 5204SOL     OW27244   3.768   0.828  13.489  0.2147 -0.1393 -0.1283
 5204SOL    HW127245   3.794   0.860  13.402 -0.1033  1.3205  0.3097
 5204SOL    HW227246   3.821   0.881  13.548 -0.3136  1.6482 -1.2368
 5205SOL     OW27247   0.819   4.191   5.460 -0.2396  0.5061  0.3146
 5205SOL    HW127248   0.746   4.252   5.452 -0.5537  0.0679 -0.2351
 5205SOL    HW227249   0.824   4.171   5.366  1.0775 -2.1646  0.9714
 5206SOL     OW27250   0.593   2.040   8.160  0.4148  0.4708  0.1315
 5206SOL    HW127251   0.551   2.119   8.192  2.1609  1.8383 -0.9867
 5206SOL    HW227252   0.682   2.059   8.188  0.9087 -0.4827 -0.7912
 5207SOL     OW27253   1.826   3.271   6.305  0.0585  0.1352 -0.6939
 5207SOL    HW127254   1.810   3.277   6.399 -0.8653  1.3606 -0.9242
 5207SOL    HW227255   1.844   3.362   6.279 -0.5979  0.8137  1.2645
 5208SOL     OW27256   2.851   3.005   1.544 -0.6144 -0.3822  0.3740
 5208SOL    HW127257   2.789   3.059   1.593 -0.0197  1.1286 -0.5676
 5208SOL    HW227258   2.858   2.936   1.611 -0.2819 -1.9782 -1.3269
 5209SOL     OW27259   0.815   0.321   4.945  0.3456 -0.1391  0.3968
 5209SOL    HW127260   0.901   0.281   4.929 -0.6725 -1.9935 -0.4247
 5209SOL    HW227261   0.792   0.288   5.032  1.9469  0.9012  1.2132
 5210SOL     OW27262   4.711   0.906   4.201  0.2173  0.9924 -0.7859
 5210SOL    HW127263   4.697   0.915   4.295  0.6147 -1.7166 -0.4878
 5210SOL    HW227264   4.703   0.812   4.192 -0.1450  1.0229 -0.7702
 5211SOL     OW27265   0.142   4.528   7.121  0.4436 -0.3824  0.1214
 5211SOL    HW127266   0.060   4.568   7.150  1.4207  1.7189  0.0341
 5211SOL    HW227267   0.183   4.491   7.199 -0.3842 -0.0773  0.6939
 5212SOL     OW27268   1.664   2.921  11.273 -0.4972  0.4027  0.2652
 5212SOL    HW127269   1.590   2.868  11.301  1.1196 -1.9407  0.0325
 5212SOL    HW227270   1.642   2.941  11.182  0.3725  0.0042 -0.0292
 5213SOL     OW27271   3.680   3.720   3.933  0.3346  0.3829  0.4288
 5213SOL    HW127272   3.671   3.684   3.845  2.7919  0.7258  0.0573
 5213SOL    HW227273   3.677   3.646   3.993 -0.8831  1.1394  1.3224
 5214SOL     OW27274   2.556   2.933  13.019 -0.3138 -0.0721 -0.2358
 5214SOL    HW127275   2.480   2.882  12.992 -0.5791 -0.9827  2.2456
 5214SOL    HW227276   2.620   2.922  12.949  1.4300  0.4017  1.2781
 5215SOL     OW27277   4.582   4.541   3.629 -0.6498  0.2689  0.0498
 5215SOL    HW127278   4.539   4.456   3.626 -0.0236  0.0638 -2.9686
 5215SOL    HW227279   4.569   4.572   3.539  0.3131 -1.6151 -0.7236
 5216SOL     OW27280   0.137   2.029   5.817  0.2054  0.4283 -0.0212
 5216SOL    HW127281   0.169   1.944   5.785  3.2884  1.7153 -0.3295
 5216SOL    HW227282   0.075   2.036   5.745 -1.0747 -2.2247  0.8415
 5217SOL     OW27283   4.150   2.984   7.377 -0.2559  0.9280  0.3959
 5217SOL    HW127284   4.204   3.032   7.313 -0.4552 -0.0257 -0.4870
 5217SOL    HW227285   4.072   2.999   7.324  0.1360  3.0484  0.4082
 5218SOL     OW27286   1.161   2.558   8.142  0.3609 -0.5676 -0.6661
 5218SOL    HW127287   1.177   2.469   8.111  0.9492  0.2005 -2.5780
 5218SOL    HW227288   1.067   2.563   8.124  0.2654  2.0533  0.5583
 5219SOL     OW27289   2.439   2.334   0.444  0.0418 -0.0880  0.2113
 5219SOL    HW127290   2.444   2.239   0.452 -0.4748 -0.0226  1.3611
 5219SOL    HW227291   2.447   2.348   0.350 -2.8903  1.9675  0.2606
 5220SOL     OW27292   2.215   2.672   1.571 -0.4592  0.0238 -0.7032
 5220SOL    HW127293   2.305   2.639   1.565 -0.3039  0.3268  0.1051
 5220SOL    HW227294   2.170   2.590   1.548 -0.4868  0.0682 -0.8092
 5221SOL     OW27295   0.319   4.398   1.602  0.2311  0.1486 -0.0622
 5221SOL    HW127296   0.364   4.336   1.660 -0.2772 -0.1492  0.0109
 5221SOL    HW227297   0.231   4.364   1.618  0.4605 -0.1198  0.6393
 5222SOL     OW27298   4.514   4.330  13.663  0.7048  0.0975 -0.2459
 5222SOL    HW127299   4.480   4.262  13.722  1.5187 -0.6557 -0.6536
 5222SOL    HW227300   4.605   4.300  13.657  1.0513  1.2209 -0.6485
 5223SOL     OW27301   3.519   1.927   8.939  0.6057  0.6134  0.6218
 5223SOL    HW127302   3.586   1.861   8.924  0.7360  0.4373  1.9647
 5223SOL    HW227303   3.522   1.926   9.035 -0.7596  1.1707  0.6640
 5224SOL     OW27304   0.507   1.923  17.188 -0.0389  0.3126  0.1254
 5224SOL    HW127305   0.464   1.941  17.271  1.2996  0.0900  0.8573
 5224SOL    HW227306   0.595   1.906  17.223 -0.2478  0.4391  0.7026
 5225SOL     OW27307   2.179   4.661   2.435  0.0577 -0.0962  0.0120
 5225SOL    HW127308   2.155   4.571   2.457  0.8399  0.1704  1.9388
 5225SOL    HW227309   2.108   4.686   2.376 -1.9487  1.9453  3.3017
 5226SOL     OW27310   1.319   3.724  11.856  0.1943 -0.0974  0.2526
 5226SOL    HW127311   1.303   3.653  11.918  0.4409 -1.4234 -1.1914
 5226SOL    HW227312   1.396   3.693  11.807  0.9062  0.6925  0.8770
 5227SOL     OW27313   0.221   4.294   7.843  0.5390 -0.0590 -0.1773
 5227SOL    HW127314   0.175   4.247   7.913  0.8446  0.3306  0.2853
 5227SOL    HW227315   0.257   4.368   7.892 -3.9787  2.0764 -0.0596
 5228SOL     OW27316   0.666   2.374  14.178  0.4685  0.0904 -0.3706
 5228SOL    HW127317   0.618   2.294  14.161  1.7320 -0.8626  0.5423
 5228SOL    HW227318   0.754   2.349  14.206  0.2742 -0.7313 -0.5130
 5229SOL     OW27319   2.096   2.740  17.109  0.4441  0.5015  0.3414
 5229SOL    HW127320   2.024   2.796  17.138 -1.7061 -3.0770  1.9745
 5229SOL    HW227321   2.125   2.704  17.193 -0.3743 -2.4779 -0.6320
 5230SOL     OW27322   1.562   2.400   7.865 -0.0037  0.1465  0.2777
 5230SOL    HW127323   1.613   2.479   7.843  1.9129 -0.3147  3.1927
 5230SOL    HW227324   1.583   2.398   7.958 -0.3695  0.2859  0.3614
 5231SOL     OW27325   2.061   2.613   8.714 -0.3652 -0.5316 -0.0675
 5231SOL    HW127326   2.151   2.610   8.748 -1.2898 -3.5799  2.0869
 5231SOL    HW227327   2.067   2.681   8.646  0.1438  0.4483  0.9451
 5232SOL     OW27328   4.454   0.403   2.041 -0.5122  0.0369  0.1051
 5232SOL    HW127329   4.394   0.338   2.077  2.3443 -1.7294  1.5826
 5232SOL    HW227330   4.411   0.488   2.057  0.3767  0.8069 -1.6430
 5233SOL     OW27331   3.027   0.395   4.871  0.8153  0.2566  0.3975
 5233SOL    HW127332   3.048   0.374   4.962  0.1447 -1.4518  0.1665
 5233SOL    HW227333   3.096   0.353   4.819 -0.9888 -2.3338  0.0747
 5234SOL     OW27334   4.695   2.379   4.615 -0.7481 -0.9817 -0.0653
 5234SOL    HW127335   0.010   2.354   4.694  2.3792  1.3694 -1.2583
 5234SOL    HW227336   4.705   2.473   4.625 -1.7003 -0.9526  0.6594
 5235SOL     OW27337   2.353   0.083   7.216  0.0767  0.2421  0.2335
 5235SOL    HW127338   2.381   0.171   7.244 -1.2837  1.1330 -1.2456
 5235SOL    HW227339   2.375   0.102   7.125 -1.9172 -0.1370 -0.3170
 5236SOL     OW27340   4.067   0.213   5.560  0.2122 -0.5702 -0.4554
 5236SOL    HW127341   4.017   0.146   5.514  0.5767 -1.5041  0.5159
 5236SOL    HW227342   4.046   0.191   5.651 -2.0803  1.7218 -0.4229
 5237SOL     OW27343   3.740   4.248   4.590 -0.3990 -0.1355  0.1595
 5237SOL    HW127344   3.701   4.164   4.617 -0.8160  0.5378  1.6769
 5237SOL    HW227345   3.777   4.234   4.503 -0.1163 -1.7967  0.5482
 5238SOL     OW27346   0.424   0.945   4.432  0.0363 -0.3765  0.4485
 5238SOL    HW127347   0.433   0.894   4.513 -0.8582  1.4381  1.6855
 5238SOL    HW227348   0.330   0.960   4.430 -0.0476 -0.9372  0.1095
 5239SOL     OW27349   0.221   1.244   3.949  0.0024  0.2596 -0.6114
 5239SOL    HW127350   0.173   1.161   3.944  1.8304 -0.8863  0.9677
 5239SOL    HW227351   0.157   1.296   3.901 -0.5185 -1.4777 -1.8104
 5240SOL     OW27352   4.031   0.265   9.978  0.2777  0.0387  0.0521
 5240SOL    HW127353   4.005   0.303  10.062 -0.2216 -3.7744  1.6014
 5240SOL    HW227354   4.096   0.202  10.009 -2.7740 -1.5666  3.1627
 5241SOL     OW27355   1.942   0.432   4.108  0.0290  0.0735  0.0447
 5241SOL    HW127356   1.849   0.419   4.128 -0.2724  0.1725 -1.2892
 5241SOL    HW227357   1.972   0.496   4.173  2.0813  0.2491 -1.0838
 5242SOL     OW27358   4.394   0.512  14.543 -0.3157  0.1622  0.5363
 5242SOL    HW127359   4.488   0.523  14.555 -0.0861  0.2264 -1.3142
 5242SOL    HW227360   4.363   0.599  14.516  1.4989  0.2676 -1.2545
 5243SOL     OW27361   1.029   3.092   4.125 -0.3810  0.0402 -0.3295
 5243SOL    HW127362   0.935   3.112   4.124 -0.0549  1.6749  0.3167
 5243SOL    HW227363   1.052   3.154   4.055 -1.7654  2.8780  1.7310
 5244SOL     OW27364   0.027   4.111   0.562  0.2041 -0.1489  0.0123
 5244SOL    HW127365   4.700   4.050   0.522  0.8331 -0.4468 -0.4883
 5244SOL    HW227366   0.016   4.192   0.512 -2.6986 -0.9191 -0.6049
 5245SOL     OW27367   3.279   1.889   7.766  0.0595 -0.5323  0.0100
 5245SOL    HW127368   3.224   1.841   7.829  0.3073  0.7439  1.1866
 5245SOL    HW227369   3.230   1.895   7.684  1.9344 -0.0717 -1.0606
 5246SOL     OW27370   0.378   2.230   6.730 -0.3336 -0.3976  0.2583
 5246SOL    HW127371   0.324   2.307   6.748 -1.2757 -1.0107  0.0840
 5246SOL    HW227372   0.433   2.269   6.662  1.1679 -0.5305  1.3889
 5247SOL     OW27373   3.697   2.221  15.584  0.6024  0.3961 -0.9650
 5247SOL    HW127374   3.757   2.256  15.651 -1.5077  1.9071  0.1282
 5247SOL    HW227375   3.618   2.270  15.605  2.5162  2.5389  1.2715
 5248SOL     OW27376   1.692   2.438   8.584 -0.4048 -0.4756 -0.4500
 5248SOL    HW127377   1.681   2.482   8.500  1.4417  1.3482  0.2694
 5248SOL    HW227378   1.604   2.441   8.622 -0.5796 -1.9226 -0.7356
 5249SOL     OW27379   2.710   0.457   2.869  0.1320 -0.3512 -1.1668
 5249SOL    HW127380   2.748   0.539   2.899 -0.2749 -0.5565 -0.0855
 5249SOL    HW227381   2.641   0.444   2.935  0.4787  3.4430 -0.0964
 5250SOL     OW27382   4.628   2.983  11.462 -0.0819  0.1520 -0.0482
 5250SOL    HW127383   4.688   3.010  11.531 -0.5650 -0.3608  0.5704
 5250SOL    HW227384   4.658   2.894  11.444 -0.9951 -0.2154  0.2226
 5251SOL     OW27385   1.950   1.082   7.475 -0.0598 -0.4590  0.5744
 5251SOL    HW127386   1.958   1.090   7.380 -2.3766  3.4000  0.7178
 5251SOL    HW227387   1.978   0.990   7.478 -2.3521 -1.1478  0.4325
 5252SOL     OW27388   4.169   3.538  15.400  0.0275 -0.0327  0.2171
 5252SOL    HW127389   4.208   3.548  15.486  0.6909  3.5462 -0.4823
 5252SOL    HW227390   4.176   3.628  15.368  0.3810 -0.5929 -1.2698
 5253SOL     OW27391   3.132   0.271  10.361 -0.6169 -0.1143 -0.0302
 5253SOL    HW127392   3.179   0.189  10.378 -3.3088 -1.8410 -0.8055
 5253SOL    HW227393   3.043   0.238  10.378  0.9544 -2.9523  2.8350
 5254SOL     OW27394   2.197   2.040   2.951 -0.2892  0.1959 -0.3434
 5254SOL    HW127395   2.182   1.994   2.868  0.5123  1.7066 -1.3163
 5254SOL    HW227396   2.181   2.132   2.932 -1.1475 -0.4927 -2.9436
 5255SOL     OW27397   1.985   3.114  16.957  0.3157 -0.0786 -1.0341
 5255SOL    HW127398   2.003   3.032  16.910  1.0945 -0.3739 -0.2257
 5255SOL    HW227399   1.902   3.092  16.999  0.6846  0.0669 -0.2397
 5256SOL     OW27400   3.102   1.176   4.570 -0.8660 -0.1498 -0.3055
 5256SOL    HW127401   3.189   1.204   4.543 -1.0627  0.0443 -0.7301
 5256SOL    HW227402   3.050   1.256   4.567 -0.9536 -0.3059 -2.6095
 5257SOL     OW27403   3.916   2.991  17.167 -0.0120  0.3823  0.5261
 5257SOL    HW127404   3.858   3.039  17.107  0.6675  1.5610  0.7985
 5257SOL    HW227405   3.870   2.909  17.183 -2.7309  1.6184 -0.9842
 5258SOL     OW27406   0.599   2.066   3.496  0.3055  0.5317 -0.7995
 5258SOL    HW127407   0.613   2.012   3.418  0.3191 -1.2710  0.4563
 5258SOL    HW227408   0.685   2.106   3.511 -0.5928  1.5481  1.5878
 5259SOL     OW27409   2.071   4.011   9.428 -0.3571  0.4442  0.0020
 5259SOL    HW127410   2.049   3.938   9.485  0.1886 -1.5556 -2.3596
 5259SOL    HW227411   2.144   3.978   9.377 -2.4731 -1.8078 -1.5709
 5260SOL     OW27412   0.001   0.402   8.369  0.1257  0.0999  0.1981
 5260SOL    HW127413   4.646   0.405   8.402  0.3115 -0.0038  0.7096
 5260SOL    HW227414   0.005   0.487   8.324  0.2717  0.4652  0.9050
 5261SOL     OW27415   3.383   2.122   3.707 -0.0285  0.2220 -0.0854
 5261SOL    HW127416   3.383   2.151   3.798 -2.6053  0.0282 -0.0211
 5261SOL    HW227417   3.302   2.155   3.669 -0.1771 -0.0466 -0.0017
 5262SOL     OW27418   2.266   3.535  13.812  0.5120 -0.2323 -0.2441
 5262SOL    HW127419   2.252   3.617  13.860  0.2259 -0.5834  0.2624
 5262SOL    HW227420   2.263   3.573  13.724 -3.1345  0.5939  0.2363
 5263SOL     OW27421   3.588   0.917  15.522 -0.1313  0.1513 -0.4686
 5263SOL    HW127422   3.551   1.005  15.533  1.0736  0.5793  0.2308
 5263SOL    HW227423   3.677   0.949  15.506 -0.3811  0.4241 -1.3034
 5264SOL     OW27424   1.477   2.662   6.511  0.4403 -0.0209 -0.3975
 5264SOL    HW127425   1.500   2.663   6.418 -1.1817  0.9216 -0.7936
 5264SOL    HW227426   1.458   2.569   6.521  0.7626 -0.0145  0.2547
 5265SOL     OW27427   4.442   0.928   7.494  0.4577 -0.3793 -0.3348
 5265SOL    HW127428   4.470   0.943   7.585 -0.9341 -1.9175  0.3465
 5265SOL    HW227429   4.496   0.851   7.476  0.9439 -0.0194 -0.4185
 5266SOL     OW27430   2.484   3.547   9.628  0.2238  0.0840  0.1587
 5266SOL    HW127431   2.550   3.616   9.619 -0.9681  1.4507  1.9234
 5266SOL    HW227432   2.462   3.568   9.719 -2.7023 -0.6375 -0.3836
 5267SOL     OW27433   3.804   3.940  16.781  0.1371 -0.4238 -0.2069
 5267SOL    HW127434   3.885   3.946  16.833 -1.5678  4.3824  1.8699
 5267SOL    HW227435   3.791   3.846  16.795  1.8705 -0.7256 -0.6348
 5268SOL     OW27436   4.127   1.062   5.728  0.3654  0.5837  0.0152
 5268SOL    HW127437   4.104   1.024   5.813  1.3665  0.6147  0.2942
 5268SOL    HW227438   4.165   1.146   5.753  1.0559 -0.0158  0.9781
 5269SOL     OW27439   1.624   3.498   6.058 -0.1268 -0.1637 -0.1019
 5269SOL    HW127440   1.571   3.457   6.126 -0.9582 -0.6738 -1.0713
 5269SOL    HW227441   1.698   3.532   6.109  1.2290 -0.4311 -1.8483
 5270SOL     OW27442   1.938   4.105  10.216  0.1609  0.0976  0.5563
 5270SOL    HW127443   1.847   4.130  10.230  0.5218  0.9278  1.4396
 5270SOL    HW227444   1.929   4.084  10.123  1.0863 -1.4831  0.8264
 5271SOL     OW27445   0.308   0.356   4.833  0.0156  0.0796 -0.7380
 5271SOL    HW127446   0.329   0.281   4.778 -0.2254 -0.2226 -0.4181
 5271SOL    HW227447   0.287   0.424   4.769  1.1538  1.4072  0.2929
 5272SOL     OW27448   3.333   2.996   6.714 -0.0859  0.0746 -0.6310
 5272SOL    HW127449   3.322   2.955   6.629 -1.5163  0.5495 -0.6772
 5272SOL    HW227450   3.385   2.939   6.771 -1.0877 -0.0985  0.1232
 5273SOL     OW27451   3.417   0.741  11.582  0.0128 -0.2627 -0.0801
 5273SOL    HW127452   3.497   0.694  11.561  1.1456  1.9790 -0.7607
 5273SOL    HW227453   3.348   0.674  11.578 -0.2951 -0.0356  1.5193
 5274SOL     OW27454   3.395   3.203   4.364 -0.2866  0.2479  0.1981
 5274SOL    HW127455   3.437   3.286   4.344  0.2776 -0.0889 -0.0020
 5274SOL    HW227456   3.477   3.156   4.377  1.0749  2.0634 -1.9815
 5275SOL     OW27457   3.588   4.553   1.900 -0.4465 -0.0330 -0.1306
 5275SOL    HW127458   3.575   4.538   1.994 -0.0711  0.4643 -0.0006
 5275SOL    HW227459   3.580   4.463   1.866 -0.9609 -0.5002  1.2176
 5276SOL     OW27460   2.283   3.309   7.299  0.6248  0.7394 -0.0983
 5276SOL    HW127461   2.350   3.247   7.270  3.1213  2.0537  2.8978
 5276SOL    HW227462   2.261   3.329   7.208 -0.0903  1.5401  0.2550
 5277SOL     OW27463   4.126   0.185   2.656 -0.3213  0.2818  0.4038
 5277SOL    HW127464   4.154   0.244   2.725 -1.4673 -0.8366  1.8136
 5277SOL    HW227465   4.042   0.229   2.644 -0.0625  0.9109  0.9073
 5278SOL     OW27466   0.757   0.078   7.680 -0.4048  0.8850  0.4193
 5278SOL    HW127467   0.815   0.105   7.752  1.1726  1.0791 -0.9172
 5278SOL    HW227468   0.816   0.087   7.604  1.1823 -0.4905  1.4956
 5279SOL     OW27469   4.427   4.611   8.151  0.0084  0.4998  0.1717
 5279SOL    HW127470   4.396   4.657   8.073  0.5490 -1.3810 -1.1555
 5279SOL    HW227471   4.487   4.680   8.182 -0.1754  0.9642 -0.5152
 5280SOL     OW27472   2.495   2.277  12.762 -1.0784  0.2286 -0.1600
 5280SOL    HW127473   2.484   2.354  12.819  0.9579 -0.5618  1.3018
 5280SOL    HW227474   2.547   2.307  12.687  0.3097  0.3637  0.8525
 5281SOL     OW27475   2.579   4.366   4.393 -0.2520  0.1757 -0.3024
 5281SOL    HW127476   2.554   4.333   4.307  1.2311 -0.5099 -0.4655
 5281SOL    HW227477   2.492   4.356   4.430 -0.0744 -1.3831 -0.2976
 5282SOL     OW27478   1.404   3.922   5.170  0.0127 -0.4078 -1.0359
 5282SOL    HW127479   1.490   3.963   5.159  0.1866 -0.2325  0.8985
 5282SOL    HW227480   1.404   3.907   5.265 -0.4937 -0.2256 -1.0063
 5283SOL     OW27481   0.982   1.695  15.599  0.3901 -0.1684  0.5949
 5283SOL    HW127482   0.974   1.747  15.680 -0.4679  0.4060  0.1484
 5283SOL    HW227483   0.939   1.751  15.534  1.9270 -1.0203 -1.1505
 5284SOL     OW27484   0.308   3.956   8.258 -0.1381 -0.0784 -0.0525
 5284SOL    HW127485   0.382   3.899   8.276 -2.3414 -4.4160 -4.6605
 5284SOL    HW227486   0.329   4.036   8.307  0.1260 -2.5609  3.7968
 5285SOL     OW27487   4.201   0.390   2.803  0.0474  0.0717  0.3675
 5285SOL    HW127488   4.241   0.458   2.748  1.8834 -2.2023 -1.1807
 5285SOL    HW227489   4.178   0.435   2.884 -0.5697 -1.8503  1.2711
 5286SOL     OW27490   0.127   2.238   6.917 -0.1078  0.0898  0.0509
 5286SOL    HW127491   0.045   2.207   6.956 -0.2900 -0.1365 -0.4990
 5286SOL    HW227492   0.150   2.165   6.859  1.0788  2.2492 -2.2198
 5287SOL     OW27493   2.381   4.682  11.697 -0.1101 -0.7147  0.0216
 5287SOL    HW127494   2.443   4.624  11.654  0.3805 -2.2151  2.7503
 5287SOL    HW227495   2.385   0.028  11.644 -0.5269 -0.9357 -0.3405
 5288SOL     OW27496   4.502   3.718   9.259 -0.3038  0.0871 -0.3895
 5288SOL    HW127497   4.424   3.749   9.213  0.6352  0.1384 -1.9495
 5288SOL    HW227498   4.494   3.745   9.350  0.0273  2.2590 -1.0109
 5289SOL     OW27499   0.895   0.428   2.185 -0.3805  0.1158  0.0691
 5289SOL    HW127500   0.893   0.468   2.098 -1.9893 -0.2078 -0.0277
 5289SOL    HW227501   0.916   0.342   2.148  2.0647  0.1182  1.4534
 5290SOL     OW27502   3.939   2.311  11.551 -0.1158 -0.3377 -0.0979
 5290SOL    HW127503   3.979   2.231  11.586  1.8727  0.8996  0.4544
 5290SOL    HW227504   3.999   2.341  11.483  2.2416 -1.0677  1.6551
 5291SOL     OW27505   0.556   4.212   3.371  0.1239 -0.0388 -0.1361
 5291SOL    HW127506   0.475   4.237   3.326  0.6685  0.7790 -0.6709
 5291SOL    HW227507   0.601   4.295   3.354  0.9011 -0.5466 -0.5765
 5292SOL     OW27508   2.762   1.990   3.130 -0.1794 -0.4111  0.2577
 5292SOL    HW127509   2.811   2.060   3.173 -1.7061  1.4554 -1.0675
 5292SOL    HW227510   2.754   2.035   3.046  0.1081 -0.5064  0.1789
 5293SOL     OW27511   4.632   1.999   2.757  0.2055  0.2498  0.1020
 5293SOL    HW127512   4.686   2.016   2.680  0.5577  0.2427  0.3422
 5293SOL    HW227513   4.654   2.080   2.804 -0.6005  0.5742 -0.0860
 5294SOL     OW27514   2.386   1.443   8.139 -0.2700 -0.4425  0.3815
 5294SOL    HW127515   2.392   1.463   8.046  1.2820 -0.3670  0.5016
 5294SOL    HW227516   2.371   1.349   8.154 -0.1923 -0.2833  1.4830
 5295SOL     OW27517   2.143   2.584  14.086 -0.9196 -0.8841  0.5737
 5295SOL    HW127518   2.234   2.561  14.105 -0.3771  0.5938 -0.2560
 5295SOL    HW227519   2.153   2.649  14.017 -0.9041 -0.6681  0.7785
 5296SOL     OW27520   3.837   2.323   2.300  0.5001 -0.3962 -0.3622
 5296SOL    HW127521   3.862   2.233   2.279 -0.5019 -1.1620  1.7016
 5296SOL    HW227522   3.745   2.297   2.301  0.5233 -0.5286 -1.4010
 5297SOL     OW27523   3.894   3.724   2.037 -0.3830  0.1672  0.2007
 5297SOL    HW127524   3.846   3.678   1.968 -0.5134 -0.8379  0.9579
 5297SOL    HW227525   3.951   3.784   1.989 -1.2846  2.5079  2.1018
 5298SOL     OW27526   2.575   2.459   4.703  1.2574  0.4319  0.7178
 5298SOL    HW127527   2.538   2.397   4.766 -0.8317  1.5606  0.6266
 5298SOL    HW227528   2.559   2.538   4.755  0.2690  1.5149 -1.2246
 5299SOL     OW27529   1.718   3.732  13.210  0.3417  0.7478  0.3020
 5299SOL    HW127530   1.624   3.738  13.224  0.0136  0.2448 -1.8165
 5299SOL    HW227531   1.713   3.726  13.115 -0.3191 -0.6333  0.4224
 5300SOL     OW27532   2.490   1.684   2.255 -0.1996  0.1084 -0.1446
 5300SOL    HW127533   2.530   1.602   2.224 -1.4056  0.3308 -2.2940
 5300SOL    HW227534   2.556   1.746   2.226  0.9866 -0.5183  1.2167
 5301SOL     OW27535   2.826   1.439   8.275 -0.0548 -0.6136  0.1214
 5301SOL    HW127536   2.852   1.460   8.185 -1.7872 -1.8316 -0.6736
 5301SOL    HW227537   2.738   1.476   8.275  0.3267  0.2834  0.2886
 5302SOL     OW27538   1.240   2.109   7.540  0.0246 -0.1728 -0.2481
 5302SOL    HW127539   1.273   2.176   7.600  0.7289  0.2410 -1.0956
 5302SOL    HW227540   1.146   2.126   7.550  0.0936 -0.4335  0.7958
 5303SOL     OW27541   3.472   2.595   6.376  0.1706  0.2139 -0.0987
 5303SOL    HW127542   3.475   2.500   6.385  0.1557  0.3803  1.6806
 5303SOL    HW227543   3.405   2.612   6.442 -0.5263  3.4287 -1.6285
 5304SOL     OW27544   4.378   2.157   7.589  0.1513  0.1745  0.2174
 5304SOL    HW127545   4.456   2.157   7.534 -1.0127  1.2291 -1.4457
 5304SOL    HW227546   4.416   2.102   7.658 -1.8980  1.9506  2.7486
 5305SOL     OW27547   1.510   3.271  15.818  0.1594 -0.4158  0.1202
 5305SOL    HW127548   1.473   3.196  15.772  0.1677 -1.0676  1.1973
 5305SOL    HW227549   1.522   3.330  15.743 -2.2526  0.0933  0.1513
 5306SOL     OW27550   1.522   3.264   0.081  0.4912  0.1523 -0.4717
 5306SOL    HW127551   1.483   3.180   0.058 -0.0109  0.7459 -1.7934
 5306SOL    HW227552   1.606   3.262   0.035  0.1589  2.9065 -1.2502
 5307SOL     OW27553   3.677   2.716   5.440 -0.5677  0.0451  0.4520
 5307SOL    HW127554   3.651   2.709   5.531  0.9311 -3.0984  0.6379
 5307SOL    HW227555   3.668   2.811   5.433 -1.2031  0.0163  0.9368
 5308SOL     OW27556   2.457   2.411  11.725 -0.2441 -0.0665 -0.5318
 5308SOL    HW127557   2.514   2.478  11.686  1.3023 -0.2321  1.4262
 5308SOL    HW227558   2.387   2.396  11.662 -1.0222  0.5436  0.1951
 5309SOL     OW27559   3.191   3.785   4.071 -0.4980  0.4460 -0.1081
 5309SOL    HW127560   3.265   3.828   4.029  0.0283 -1.3815 -1.0687
 5309SOL    HW227561   3.233   3.699   4.069 -1.7011 -0.1422 -0.0018
 5310SOL     OW27562   3.755   1.622   3.450 -0.7869 -0.7814 -0.5958
 5310SOL    HW127563   3.724   1.710   3.431 -2.0740 -0.9354  0.8043
 5310SOL    HW227564   3.800   1.646   3.531 -0.6856  1.4709 -1.3155
 5311SOL     OW27565   4.404   1.397   3.513  0.3323 -0.3050  0.6406
 5311SOL    HW127566   4.422   1.477   3.563  0.5213 -0.1487  0.3258
 5311SOL    HW227567   4.394   1.440   3.428  2.6018 -1.0888 -0.0186
 5312SOL     OW27568   2.586   2.589   4.345  0.2948 -0.1148 -0.1650
 5312SOL    HW127569   2.682   2.589   4.339  0.2572  1.2662 -0.8031
 5312SOL    HW227570   2.567   2.650   4.273 -1.0617  2.1122  2.0995
 5313SOL     OW27571   1.890   3.174   7.613  0.2584 -0.7121 -0.2844
 5313SOL    HW127572   1.944   3.096   7.620 -0.2431 -0.8144  2.4414
 5313SOL    HW227573   1.843   3.141   7.538  2.0067 -2.1212 -0.7536
 5314SOL     OW27574   2.000   2.342   5.871  0.4958  0.5765 -0.1031
 5314SOL    HW127575   2.053   2.403   5.820 -1.4895  2.0755 -0.3576
 5314SOL    HW227576   1.977   2.282   5.800  1.3563 -0.1479  0.2359
 5315SOL     OW27577   1.728   4.533   5.390 -0.0466  0.5953 -0.5240
 5315SOL    HW127578   1.688   4.612   5.427 -1.7107 -0.1128 -0.7900
 5315SOL    HW227579   1.712   4.472   5.462 -1.7714  2.5150  0.7302
 5316SOL     OW27580   3.878   2.851   2.334 -0.7042 -0.0308 -0.6008
 5316SOL    HW127581   3.916   2.819   2.416  0.5064  2.8914 -0.0332
 5316SOL    HW227582   3.894   2.781   2.271 -0.1375  1.0085 -1.6066
 5317SOL     OW27583   1.280   4.311   9.156 -0.1095 -0.5049  0.9203
 5317SOL    HW127584   1.289   4.227   9.201 -1.3411 -0.9712  0.2839
 5317SOL    HW227585   1.186   4.326   9.153 -0.0045  0.4069  2.2435
 5318SOL     OW27586   3.847   0.841  13.248  0.1994 -0.0418 -0.5311
 5318SOL    HW127587   3.921   0.798  13.205 -1.2443 -2.6184 -0.3978
 5318SOL    HW227588   3.799   0.872  13.171  1.2383 -0.3594 -1.3121
 5319SOL     OW27589   1.210   1.794   2.992  0.0560  0.4684  0.4719
 5319SOL    HW127590   1.273   1.847   2.943  0.6563  0.1429  0.8961
 5319SOL    HW227591   1.272   1.728   3.022 -0.5051 -1.0406 -1.6429
 5320SOL     OW27592   0.982   4.653   3.832  0.7606  0.0808  0.3123
 5320SOL    HW127593   0.991   4.611   3.746  1.2332 -0.2643  0.5275
 5320SOL    HW227594   0.891   4.683   3.829  0.3931 -1.1858 -1.3525
 5321SOL     OW27595   2.604   3.985   8.143  0.1942  0.4907  0.0715
 5321SOL    HW127596   2.537   3.932   8.186  0.0188 -0.2208 -1.0758
 5321SOL    HW227597   2.683   3.969   8.195  0.5346  2.3428  0.1426
 5322SOL     OW27598   1.427   1.148  12.323  0.0788 -0.4220 -0.1137
 5322SOL    HW127599   1.459   1.203  12.395 -0.0698 -1.8640  1.0622
 5322SOL    HW227600   1.495   1.083  12.335 -0.5027 -0.5735  2.5024
 5323SOL     OW27601   0.512   4.650   2.785 -0.3322  0.0559 -0.2142
 5323SOL    HW127602   0.607   4.641   2.787 -0.4211 -0.5324  0.7645
 5323SOL    HW227603   0.478   4.563   2.803 -0.4894 -0.0228 -0.8772
 5324SOL     OW27604   3.510   2.404   5.070  0.1903  0.1264 -0.0028
 5324SOL    HW127605   3.468   2.489   5.055  2.3225  1.0797 -0.4928
 5324SOL    HW227606   3.552   2.421   5.154 -1.4411 -1.9546  1.2547
 5325SOL     OW27607   1.054   4.132   3.274  0.0149 -0.0399 -0.4584
 5325SOL    HW127608   0.973   4.178   3.252 -1.6137 -2.2828  0.8856
 5325SOL    HW227609   1.104   4.210   3.300 -1.4046  0.2754  1.2888
 5326SOL     OW27610   0.143   1.672   2.720  0.3397 -0.8520  0.0605
 5326SOL    HW127611   0.220   1.690   2.773  0.2032 -3.3586  1.1466
 5326SOL    HW227612   0.106   1.599   2.770 -0.4474  0.4692  1.4067
 5327SOL     OW27613   1.197   0.587   9.387 -0.3241 -0.0804  0.5873
 5327SOL    HW127614   1.263   0.655   9.403  0.0083 -0.0723 -0.8318
 5327SOL    HW227615   1.129   0.600   9.453  0.7271 -0.7398  1.8279
 5328SOL     OW27616   0.341   2.917  17.102  0.7004  0.0207 -0.2292
 5328SOL    HW127617   0.419   2.883  17.146  0.3464 -0.0859  0.3133
 5328SOL    HW227618   0.327   3.006  17.134 -0.8733  0.3467 -1.8004
 5329SOL     OW27619   4.688   3.607   5.682 -0.7329  0.3064 -0.1019
 5329SOL    HW127620   0.039   3.647   5.668 -0.5345 -0.1795 -0.2947
 5329SOL    HW227621   4.691   3.530   5.624 -0.8015 -2.2338  3.2613
 5330SOL     OW27622   2.903   4.114   7.734 -0.2831  0.1816 -0.1875
 5330SOL    HW127623   2.870   4.141   7.820 -1.0553  0.4794 -0.5779
 5330SOL    HW227624   2.996   4.103   7.756 -0.0237  0.1506 -1.3356
 5331SOL     OW27625   0.974   3.923  15.674 -0.4418 -0.0744  0.2136
 5331SOL    HW127626   1.067   3.946  15.674 -0.7935  1.3666  1.7059
 5331SOL    HW227627   0.967   3.863  15.600 -1.1445  0.5514 -0.2243
 5332SOL     OW27628   2.342   0.376   7.120 -0.1374  0.4000 -0.1199
 5332SOL    HW127629   2.428   0.361   7.080 -0.4452  0.8479 -0.9675
 5332SOL    HW227630   2.291   0.392   7.040  1.3554 -0.7624 -1.2917
 5333SOL     OW27631   3.473   1.386   5.325  0.2486  0.7604  0.7294
 5333SOL    HW127632   3.496   1.296   5.302 -1.7503  0.4754 -0.1498
 5333SOL    HW227633   3.475   1.376   5.420  2.4304 -1.7512  0.4321
 5334SOL     OW27634   3.692   0.034   4.511 -0.1973 -0.8807 -0.2448
 5334SOL    HW127635   3.781   0.068   4.506 -0.2485 -0.6766  0.1788
 5334SOL    HW227636   3.660   0.070   4.594  0.0259 -0.4352 -0.3557
 5335SOL     OW27637   4.490   2.198  10.670 -0.1417  0.3230 -0.0599
 5335SOL    HW127638   4.545   2.125  10.698 -0.4941  0.2689  0.4946
 5335SOL    HW227639   4.535   2.271  10.711  1.9222 -0.3408 -1.1469
 5336SOL     OW27640   0.548   3.723   6.848 -0.4933 -0.0698 -0.4638
 5336SOL    HW127641   0.493   3.663   6.898 -0.1472  0.4792  0.5822
 5336SOL    HW227642   0.566   3.685   6.762 -0.4904  0.2185 -0.5916
 5337SOL     OW27643   3.150   0.672   3.425  0.1803 -0.0516 -0.1263
 5337SOL    HW127644   3.172   0.600   3.367 -0.8033 -1.9218  1.8264
 5337SOL    HW227645   3.236   0.687   3.463 -0.9742  0.5210  2.2851
 5338SOL     OW27646   2.535   2.783   4.153 -0.0385  0.8502  0.0693
 5338SOL    HW127647   2.468   2.843   4.186 -0.1002  1.5720 -1.3559
 5338SOL    HW227648   2.512   2.788   4.060  0.1356  0.9236  0.0314
 5339SOL     OW27649   1.199   2.505  17.527 -0.1376  0.2954  0.0761
 5339SOL    HW127650   1.225   2.435  17.587 -1.9758 -1.2802 -0.9686
 5339SOL    HW227651   1.195   2.455  17.446  0.6558  0.8690 -0.3169
 5340SOL     OW27652   1.688   3.287   7.797  0.4975 -0.5824  0.4014
 5340SOL    HW127653   1.617   3.315   7.739  0.8333 -2.1426 -0.7717
 5340SOL    HW227654   1.760   3.266   7.737  2.3087  2.9520  1.3252
 5341SOL     OW27655   1.049   4.201   9.065  0.0947 -0.0663 -0.5516
 5341SOL    HW127656   1.025   4.167   8.979 -0.8758  1.4434 -0.8721
 5341SOL    HW227657   1.012   4.127   9.112 -2.6438  0.9772 -1.0536
 5342SOL     OW27658   1.380   3.485   3.477  0.4377  0.2390  0.4767
 5342SOL    HW127659   1.329   3.509   3.399  1.0511  0.8319  0.2493
 5342SOL    HW227660   1.364   3.563   3.530  1.1401  1.7943 -1.5861
 5343SOL     OW27661   3.229   0.550   6.277 -0.0521  0.2567 -0.0180
 5343SOL    HW127662   3.243   0.549   6.182 -1.4710  1.1285 -0.2411
 5343SOL    HW227663   3.285   0.478   6.306  2.5469  0.9644 -3.3723
 5344SOL     OW27664   4.333   4.561   1.905 -0.1267 -0.1678 -0.4605
 5344SOL    HW127665   4.299   4.475   1.878  0.9330 -0.0743 -2.1034
 5344SOL    HW227666   4.299   4.620   1.837 -1.5773 -0.9211 -0.3965
 5345SOL     OW27667   3.322   2.024   7.021 -0.5504  0.0324  0.3602
 5345SOL    HW127668   3.303   2.052   7.111  0.2382  0.0932  0.5059
 5345SOL    HW227669   3.247   1.968   7.000 -1.3891  0.9685  0.8429
 5346SOL     OW27670   0.315   3.569  12.126 -0.4411 -0.5766  0.1948
 5346SOL    HW127671   0.389   3.626  12.145 -0.7909  0.2967 -1.0474
 5346SOL    HW227672   0.244   3.614  12.171 -0.7987 -0.2174 -0.7269
 5347SOL     OW27673   1.299   0.819   1.358 -0.0617  0.3975 -0.7478
 5347SOL    HW127674   1.373   0.762   1.375  1.0915  1.8506 -0.8833
 5347SOL    HW227675   1.254   0.775   1.286 -2.6699  2.5698 -0.4839
 5348SOL     OW27676   3.239   4.652   8.534  0.6477 -0.2009  0.3635
 5348SOL    HW127677   3.202   4.567   8.510 -0.0076 -0.2946  1.6719
 5348SOL    HW227678   3.174   4.692   8.591  2.3159 -0.2329  2.3086
 5349SOL     OW27679   4.139   0.458   3.057 -0.0750 -0.1760 -0.3642
 5349SOL    HW127680   4.074   0.392   3.079  0.0824 -0.0912  0.3864
 5349SOL    HW227681   4.213   0.421   3.104  0.7448  2.1531  0.2225
 5350SOL     OW27682   0.414   1.385  16.495 -0.3633  0.2905 -0.6781
 5350SOL    HW127683   0.327   1.344  16.496 -0.4674  0.4818 -2.4513
 5350SOL    HW227684   0.466   1.325  16.441  0.1119  1.0558 -1.0668
 5351SOL     OW27685   3.843   0.797   9.072 -0.2494  0.5984  0.3080
 5351SOL    HW127686   3.879   0.777   9.158 -0.6853  1.8738  0.7853
 5351SOL    HW227687   3.828   0.708   9.042 -0.0434 -0.5590  3.6135
 5352SOL     OW27688   1.326   1.268   7.058 -0.5632  0.2915 -0.2788
 5352SOL    HW127689   1.369   1.290   6.976 -1.1212  1.3962 -0.2883
 5352SOL    HW227690   1.253   1.218   7.021  1.1513 -1.1499 -1.7047
 5353SOL     OW27691   4.187   3.034   1.590 -0.3806  0.2121 -0.3146
 5353SOL    HW127692   4.184   3.118   1.636  2.0016  0.8789 -1.4036
 5353SOL    HW227693   4.138   2.978   1.651 -0.6509  1.5830  0.7246
 5354SOL     OW27694   2.413   0.463  12.672 -0.4327 -0.4199 -1.0210
 5354SOL    HW127695   2.366   0.485  12.752 -2.2862 -0.5960 -2.0450
 5354SOL    HW227696   2.455   0.378  12.687  0.2905  0.1902  0.4372
 5355SOL     OW27697   4.010   0.450  12.525 -0.9396 -0.1895 -0.5614
 5355SOL    HW127698   3.971   0.402  12.452 -1.6105 -0.8756  0.2455
 5355SOL    HW227699   4.063   0.512  12.476  0.9249  0.0999  1.8157
 5356SOL     OW27700   1.777   1.134  15.502  0.3126 -0.4254  0.3002
 5356SOL    HW127701   1.705   1.086  15.460 -1.0383  2.3265 -0.5031
 5356SOL    HW227702   1.845   1.141  15.435  0.4027 -1.0850  0.3267
 5357SOL     OW27703   0.038   1.420   7.643  0.2741  0.0132 -0.7538
 5357SOL    HW127704   4.710   1.350   7.665  1.4782 -0.2081  1.9730
 5357SOL    HW227705   4.723   1.501   7.658 -1.5305 -0.8395 -1.9334
 5358SOL     OW27706   4.064   1.280   3.754 -0.2223 -0.5630 -0.1808
 5358SOL    HW127707   4.040   1.333   3.678  1.1851  0.8029  0.3431
 5358SOL    HW227708   4.159   1.277   3.746 -0.3715  2.3817 -2.8895
 5359SOL     OW27709   1.988   1.478  13.635 -0.0631  0.4502 -0.4400
 5359SOL    HW127710   1.908   1.532  13.640 -0.2578  0.1873 -0.7367
 5359SOL    HW227711   1.949   1.392  13.623 -1.8725  1.2472 -0.3892
 5360SOL     OW27712   2.762   3.643   6.256 -0.4908 -0.1139  0.4493
 5360SOL    HW127713   2.727   3.672   6.171  2.0359  0.8256 -0.2954
 5360SOL    HW227714   2.736   3.552   6.247  0.9483 -0.2409 -2.6435
 5361SOL     OW27715   4.082   1.785  11.783 -0.1168  0.4145  0.4336
 5361SOL    HW127716   4.169   1.786  11.744 -0.8655  0.2532 -1.2342
 5361SOL    HW227717   4.113   1.800  11.872  1.0233 -1.2453  0.3026
 5362SOL     OW27718   2.843   0.529  12.426  0.2122  0.0660  0.3244
 5362SOL    HW127719   2.788   0.464  12.471 -3.0707  1.5663 -1.4976
 5362SOL    HW227720   2.873   0.582  12.500 -1.0125  1.3166 -0.0610
 5363SOL     OW27721   2.221   2.503   6.210 -0.0252  0.0449  0.3727
 5363SOL    HW127722   2.289   2.438   6.194  1.0429  1.5428 -1.1096
 5363SOL    HW227723   2.248   2.542   6.294 -0.4671  1.2711 -0.0524
 5364SOL     OW27724   2.937   3.556   2.131 -0.5830 -0.7598 -0.0146
 5364SOL    HW127725   2.990   3.559   2.051 -0.4426  0.7854  0.1331
 5364SOL    HW227726   2.912   3.465   2.121  0.1169 -0.8951 -0.5694
 5365SOL     OW27727   0.222   1.816  12.265  0.0429  0.0032 -0.0535
 5365SOL    HW127728   0.255   1.784  12.181  2.1834  0.9550  0.4188
 5365SOL    HW227729   0.246   1.909  12.258  0.7662  0.0257  2.7197
 5366SOL     OW27730   4.097   1.146   4.059 -0.0748 -0.0460 -0.0824
 5366SOL    HW127731   4.168   1.103   4.010  0.3540  1.0663 -0.4509
 5366SOL    HW227732   4.029   1.111   4.001 -2.6948 -0.5751  3.3320
 5367SOL     OW27733   3.836   1.761  10.262  0.1168 -0.6379 -0.1614
 5367SOL    HW127734   3.850   1.839  10.208  0.2268  0.7612  1.9007
 5367SOL    HW227735   3.826   1.688  10.200 -1.7494  0.0971 -0.7263
 5368SOL     OW27736   0.462   4.486   6.084 -0.3867  0.4238  0.0442
 5368SOL    HW127737   0.429   4.575   6.093 -1.9045 -0.4178  2.8283
 5368SOL    HW227738   0.389   4.431   6.114  0.0868 -1.8128 -2.8329
 5369SOL     OW27739   4.218   0.987   7.211 -0.3148  0.0158 -0.2260
 5369SOL    HW127740   4.123   0.985   7.214 -0.2490 -1.1380  0.8147
 5369SOL    HW227741   4.249   0.900   7.236 -1.8385  0.1571  2.0244
 5370SOL     OW27742   3.216   1.943   4.705 -0.1255  0.1132  0.2122
 5370SOL    HW127743   3.295   1.977   4.747 -1.6418  0.8140  2.5296
 5370SOL    HW227744   3.197   2.005   4.635 -0.3924 -1.9114 -1.4844
 5371SOL     OW27745   2.219   3.848   4.343  0.3134 -0.4113 -0.3835
 5371SOL    HW127746   2.220   3.806   4.257  1.0982  1.4006 -1.2509
 5371SOL    HW227747   2.132   3.888   4.341  1.0047  1.2358  2.7335
 5372SOL     OW27748   3.814   2.088   6.482  0.2576 -0.1829  0.1516
 5372SOL    HW127749   3.809   2.156   6.549 -2.0781  0.3571 -0.5733
 5372SOL    HW227750   3.806   2.139   6.402  2.0903 -0.8270 -0.4192
 5373SOL     OW27751   3.942   1.751   1.082  0.2122 -0.2817 -0.0831
 5373SOL    HW127752   3.968   1.717   1.168  1.2469 -0.7794 -0.5965
 5373SOL    HW227753   3.847   1.739   1.091 -0.2795  2.8756 -1.1282
 5374SOL     OW27754   1.787   3.579   2.985 -0.5375  0.4747 -0.1856
 5374SOL    HW127755   1.845   3.541   2.919 -0.7750 -0.3899  0.1053
 5374SOL    HW227756   1.815   3.669   2.998 -1.5519  1.1053 -2.3368
 5375SOL     OW27757   0.376   4.478  16.120 -0.3572  0.1333 -0.0887
 5375SOL    HW127758   0.353   4.545  16.054 -0.1931  2.6956  2.4631
 5375SOL    HW227759   0.358   4.531  16.197  1.5951 -1.5074  1.4792
 5376SOL     OW27760   3.192   2.042   5.052  0.1476 -0.0564  0.3170
 5376SOL    HW127761   3.244   2.118   5.027  0.4085 -0.1731  0.5084
 5376SOL    HW227762   3.109   2.086   5.071  0.6791  0.9217  0.3899
 5377SOL     OW27763   4.496   4.433   3.997 -0.0265  0.1919 -0.2278
 5377SOL    HW127764   4.567   4.370   3.983  0.3238  0.1353  1.8089
 5377SOL    HW227765   4.534   4.516   3.970  1.9417 -0.5710  0.2044
 5378SOL     OW27766   0.401   0.382   0.379  0.2567  0.1897  0.6283
 5378SOL    HW127767   0.396   0.469   0.420 -1.6985  0.0062  0.8185
 5378SOL    HW227768   0.479   0.343   0.417  0.3111  0.2144  0.5397
 5379SOL     OW27769   0.339   0.461   5.232  0.5155 -0.6071 -0.1107
 5379SOL    HW127770   0.248   0.430   5.238  0.5324 -0.4699  0.8671
 5379SOL    HW227771   0.352   0.521   5.307  0.5334 -0.7228 -0.0215
 5380SOL     OW27772   0.838   2.961   7.745  0.0993  0.1883  0.0741
 5380SOL    HW127773   0.771   2.973   7.813 -1.1681 -0.2945 -1.0867
 5380SOL    HW227774   0.872   3.049   7.730  0.1449  0.1028 -0.3138
 5381SOL     OW27775   0.393   1.633   1.639 -0.0062 -0.8855  0.4019
 5381SOL    HW127776   0.378   1.694   1.567  0.1486 -2.4957 -0.9640
 5381SOL    HW227777   0.403   1.548   1.597 -0.7322 -0.8887  0.2345
 5382SOL     OW27778   2.348   1.161  17.570 -0.1728  0.2401 -0.2489
 5382SOL    HW127779   2.335   1.229  17.636 -1.5994 -0.8830  0.5985
 5382SOL    HW227780   2.401   1.107  17.628  0.1857  0.6652 -0.1779
 5383SOL     OW27781   3.081   4.410   7.128  0.2801 -0.2740 -0.5804
 5383SOL    HW127782   3.029   4.485   7.098  0.5062 -0.4955 -1.5245
 5383SOL    HW227783   3.116   4.430   7.214 -0.4307  0.6940 -0.5108
 5384SOL     OW27784   1.106   0.006   7.731 -0.0635 -0.0413  0.1156
 5384SOL    HW127785   1.142   4.691   7.657 -1.3308 -0.1367 -0.4331
 5384SOL    HW227786   1.042   4.680   7.770  2.5754 -3.6208 -1.0318
 5385SOL     OW27787   0.104   2.934   6.303  0.2214 -0.1355  0.3642
 5385SOL    HW127788   0.136   2.981   6.226  0.4510 -2.5952 -1.0186
 5385SOL    HW227789   0.058   2.858   6.269  1.0109 -0.8435  0.8968
 5386SOL     OW27790   0.400   3.007  15.646 -0.2442  0.1933  0.6701
 5386SOL    HW127791   0.390   2.923  15.692 -1.6712 -0.0596 -0.1202
 5386SOL    HW227792   0.312   3.044  15.645 -0.6420 -0.8039 -1.8200
 5387SOL     OW27793   1.151   1.263   3.937  0.4064 -0.5117 -0.6331
 5387SOL    HW127794   1.215   1.272   4.007 -1.2190 -0.4780  0.8638
 5387SOL    HW227795   1.185   1.190   3.886  0.3753 -0.6852 -0.4072
 5388SOL     OW27796   3.136   1.006   0.240  0.4351 -0.8231 -0.0516
 5388SOL    HW127797   3.213   1.018   0.185 -1.1649  4.0371 -1.1980
 5388SOL    HW227798   3.172   0.982   0.326  2.1446 -0.5069 -0.6933
 5389SOL     OW27799   2.579   3.241   4.652  0.2783  0.1007 -0.0462
 5389SOL    HW127800   2.558   3.318   4.600 -1.4316 -0.0592  0.4017
 5389SOL    HW227801   2.567   3.272   4.742 -0.1983  0.1438 -0.1222
 5390SOL     OW27802   1.179   4.010   4.616 -0.7136 -0.0068 -0.0740
 5390SOL    HW127803   1.137   3.929   4.586 -0.1327  0.5150 -2.2971
 5390SOL    HW227804   1.221   3.977   4.696 -1.1282  1.3677  0.7228
 5391SOL     OW27805   4.250   0.738   7.285  0.0146 -0.0918  0.1109
 5391SOL    HW127806   4.206   0.670   7.234  1.0730  0.5236 -1.6028
 5391SOL    HW227807   4.233   0.709   7.375  0.1750  1.7126  0.7219
 5392SOL     OW27808   1.475   1.760   8.444 -0.4130  0.3984  0.4461
 5392SOL    HW127809   1.454   1.818   8.371 -1.6413 -0.0669  0.4241
 5392SOL    HW227810   1.570   1.758   8.452 -0.4078  1.7189  0.7565
 5393SOL     OW27811   4.416   2.171   2.960  0.3749  0.4864  0.1494
 5393SOL    HW127812   4.498   2.190   2.913  0.2680  2.5834  0.8039
 5393SOL    HW227813   4.380   2.102   2.904 -0.9979 -0.2206  1.9423
 5394SOL     OW27814   2.116   4.451   7.905  0.3897 -0.3823  0.4309
 5394SOL    HW127815   2.074   4.365   7.912  1.1594 -0.9834 -2.3740
 5394SOL    HW227816   2.044   4.513   7.907  1.0752  0.4746 -1.1586
 5395SOL     OW27817   0.481   1.763  13.202  0.7717  0.8403 -0.2693
 5395SOL    HW127818   0.551   1.718  13.155 -0.5110 -0.0461 -1.3345
 5395SOL    HW227819   0.423   1.782  13.128 -0.0713 -1.0978 -0.0968
 5396SOL     OW27820   4.718   0.344   0.240  0.1184  0.5365 -0.4359
 5396SOL    HW127821   0.053   0.389   0.288  1.3131 -0.7819 -0.9106
 5396SOL    HW227822   4.716   0.394   0.159  0.9955 -0.8668 -1.3410
 5397SOL     OW27823   3.672   0.124  15.706 -0.0335  0.2169 -0.1869
 5397SOL    HW127824   3.708   0.206  15.740 -2.8090  1.5877 -0.5065
 5397SOL    HW227825   3.680   0.068  15.784 -1.6290 -0.3008 -0.4040
 5398SOL     OW27826   3.812   1.572   1.304  0.1269 -0.0852 -0.6561
 5398SOL    HW127827   3.903   1.545   1.318  0.0223 -1.3780 -2.5354
 5398SOL    HW227828   3.792   1.512   1.232  0.6792  0.8452 -1.5725
 5399SOL     OW27829   2.615   0.454   4.109 -0.8867  0.2266  0.4378
 5399SOL    HW127830   2.562   0.487   4.037  1.6735 -0.0606 -1.5828
 5399SOL    HW227831   2.660   0.383   4.063  0.7460  1.2060  0.5063
 5400SOL     OW27832   4.581   2.040   8.560 -0.2177  0.5276 -0.3659
 5400SOL    HW127833   4.583   2.001   8.648 -0.6591  1.5266  0.0909
 5400SOL    HW227834   4.663   2.008   8.522  1.1419  1.0473  2.1444
 5401SOL     OW27835   3.631   2.922   2.301 -0.3389  0.1126 -0.0120
 5401SOL    HW127836   3.614   2.857   2.370 -2.7940  1.6848  0.8539
 5401SOL    HW227837   3.727   2.911   2.300  0.0463  3.2301  0.6909
 5402SOL     OW27838   4.480   1.052   6.909 -0.1337 -0.7177 -0.1410
 5402SOL    HW127839   4.395   1.034   6.870  0.0180 -0.4416 -0.5931
 5402SOL    HW227840   4.501   1.136   6.869  0.6009 -0.6454  0.3938
 5403SOL     OW27841   3.546   3.559  13.116 -0.3677  0.2793  0.1317
 5403SOL    HW127842   3.538   3.481  13.061  2.2453  0.3962 -0.4020
 5403SOL    HW227843   3.592   3.612  13.050  1.8479  0.1583  1.5904
 5404SOL     OW27844   2.043   3.834   9.634 -0.5718  0.3968 -0.0921
 5404SOL    HW127845   2.119   3.843   9.691 -0.0907 -0.0757 -0.6557
 5404SOL    HW227846   2.036   3.738   9.628  0.4151  0.1629  2.8079
 5405SOL     OW27847   0.468   2.448  16.960  0.2860 -0.4621  0.0993
 5405SOL    HW127848   0.503   2.412  16.878  0.0017  0.1762 -0.2980
 5405SOL    HW227849   0.436   2.531  16.925  2.4381  0.6268  0.7310
 5406SOL     OW27850   3.728   3.922   8.585  0.3708  0.7348  0.4000
 5406SOL    HW127851   3.648   3.974   8.575 -0.0333  0.3577  1.7216
 5406SOL    HW227852   3.736   3.893   8.494  1.6133 -0.1669  0.7845
 5407SOL     OW27853   0.741   4.101   8.014  0.0117  0.1234 -0.2245
 5407SOL    HW127854   0.651   4.135   8.005 -0.6066 -1.2879  0.7537
 5407SOL    HW227855   0.723   4.018   8.056 -2.0988 -0.2025 -1.7167
 5408SOL     OW27856   3.068   3.937   4.368  0.0707 -0.3651  0.2072
 5408SOL    HW127857   3.137   3.995   4.336 -0.3568 -0.6557 -1.2458
 5408SOL    HW227858   3.116   3.855   4.357 -0.9568 -1.2481  2.3165
 5409SOL     OW27859   4.016   4.638   5.671  0.0712  0.4488 -0.5214
 5409SOL    HW127860   3.961   4.665   5.597  0.8144  2.9516 -0.1398
 5409SOL    HW227861   3.955   4.595   5.732 -0.8264  1.2721 -0.8348
 5410SOL     OW27862   0.521   4.598   7.343 -0.0838  0.2772  0.3824
 5410SOL    HW127863   0.552   4.555   7.263 -0.9158 -0.2606  0.3482
 5410SOL    HW227864   0.545   4.547   7.420 -0.0626  0.5504  0.5585
 5411SOL     OW27865   3.331   1.871  14.482 -0.1255 -0.1917 -0.2240
 5411SOL    HW127866   3.256   1.890  14.425  0.4169  2.3991 -0.0295
 5411SOL    HW227867   3.287   1.891  14.564  0.6284 -1.1677  0.4214
 5412SOL     OW27868   3.026   2.759   2.847 -0.0162  0.0033  0.6634
 5412SOL    HW127869   3.104   2.813   2.837 -0.6330  1.2486  2.5788
 5412SOL    HW227870   3.019   2.750   2.942  1.2029 -3.3009  0.4610
 5413SOL     OW27871   1.903   0.462   3.604  0.0947 -0.4738  0.4570
 5413SOL    HW127872   1.824   0.456   3.657  1.0142 -1.1463  1.7584
 5413SOL    HW227873   1.958   0.426   3.674 -1.9721 -2.3800  1.0744
 5414SOL     OW27874   3.814   4.373   9.079  0.5037  0.1004  0.0531
 5414SOL    HW127875   3.789   4.369   8.986 -2.2481  0.3583  0.7880
 5414SOL    HW227876   3.794   4.462   9.108 -3.6938 -1.1896  1.1348
 5415SOL     OW27877   0.140   2.122   6.530  0.2527  0.4190 -0.5978
 5415SOL    HW127878   0.151   2.028   6.523 -1.1514  0.1197  1.3139
 5415SOL    HW227879   0.171   2.136   6.619  2.5877 -3.1735 -0.8771
 5416SOL     OW27880   3.084   2.113  17.093  0.2044 -0.2547  0.0865
 5416SOL    HW127881   3.060   2.195  17.137  1.7078  0.4250 -0.3726
 5416SOL    HW227882   3.179   2.108  17.103 -0.1615 -0.4475  3.4937
 5417SOL     OW27883   0.115   3.997   1.657  0.0689  0.1314  0.4360
 5417SOL    HW127884   0.111   4.060   1.584  1.7654  0.8584  0.9770
 5417SOL    HW227885   0.183   4.038   1.710 -1.2287  1.2746  1.2258
 5418SOL     OW27886   2.279   1.579   9.462 -0.3232  0.4321 -0.2034
 5418SOL    HW127887   2.320   1.518   9.524  1.9585 -1.7853 -3.8711
 5418SOL    HW227888   2.188   1.558   9.479  0.2495 -1.6379  0.3760
 5419SOL     OW27889   4.034   3.363   9.355  0.2565  0.0641 -0.3504
 5419SOL    HW127890   4.106   3.420   9.329  0.4901 -0.1080 -0.0784
 5419SOL    HW227891   4.015   3.385   9.446  0.8557 -1.1868  0.0804
 5420SOL     OW27892   2.869   4.097  11.908 -0.8629 -0.3971 -0.0247
 5420SOL    HW127893   2.899   4.019  11.956 -1.0754  0.9333  2.2413
 5420SOL    HW227894   2.952   4.122  11.867 -1.0357 -0.6994 -0.5594
 5421SOL     OW27895   3.120   3.908   1.924 -0.5880 -0.3253 -0.3645
 5421SOL    HW127896   3.136   3.832   1.867 -1.3833 -0.7112 -0.0710
 5421SOL    HW227897   3.044   3.878   1.974  0.4619 -0.3790  1.1933
 5422SOL     OW27898   2.986   4.161   3.800  0.1017 -0.2402  0.0209
 5422SOL    HW127899   2.940   4.109   3.865  1.4523 -2.2603 -0.6633
 5422SOL    HW227900   3.006   4.094   3.735 -0.3728  0.9298 -1.3400
 5423SOL     OW27901   1.823   1.978  11.249 -0.5859 -0.2331  0.0924
 5423SOL    HW127902   1.825   2.041  11.177  1.8166 -0.4155 -0.0203
 5423SOL    HW227903   1.747   2.016  11.294 -1.2772 -0.3821 -0.9451
 5424SOL     OW27904   0.304   4.149  14.409  0.2044  0.1492  0.2298
 5424SOL    HW127905   0.367   4.102  14.464 -1.3756 -0.8278  1.1714
 5424SOL    HW227906   0.285   4.231  14.455 -2.2767 -0.1208 -0.3456
 5425SOL     OW27907   0.565   1.958   2.521 -0.4819 -0.0342  0.1668
 5425SOL    HW127908   0.580   1.928   2.431  2.0980  0.3773  0.4640
 5425SOL    HW227909   0.480   1.993   2.497 -0.9231 -2.3211 -1.6328
 5426SOL     OW27910   2.841   4.167  12.209  0.3301 -0.0985 -0.0349
 5426SOL    HW127911   2.767   4.110  12.227  0.9047 -1.7352 -2.8962
 5426SOL    HW227912   2.849   4.147  12.116  1.6261  1.4486 -0.2614
 5427SOL     OW27913   0.533   4.248   5.171 -0.6071  0.4505 -0.6640
 5427SOL    HW127914   0.520   4.254   5.076  0.0342  2.4040 -0.6342
 5427SOL    HW227915   0.444   4.269   5.198 -1.3666 -0.1530 -2.6810
 5428SOL     OW27916   1.595   0.676   9.549 -0.7684  0.4270  0.3592
 5428SOL    HW127917   1.563   0.600   9.598  1.0105 -0.2880  0.4028
 5428SOL    HW227918   1.685   0.676   9.583  0.1153 -1.6745 -1.9514
 5429SOL     OW27919   2.586   3.307   4.926 -0.0968 -0.2536  0.3726
 5429SOL    HW127920   2.625   3.394   4.930  1.5765 -0.8198 -3.2698
 5429SOL    HW227921   2.661   3.265   4.969  1.9466  1.3268 -1.6641
 5430SOL     OW27922   3.750   3.946   8.310 -0.3154 -0.3295 -0.2616
 5430SOL    HW127923   3.670   3.894   8.310 -0.6651  0.2316 -2.0812
 5430SOL    HW227924   3.719   4.032   8.340 -0.9074 -0.7241  0.2808
 5431SOL     OW27925   1.206   4.228   9.584  0.4979  0.3912 -0.1720
 5431SOL    HW127926   1.181   4.218   9.492 -1.4263 -0.5870  0.4489
 5431SOL    HW227927   1.257   4.309   9.583 -1.3761  1.5842  1.4630
 5432SOL     OW27928   4.127   1.264   9.392 -0.2209  0.5249 -0.6553
 5432SOL    HW127929   4.033   1.255   9.408 -0.0795  0.5490  0.1974
 5432SOL    HW227930   4.144   1.175   9.361  3.5141  0.9497  0.2800
 5433SOL     OW27931   1.181   2.825   3.580  0.3881 -0.5276  0.6127
 5433SOL    HW127932   1.172   2.916   3.608 -0.4516 -0.6019  0.5894
 5433SOL    HW227933   1.267   2.834   3.540 -0.7904  1.5719 -1.4052
 5434SOL     OW27934   3.484   4.650   9.644 -0.0586  0.1879 -0.0656
 5434SOL    HW127935   3.468   4.668   9.551 -0.6320 -0.3062 -0.0671
 5434SOL    HW227936   3.534   4.722   9.680  0.7389  0.6273 -2.0425
 5435SOL     OW27937   3.684   2.319   2.762  0.1390  0.2724 -0.4606
 5435SOL    HW127938   3.681   2.412   2.785  2.5175  0.1495  0.3528
 5435SOL    HW227939   3.745   2.299   2.833 -1.9077 -0.2704  1.1456
 5436SOL     OW27940   3.713   4.244   3.636  0.1358 -0.6522  0.0786
 5436SOL    HW127941   3.721   4.150   3.654  1.4499 -0.9078 -1.8289
 5436SOL    HW227942   3.744   4.279   3.719  2.5815 -2.1055 -0.2139
 5437SOL     OW27943   3.075   1.113   9.194 -0.8942  0.4480 -0.1931
 5437SOL    HW127944   2.995   1.061   9.190 -3.1036  3.8607 -0.0361
 5437SOL    HW227945   3.128   1.041   9.230  1.4853  1.1580 -2.2879
 5438SOL     OW27946   0.480   1.156  16.357  0.4241  0.0145  0.0099
 5438SOL    HW127947   0.531   1.110  16.424  0.3154  0.1337  0.1756
 5438SOL    HW227948   0.401   1.103  16.351 -0.2933  0.7835  2.7095
 5439SOL     OW27949   3.303   3.086   4.098  0.0036 -0.3091 -0.1241
 5439SOL    HW127950   3.234   3.151   4.087  1.2178  0.9503 -0.1768
 5439SOL    HW227951   3.339   3.102   4.186 -1.0163  0.0103  0.2356
 5440SOL     OW27952   2.661   2.014   9.358  0.6701 -0.7191  0.2768
 5440SOL    HW127953   2.579   2.057   9.383  0.1416 -1.5075 -0.0830
 5440SOL    HW227954   2.676   1.991   9.450  0.9325  0.1811  0.4544
 5441SOL     OW27955   0.439   1.027   1.620 -0.3724  0.7320 -0.2623
 5441SOL    HW127956   0.488   1.026   1.538 -1.3295  3.0304 -0.8533
 5441SOL    HW227957   0.485   1.095   1.669 -0.0587  3.3564 -4.2672
 5442SOL     OW27958   2.182   0.521   9.255 -0.4942  0.2213 -0.3968
 5442SOL    HW127959   2.093   0.513   9.288 -0.7818  3.1421 -0.4695
 5442SOL    HW227960   2.233   0.487   9.328 -0.4385 -2.9456 -1.9096
 5443SOL     OW27961   3.323   1.926  17.498 -0.3862 -0.0802  0.5636
 5443SOL    HW127962   3.285   1.845  17.532  0.2740 -0.9741 -0.8265
 5443SOL    HW227963   3.252   1.971  17.452 -0.8635 -0.5025  0.8963
 5444SOL     OW27964   0.087   1.999  14.627 -0.3927 -0.3091 -0.3439
 5444SOL    HW127965   0.085   1.942  14.703 -0.1970  1.2689  0.8468
 5444SOL    HW227966   0.011   1.967  14.578  0.4066 -2.6388 -0.0571
 5445SOL     OW27967   2.376   0.709   3.471  0.5703  0.2860  0.3189
 5445SOL    HW127968   2.312   0.704   3.542  2.5111 -0.6894  2.0049
 5445SOL    HW227969   2.405   0.799   3.486 -1.7953  0.9236  1.0115
 5446SOL     OW27970   0.811   2.339   7.166  0.0253 -0.7717 -0.4597
 5446SOL    HW127971   0.722   2.320   7.139 -1.2834  0.2070  3.1385
 5446SOL    HW227972   0.848   2.354   7.079 -1.5756  0.6602 -0.8775
 5447SOL     OW27973   1.520   0.565   8.909 -0.0906  0.7029  0.0637
 5447SOL    HW127974   1.463   0.634   8.875  0.2630  0.2530 -1.4251
 5447SOL    HW227975   1.481   0.485   8.874  1.0102 -0.1747  0.8540
 5448SOL     OW27976   2.313   0.150   2.423  0.1080  0.5398 -0.4019
 5448SOL    HW127977   2.406   0.140   2.402  0.3275  1.8608 -0.0674
 5448SOL    HW227978   2.283   0.060   2.411  1.4431 -0.0261  0.5685
 5449SOL     OW27979   1.634   2.866   4.456 -0.1772 -1.0132  0.5218
 5449SOL    HW127980   1.642   2.876   4.551 -3.6241 -2.0075  0.9051
 5449SOL    HW227981   1.553   2.913   4.435  0.2676 -0.9921 -1.1257
 5450SOL     OW27982   2.622   3.868   8.559 -0.7271 -0.0993  0.8176
 5450SOL    HW127983   2.651   3.957   8.535 -2.3664  0.3245  0.4470
 5450SOL    HW227984   2.529   3.875   8.580 -0.8357 -1.3890  0.7497
 5451SOL     OW27985   4.584   2.897  13.098  0.0502 -0.3567 -0.1185
 5451SOL    HW127986   4.644   2.822  13.101 -0.3001 -0.5146  2.6936
 5451SOL    HW227987   4.527   2.876  13.171 -0.2632 -0.9406 -0.5326
 5452SOL     OW27988   4.309   0.838   1.046  0.5467  0.5053  0.2463
 5452SOL    HW127989   4.314   0.933   1.038 -0.2092  0.6026  0.9730
 5452SOL    HW227990   4.232   0.829   0.989  0.1370 -1.1278  1.0579
 5453SOL     OW27991   2.010   1.309   8.930  0.3303  0.5670  0.3753
 5453SOL    HW127992   1.978   1.387   8.884 -0.1928 -0.1890 -0.5389
 5453SOL    HW227993   1.985   1.327   9.021 -1.2749  0.2360 -0.0050
 5454SOL     OW27994   1.002   4.496   3.272 -0.6732 -0.1469 -0.1601
 5454SOL    HW127995   0.911   4.500   3.242 -0.9408  0.6927  0.7648
 5454SOL    HW227996   1.021   4.589   3.284 -2.6167  0.2147  0.0784
 5455SOL     OW27997   0.583   1.221   4.605 -0.4291  0.3362 -0.4266
 5455SOL    HW127998   0.610   1.218   4.513 -0.8293  0.3341 -0.5473
 5455SOL    HW227999   0.566   1.126   4.606  0.7763  0.1172 -1.1604
 5456SOL     OW28000   2.392   1.381  13.276  0.4175  0.5287  0.2687
 5456SOL    HW128001   2.464   1.339  13.229  0.8485  1.7578 -0.1574
 5456SOL    HW228002   2.429   1.396  13.363  1.0657  0.8765 -0.0649
 5457SOL     OW28003   0.254   3.522   6.730  0.3658 -0.0861 -0.9256
 5457SOL    HW128004   0.160   3.505   6.742 -0.0098  1.3749 -1.7220
 5457SOL    HW228005   0.280   3.455   6.667 -1.4419 -1.4106 -0.2625
 5458SOL     OW28006   3.491   4.038   3.698 -0.5384 -0.3265 -0.0198
 5458SOL    HW128007   3.445   4.121   3.684 -0.8955 -0.5561 -0.2362
 5458SOL    HW228008   3.560   4.059   3.761 -0.4458 -2.5656  0.6172
 5459SOL     OW28009   1.405   0.190   7.950 -0.0754 -0.3266 -0.1990
 5459SOL    HW128010   1.404   0.241   7.869  2.0544 -1.9607 -1.2667
 5459SOL    HW228011   1.312   0.171   7.963 -0.2011  0.6306  0.2645
 5460SOL     OW28012   0.224   1.338   2.196 -0.2212  0.0842 -0.3596
 5460SOL    HW128013   0.150   1.331   2.257  0.8845  1.5432  1.1419
 5460SOL    HW228014   0.287   1.386   2.249 -0.6794 -0.5215  0.7313
 5461SOL     OW28015   1.843   2.746   9.170  0.1483  0.5685  0.0677
 5461SOL    HW128016   1.872   2.779   9.085  0.0835  0.2666 -0.0700
 5461SOL    HW228017   1.878   2.658   9.161 -2.5627 -0.4018 -0.9699
 5462SOL     OW28018   3.013   2.278   7.034  0.1199 -0.3297  0.0176
 5462SOL    HW128019   3.005   2.207   7.098 -1.7364 -0.4871 -0.4129
 5462SOL    HW228020   2.952   2.338   7.076  0.1874  1.9077 -3.1337
 5463SOL     OW28021   3.724   4.186  11.524 -0.3394  0.5970 -0.0366
 5463SOL    HW128022   3.767   4.225  11.448 -0.3985  1.8732  0.5813
 5463SOL    HW228023   3.651   4.133  11.494  0.7018  0.0588 -1.6200
 5464SOL     OW28024   3.241   0.657   3.778 -0.0582  0.3104  0.0366
 5464SOL    HW128025   3.282   0.589   3.726  0.6924 -0.0374  1.0800
 5464SOL    HW228026   3.148   0.635   3.779 -0.5976  2.6147  0.5776
 5465SOL     OW28027   3.882   0.715  16.677 -0.3010  0.3894 -0.1047
 5465SOL    HW128028   3.802   0.667  16.657  0.8171  0.5629 -4.9085
 5465SOL    HW228029   3.865   0.804  16.647  0.3089 -0.6077 -3.3926
 5466SOL     OW28030   1.900   2.351  11.367 -0.3521 -0.6631  0.1852
 5466SOL    HW128031   1.929   2.404  11.441 -1.4850 -1.8983  1.5196
 5466SOL    HW228032   1.898   2.407  11.289  0.2501 -1.0360 -0.0881
 5467SOL     OW28033   1.175   0.932   4.440  0.2850  0.0756 -0.1457
 5467SOL    HW128034   1.134   1.007   4.483  1.8167  0.6183  0.3679
 5467SOL    HW228035   1.189   0.961   4.350 -2.7438  1.9145  0.0040
 5468SOL     OW28036   3.997   3.987   3.843 -0.3024  0.6272 -0.4950
 5468SOL    HW128037   4.001   3.891   3.840 -0.8054  0.5365  1.6484
 5468SOL    HW228038   4.090   4.006   3.830  0.0284  0.7363  2.0849
 5469SOL     OW28039   2.449   2.900   8.369 -0.1397 -0.6509  0.8076
 5469SOL    HW128040   2.441   2.885   8.274  1.0039  1.5501  0.3734
 5469SOL    HW228041   2.540   2.877   8.388 -0.2729 -1.5649  0.3416
 5470SOL     OW28042   3.905   4.156   5.452 -0.3631  0.1556 -0.3096
 5470SOL    HW128043   3.858   4.206   5.519  0.7483 -2.3143  2.3360
 5470SOL    HW228044   3.996   4.160   5.481 -0.1268 -2.9896 -0.6032
 5471SOL     OW28045   4.457   2.623   7.095 -0.1239 -0.3528  0.2614
 5471SOL    HW128046   4.363   2.627   7.113 -0.6212 -0.1683 -2.3712
 5471SOL    HW228047   4.485   2.709   7.126  1.9140 -0.2621 -1.8522
 5472SOL     OW28048   2.012   1.733   5.323  0.0280 -0.4887  0.3832
 5472SOL    HW128049   1.960   1.711   5.246  1.5123 -0.0452 -0.7602
 5472SOL    HW228050   2.081   1.666   5.321  1.6076  1.1156  0.4449
 5473SOL     OW28051   3.233   2.160  15.223  0.0445 -0.1208 -0.6202
 5473SOL    HW128052   3.214   2.206  15.305  0.2068  1.3310 -1.3918
 5473SOL    HW228053   3.192   2.074  15.230  1.1298 -0.7087 -1.6126
 5474SOL     OW28054   3.097   1.830   6.468  0.0592  0.4953 -0.0899
 5474SOL    HW128055   3.060   1.742   6.462  0.2997  0.3207  0.9586
 5474SOL    HW228056   3.172   1.809   6.524  2.1195  1.4939 -2.5023
 5475SOL     OW28057   2.591   1.642   5.033  0.6326 -0.5016  0.3077
 5475SOL    HW128058   2.576   1.549   5.017 -0.1954 -0.0207 -1.7825
 5475SOL    HW228059   2.658   1.667   4.969 -0.4428  0.5744 -0.3863
 5476SOL     OW28060   1.756   0.283   9.222  0.4561 -0.3222 -0.8076
 5476SOL    HW128061   1.704   0.265   9.300 -0.4244 -0.2201 -1.3736
 5476SOL    HW228062   1.734   0.370   9.188  3.3789 -0.1157 -2.2259
 5477SOL     OW28063   3.019   2.097   3.866  0.4176  0.3310 -0.1745
 5477SOL    HW128064   2.952   2.033   3.842  0.9313  0.6243 -2.3531
 5477SOL    HW228065   3.058   2.122   3.782 -0.9974  1.1473 -0.5865
 5478SOL     OW28066   3.014   0.072  14.132  0.2593  0.1408 -0.6153
 5478SOL    HW128067   2.995   4.724  14.087  1.2373 -0.6945  0.5030
 5478SOL    HW228068   2.962   0.130  14.076  2.9022  2.1651 -0.9505
 5479SOL     OW28069   2.271   1.040  13.065 -0.1193 -0.0255  0.6632
 5479SOL    HW128070   2.277   1.076  12.977 -0.5854 -1.3043  0.1141
 5479SOL    HW228071   2.302   1.115  13.116  1.4320 -1.5276  1.9060
 5480SOL     OW28072   4.218   3.605   7.120  0.7178  0.1364 -0.1394
 5480SOL    HW128073   4.211   3.642   7.032 -0.0449  2.1770  0.7759
 5480SOL    HW228074   4.167   3.525   7.107  0.9520  0.0379 -0.4275
 5481SOL     OW28075   3.156   3.630   1.667  0.1720 -0.3606 -0.1352
 5481SOL    HW128076   3.083   3.686   1.693  1.1962  1.0664 -0.3147
 5481SOL    HW228077   3.121   3.599   1.583  0.7487 -1.3382 -0.0146
 5482SOL     OW28078   1.785   0.085  12.502 -0.5934  0.1352 -0.5234
 5482SOL    HW128079   1.785   0.114  12.593  1.7557 -1.1632 -0.1105
 5482SOL    HW228080   1.872   0.117  12.477 -0.6827 -0.2490 -1.3414
 5483SOL     OW28081   4.646   4.682   2.050 -0.6408  0.6030 -0.2764
 5483SOL    HW128082   4.654   4.705   1.957 -1.4266 -1.6513 -0.9066
 5483SOL    HW228083   4.657   0.030   2.097  0.2435  0.1825  0.2537
 5484SOL     OW28084   4.552   1.113  16.128 -0.1742 -1.2020 -0.0609
 5484SOL    HW128085   4.517   1.068  16.051 -0.2334  0.4751 -0.9999
 5484SOL    HW228086   4.556   1.202  16.094  0.6866 -0.6650  1.4429
 5485SOL     OW28087   3.069   4.089   2.225 -0.5964  0.7586 -0.0875
 5485SOL    HW128088   3.059   4.020   2.160 -1.9682 -0.4535  1.3885
 5485SOL    HW228089   2.997   4.067   2.284  0.0718 -1.2663 -0.0321
 5486SOL     OW28090   0.604   3.771  10.429  0.5561  0.0494  0.1113
 5486SOL    HW128091   0.635   3.768  10.339 -1.1692 -0.2997 -0.4863
 5486SOL    HW228092   0.597   3.682  10.463 -0.9888 -0.2800 -1.0661
 5487SOL     OW28093   3.304   4.488  17.707  0.2925 -0.1243 -0.1403
 5487SOL    HW128094   3.351   4.517  17.629  1.0174  2.3315  1.1919
 5487SOL    HW228095   3.213   4.500  17.679  0.3176  0.7400  0.1336
 5488SOL     OW28096   1.404   3.710   2.123  0.0326  0.4543  0.1883
 5488SOL    HW128097   1.422   3.759   2.042 -0.4258  0.5421  0.1371
 5488SOL    HW228098   1.310   3.725   2.133 -0.0522  0.0643  0.0025
 5489SOL     OW28099   4.590   1.291   6.816  0.3448  0.7677  0.2688
 5489SOL    HW128100   4.643   1.347   6.759  1.7881 -0.5063  0.3523
 5489SOL    HW228101   4.613   1.326   6.902  1.0635  1.4489 -0.1995
 5490SOL     OW28102   3.273   3.187   6.925  0.3583 -0.0061 -0.0949
 5490SOL    HW128103   3.298   3.147   6.842  1.6109 -1.2343  0.8637
 5490SOL    HW228104   3.305   3.274   6.905 -0.2403  0.9586  3.1147
 5491SOL     OW28105   2.087   1.995   6.531  0.0784  0.3216 -0.3146
 5491SOL    HW128106   2.154   2.027   6.470  3.6361 -0.0978  3.3011
 5491SOL    HW228107   2.065   2.072   6.584 -2.9076 -0.6144 -0.2268
 5492SOL     OW28108   0.229   3.342  11.984 -0.6410  0.0066 -0.1735
 5492SOL    HW128109   0.226   3.278  12.055 -2.8426 -0.1091 -0.3782
 5492SOL    HW228110   0.261   3.411  12.042 -1.8548  0.1761  0.3001
 5493SOL     OW28111   3.302   3.503   4.184  0.5778  0.6830  0.4219
 5493SOL    HW128112   3.294   3.463   4.097  2.1018  0.7537  0.2600
 5493SOL    HW228113   3.253   3.435   4.231  0.2356 -0.0373 -0.9506
 5494SOL     OW28114   4.184   3.385   4.835  0.1600  0.4418 -0.4161
 5494SOL    HW128115   4.142   3.363   4.752 -0.3134 -0.6543  0.1121
 5494SOL    HW228116   4.125   3.337   4.894  1.2210 -1.0007 -0.5475
 5495SOL     OW28117   0.009   0.320   2.539 -0.5412 -0.3241 -0.1213
 5495SOL    HW128118   4.696   0.336   2.457 -0.8862  0.3039  0.1958
 5495SOL    HW228119   4.661   0.300   2.584  0.4006 -1.2589  1.1815
 5496SOL     OW28120   0.214   0.122  17.324 -0.3333 -0.5666  0.4929
 5496SOL    HW128121   0.235   0.138  17.416 -0.3164  2.6768 -0.0540
 5496SOL    HW228122   0.156   0.046  17.329  1.1332 -1.5712  1.9802
 5497SOL     OW28123   4.605   3.172   7.953 -0.0941  0.2156  0.8547
 5497SOL    HW128124   4.546   3.100   7.931  0.5397 -0.7661  2.3285
 5497SOL    HW228125   4.615   3.173   8.048  1.0817 -0.5536  0.7469
 5498SOL     OW28126   3.236   1.316   8.094  0.5286 -0.4702  0.0248
 5498SOL    HW128127   3.257   1.341   8.184  2.1053 -2.3978  0.1800
 5498SOL    HW228128   3.270   1.228   8.078  1.8916  0.0957 -0.1776
 5499SOL     OW28129   4.511   0.744   4.907  0.2419  0.2318 -0.3514
 5499SOL    HW128130   4.506   0.787   4.992  0.7906  2.4820 -1.4360
 5499SOL    HW228131   4.419   0.724   4.886 -0.0754  1.4745 -0.1813
 5500SOL     OW28132   1.574   4.178   3.254  0.2323 -0.2933  0.4587
 5500SOL    HW128133   1.556   4.248   3.192  0.7027 -0.4123  0.1850
 5500SOL    HW228134   1.503   4.193   3.317 -0.8839  1.8404 -1.3279
 5501SOL     OW28135   3.329   4.063   4.422 -0.3997 -0.0374 -0.3001
 5501SOL    HW128136   3.416   4.022   4.419 -0.5571 -0.4279  0.5148
 5501SOL    HW228137   3.330   4.093   4.331 -1.2389  0.9653  0.0378
 5502SOL     OW28138   4.683   3.727   9.981  0.2755  0.0970 -0.6713
 5502SOL    HW128139   4.649   3.639   9.966  0.2229  0.2826 -1.6671
 5502SOL    HW228140   0.016   3.721   9.914  2.1039 -0.4085  1.2146
 5503SOL     OW28141   0.609   0.027   6.796 -0.6236  0.3624 -0.1314
 5503SOL    HW128142   0.630   0.027   6.703  3.5064 -0.3405  0.7679
 5503SOL    HW228143   0.675   0.089   6.827 -2.1888  1.8828  0.1008
 5504SOL     OW28144   3.734   1.844   2.185 -0.6658  0.1076 -0.7799
 5504SOL    HW128145   3.650   1.828   2.228  0.7954 -2.7993  0.9570
 5504SOL    HW228146   3.702   1.850   2.095 -1.1734  0.7000 -0.5693
 5505SOL     OW28147   0.041   0.819   5.115 -0.6003 -0.2704 -1.0808
 5505SOL    HW128148   0.023   0.912   5.131 -1.8415 -0.3571 -1.9061
 5505SOL    HW228149   4.725   0.803   5.035  0.5340 -3.2668 -1.1801
 5506SOL     OW28150   1.821   2.956   6.983  0.0028  0.0788 -0.1357
 5506SOL    HW128151   1.727   2.973   6.983 -0.3144 -1.6639 -0.5280
 5506SOL    HW228152   1.827   2.906   7.064 -0.7466 -0.7552 -0.5966
 5507SOL     OW28153   4.332   2.539   7.767 -0.5430 -0.3071  0.1874
 5507SOL    HW128154   4.353   2.453   7.802  2.1609 -0.3906 -1.6031
 5507SOL    HW228155   4.380   2.539   7.684  1.3458 -0.2542  1.2607
 5508SOL     OW28156   3.643   4.645  14.753  0.6348 -0.1011 -0.0969
 5508SOL    HW128157   3.690   4.713  14.800 -1.8593  0.8338  1.0484
 5508SOL    HW228158   3.706   4.623  14.685  0.0436  0.5102 -0.8334
 5509SOL     OW28159   2.285   4.389   7.054 -1.2634 -0.0120 -0.4505
 5509SOL    HW128160   2.226   4.338   7.110 -1.0464 -1.5215 -1.6043
 5509SOL    HW228161   2.285   4.473   7.100  0.8052  0.1079 -0.6829
 5510SOL     OW28162   0.538   3.457  11.543 -0.5253 -0.3316  0.1471
 5510SOL    HW128163   0.497   3.543  11.548  2.2715  1.0511 -0.5314
 5510SOL    HW228164   0.624   3.467  11.584 -0.3211  1.7472 -0.7718
 5511SOL     OW28165   1.299   2.278   8.048 -0.0871  0.1639 -0.0717
 5511SOL    HW128166   1.315   2.197   7.998 -3.8223 -1.1161  0.8230
 5511SOL    HW228167   1.353   2.270   8.127 -0.2902 -0.5013  0.0002
 5512SOL     OW28168   3.087   2.764   4.331 -0.1880  0.3879  0.3442
 5512SOL    HW128169   3.082   2.859   4.338  2.3518  0.5338  0.3879
 5512SOL    HW228170   3.122   2.751   4.242 -0.3306  0.1435  0.3261
 5513SOL     OW28171   4.732   4.082   3.737 -0.3067  0.0068 -0.2431
 5513SOL    HW128172   4.700   3.993   3.720 -2.0570  0.7535 -0.8906
 5513SOL    HW228173   0.091   4.063   3.735 -0.0609  1.2431 -0.4356
 5514SOL     OW28174   1.772   3.479   9.458  0.5658 -0.1814 -0.3682
 5514SOL    HW128175   1.713   3.552   9.442 -1.2099 -0.8894  2.8213
 5514SOL    HW228176   1.716   3.412   9.497  0.1893  0.0147 -0.5749
 5515SOL     OW28177   4.450   2.951   4.305  0.7344  0.2115 -0.5317
 5515SOL    HW128178   4.523   3.006   4.333  0.3411  0.8187 -0.7030
 5515SOL    HW228179   4.478   2.924   4.217  0.2342 -1.0327 -0.3070
 5516SOL     OW28180   3.224   0.509   4.528  0.3430  0.5248  0.4941
 5516SOL    HW128181   3.178   0.535   4.608  0.1188  0.5205  0.3662
 5516SOL    HW228182   3.199   0.572   4.460  1.2368 -0.0658 -0.3715
 5517SOL     OW28183   3.674   0.827   5.756 -0.1680 -0.0129 -0.5677
 5517SOL    HW128184   3.587   0.820   5.796 -0.0082 -1.4505 -0.4604
 5517SOL    HW228185   3.669   0.913   5.715 -1.9623 -0.6006 -1.5580
 5518SOL     OW28186   1.382   2.733   5.565 -0.4532 -0.2521  0.6621
 5518SOL    HW128187   1.302   2.745   5.514 -0.7417  2.4930  1.7787
 5518SOL    HW228188   1.423   2.661   5.518  1.2273 -0.3824  2.3202
 5519SOL     OW28189   0.983   4.416   5.524  0.3706 -0.3587 -0.0590
 5519SOL    HW128190   1.050   4.375   5.579 -0.5508 -0.7191  0.7695
 5519SOL    HW228191   0.926   4.343   5.500 -1.3836  1.5357 -1.6701
 5520SOL     OW28192   3.116   0.674   0.098 -0.3074  0.3289  0.2915
 5520SOL    HW128193   3.138   0.765   0.077  2.7690  0.0715  2.2957
 5520SOL    HW228194   3.200   0.642   0.132 -0.9925  0.9073  2.5379
 5521SOL     OW28195   2.090   3.278   8.933 -0.4860  0.0493 -0.1618
 5521SOL    HW128196   2.132   3.294   8.848  1.1959  0.6447  0.7936
 5521SOL    HW228197   2.139   3.204   8.968 -3.2078 -2.1067 -0.8844
 5522SOL     OW28198   3.886   3.839   2.743  0.3445 -0.1201  0.1718
 5522SOL    HW128199   3.953   3.901   2.715 -0.1561  1.1838  1.8735
 5522SOL    HW228200   3.879   3.872   2.832  0.1140  0.0812  0.0812
 5523SOL     OW28201   2.407   0.845  13.616 -0.6638  0.5303 -0.0188
 5523SOL    HW128202   2.412   0.914  13.551 -0.8328 -0.2538 -0.8608
 5523SOL    HW228203   2.469   0.879  13.681 -0.2203 -1.3272  0.5353
 5524SOL     OW28204   1.921   2.009   3.767  0.2276  0.1234  0.1684
 5524SOL    HW128205   1.875   1.960   3.835 -2.1203 -0.1122 -1.5937
 5524SOL    HW228206   1.973   1.943   3.721 -0.8480 -0.9683  0.5353
 5525SOL     OW28207   2.258   2.890   1.732 -0.1530  0.0149 -0.2363
 5525SOL    HW128208   2.199   2.875   1.806 -0.2696 -0.1131 -0.3540
 5525SOL    HW228209   2.215   2.826   1.674 -1.5426 -1.2281  2.1272
 5526SOL     OW28210   1.882   3.720  14.996  0.4552 -0.2126 -0.2684
 5526SOL    HW128211   1.838   3.799  14.964 -0.7410 -1.1333 -0.8648
 5526SOL    HW228212   1.804   3.666  14.994  1.0183 -1.0335 -0.1204
 5527SOL     OW28213   4.702   3.285  11.454 -0.2019  0.1539 -0.1184
 5527SOL    HW128214   4.623   3.326  11.489 -0.1555 -0.2616  0.4720
 5527SOL    HW228215   4.694   3.190  11.465 -0.6172  0.1139 -0.7655
 5528SOL     OW28216   4.667   4.113   4.155  0.5853 -0.2422  0.8315
 5528SOL    HW128217   4.676   4.154   4.069 -1.5492  0.2161  0.8264
 5528SOL    HW228218   4.676   4.188   4.215  1.5851  1.6235 -1.6328
 5529SOL     OW28219   3.806   0.651   8.007 -0.4662  0.0236 -0.0564
 5529SOL    HW128220   3.844   0.563   8.005  0.3519  0.4444 -2.4217
 5529SOL    HW228221   3.715   0.645   8.037 -0.2909  1.0665  0.7048
 5530SOL     OW28222   3.221   4.166   4.190 -0.0406  0.2811  0.0965
 5530SOL    HW128223   3.192   4.255   4.207  0.8201  0.8747 -1.5211
 5530SOL    HW228224   3.221   4.169   4.094  1.9939 -0.9386  0.0522
 5531SOL     OW28225   3.201   1.153   1.908 -0.1293 -0.4146 -0.3993
 5531SOL    HW128226   3.128   1.210   1.931 -1.0863 -2.2133  1.0114
 5531SOL    HW228227   3.229   1.184   1.822 -1.5635  2.3543  0.1620
 5532SOL     OW28228   1.810   1.109   2.248  0.1133 -0.1059  0.0001
 5532SOL    HW128229   1.782   1.024   2.282 -1.6729 -0.8147 -3.1814
 5532SOL    HW228230   1.875   1.077   2.185  1.2505  2.3018 -0.0323
 5533SOL     OW28231   3.254   2.759  16.509 -0.2799  0.3388  0.1631
 5533SOL    HW128232   3.272   2.666  16.491 -1.4986 -0.1392  1.4035
 5533SOL    HW228233   3.210   2.739  16.592  1.8438 -0.0249  1.1842
 5534SOL     OW28234   1.296   3.824   4.893  0.4115  0.4484 -0.2567
 5534SOL    HW128235   1.364   3.811   4.827  0.6272  1.4272 -0.2210
 5534SOL    HW228236   1.340   3.891   4.946 -0.6602 -0.2022  1.4381
 5535SOL     OW28237   4.367   3.176   7.750  0.1589  0.0526  0.1656
 5535SOL    HW128238   4.326   3.199   7.834  0.4692 -1.2843  0.6780
 5535SOL    HW228239   4.457   3.203   7.769  0.2216  0.4160 -0.6270
 5536SOL     OW28240   2.716   2.945   8.760 -0.7624  0.1626  0.4753
 5536SOL    HW128241   2.654   2.873   8.772 -0.2306 -0.2618  0.7261
 5536SOL    HW228242   2.651   3.006   8.726  0.0774  1.8375  1.8844
 5537SOL     OW28243   2.740   3.919   7.664 -0.1254 -0.0063 -0.3557
 5537SOL    HW128244   2.764   3.842   7.715 -0.2532 -1.0771 -1.9065
 5537SOL    HW228245   2.803   3.985   7.693 -0.0303  0.2038 -1.0409
 5538SOL     OW28246   3.038   0.840  14.133 -0.0658  0.1669 -0.6132
 5538SOL    HW128247   3.126   0.829  14.168  0.1262  1.0413 -0.8038
 5538SOL    HW228248   3.054   0.878  14.047  0.9836  0.1863 -0.4135
 5539SOL     OW28249   1.323   4.688   7.040 -0.0737 -0.2795 -0.1352
 5539SOL    HW128250   1.324   0.045   7.069 -1.5001 -0.3538  0.1441
 5539SOL    HW228251   1.303   4.636   7.118 -1.7270 -0.2914 -0.5771
 5540SOL     OW28252   3.826   0.497   8.397 -0.3644  0.1534 -0.1599
 5540SOL    HW128253   3.913   0.457   8.388  1.0450  3.4220 -0.9355
 5540SOL    HW228254   3.829   0.539   8.483 -2.3117  1.5836 -0.8176
 5541SOL     OW28255   0.141   1.983   6.801  0.4414 -0.2433 -0.6063
 5541SOL    HW128256   0.050   1.961   6.822 -0.5385  0.7749 -3.7650
 5541SOL    HW228257   0.184   1.920   6.859 -0.6220  0.8305  1.3682
 5542SOL     OW28258   3.220   0.456   2.167  0.2745 -0.7098  0.3965
 5542SOL    HW128259   3.163   0.415   2.232 -1.7970  0.6484 -0.5470
 5542SOL    HW228260   3.159   0.528   2.151 -0.3691 -1.2797  0.2523
 5543SOL     OW28261   2.069   2.403  10.205 -0.0177 -0.6546 -0.2829
 5543SOL    HW128262   2.016   2.482  10.214 -0.2792 -0.9507  0.7290
 5543SOL    HW228263   2.054   2.364  10.291 -2.5385 -2.7600 -1.7008
 5544SOL     OW28264   3.665   2.399   0.999 -0.1523  0.4256 -0.1089
 5544SOL    HW128265   3.597   2.332   1.007  0.8683 -0.4036  1.6751
 5544SOL    HW228266   3.634   2.442   0.919 -1.2674 -2.0882 -1.0484
 5545SOL     OW28267   3.512   1.455   3.407 -0.0654 -0.1020 -0.2356
 5545SOL    HW128268   3.580   1.521   3.395  2.3915 -2.5424  0.1263
 5545SOL    HW228269   3.471   1.492   3.485 -0.2115 -0.6489 -0.0527
 5546SOL     OW28270   3.554   0.374   3.439  0.1316 -0.4912 -0.2122
 5546SOL    HW128271   3.606   0.308   3.393  1.0811 -1.2889  2.0068
 5546SOL    HW228272   3.468   0.367   3.398  1.0052  0.7934 -2.2527
 5547SOL     OW28273   2.738   0.109   8.739 -0.7340 -0.3539 -0.1163
 5547SOL    HW128274   2.659   0.158   8.762 -0.5512  0.7988 -1.9903
 5547SOL    HW228275   2.712   0.022   8.768 -1.9579  0.2791  0.7229
 5548SOL     OW28276   0.061   3.882   9.099 -0.1746 -0.3308 -0.3301
 5548SOL    HW128277   4.707   3.905   9.129 -0.5988 -2.0601 -0.2522
 5548SOL    HW228278   0.104   3.869   9.183 -2.3052  0.6693  0.8981
 5549SOL     OW28279   1.765   3.231  14.185 -0.2903 -0.3764  0.4220
 5549SOL    HW128280   1.693   3.174  14.213  1.7133 -1.9568  2.3767
 5549SOL    HW228281   1.732   3.316  14.212 -2.1147 -1.5373  1.8029
 5550SOL     OW28282   1.226   0.211   4.308 -0.1077  0.4625 -0.4801
 5550SOL    HW128283   1.167   0.142   4.277  0.0013  0.3479 -0.4295
 5550SOL    HW228284   1.166   0.249   4.372 -0.3757 -0.1810 -0.3497
 5551SOL     OW28285   3.066   0.771   5.867 -0.5102 -0.2028 -0.3265
 5551SOL    HW128286   3.019   0.693   5.896 -0.3964  0.0661  0.5781
 5551SOL    HW228287   3.150   0.727   5.855 -0.9752 -1.2270  0.1992
 5552SOL     OW28288   2.862   2.300   9.921  0.3538  0.4863  0.0282
 5552SOL    HW128289   2.784   2.356   9.925 -0.2887 -0.2980 -1.4723
 5552SOL    HW228290   2.878   2.314   9.828  0.3495  0.1123 -0.0274
 5553SOL     OW28291   1.756   3.513   3.411  0.1018  0.2424 -0.1878
 5553SOL    HW128292   1.664   3.486   3.402  0.9066 -2.0955 -1.4411
 5553SOL    HW228293   1.791   3.458   3.341 -0.5660  0.9049 -1.0520
 5554SOL     OW28294   1.645   2.580  14.384 -0.1165  0.3803 -0.1462
 5554SOL    HW128295   1.733   2.594  14.420  0.3090  1.3400 -1.5238
 5554SOL    HW228296   1.607   2.537  14.460  0.4570  1.2789  0.6513
 5555SOL     OW28297   2.775   2.725  13.401  0.1837 -0.1458 -0.1434
 5555SOL    HW128298   2.700   2.784  13.391 -0.7890 -1.1515  1.2006
 5555SOL    HW228299   2.845   2.768  13.351 -0.7197  1.3419 -0.1334
 5556SOL     OW28300   3.497   2.975   8.190 -0.2579  0.3783  0.2523
 5556SOL    HW128301   3.582   2.952   8.226 -0.4940  0.6711  1.0123
 5556SOL    HW228302   3.455   3.030   8.257  0.4481  0.0798  0.9363
 5557SOL     OW28303   2.123   2.515   5.698 -0.6305 -0.3286 -0.2464
 5557SOL    HW128304   2.203   2.463   5.685  0.8161  1.0554  3.0737
 5557SOL    HW228305   2.139   2.594   5.645 -3.3605  0.5018  0.1755
 5558SOL     OW28306   2.675   0.010  16.526 -0.0810 -0.2766 -0.0706
 5558SOL    HW128307   2.651   4.723  16.435  0.5620  1.5332 -0.6615
 5558SOL    HW228308   2.618   4.677  16.563 -0.2285 -0.3853 -0.4847
 5559SOL     OW28309   2.594   3.285   7.694 -0.1810  0.6842 -0.8505
 5559SOL    HW128310   2.660   3.354   7.692  2.1660 -1.5013  0.9279
 5559SOL    HW228311   2.586   3.275   7.789 -1.0099 -0.0423 -0.9947
 5560SOL     OW28312   3.940   2.311   6.861  0.6511 -0.6103  0.0159
 5560SOL    HW128313   3.891   2.357   6.793 -0.9358 -0.8081  1.0115
 5560SOL    HW228314   3.903   2.353   6.939 -0.8337 -0.2498 -0.8832
 5561SOL     OW28315   2.090   0.357   2.740 -0.1562 -0.0306 -0.2642
 5561SOL    HW128316   2.165   0.414   2.723  1.5271 -2.0104  0.5696
 5561SOL    HW228317   2.066   0.380   2.829  0.3175 -0.3254 -0.0630
 5562SOL     OW28318   3.624   1.459   4.661  0.0132 -0.2258  0.2104
 5562SOL    HW128319   3.681   1.530   4.631  0.6752 -1.0348 -0.4424
 5562SOL    HW228320   3.596   1.493   4.746 -0.4455 -1.1286  0.4186
 5563SOL     OW28321   1.056   2.281  15.869 -0.2715 -0.7736  0.1543
 5563SOL    HW128322   1.135   2.272  15.923  0.3670 -0.3208 -0.6991
 5563SOL    HW228323   0.991   2.238  15.925 -0.7667  1.7663  1.5124
 5564SOL     OW28324   1.332   3.159   5.060  0.3404  0.5072  0.2246
 5564SOL    HW128325   1.349   3.194   4.972  0.8755 -0.4346 -0.0353
 5564SOL    HW228326   1.273   3.086   5.043  1.1220  0.1820 -1.0728
 5565SOL     OW28327   2.297   2.149   6.431  0.5102 -0.2344  0.0421
 5565SOL    HW128328   2.283   2.227   6.378  1.8270 -0.1977 -0.2501
 5565SOL    HW228329   2.385   2.164   6.466  0.7818 -2.4548  0.3150
 5566SOL     OW28330   0.439   3.704   5.577 -0.1818 -0.1959  0.6692
 5566SOL    HW128331   0.461   3.644   5.506  0.6969 -0.0798  0.8496
 5566SOL    HW228332   0.496   3.678   5.649  0.8355  0.9504  0.2907
 5567SOL     OW28333   1.474   0.167   2.253  0.3014  1.0198 -0.6286
 5567SOL    HW128334   1.527   0.236   2.211  0.9490 -0.9339 -3.0345
 5567SOL    HW228335   1.435   0.126   2.176 -1.3712 -0.2388  0.9152
 5568SOL     OW28336   0.161   0.167   4.431 -0.0945 -0.8530 -1.1220
 5568SOL    HW128337   0.119   0.228   4.491  0.4207  0.8001 -2.4399
 5568SOL    HW228338   0.235   0.135   4.482 -0.9486 -3.7298 -1.7073
 5569SOL     OW28339   2.066   3.956   8.133 -0.4197  0.2141 -0.3461
 5569SOL    HW128340   2.154   3.955   8.094  0.0880  0.0349  0.8190
 5569SOL    HW228341   2.046   3.866   8.106  1.0713  0.6685 -3.0296
 5570SOL     OW28342   0.408   1.222   7.991 -0.3383 -0.0800 -0.1572
 5570SOL    HW128343   0.403   1.299   8.047 -0.6316 -0.6367  0.5814
 5570SOL    HW228344   0.342   1.234   7.922 -0.9725 -1.9720  0.1076
 5571SOL     OW28345   4.358   1.886   2.251  0.5059 -0.0317  0.5597
 5571SOL    HW128346   4.396   1.972   2.269 -1.1009  0.5075  1.3684
 5571SOL    HW228347   4.272   1.893   2.292  1.1111 -1.1516  2.0389
 5572SOL     OW28348   2.262   1.097  15.993 -0.6022  0.2306 -0.0556
 5572SOL    HW128349   2.355   1.087  16.012 -0.3709  0.9188 -0.7979
 5572SOL    HW228350   2.221   1.055  16.069 -1.5032  0.5145 -0.3772
 5573SOL     OW28351   4.480   4.498   5.270  0.2171 -0.0516 -0.1376
 5573SOL    HW128352   4.504   4.558   5.341  0.0139 -0.2349  0.0868
 5573SOL    HW228353   4.551   4.434   5.272  0.1673 -0.1438 -1.4874
 5574SOL     OW28354   4.655   0.514   3.165  0.2760 -0.6164 -0.0855
 5574SOL    HW128355   0.009   0.478   3.158  0.7542  1.0098 -2.4249
 5574SOL    HW228356   4.609   0.448   3.217 -0.3484  0.1686  0.3734
 5575SOL     OW28357   3.631   0.621  10.905 -0.2753 -0.3171 -0.7464
 5575SOL    HW128358   3.646   0.700  10.853 -0.5489  1.3057  1.6751
 5575SOL    HW228359   3.582   0.667  10.973  1.9780 -1.1724  1.4132
 5576SOL     OW28360   2.630   2.536  16.976  0.1771  0.3060 -0.0946
 5576SOL    HW128361   2.623   2.575  16.889 -2.0479 -0.9230 -0.4661
 5576SOL    HW228362   2.545   2.568  17.006  1.6877  2.7722  1.5437
 5577SOL     OW28363   4.177   1.253  11.276 -0.1392 -0.7214 -0.1717
 5577SOL    HW128364   4.254   1.265  11.220  1.0740 -0.8921  1.4301
 5577SOL    HW228365   4.212   1.187  11.337 -1.0888 -0.0721  1.0769
 5578SOL     OW28366   4.239   3.746   6.880 -0.0371  0.4529 -0.5891
 5578SOL    HW128367   4.168   3.809   6.871  0.6418  1.1796 -0.8979
 5578SOL    HW228368   4.282   3.783   6.958  0.7499  0.4431 -1.0213
 5579SOL     OW28369   1.312   3.313   3.683 -0.2153 -0.1948  0.6110
 5579SOL    HW128370   1.341   3.339   3.596  2.4705  0.5918  1.7234
 5579SOL    HW228371   1.321   3.398   3.728 -2.1499  0.0293  0.5378
 5580SOL     OW28372   3.240   3.415   9.155  0.4350  0.2556 -0.2161
 5580SOL    HW128373   3.158   3.433   9.202  1.1724  1.7589  0.5090
 5580SOL    HW228374   3.233   3.474   9.080 -0.9234 -1.4950 -1.4757
 5581SOL     OW28375   4.381   3.636   2.816  0.1457  0.3180 -0.5524
 5581SOL    HW128376   4.459   3.629   2.871  0.0472 -1.9960 -0.7394
 5581SOL    HW228377   4.388   3.721   2.771 -1.0122  0.0959 -1.1523
 5582SOL     OW28378   0.896   1.872   8.319  0.3019  0.0622 -0.4816
 5582SOL    HW128379   0.939   1.940   8.372  0.5144 -0.4758  0.0285
 5582SOL    HW228380   0.920   1.908   8.234 -2.1209  0.4452 -1.0004
 5583SOL     OW28381   3.680   1.509   1.963  0.3378 -0.3364  0.1932
 5583SOL    HW128382   3.776   1.501   1.962  0.3474 -0.2259  0.3728
 5583SOL    HW228383   3.659   1.516   2.056 -0.3971  0.6050 -0.0516
 5584SOL     OW28384   4.469   4.659  14.733  0.5127  0.2040 -0.2310
 5584SOL    HW128385   4.450   0.017  14.753  0.4793  0.1301  0.0791
 5584SOL    HW228386   4.532   4.657  14.806 -1.4341  0.7191  1.4590
 5585SOL     OW28387   2.283   2.231   6.141  0.2577  0.3617  0.1715
 5585SOL    HW128388   2.368   2.189   6.131  0.4789  0.1808  2.9678
 5585SOL    HW228389   2.225   2.161   6.172 -0.0548  1.1499  1.3589
 5586SOL     OW28390   2.076   4.330   6.819  0.2332 -0.1436 -0.0046
 5586SOL    HW128391   2.143   4.383   6.863  2.1408 -1.6307 -1.1075
 5586SOL    HW228392   2.001   4.377   6.855  0.0295  2.4356 -3.7923
 5587SOL     OW28393   3.583   3.342   3.219 -0.3253 -0.1142 -0.1401
 5587SOL    HW128394   3.599   3.330   3.125 -1.0208  0.9440 -0.3944
 5587SOL    HW228395   3.543   3.429   3.219  1.2669  0.6142 -0.1575
 5588SOL     OW28396   2.734   2.947  17.229 -0.1245 -0.2860 -0.3790
 5588SOL    HW128397   2.821   2.986  17.242 -0.0201 -0.2544 -1.1642
 5588SOL    HW228398   2.748   2.859  17.264  0.7345  0.6833  1.6999
 5589SOL     OW28399   0.661   1.419  16.624 -0.1984 -0.9658  0.0152
 5589SOL    HW128400   0.573   1.403  16.588 -0.4586  0.7673 -0.1255
 5589SOL    HW228401   0.646   1.486  16.690 -0.7759 -1.2363  0.1627
 5590SOL     OW28402   4.683   0.334   8.981 -0.2951 -0.7573  0.2154
 5590SOL    HW128403   0.016   0.352   9.046  0.1267  0.4693 -0.5521
 5590SOL    HW228404   4.668   0.239   8.980 -1.8181 -0.5087 -0.5151
 5591SOL     OW28405   4.431   4.056   9.251  0.4144  0.6615 -0.3448
 5591SOL    HW128406   4.345   4.025   9.277  0.7380 -0.1247 -0.2332
 5591SOL    HW228407   4.411   4.150   9.251  2.0848  1.0200  0.2235
 5592SOL     OW28408   2.495   0.528   8.313 -0.2952  0.1732  0.1389
 5592SOL    HW128409   2.529   0.576   8.238  1.5785 -1.6364 -0.1490
 5592SOL    HW228410   2.562   0.460   8.313  0.2311  0.6853 -0.3071
 5593SOL     OW28411   3.375   2.094   9.529 -0.1390  0.2877 -0.3974
 5593SOL    HW128412   3.414   2.168   9.576  1.4004  0.0375 -1.2803
 5593SOL    HW228413   3.381   2.125   9.439 -0.9330  4.4045  0.9652
 5594SOL     OW28414   2.297   2.257  10.642 -0.1857  0.6831 -0.3985
 5594SOL    HW128415   2.339   2.344  10.639 -0.7396  0.9452 -0.4668
 5594SOL    HW228416   2.374   2.204  10.665  0.8751  1.7759 -1.4217
 5595SOL     OW28417   0.107   0.195   7.817  0.6078  0.4056  0.1936
 5595SOL    HW128418   0.170   0.125   7.834 -0.6649 -1.5507 -3.1201
 5595SOL    HW228419   0.114   0.249   7.895  0.3993  2.0699 -0.9458
 5596SOL     OW28420   3.648   4.302   8.177 -0.0572  0.2504  0.2835
 5596SOL    HW128421   3.694   4.270   8.099 -0.8730 -2.6484  0.9959
 5596SOL    HW228422   3.654   4.397   8.164 -0.1631  0.3976  1.3346
 5597SOL     OW28423   3.613   1.840   1.918  0.0236  0.3000  0.0188
 5597SOL    HW128424   3.670   1.812   1.847 -1.2335 -2.5142  0.1423
 5597SOL    HW228425   3.537   1.867   1.866 -0.6778 -0.7076  0.5240
 5598SOL     OW28426   0.809   1.709  16.415  0.1406 -0.0065  0.0124
 5598SOL    HW128427   0.862   1.630  16.428 -2.3544 -1.4147  1.6653
 5598SOL    HW228428   0.719   1.678  16.406 -0.1659  1.3385 -1.6236
 5599SOL     OW28429   2.855   4.333   4.190  0.1005  0.0971 -0.1851
 5599SOL    HW128430   2.818   4.416   4.158 -0.5988  0.3239  1.1934
 5599SOL    HW228431   2.947   4.357   4.191 -0.1928  1.2329 -1.2574
 5600SOL     OW28432   2.428   3.388   5.256 -0.1105  0.4466  0.4526
 5600SOL    HW128433   2.388   3.402   5.170  1.3761  1.9151  0.0161
 5600SOL    HW228434   2.365   3.334   5.306  0.5287  0.8090  1.6582
 5601SOL     OW28435   1.610   0.303  11.369 -0.1611  0.5651 -0.2550
 5601SOL    HW128436   1.591   0.391  11.338 -1.1918  0.0985 -0.9592
 5601SOL    HW228437   1.691   0.297  11.319 -0.6001  1.6378 -1.0945
 5602SOL     OW28438   4.702   0.619   4.186 -0.5118  0.2613  0.4305
 5602SOL    HW128439   0.012   0.583   4.109  1.7858  2.3712  0.7346
 5602SOL    HW228440   0.016   0.570   4.253  0.5098 -1.6360 -1.6721
 5603SOL     OW28441   2.510   2.324   1.812 -0.2216 -0.3001 -0.3434
 5603SOL    HW128442   2.534   2.375   1.890  0.8424 -1.2374 -0.0577
 5603SOL    HW228443   2.528   2.382   1.738  0.0887 -0.2740 -0.2490
 5604SOL     OW28444   3.654   1.503   2.240  0.0838 -0.7180  0.7484
 5604SOL    HW128445   3.598   1.578   2.261 -1.2302 -0.6738 -2.9522
 5604SOL    HW228446   3.677   1.470   2.327 -2.7976 -0.3096  1.6880
 5605SOL     OW28447   2.733   2.305  11.815  0.3066 -0.5292  0.2513
 5605SOL    HW128448   2.665   2.290  11.749 -0.6108 -0.0454  1.0890
 5605SOL    HW228449   2.797   2.342  11.754  1.4436 -2.8860  0.0238
 5606SOL     OW28450   1.514   2.310  16.163  0.2078 -0.1987  0.3456
 5606SOL    HW128451   1.584   2.375  16.166 -1.2336  1.1660  3.6284
 5606SOL    HW228452   1.535   2.257  16.086 -0.5923  1.9970 -1.3891
 5607SOL     OW28453   0.920   2.560   8.662  0.3387 -0.2659  0.0250
 5607SOL    HW128454   0.895   2.523   8.577 -2.5288  0.1847  0.6791
 5607SOL    HW228455   0.931   2.653   8.643 -1.0350 -0.2682 -0.7818
 5608SOL     OW28456   0.307   0.680   1.445 -0.0239 -0.3520  0.4019
 5608SOL    HW128457   0.363   0.618   1.492 -0.0684 -0.8480 -0.1877
 5608SOL    HW228458   0.234   0.686   1.507  0.6733 -0.0252  1.1816
 5609SOL     OW28459   3.407   1.340   2.802  0.1361 -0.4493 -0.4103
 5609SOL    HW128460   3.490   1.383   2.823 -0.8968 -0.6890  3.9954
 5609SOL    HW228461   3.434   1.263   2.752 -1.1406 -1.4113  0.3951
 5610SOL     OW28462   4.187   2.681   1.593 -0.0920  0.6694 -0.2060
 5610SOL    HW128463   4.138   2.742   1.648 -1.1205  1.8460 -2.4218
 5610SOL    HW228464   4.242   2.744   1.547 -0.3959 -2.1814 -4.5095
 5611SOL     OW28465   0.528   4.383  15.837  0.1800 -0.0621 -0.0502
 5611SOL    HW128466   0.514   4.292  15.863 -2.0206  0.3553  0.2876
 5611SOL    HW228467   0.462   4.434  15.884  1.1572 -0.4025  1.6648
 5612SOL     OW28468   4.060   4.508  10.048 -0.6010  0.0269 -0.9174
 5612SOL    HW128469   3.978   4.524  10.001 -0.4442 -0.2922 -1.2982
 5612SOL    HW228470   4.103   4.458   9.979 -1.2978 -1.8269 -0.0104
 5613SOL     OW28471   4.645   4.550   6.917 -0.0680 -0.0932 -0.1691
 5613SOL    HW128472   4.650   4.484   6.848  1.0036  0.6866 -0.8278
 5613SOL    HW228473   4.702   4.513   6.985 -1.0902 -0.6811  0.3714
 5614SOL     OW28474   0.187   0.462   6.277  0.0723  0.0533 -0.5639
 5614SOL    HW128475   0.253   0.464   6.347  1.3811 -0.2893 -1.7793
 5614SOL    HW228476   0.123   0.528   6.302  1.0153  0.5661  0.4924
 5615SOL     OW28477   2.032   2.535   3.501 -0.8455 -0.2472 -0.0383
 5615SOL    HW128478   2.126   2.547   3.488 -1.0588  2.1337  0.8378
 5615SOL    HW228479   2.027   2.442   3.526  4.0789 -0.5815 -0.3695
 5616SOL     OW28480   4.252   2.816   8.110 -0.5310 -0.0501  0.3972
 5616SOL    HW128481   4.216   2.790   8.195  0.8609  1.5081  1.4627
 5616SOL    HW228482   4.218   2.743   8.058  1.7555 -1.6064  1.1041
 5617SOL     OW28483   4.120   1.358   3.482 -0.0099  0.0794 -0.4709
 5617SOL    HW128484   4.095   1.332   3.393 -0.1864  0.0775 -0.4193
 5617SOL    HW228485   4.212   1.333   3.470 -0.3985 -2.2002  1.3537
 5618SOL     OW28486   3.319   1.692   9.927  0.6600  0.1455 -0.1529
 5618SOL    HW128487   3.315   1.786   9.947 -0.8843  0.3691 -1.5185
 5618SOL    HW228488   3.331   1.655  10.014  1.3195 -2.3976 -1.3417
 5619SOL     OW28489   1.039   0.318  15.246  0.6968 -0.3813  0.0310
 5619SOL    HW128490   1.129   0.346  15.234 -0.5692  3.5668 -0.2017
 5619SOL    HW228491   0.993   0.398  15.273  0.2521 -1.3372  2.1502
 5620SOL     OW28492   1.805   0.419   6.400 -0.0005  0.0131 -0.4561
 5620SOL    HW128493   1.730   0.445   6.346 -0.1805  3.0240  1.2797
 5620SOL    HW228494   1.786   0.448   6.489  3.0552  3.0771 -0.8198
 5621SOL     OW28495   1.048   4.580  14.857  0.2168 -0.4292  0.0443
 5621SOL    HW128496   1.126   4.569  14.802 -0.3314  1.5483 -1.1184
 5621SOL    HW228497   0.977   4.597  14.796  2.2682 -1.1225 -2.5665
 5622SOL     OW28498   3.788   0.499   3.507 -0.3695  0.9515  0.8430
 5622SOL    HW128499   3.766   0.494   3.600 -0.3200  0.0385  0.8014
 5622SOL    HW228500   3.702   0.480   3.469 -0.9115 -1.6574  3.3319
 5623SOL     OW28501   2.119   3.017   4.642 -0.3726  0.6255  0.4667
 5623SOL    HW128502   2.213   3.023   4.626 -0.3354  1.7042  1.0762
 5623SOL    HW228503   2.109   2.927   4.673  1.7877  0.5566  0.9156
 5624SOL     OW28504   3.350   3.357   7.837  0.4907 -0.1559 -0.0165
 5624SOL    HW128505   3.418   3.295   7.810  0.9819  0.8635 -1.1387
 5624SOL    HW228506   3.346   3.345   7.931 -0.6847 -0.3388 -0.0962
 5625SOL     OW28507   3.609   2.871   3.699 -0.1148 -0.1871 -0.4089
 5625SOL    HW128508   3.632   2.783   3.729 -0.7739 -0.6002 -1.1158
 5625SOL    HW228509   3.585   2.916   3.780 -0.7942 -0.5630 -0.3945
 5626SOL     OW28510   2.853   2.621  12.773  0.0303  0.1748  0.0629
 5626SOL    HW128511   2.899   2.539  12.754  0.8467  0.1393  2.2180
 5626SOL    HW228512   2.834   2.616  12.866 -0.9834 -2.2940 -0.2797
 5627SOL     OW28513   2.599   1.115   8.415 -0.5217 -0.6184 -0.3503
 5627SOL    HW128514   2.511   1.146   8.435 -0.6979 -0.7211 -0.9630
 5627SOL    HW228515   2.635   1.121   8.504  0.0557  0.1163 -0.6341
 5628SOL     OW28516   3.118   3.266  14.063  0.1928 -0.4697 -0.1318
 5628SOL    HW128517   3.183   3.274  14.134 -0.8777 -0.5661  0.8571
 5628SOL    HW228518   3.050   3.229  14.119 -1.0772  2.3714  0.1560
 5629SOL     OW28519   0.736   4.022  15.883  0.2582 -0.2217 -0.2910
 5629SOL    HW128520   0.664   4.058  15.831  1.3353  0.0847 -1.5488
 5629SOL    HW228521   0.695   3.990  15.964 -0.9566  1.1479 -0.3491
 5630SOL     OW28522   1.283   3.597   7.597  0.1474 -0.3370  0.1272
 5630SOL    HW128523   1.201   3.557   7.569 -1.3709  2.7457  0.2487
 5630SOL    HW228524   1.260   3.670   7.655 -2.5564 -1.6176  0.6678
 5631SOL     OW28525   0.337   2.188   8.570  0.2445 -0.1451 -0.5228
 5631SOL    HW128526   0.272   2.212   8.637 -1.6427 -0.0511 -2.3858
 5631SOL    HW228527   0.343   2.275   8.531  1.0776  0.0291 -0.0024
 5632SOL     OW28528   4.550   4.543   3.075 -0.0122  0.0409 -0.6425
 5632SOL    HW128529   4.633   4.590   3.079 -0.0270  0.1294 -1.4535
 5632SOL    HW228530   4.513   4.579   2.994  1.0043  2.6928  0.0673
 5633SOL     OW28531   3.264   2.056  11.023  0.0307 -0.1669 -0.0128
 5633SOL    HW128532   3.215   2.054  11.105 -0.3633 -1.1270 -0.2757
 5633SOL    HW228533   3.228   1.981  10.976 -1.6822  1.5293 -1.4455
 5634SOL     OW28534   4.214   2.593  15.188  0.0653  0.1295  0.6571
 5634SOL    HW128535   4.229   2.528  15.119  1.1488  0.7344  0.3286
 5634SOL    HW228536   4.295   2.599  15.238  0.1517  0.3576  0.4881
 5635SOL     OW28537   1.412   0.416   5.911 -0.1653 -0.3869  0.3293
 5635SOL    HW128538   1.337   0.411   5.970  1.5893  0.6756  2.6848
 5635SOL    HW228539   1.380   0.483   5.851  0.9843  1.1166  1.3717
 5636SOL     OW28540   3.852   1.064   3.305  0.2362 -0.4414  0.4422
 5636SOL    HW128541   3.824   1.058   3.396 -1.0952  1.0892  0.1196
 5636SOL    HW228542   3.875   0.972   3.290  0.0468 -0.9817  3.4815
 5637SOL     OW28543   0.344   0.083   6.403 -0.4265 -0.1858 -0.3615
 5637SOL    HW128544   0.362   4.725   6.425  1.8552 -0.0867 -1.8410
 5637SOL    HW228545   0.250   0.075   6.418 -1.0011  2.6507 -2.5125
 5638SOL     OW28546   1.065   1.219  16.903  0.1728  0.4648 -0.6414
 5638SOL    HW128547   1.055   1.277  16.979  0.0079 -0.2399 -0.1274
 5638SOL    HW228548   1.029   1.280  16.839 -0.1974 -1.7024 -2.5022
 5639SOL     OW28549   3.744   2.731   0.666  0.4951 -0.4684  0.5829
 5639SOL    HW128550   3.793   2.652   0.642 -0.1271 -0.3389 -1.0617
 5639SOL    HW228551   3.732   2.783   0.587  3.7731  1.5878  1.4188
 5640SOL     OW28552   2.035   0.142  12.389 -0.4993  0.2760  0.1398
 5640SOL    HW128553   2.090   0.220  12.392 -0.1716 -0.0620  3.1349
 5640SOL    HW228554   2.076   0.090  12.320 -0.2600  1.1569 -0.3833
 5641SOL     OW28555   2.693   3.912   4.735  0.1285 -0.2794  0.0667
 5641SOL    HW128556   2.694   3.998   4.694  2.4271 -0.5224 -0.4061
 5641SOL    HW228557   2.789   3.903   4.734  0.1288 -0.7555  3.3391
 5642SOL     OW28558   0.284   1.249   7.726  0.5163  0.1885  0.1387
 5642SOL    HW128559   0.357   1.278   7.671  0.5017  1.7027  0.9169
 5642SOL    HW228560   0.212   1.292   7.680  0.5782  0.5497  0.3813
 5643SOL     OW28561   2.131   4.441  16.655  0.2486  0.0167  0.0174
 5643SOL    HW128562   2.155   4.532  16.675 -0.1799  0.3639 -1.0571
 5643SOL    HW228563   2.069   4.446  16.582 -1.1931 -3.1220  1.0389
 5644SOL     OW28564   0.364   3.025  10.609 -0.1910 -0.0225 -0.2883
 5644SOL    HW128565   0.289   2.985  10.652 -2.0941  0.9355 -2.6694
 5644SOL    HW228566   0.427   3.005  10.678  1.0668 -1.3815 -1.8266
 5645SOL     OW28567   0.225   2.681   4.467  0.6210  0.0999  0.0813
 5645SOL    HW128568   0.230   2.585   4.462 -0.7958 -0.0070  0.6774
 5645SOL    HW228569   0.316   2.701   4.490  0.1150  0.1782  2.0258
 5646SOL     OW28570   0.604   2.996   6.626  0.4572  0.2969 -0.7522
 5646SOL    HW128571   0.626   2.935   6.555  0.3250  0.6124 -1.0628
 5646SOL    HW228572   0.649   2.959   6.702 -1.0714 -1.6269 -0.7897
 5647SOL     OW28573   1.615   4.508   4.041  0.0700 -0.0538  0.2551
 5647SOL    HW128574   1.632   4.586   3.989  1.5434 -1.5526 -1.5127
 5647SOL    HW228575   1.522   4.498   4.024  0.3767  1.1451 -1.9901
 5648SOL     OW28576   1.347   3.299   5.290  0.0512 -0.0200  0.2682
 5648SOL    HW128577   1.439   3.323   5.284 -0.3798  1.8025  0.7898
 5648SOL    HW228578   1.341   3.236   5.218  1.3775  0.2506 -0.0631
 5649SOL     OW28579   1.107   0.391  12.090 -0.2879  0.3464 -0.7030
 5649SOL    HW128580   1.016   0.408  12.065 -0.7814 -0.8902  0.2385
 5649SOL    HW228581   1.101   0.340  12.171  1.6527  0.5573 -0.4243
 5650SOL     OW28582   0.861   2.739  12.324 -0.1181 -0.4191 -0.5365
 5650SOL    HW128583   0.956   2.734  12.332 -0.4141  0.4446  3.3379
 5650SOL    HW228584   0.840   2.680  12.251 -0.6153 -0.6802 -0.1848
 5651SOL     OW28585   0.086   3.261   0.638 -0.1953 -0.2426  0.2077
 5651SOL    HW128586   0.019   3.326   0.615  1.5022  1.4857  0.2043
 5651SOL    HW228587   0.146   3.301   0.700  0.1895 -1.0477  0.3643
 5652SOL     OW28588   2.576   2.274   1.017 -0.1306 -0.0181 -0.1825
 5652SOL    HW128589   2.486   2.268   1.049 -0.2736  1.6808 -0.2927
 5652SOL    HW228590   2.574   2.277   0.921 -0.3678  2.4421 -0.0986
 5653SOL     OW28591   1.279   2.095  10.736  0.0929 -0.0761 -0.0169
 5653SOL    HW128592   1.352   2.052  10.780 -1.0199 -0.6999  1.2434
 5653SOL    HW228593   1.289   2.190  10.745 -0.1695 -0.0938  0.4955
 5654SOL     OW28594   3.804   0.402   7.694 -0.2344 -0.3302  0.4889
 5654SOL    HW128595   3.709   0.392   7.689 -0.4295  1.1487  1.3605
 5654SOL    HW228596   3.826   0.370   7.782  2.5141 -0.6033 -0.2984
 5655SOL     OW28597   0.661   1.493   8.035 -0.2626  0.1428 -0.6615
 5655SOL    HW128598   0.750   1.457   8.032  0.7267  2.6102 -0.6181
 5655SOL    HW228599   0.632   1.484   7.945 -0.2630 -2.9692 -0.3666
 5656SOL     OW28600   0.759   1.801   4.739 -0.2320  0.1575 -0.0516
 5656SOL    HW128601   0.793   1.762   4.819  2.4295  1.5187 -0.5347
 5656SOL    HW228602   0.825   1.868   4.724 -0.7454  1.3332  3.0334
 5657SOL     OW28603   2.288   1.654   7.252  0.0337 -0.1469  0.1618
 5657SOL    HW128604   2.320   1.698   7.331  1.1765  1.1627 -1.0202
 5657SOL    HW228605   2.372   1.650   7.207  0.2283  0.4557  0.4570
 5658SOL     OW28606   1.256   2.513  13.755 -0.0003  0.5955 -0.2051
 5658SOL    HW128607   1.162   2.525  13.748 -0.2677 -1.3666  0.1147
 5658SOL    HW228608   1.288   2.602  13.740  0.9529 -0.0210 -1.8602
 5659SOL     OW28609   1.731   3.519  11.041  0.2266 -0.0064  0.1029
 5659SOL    HW128610   1.734   3.486  10.951 -0.8256  2.4851 -0.8284
 5659SOL    HW228611   1.825   3.512  11.058  0.0267 -0.0185  1.1752
 5660SOL     OW28612   3.209   2.179   2.802 -0.5281 -0.6793 -0.2675
 5660SOL    HW128613   3.217   2.212   2.712 -2.2696  2.9405  0.9055
 5660SOL    HW228614   3.300   2.182   2.834  0.3764  1.9487 -3.1295
 5661SOL     OW28615   3.532   1.692   3.905 -0.5556  0.4470  0.4436
 5661SOL    HW128616   3.496   1.756   3.843  0.8636  0.5480 -0.2815
 5661SOL    HW228617   3.468   1.689   3.976 -2.0435  0.4591 -0.9029
 5662SOL     OW28618   4.063   3.760   2.478 -0.2306  0.4368  0.3925
 5662SOL    HW128619   4.081   3.699   2.550 -2.4310 -2.0157 -1.1388
 5662SOL    HW228620   3.999   3.712   2.425 -0.6171  3.5014 -1.9309
 5663SOL     OW28621   2.280   0.899  12.358 -0.3071  0.1584 -0.6039
 5663SOL    HW128622   2.307   0.807  12.367 -0.8867 -0.2400 -2.9300
 5663SOL    HW228623   2.343   0.948  12.305  2.2110 -2.5196 -0.1549
 5664SOL     OW28624   0.287   3.323   5.199 -0.1523 -0.1919 -0.0961
 5664SOL    HW128625   0.274   3.276   5.281 -0.0670  1.7178  1.0198
 5664SOL    HW228626   0.270   3.245   5.146  0.0903  1.1566 -2.1804
 5665SOL     OW28627   1.343   3.440  10.698 -0.0511  0.1057  0.5760
 5665SOL    HW128628   1.338   3.501  10.624 -1.6461  0.9994  1.4333
 5665SOL    HW228629   1.252   3.426  10.722 -0.3769 -1.1227 -1.3328
 5666SOL     OW28630   2.057   4.440   7.577 -0.6708 -0.1438  0.4261
 5666SOL    HW128631   2.065   4.512   7.639  1.2370  0.5104 -0.6015
 5666SOL    HW228632   1.994   4.390   7.630 -2.2215  1.2238 -0.1252
 5667SOL     OW28633   0.275   4.584   0.493  0.4752  0.1086  0.7531
 5667SOL    HW128634   0.213   4.514   0.471 -1.8708  1.8692  1.7797
 5667SOL    HW228635   0.356   4.539   0.470  0.4899  1.3775 -1.6707
 5668SOL     OW28636   3.729   0.826   4.145  0.4673 -0.2111  0.5252
 5668SOL    HW128637   3.805   0.880   4.126 -0.4007  0.7824 -0.1156
 5668SOL    HW228638   3.703   0.782   4.064  1.1543 -1.0914  0.7779
 5669SOL     OW28639   4.401   3.062  11.300 -0.4631  0.4515  0.0759
 5669SOL    HW128640   4.436   3.039  11.214 -0.8169 -0.4402  0.1734
 5669SOL    HW228641   4.483   3.058  11.349  1.7297  1.8696 -3.4627
 5670SOL     OW28642   2.966   3.996   4.642 -0.0703 -0.2295  0.2925
 5670SOL    HW128643   3.001   3.984   4.554  2.5173  0.1466  1.2667
 5670SOL    HW228644   2.884   4.041   4.624  0.6568  1.0981  0.2962
 5671SOL     OW28645   0.575   1.019   7.132  0.2877 -0.1319  0.1470
 5671SOL    HW128646   0.638   0.958   7.094 -0.3236  0.7934 -2.3865
 5671SOL    HW228647   0.602   1.098   7.085  0.5787  0.5109  1.3963
 5672SOL     OW28648   3.106   4.444  17.470 -0.8403 -0.0872 -0.5072
 5672SOL    HW128649   3.068   4.472  17.553  0.1024 -0.0086 -0.1068
 5672SOL    HW228650   3.032   4.388  17.443 -0.4930 -0.6947 -0.2023
 5673SOL     OW28651   2.375   3.522   5.742  0.2031  0.0818 -0.6482
 5673SOL    HW128652   2.288   3.483   5.732 -0.5574  1.4841  0.4253
 5673SOL    HW228653   2.393   3.557   5.654  0.3417  0.7025 -0.3746
 5674SOL     OW28654   0.897   0.129   9.258  0.3644  0.1900  0.2324
 5674SOL    HW128655   0.802   0.141   9.265  0.8038  2.8663  1.7558
 5674SOL    HW228656   0.912   0.081   9.177  0.0752 -1.0113  0.8888
 5675SOL     OW28657   0.867   2.284   4.430  0.1620  0.2578  0.0703
 5675SOL    HW128658   0.851   2.347   4.359 -0.3822  1.1092  0.9359
 5675SOL    HW228659   0.774   2.270   4.451  0.4862  0.7968  1.8833
 5676SOL     OW28660   1.307   1.813   5.662  0.0001 -0.3292  0.5482
 5676SOL    HW128661   1.245   1.865   5.610 -0.3496 -0.5164  0.7703
 5676SOL    HW228662   1.279   1.723   5.649  1.1812 -0.5912 -0.0700
 5677SOL     OW28663   0.582   1.316   5.301 -0.3599  0.0023 -0.2437
 5677SOL    HW128664   0.551   1.310   5.210 -0.8164  0.3913 -0.1160
 5677SOL    HW228665   0.616   1.228   5.312 -1.1379 -0.3386 -0.5536
 5678SOL     OW28666   1.334   0.290   6.937 -0.7970 -0.2095  0.5051
 5678SOL    HW128667   1.325   0.385   6.944  0.2722  0.0031 -1.0097
 5678SOL    HW228668   1.419   0.287   6.894 -0.9699 -0.8589  0.2165
 5679SOL     OW28669   1.282   1.977  13.540 -0.6704  0.3621  0.5635
 5679SOL    HW128670   1.346   1.928  13.591 -0.1760  1.4660  1.0041
 5679SOL    HW228671   1.324   1.987  13.454 -0.5858 -0.5082  0.5001
 5680SOL     OW28672   1.508   0.416   7.773  0.1809  0.3399 -0.2748
 5680SOL    HW128673   1.467   0.425   7.687 -0.5009 -1.4160 -0.1279
 5680SOL    HW228674   1.494   0.502   7.814  0.6743  0.3013 -0.0274
 5681SOL     OW28675   2.130   2.364   3.318  0.2792  0.1776  0.0313
 5681SOL    HW128676   2.051   2.416   3.329 -0.9347 -1.5454 -0.3854
 5681SOL    HW228677   2.203   2.421   3.341 -0.7822  0.7324  1.9772
 5682SOL     OW28678   1.453   1.220   6.350 -0.0755  0.2083 -0.1241
 5682SOL    HW128679   1.541   1.244   6.320  1.2746 -1.4874  2.5632
 5682SOL    HW228680   1.399   1.270   6.289 -1.1755 -0.1667  0.5604
 5683SOL     OW28681   2.177   3.083   8.234  0.2379 -0.3151  0.1780
 5683SOL    HW128682   2.230   3.162   8.218 -1.4800  0.8767  0.3504
 5683SOL    HW228683   2.137   3.108   8.317 -0.3312 -0.7367  0.0267
 5684SOL     OW28684   0.279   0.179   2.490 -0.2741 -0.8440  0.3088
 5684SOL    HW128685   0.283   0.241   2.564 -2.1865  0.2440 -0.4985
 5684SOL    HW228686   0.299   0.239   2.418 -0.6449  0.5226  1.3478
 5685SOL     OW28687   0.443   2.677   6.545  0.5644 -0.3367  0.2106
 5685SOL    HW128688   0.372   2.643   6.598  0.6318  1.1189  1.2238
 5685SOL    HW228689   0.520   2.650   6.594  0.4612 -0.6394  0.2074
 5686SOL     OW28690   1.087   0.981   3.567  0.5465 -1.0392  0.5924
 5686SOL    HW128691   1.023   1.038   3.609  0.6566  0.5269 -1.4096
 5686SOL    HW228692   1.110   1.030   3.488 -3.3928 -0.1716 -0.0005
 5687SOL     OW28693   0.212   4.429   5.284 -0.3447  0.0775 -0.6180
 5687SOL    HW128694   0.231   4.464   5.196 -0.0950  0.2132 -0.5099
 5687SOL    HW228695   0.232   4.501   5.344 -1.2268 -1.3585  1.3553
 5688SOL     OW28696   1.099   2.336   2.025 -0.4175 -0.2617  0.8014
 5688SOL    HW128697   1.042   2.289   1.963  0.2461 -0.2886  0.2160
 5688SOL    HW228698   1.058   2.416   2.058 -0.2220  0.0368  0.3155
 5689SOL     OW28699   3.022   4.193  15.174  0.0689  0.2592 -0.1726
 5689SOL    HW128700   2.977   4.163  15.095 -2.3538 -1.4172  1.8231
 5689SOL    HW228701   3.076   4.264  15.140 -0.5078  0.4419 -0.7127
 5690SOL     OW28702   3.335   0.195  11.622  0.1714 -0.0109 -0.2945
 5690SOL    HW128703   3.348   0.119  11.566 -0.0245  1.6472 -2.5941
 5690SOL    HW228704   3.281   0.157  11.691  0.1671  0.2299 -0.1612
 5691SOL     OW28705   4.057   3.097   6.582 -0.2871 -0.0717 -0.3556
 5691SOL    HW128706   4.100   3.022   6.542 -0.2276  0.4613 -1.2831
 5691SOL    HW228707   4.133   3.154   6.590 -0.2566  0.2088 -2.8370
 5692SOL     OW28708   3.830   4.290   7.720  0.0047  0.8953  0.2292
 5692SOL    HW128709   3.903   4.344   7.689  1.4104 -1.7816 -1.1174
 5692SOL    HW228710   3.778   4.280   7.640 -0.3446  1.3418  0.4013
 5693SOL     OW28711   1.723   3.795   5.840  0.0048 -0.0866 -0.0043
 5693SOL    HW128712   1.648   3.736   5.828 -1.7722  2.0190  0.8432
 5693SOL    HW228713   1.691   3.841   5.917  0.9563 -0.5779  0.6895
 5694SOL     OW28714   4.281   4.675   2.168 -0.3521  0.4853  0.7124
 5694SOL    HW128715   4.222   4.620   2.116 -0.3016  0.9081  0.2018
 5694SOL    HW228716   4.359   4.654   2.117 -1.3001  0.5844 -0.7905
 5695SOL     OW28717   2.930   1.539   9.323 -0.5933  0.0275 -0.0411
 5695SOL    HW128718   3.013   1.494   9.342 -1.9437 -2.0401  0.8588
 5695SOL    HW228719   2.937   1.545   9.228 -0.1491  0.4480  0.0139
 5696SOL     OW28720   0.489   2.719  10.277  0.6166  0.3052 -0.0170
 5696SOL    HW128721   0.438   2.705  10.197  0.8115 -0.0988 -0.0698
 5696SOL    HW228722   0.432   2.780  10.324  0.8395  0.6594 -0.2098
 5697SOL     OW28723   3.262   2.951   9.250  0.5451 -0.2735 -0.2376
 5697SOL    HW128724   3.188   2.982   9.303 -0.0074 -1.4537 -0.3272
 5697SOL    HW228725   3.325   3.022   9.258  0.4802 -0.1632 -0.7566
 5698SOL     OW28726   2.042   3.100   2.295  0.6768 -0.2159  0.0015
 5698SOL    HW128727   1.982   3.174   2.287  2.9875  1.3653 -2.6680
 5698SOL    HW228728   2.004   3.065   2.376  1.0004  1.7891  1.0222
 5699SOL     OW28729   0.416   2.491   2.536  0.4759 -0.0399 -0.4442
 5699SOL    HW128730   0.406   2.543   2.616  0.7261 -1.7629  0.7179
 5699SOL    HW228731   0.460   2.553   2.478 -0.7350  1.2682  0.0298
 5700SOL     OW28732   1.826   0.394   0.550  0.0843 -0.1141  0.2625
 5700SOL    HW128733   1.734   0.367   0.553 -0.0867  0.5602  0.8957
 5700SOL    HW228734   1.848   0.409   0.641  2.1339 -0.2351 -0.2246
 5701SOL     OW28735   4.694   0.613   5.936  0.2132  0.4611  0.5029
 5701SOL    HW128736   4.707   0.661   6.018 -2.1336  1.4211  0.3364
 5701SOL    HW228737   0.050   0.586   5.918  0.1844  0.2077  0.7401
 5702SOL     OW28738   1.466   4.307  11.530 -0.8520 -0.3826 -0.4770
 5702SOL    HW128739   1.408   4.240  11.493 -1.0903  1.5367 -3.5534
 5702SOL    HW228740   1.512   4.338  11.451 -0.6020 -0.8413 -0.5154
 5703SOL     OW28741   0.167   1.443   5.736  0.0107 -0.0917  0.7961
 5703SOL    HW128742   0.169   1.354   5.699 -0.8731  1.1053 -2.0936
 5703SOL    HW228743   0.252   1.442   5.780  0.6099  0.2963 -0.3492
 5704SOL     OW28744   4.447   0.340  13.990 -0.3323 -0.4378  0.1372
 5704SOL    HW128745   4.361   0.380  13.975 -0.3649  0.2087  2.0532
 5704SOL    HW228746   4.470   0.323  13.899 -3.1622  0.4011 -0.7369
 5705SOL     OW28747   0.586   1.210   6.621 -0.7162 -0.0751 -0.4275
 5705SOL    HW128748   0.522   1.216   6.692  0.0433 -0.3822  0.2816
 5705SOL    HW228749   0.625   1.297   6.628  2.2579 -1.0838 -4.5955
 5706SOL     OW28750   3.058   3.937  16.899  0.1869  0.3782 -0.2424
 5706SOL    HW128751   3.067   3.858  16.953 -0.6966  0.6683  0.3441
 5706SOL    HW228752   2.964   3.930  16.879  0.2324 -2.5393  0.4703
 5707SOL     OW28753   4.637   2.441   7.497 -0.1580 -0.7337  0.4911
 5707SOL    HW128754   4.590   2.521   7.520 -1.3885 -1.0992 -0.7637
 5707SOL    HW228755   4.725   2.477   7.484 -0.7588  0.1325 -1.0938
 5708SOL     OW28756   3.273   4.279   5.927  0.2490  0.6394 -0.3803
 5708SOL    HW128757   3.276   4.185   5.907 -0.1021  0.4601  0.3878
 5708SOL    HW228758   3.336   4.282   5.999  0.7893 -0.1162 -0.8176
 5709SOL     OW28759   1.888   2.397  10.824 -0.4266  0.0845 -0.0266
 5709SOL    HW128760   1.957   2.331  10.813 -0.8468 -0.3036 -0.3559
 5709SOL    HW228761   1.815   2.342  10.795 -1.1515  2.4434 -2.6055
 5710SOL     OW28762   0.660   0.040  14.865 -0.1574 -0.2606  0.0912
 5710SOL    HW128763   0.730   0.103  14.850  2.0994 -2.2648  2.2201
 5710SOL    HW228764   0.616   0.037  14.780 -0.9023 -3.4873  0.5909
 5711SOL     OW28765   1.140   2.983   5.270  0.2062  0.2101  0.0919
 5711SOL    HW128766   1.175   2.953   5.186 -0.4526 -1.4878  0.4147
 5711SOL    HW228767   1.046   2.995   5.255  0.2803  0.8947  0.1937
 5712SOL     OW28768   2.874   4.688   8.254 -0.4246  0.7200 -0.0596
 5712SOL    HW128769   2.961   4.669   8.288  0.6023 -0.2046 -3.2196
 5712SOL    HW228770   2.865   4.606   8.207 -0.1341  0.5537  0.1771
 5713SOL     OW28771   4.298   4.280   8.674 -0.0634 -0.3915  0.3375
 5713SOL    HW128772   4.388   4.247   8.684  0.8296  1.2931 -2.1410
 5713SOL    HW228773   4.251   4.211   8.628  0.1549 -0.4203  0.1551
 5714SOL     OW28774   2.472   4.189   0.716 -0.2617 -0.4135  0.4128
 5714SOL    HW128775   2.445   4.241   0.640  0.4699  3.1531  2.6296
 5714SOL    HW228776   2.445   4.242   0.791 -2.5763 -1.3499  0.2321
 5715SOL     OW28777   2.155   2.683   6.005  1.0325  0.1111  0.0174
 5715SOL    HW128778   2.111   2.605   5.973 -0.2259  0.7353  0.2348
 5715SOL    HW228779   2.201   2.643   6.079 -1.9116  0.8869  2.2338
 5716SOL     OW28780   1.392   0.775   6.025 -0.8214 -0.6416 -0.3103
 5716SOL    HW128781   1.313   0.802   6.071 -0.2010  1.4740 -0.4824
 5716SOL    HW228782   1.368   0.704   5.966 -0.0677 -0.7929 -0.4364
 5717SOL     OW28783   4.509   2.914  16.376 -0.1102 -0.3167 -0.4142
 5717SOL    HW128784   4.509   3.004  16.410 -0.3378  0.4142 -2.3549
 5717SOL    HW228785   4.434   2.887  16.428 -0.8193 -0.0406 -1.2974
 5718SOL     OW28786   0.194   4.457   9.027  0.0859 -0.3547 -0.3428
 5718SOL    HW128787   0.153   4.381   9.068 -0.0628 -0.0898 -0.0058
 5718SOL    HW228788   0.286   4.435   9.012  0.4658  0.5492  0.7248
 5719SOL     OW28789   3.880   3.401   3.693  0.1625  0.1008 -0.3961
 5719SOL    HW128790   3.952   3.343   3.715  0.6641  0.5776 -0.7993
 5719SOL    HW228791   3.873   3.393   3.598 -0.3374  1.0540 -0.4444
 5720SOL     OW28792   3.240   2.484  10.190  0.2361 -0.0974  0.2331
 5720SOL    HW128793   3.176   2.417  10.213 -1.8803  0.8215 -2.8722
 5720SOL    HW228794   3.193   2.566  10.206  1.3517  0.9925 -2.1676
 5721SOL     OW28795   0.018   2.198   7.948 -0.4812 -0.0593  0.2433
 5721SOL    HW128796   4.712   2.128   8.000  0.6995 -0.9521 -0.0191
 5721SOL    HW228797   4.731   2.168   7.860 -0.1097 -1.9869  0.8050
 5722SOL     OW28798   0.479   0.487   5.846 -0.6386 -0.5607  0.2623
 5722SOL    HW128799   0.515   0.437   5.919 -0.5902  0.4332  0.9133
 5722SOL    HW228800   0.565   0.493   5.806 -0.8747 -1.2012 -0.3503
 5723SOL     OW28801   2.913   1.458  17.667  0.6214 -0.1053 -0.8436
 5723SOL    HW128802   2.851   1.387  17.655 -0.2295  0.6474 -0.9498
 5723SOL    HW228803   2.863   1.527  17.623 -0.2134  0.2118  0.5823
 5724SOL     OW28804   4.347   0.012   6.043  0.3989  0.2238 -0.1969
 5724SOL    HW128805   4.256   0.023   6.070  0.4194  3.0845 -1.2502
 5724SOL    HW228806   4.381   4.703   6.122  0.5620 -1.4941 -1.2033
 5725SOL     OW28807   2.960   0.272   5.709 -0.8592 -0.2403  0.1584
 5725SOL    HW128808   2.926   0.299   5.624 -3.6464 -0.6639  1.1375
 5725SOL    HW228809   2.965   0.178   5.695 -0.9955  0.0972 -2.0881
 5726SOL     OW28810   0.280   0.964   0.583 -0.7078 -0.2719  0.5486
 5726SOL    HW128811   0.250   0.933   0.668  2.5565 -1.4738  1.2854
 5726SOL    HW228812   0.212   0.929   0.526 -0.5454  1.1818 -0.5495
 5727SOL     OW28813   0.217   2.726   5.088 -0.1175 -0.3078 -0.0269
 5727SOL    HW128814   0.284   2.699   5.025  0.0690 -0.5434  0.2696
 5727SOL    HW228815   0.266   2.755   5.165  0.2515  0.9166 -0.7342
 5728SOL     OW28816   3.631   3.081   1.052 -0.2771  0.1895 -0.2887
 5728SOL    HW128817   3.540   3.061   1.028 -1.0505  0.6003  2.2471
 5728SOL    HW228818   3.683   3.020   1.000 -0.9888  0.6582 -1.5720
 5729SOL     OW28819   0.656   1.859   2.194  0.4170  0.3713  0.2591
 5729SOL    HW128820   0.736   1.911   2.187  0.1885  0.6627 -0.2493
 5729SOL    HW228821   0.660   1.823   2.105 -0.8676 -0.2489  0.4506
 5730SOL     OW28822   0.149   3.092   2.130 -0.0863 -0.5100  0.1655
 5730SOL    HW128823   0.134   2.998   2.130 -1.3265 -0.3093 -0.6996
 5730SOL    HW228824   0.103   3.130   2.055 -0.8161 -0.9996  0.3760
 5731SOL     OW28825   1.045   1.871   7.883  0.0540  0.3303  0.2168
 5731SOL    HW128826   1.099   1.831   7.951 -0.2846  0.8036  0.7538
 5731SOL    HW228827   1.104   1.862   7.807  1.5739  0.1576  1.4230
 5732SOL     OW28828   4.254   0.668   4.885 -0.3804 -0.8660  0.0814
 5732SOL    HW128829   4.185   0.670   4.818  0.5202  0.0425 -0.8062
 5732SOL    HW228830   4.208   0.711   4.957  0.9096  2.4378 -1.1019
 5733SOL     OW28831   3.414   4.280   7.370  0.3111  0.5023 -0.1461
 5733SOL    HW128832   3.463   4.219   7.314  0.2282 -0.8704  1.3086
 5733SOL    HW228833   3.456   4.271   7.455 -0.0841  1.8216  0.1875
 5734SOL     OW28834   3.265   4.161   1.948  0.1734  1.2234 -0.2663
 5734SOL    HW128835   3.218   4.081   1.971  3.7079 -0.9598 -0.5655
 5734SOL    HW228836   3.191   4.209   1.910 -1.4452 -1.2305 -0.1865
 5735SOL     OW28837   1.173   4.256   5.255 -0.5480  0.7137 -0.2997
 5735SOL    HW128838   1.129   4.204   5.323 -0.2032  1.6800  0.6518
 5735SOL    HW228839   1.203   4.184   5.200  2.1767 -0.2401  2.3777
 5736SOL     OW28840   0.775   1.544   5.484  0.5748 -0.3994 -0.3326
 5736SOL    HW128841   0.686   1.569   5.459  0.5917 -0.2621 -0.2569
 5736SOL    HW228842   0.827   1.542   5.404  2.2915  0.6569  0.7595
 5737SOL     OW28843   3.486   0.145   5.438  0.0905  0.3500 -0.0526
 5737SOL    HW128844   3.480   0.098   5.521 -1.2474  0.7920  0.0965
 5737SOL    HW228845   3.582   0.153   5.433  0.1320 -0.8623 -1.2918
 5738SOL     OW28846   1.496   0.654   6.481  0.8831  0.0805  0.0355
 5738SOL    HW128847   1.407   0.650   6.447  2.1192  1.0955 -3.3013
 5738SOL    HW228848   1.521   0.565   6.506  0.3426  0.4395  1.8525
 5739SOL     OW28849   2.992   4.681   3.876  0.0144  0.1348 -0.0936
 5739SOL    HW128850   3.050   4.623   3.828 -0.0276 -1.2694  1.5656
 5739SOL    HW228851   2.916   4.673   3.819  1.1231  0.1360 -1.5571
 5740SOL     OW28852   2.626   0.060  12.394  0.2355  0.5649  0.0964
 5740SOL    HW128853   2.587   4.712  12.424  2.9924 -0.5142  0.6901
 5740SOL    HW228854   2.717   0.033  12.388  0.0334 -0.1838  0.3841
 5741SOL     OW28855   3.086   2.584  11.695  0.4009  0.4454  0.0067
 5741SOL    HW128856   3.080   2.599  11.789 -0.0557 -1.6517  0.3081
 5741SOL    HW228857   3.180   2.593  11.679  0.3432 -0.5287 -0.8805
 5742SOL     OW28858   1.066   3.417   3.267 -0.1740  0.3789  0.0210
 5742SOL    HW128859   0.994   3.473   3.240  0.1854  0.3426 -1.0423
 5742SOL    HW228860   1.135   3.484   3.273 -0.5578  0.7498  0.2377
 5743SOL     OW28861   4.646   1.937   4.353  0.8258 -0.4105 -0.6199
 5743SOL    HW128862   4.719   1.923   4.293  3.3853 -0.3845  2.4782
 5743SOL    HW228863   4.682   1.904   4.436  0.4546  0.0751 -0.2629
 5744SOL     OW28864   0.751   1.592   2.526 -0.7270  0.1274  0.1874
 5744SOL    HW128865   0.671   1.610   2.575  0.1617  0.4158  1.5196
 5744SOL    HW228866   0.801   1.673   2.536 -0.1073 -0.1108 -0.9749
 5745SOL     OW28867   0.607   3.464   9.633  0.1177  0.1057 -0.2239
 5745SOL    HW128868   0.651   3.461   9.548  2.2870  1.9966  0.8552
 5745SOL    HW228869   0.519   3.497   9.614 -0.8887 -1.5199  1.6372
 5746SOL     OW28870   2.879   2.679  10.346 -0.8879 -0.5300  0.2612
 5746SOL    HW128871   2.822   2.659  10.271  0.0395 -1.7588 -0.1297
 5746SOL    HW228872   2.967   2.688  10.308 -0.7831 -3.2770 -0.1509
 5747SOL     OW28873   4.578   1.214   7.655 -0.7731  0.0491  0.6742
 5747SOL    HW128874   4.506   1.174   7.702 -0.9617 -1.9835 -1.3318
 5747SOL    HW228875   4.620   1.135   7.622 -0.2474  0.4713  0.3281
 5748SOL     OW28876   3.773   0.792   2.487  0.4778 -0.6249 -0.2909
 5748SOL    HW128877   3.683   0.822   2.502  0.1047 -2.3676  1.0504
 5748SOL    HW228878   3.816   0.829   2.563  0.9023  1.1575 -1.4071
 5749SOL     OW28879   2.018   4.698   2.900  0.0987  0.1018  0.1427
 5749SOL    HW128880   1.926   4.710   2.879  0.3984  0.3391 -1.0158
 5749SOL    HW228881   2.072   0.013   2.838  0.7076 -2.6096 -1.4837
 5750SOL     OW28882   4.617   0.225  13.796  0.2419  0.1709  0.8856
 5750SOL    HW128883   4.648   0.307  13.756 -0.3909 -0.5457 -1.0697
 5750SOL    HW228884   4.697   0.173  13.800 -1.3325 -2.4081 -1.1421
 5751SOL     OW28885   0.808   0.161   1.826  0.2452 -0.0276 -0.0617
 5751SOL    HW128886   0.887   0.144   1.775  1.8953  1.3874  2.0760
 5751SOL    HW228887   0.741   0.153   1.758 -0.9445 -1.0198  1.2194
 5752SOL     OW28888   2.525   0.878   7.431  0.4781  0.4256  0.2967
 5752SOL    HW128889   2.609   0.911   7.398  0.5297 -0.0519 -0.0468
 5752SOL    HW228890   2.515   0.791   7.391 -0.0662  0.1612  1.0119
 5753SOL     OW28891   0.998   4.714   6.819  0.3150 -0.1510 -0.5183
 5753SOL    HW128892   0.984   4.642   6.880 -0.2901 -0.8527 -1.4850
 5753SOL    HW228893   0.932   0.041   6.851 -0.9586 -0.6118 -2.2353
 5754SOL     OW28894   0.240   3.957   2.555 -0.0804 -0.5695  0.2826
 5754SOL    HW128895   0.257   4.027   2.491  0.5723 -2.9735 -2.1396
 5754SOL    HW228896   0.319   3.905   2.539  0.9898  0.7880  1.0823
 5755SOL     OW28897   2.430   0.969   3.558  0.0159 -0.2339 -0.0369
 5755SOL    HW128898   2.340   0.991   3.581 -1.0249 -2.3070 -2.1363
 5755SOL    HW228899   2.470   0.991   3.642 -0.1083 -2.2652  0.5585
 5756SOL     OW28900   1.160   2.607   6.010 -0.0956 -0.4222  0.9449
 5756SOL    HW128901   1.215   2.549   6.061  0.5828  0.1692  0.8869
 5756SOL    HW228902   1.185   2.590   5.919 -0.2508  2.4092  0.3682
 5757SOL     OW28903   4.195   4.227   7.747  0.1139  0.2197 -0.5765
 5757SOL    HW128904   4.140   4.298   7.780  0.5183  0.2035  0.1081
 5757SOL    HW228905   4.216   4.265   7.661 -0.5723  1.1463 -0.3348
 5758SOL     OW28906   1.322   3.284   4.820 -0.4679  0.5695 -0.6610
 5758SOL    HW128907   1.348   3.363   4.869 -1.2016 -0.4073  1.3143
 5758SOL    HW228908   1.239   3.316   4.786 -0.3164 -1.1440 -2.5580
 5759SOL     OW28909   2.643   4.589  16.281 -0.4439 -0.0642 -0.2790
 5759SOL    HW128910   2.712   4.564  16.220 -1.1399  1.1640 -1.5762
 5759SOL    HW228911   2.644   4.514  16.340 -2.0513  1.9118  2.2738
 5760SOL     OW28912   2.593   4.115   9.483  0.2404 -0.4224 -0.2468
 5760SOL    HW128913   2.515   4.108   9.538  0.8546 -1.1619  0.5281
 5760SOL    HW228914   2.584   4.038   9.428  1.7579 -0.0954 -0.9596
 5761SOL     OW28915   0.405   2.761  11.286 -0.0524  0.0682 -0.2978
 5761SOL    HW128916   0.375   2.851  11.270 -0.2105  0.1160  0.2627
 5761SOL    HW228917   0.423   2.765  11.380 -0.1812  0.1900 -0.2786
 5762SOL     OW28918   2.379   1.132  11.081  0.2010 -0.4089 -0.8836
 5762SOL    HW128919   2.458   1.186  11.086  0.8163 -1.3460 -0.4279
 5762SOL    HW228920   2.370   1.115  10.987 -1.4655 -0.1134 -0.7759
 5763SOL     OW28921   3.357   1.438   3.641 -0.7827 -0.0780  0.1710
 5763SOL    HW128922   3.316   1.432   3.727  1.3883 -0.4339  1.2008
 5763SOL    HW228923   3.285   1.469   3.586 -0.5062  0.2404 -0.0115
 5764SOL     OW28924   0.052   0.245   2.796 -0.3379 -0.3240 -0.2670
 5764SOL    HW128925   0.069   0.296   2.716 -1.3069 -3.0170 -2.2068
 5764SOL    HW228926   0.134   0.200   2.813  0.1407 -0.1757 -2.1593
 5765SOL     OW28927   3.907   4.130   2.142  0.1860  0.0567 -0.0631
 5765SOL    HW128928   3.934   4.073   2.070  2.3560  2.1768 -0.9355
 5765SOL    HW228929   3.891   4.071   2.216 -0.8954  0.5426  0.0969
 5766SOL     OW28930   0.487   4.192   3.684 -0.0650 -0.6069  0.3003
 5766SOL    HW128931   0.512   4.160   3.598  1.8062  0.8732  0.3162
 5766SOL    HW228932   0.463   4.282   3.662  1.8190  0.1407  1.2922
 5767SOL     OW28933   3.465   0.583   2.323  0.4004  0.0318  0.1078
 5767SOL    HW128934   3.537   0.533   2.284  0.1304 -0.9829  0.8978
 5767SOL    HW228935   3.397   0.578   2.256  0.0648 -0.9190  0.5174
 5768SOL     OW28936   3.663   4.425   0.370 -0.9595  0.1132  0.0879
 5768SOL    HW128937   3.712   4.378   0.303 -0.2072  0.9403  0.0591
 5768SOL    HW228938   3.576   4.432   0.332 -0.8510  1.6036  0.1043
 5769SOL     OW28939   2.796   3.396   3.636  0.0635  0.0596 -0.0062
 5769SOL    HW128940   2.788   3.365   3.546 -1.8191  1.1965 -0.2303
 5769SOL    HW228941   2.891   3.398   3.647  0.0499  0.2409  0.0914
 5770SOL     OW28942   2.000   2.819   5.723 -0.4753 -0.0120 -0.3410
 5770SOL    HW128943   2.051   2.738   5.718  1.2962  1.1821 -1.0955
 5770SOL    HW228944   2.064   2.888   5.710 -0.6020  0.2434  0.3792
 5771SOL     OW28945   3.426   2.334   9.700  0.4352  0.0165 -0.1559
 5771SOL    HW128946   3.468   2.413   9.734  0.7225  0.4469 -1.4940
 5771SOL    HW228947   3.362   2.375   9.641  1.5075  1.1762 -0.5353
 5772SOL     OW28948   3.353   1.227   4.501 -0.5939  0.7501  0.5220
 5772SOL    HW128949   3.411   1.300   4.481 -0.0790  0.1770 -0.0870
 5772SOL    HW228950   3.305   1.211   4.420 -0.9639 -2.1888  1.3257
 5773SOL     OW28951   3.869   3.772  12.213  0.2077 -0.2859  0.0776
 5773SOL    HW128952   3.916   3.854  12.197 -0.3494 -0.0094 -0.1337
 5773SOL    HW228953   3.804   3.798  12.278 -0.6146  1.4697 -1.4456
 5774SOL     OW28954   1.809   1.453   2.585 -0.6385  0.0072  0.5405
 5774SOL    HW128955   1.764   1.538   2.593 -0.0464  0.3491  0.2476
 5774SOL    HW228956   1.775   1.415   2.504 -1.5020 -0.6198  1.2057
 5775SOL     OW28957   1.010   4.043   3.561 -0.5094 -0.2344  0.0976
 5775SOL    HW128958   0.985   4.030   3.652 -0.7799  3.2757  0.5097
 5775SOL    HW228959   0.977   4.132   3.548  1.3387  0.2155 -1.4889
 5776SOL     OW28960   4.251   3.026   3.567  0.4258 -0.5942 -0.2843
 5776SOL    HW128961   4.192   2.951   3.574  0.7889 -1.0667 -2.3179
 5776SOL    HW228962   4.234   3.060   3.480  1.5429  2.4021  0.6763
 5777SOL     OW28963   2.757   0.383   7.980  0.6158 -0.0775  0.1797
 5777SOL    HW128964   2.773   0.296   8.017  0.1975  1.4212  3.9584
 5777SOL    HW228965   2.847   0.416   7.977  0.0038  1.4758 -1.4709
 5778SOL     OW28966   1.496   0.860  12.737  0.0481 -0.4647  0.4169
 5778SOL    HW128967   1.447   0.932  12.697  0.1286  0.4555  1.9770
 5778SOL    HW228968   1.541   0.824  12.660 -1.6496 -0.5166 -0.5561
 5779SOL     OW28969   2.997   0.670  12.612  0.0634 -0.1898 -0.4704
 5779SOL    HW128970   3.084   0.638  12.589  1.0105 -0.4482  3.4963
 5779SOL    HW228971   3.013   0.709  12.697 -0.3549  1.4821 -1.1648
 5780SOL     OW28972   4.050   3.500  11.628 -0.0166 -0.5141 -0.9621
 5780SOL    HW128973   4.011   3.525  11.711  1.7441 -4.0051  0.9325
 5780SOL    HW228974   3.966   3.467  11.595  0.3774 -1.6558 -0.8536
 5781SOL     OW28975   4.415   2.040  17.188  0.1373 -0.2633 -0.4129
 5781SOL    HW128976   4.436   2.061  17.097  0.0071  1.1152 -0.1313
 5781SOL    HW228977   4.504   2.026  17.220  0.0559 -0.3305 -0.2146
 5782SOL     OW28978   2.173   1.307   2.485 -0.5430  0.6656 -0.5475
 5782SOL    HW128979   2.180   1.394   2.446  0.9144  0.9634  0.3889
 5782SOL    HW228980   2.091   1.315   2.534  0.3850 -2.1510  1.4869
 5783SOL     OW28981   3.168   1.476   0.044 -0.4023 -0.0590  0.4330
 5783SOL    HW128982   3.077   1.467   0.016  0.1494 -0.9772 -1.0790
 5783SOL    HW228983   3.159   1.506   0.134 -1.1027  1.7008 -0.2269
 5784SOL     OW28984   1.525   3.929   3.480  0.2770 -0.3527 -1.0638
 5784SOL    HW128985   1.501   3.858   3.540  1.7072  0.2908  0.2711
 5784SOL    HW228986   1.615   3.943   3.509  0.0482 -1.8469  0.3585
 5785SOL     OW28987   0.810   0.388   8.782  0.4400 -0.7627 -0.8553
 5785SOL    HW128988   0.859   0.429   8.854 -0.6991  1.3209 -1.2653
 5785SOL    HW228989   0.750   0.328   8.827  1.1858 -1.2150 -0.4635
 5786SOL     OW28990   1.681   1.061   8.646  0.4543 -0.0219 -0.6554
 5786SOL    HW128991   1.643   1.063   8.558  1.1125  0.0294 -0.9362
 5786SOL    HW228992   1.631   1.135   8.681  0.1804 -0.7157  0.4371
 5787SOL     OW28993   4.125   3.830  15.454  0.4039 -0.4637  0.3715
 5787SOL    HW128994   4.070   3.906  15.435  1.8252  0.7770  1.2124
 5787SOL    HW228995   4.102   3.807  15.544  0.8237 -2.7512 -0.1049
 5788SOL     OW28996   1.066   1.483  15.937  0.1962 -0.1439 -0.0185
 5788SOL    HW128997   1.145   1.518  15.979 -0.5267 -0.3630  1.5325
 5788SOL    HW228998   1.004   1.473  16.009 -1.7624 -1.7476 -1.9304
 5789SOL     OW28999   4.209   3.851   4.032  0.2021 -0.4067 -0.2528
 5789SOL    HW129000   4.288   3.904   4.045  0.9574 -1.3729 -0.9543
 5789SOL    HW229001   4.155   3.877   4.107  0.4414  0.2895 -0.3181
 5790SOL     OW29002   2.398   0.050  16.917 -0.1943  0.4173 -0.2163
 5790SOL    HW129003   2.403   4.692  16.943 -0.5481  0.2382 -0.7579
 5790SOL    HW229004   2.407   0.109  16.991  0.7728 -1.3149  1.0468
 5791SOL     OW29005   2.955   1.894   8.113  0.3014 -0.7069 -0.4007
 5791SOL    HW129006   2.936   1.968   8.170 -1.5849 -1.1091 -0.5170
 5791SOL    HW229007   3.043   1.866   8.137  0.2591 -0.1141  0.4382
 5792SOL     OW29008   2.076   2.923   9.245  0.1989  0.1082 -0.5283
 5792SOL    HW129009   2.053   2.965   9.328 -2.2517 -1.7575 -0.2704
 5792SOL    HW229010   2.006   2.859   9.233 -1.0541  1.1595  1.1387
 5793SOL     OW29011   3.299   2.851   2.275  0.1443  0.0634  0.0702
 5793SOL    HW129012   3.391   2.836   2.299  0.9800 -2.0287 -4.6111
 5793SOL    HW229013   3.307   2.926   2.217 -0.2264 -1.5050 -1.9753
 5794SOL     OW29014   2.209   1.532   7.709 -0.6097 -0.0292  0.0105
 5794SOL    HW129015   2.300   1.536   7.739 -0.4802 -2.6694 -0.0000
 5794SOL    HW229016   2.183   1.444   7.736 -0.8148 -0.4776 -1.5985
 5795SOL     OW29017   3.244   4.290   4.542 -0.1784  0.1301  0.0599
 5795SOL    HW129018   3.239   4.198   4.519 -1.0549 -0.0605  0.9933
 5795SOL    HW229019   3.162   4.326   4.508 -0.5993 -1.0974 -0.1996
 5796SOL     OW29020   3.868   2.040   6.878  0.2775  0.1993  0.5099
 5796SOL    HW129021   3.910   2.124   6.894  5.6308 -2.0351 -1.5966
 5796SOL    HW229022   3.926   1.993   6.818 -0.9149 -1.1861  0.4275
 5797SOL     OW29023   0.606   4.098   1.511 -0.0098  0.1298 -0.3549
 5797SOL    HW129024   0.530   4.115   1.454 -0.4684  0.9669  0.4995
 5797SOL    HW229025   0.572   4.024   1.560 -0.3560  0.7361  0.3320
 5798SOL     OW29026   3.481   4.074   6.340 -0.0217  0.8735  0.0464
 5798SOL    HW129027   3.425   4.074   6.417  0.6112  0.3816  0.5047
 5798SOL    HW229028   3.467   3.981   6.326 -0.8887  0.9015  0.7854
 5799SOL     OW29029   4.412   0.802   0.778 -0.2196  0.3137 -0.3523
 5799SOL    HW129030   4.496   0.761   0.799 -1.1877 -0.7249  1.4788
 5799SOL    HW229031   4.435   0.893   0.796  1.6398 -0.1653 -0.3661
 5800SOL     OW29032   1.780   1.608   8.736  0.0431  0.0803 -0.2253
 5800SOL    HW129033   1.847   1.628   8.802  2.2642 -2.2166 -1.8056
 5800SOL    HW229034   1.791   1.513   8.727  0.1340  0.3133 -2.5504
 5801SOL     OW29035   2.264   1.347   2.850 -0.4233 -0.1462 -0.3300
 5801SOL    HW129036   2.307   1.430   2.829 -1.1027 -0.0694 -1.4252
 5801SOL    HW229037   2.172   1.369   2.837 -0.1984  2.1326  1.9369
 5802SOL     OW29038   1.670   2.855   0.592 -0.1061 -0.0892  0.0204
 5802SOL    HW129039   1.589   2.842   0.542 -0.1253 -0.3583  0.1218
 5802SOL    HW229040   1.628   2.874   0.676  1.9217 -0.5347  1.1204
 5803SOL     OW29041   1.983   3.184  13.681 -0.2994 -0.2851  0.1537
 5803SOL    HW129042   1.965   3.191  13.587  0.6685  0.6457  0.0312
 5803SOL    HW229043   2.035   3.259  13.711 -0.5200 -0.1258  0.1352
 5804SOL     OW29044   4.453   1.194   2.281  0.1297 -0.1560  0.2506
 5804SOL    HW129045   4.415   1.240   2.207  0.0913  1.0432  1.0141
 5804SOL    HW229046   4.486   1.262   2.340  0.8267  0.9879 -1.4600
 5805SOL     OW29047   1.234   0.684   5.306  0.4064  0.3002 -0.6433
 5805SOL    HW129048   1.318   0.652   5.275 -0.2631 -1.9325 -0.1312
 5805SOL    HW229049   1.178   0.611   5.281 -0.8338  0.3741  1.8293
 5806SOL     OW29050   4.732   4.493   8.266  0.2118  0.0990 -0.1820
 5806SOL    HW129051   4.662   4.461   8.209  1.1917  0.1597 -1.4461
 5806SOL    HW229052   0.039   4.407   8.278 -1.3047 -0.2405  2.4891
 5807SOL     OW29053   2.506   3.460   7.976 -0.1312  0.3653 -0.1718
 5807SOL    HW129054   2.521   3.366   7.965  0.3341  0.3615  0.4800
 5807SOL    HW229055   2.511   3.485   7.884  0.7671 -0.4636 -0.3559
 5808SOL     OW29056   2.016   3.945   2.065 -0.3358 -0.5291  0.2485
 5808SOL    HW129057   1.963   4.023   2.081  0.1978  0.0128 -0.6315
 5808SOL    HW229058   2.067   3.967   1.987 -0.2654 -0.6390  0.2634
 5809SOL     OW29059   1.777   2.048  12.664  0.2223  0.2076 -0.1195
 5809SOL    HW129060   1.750   1.957  12.657 -0.2559  0.4223 -0.9981
 5809SOL    HW229061   1.695   2.097  12.661 -0.5393 -0.9553  1.4639
 5810SOL     OW29062   0.740   1.693   1.967 -0.1019 -0.3429  0.1556
 5810SOL    HW129063   0.826   1.735   1.968 -0.5489  0.5789  0.6131
 5810SOL    HW229064   0.753   1.610   2.013  1.7505 -0.8017 -1.2401
 5811SOL     OW29065   3.102   2.134   3.582  0.6187 -0.3587  0.4050
 5811SOL    HW129066   3.101   2.209   3.524  1.4339 -1.7674 -1.4250
 5811SOL    HW229067   3.110   2.061   3.520 -1.6857 -1.0585  0.9092
 5812SOL     OW29068   4.646   0.967   5.481  0.0737  0.2716  0.0274
 5812SOL    HW129069   4.570   1.024   5.491 -0.1977 -0.0139 -0.3944
 5812SOL    HW229070   4.701   1.006   5.548  0.5137  0.2621 -0.3303
 5813SOL     OW29071   1.042   4.703   4.266 -0.6806 -0.6374  0.7284
 5813SOL    HW129072   1.094   4.689   4.345 -0.5317  1.1282  0.9557
 5813SOL    HW229073   0.960   4.675   4.306 -0.6139 -0.5327  0.9377
 5814SOL     OW29074   3.999   1.661   4.995  0.1177  0.3412 -0.1681
 5814SOL    HW129075   4.058   1.734   5.016  1.0522 -0.5656  0.3695
 5814SOL    HW229076   4.014   1.600   5.067 -1.1816  1.0135  0.6860
 5815SOL     OW29077   3.748   2.978   7.268 -0.3162  0.3074 -0.0204
 5815SOL    HW129078   3.746   2.992   7.363  1.1269 -0.6074  0.1531
 5815SOL    HW229079   3.834   3.012   7.242 -0.1694  1.8828  2.5490
 5816SOL     OW29080   3.136   4.437  14.101 -0.0781 -0.0221  0.0791
 5816SOL    HW129081   3.214   4.405  14.055 -0.4286  0.0480 -0.5589
 5816SOL    HW229082   3.140   4.424  14.196  0.1127  0.1123  0.0913
 5817SOL     OW29083   3.832   2.225   5.428  0.0767 -0.4100  0.1610
 5817SOL    HW129084   3.747   2.249   5.464  1.5117  0.4927  2.9075
 5817SOL    HW229085   3.876   2.309   5.411  1.7952 -1.5073 -0.7992
 5818SOL     OW29086   2.042   1.456   9.578  0.2081 -0.5195 -0.4168
 5818SOL    HW129087   2.042   1.369   9.617  0.0976  0.0042  0.7409
 5818SOL    HW229088   2.073   1.509   9.651 -1.0410 -0.7705  0.2896
 5819SOL     OW29089   3.661   3.039  16.408  0.1566 -0.8052 -1.2069
 5819SOL    HW129090   3.574   3.013  16.440  0.6775 -1.4582 -0.3373
 5819SOL    HW229091   3.677   3.097  16.483 -3.4001 -0.6426 -0.5466
 5820SOL     OW29092   4.580   2.995   2.255 -0.7467 -0.0230 -0.2600
 5820SOL    HW129093   4.637   2.933   2.208 -1.6194  0.7469 -2.3380
 5820SOL    HW229094   4.634   3.074   2.263 -0.4295 -0.3555  0.8490
 5821SOL     OW29095   1.898   4.328   2.786  0.3593 -0.0281  0.4581
 5821SOL    HW129096   1.956   4.314   2.860  1.8955 -0.6890 -0.8734
 5821SOL    HW229097   1.810   4.312   2.820  0.1374 -0.8319 -0.4898
 5822SOL     OW29098   1.368   1.782  11.809 -0.6405 -0.0811 -0.6907
 5822SOL    HW129099   1.433   1.790  11.878 -2.3512  0.9364  0.8051
 5822SOL    HW229100   1.403   1.715  11.750  2.1144 -0.3745  1.3191
 5823SOL     OW29101   4.044   1.237   5.358  0.7720 -0.0282  0.1477
 5823SOL    HW129102   4.097   1.241   5.437 -0.9750 -0.1902  1.3268
 5823SOL    HW229103   4.109   1.274   5.297  0.8200 -0.1934  0.0976
 5824SOL     OW29104   3.306   0.476  14.782  0.2542  0.6587  0.1909
 5824SOL    HW129105   3.316   0.382  14.799  0.4305  0.5837 -0.3312
 5824SOL    HW229106   3.345   0.474  14.695 -0.4285  0.2088 -0.1088
 5825SOL     OW29107   3.901   4.393   2.811 -0.2048  0.1755  0.5615
 5825SOL    HW129108   3.959   4.328   2.853 -0.8729 -0.1555  0.9781
 5825SOL    HW229109   3.874   4.452   2.881  2.0035 -0.7190  2.1903
 5826SOL     OW29110   2.994   1.676  12.153 -0.3625  0.0086  0.6553
 5826SOL    HW129111   2.973   1.722  12.072  0.3448 -1.5446 -0.4183
 5826SOL    HW229112   2.927   1.708  12.213  1.6894  2.7020  1.5354
 5827SOL     OW29113   2.409   3.622  11.630 -0.7838  0.4808 -0.0757
 5827SOL    HW129114   2.430   3.654  11.718 -2.8595 -2.1674  1.3567
 5827SOL    HW229115   2.457   3.681  11.572 -2.6504  2.1473  0.0766
 5828SOL     OW29116   4.297   1.536   5.327 -0.2290 -0.0113 -0.2772
 5828SOL    HW129117   4.367   1.595   5.299 -0.0225 -1.6758 -3.3199
 5828SOL    HW229118   4.319   1.459   5.274  1.9096  0.9869 -0.8496
 5829SOL     OW29119   2.449   0.009   6.332 -0.5520  0.2614  0.3118
 5829SOL    HW129120   2.359   4.719   6.352 -0.6269 -0.7228 -1.2224
 5829SOL    HW229121   2.440   0.102   6.350 -0.7708  0.6599 -1.8998
 5830SOL     OW29122   1.624   4.217  14.774 -0.3999 -0.1980 -0.2608
 5830SOL    HW129123   1.629   4.150  14.842 -0.8790 -0.7236 -0.7422
 5830SOL    HW229124   1.634   4.156  14.701 -0.8307 -0.2904 -0.2416
 5831SOL     OW29125   1.554   4.458  14.604  0.7298 -0.5399 -0.0633
 5831SOL    HW129126   1.575   4.539  14.651 -0.3651  0.0717 -0.6443
 5831SOL    HW229127   1.612   4.398  14.651 -0.1416 -1.1867  0.1803
 5832SOL     OW29128   3.221   3.650   8.707 -0.2643  0.0977  0.4095
 5832SOL    HW129129   3.297   3.706   8.720 -0.2453  0.3065 -0.6266
 5832SOL    HW229130   3.153   3.700   8.751 -2.5066 -1.0551 -1.7078
 5833SOL     OW29131   1.165   4.355   3.109  0.0184  0.0572  0.0775
 5833SOL    HW129132   1.256   4.380   3.121  0.3175 -0.1428 -1.8704
 5833SOL    HW229133   1.123   4.417   3.168 -0.3211 -0.2349  0.1449
 5834SOL     OW29134   4.651   3.319   4.792  0.2264  0.1433 -0.4032
 5834SOL    HW129135   4.661   3.343   4.884 -0.7132 -0.5326 -0.1227
 5834SOL    HW229136   4.607   3.235   4.798 -1.4752  1.0912  0.3443
 5835SOL     OW29137   1.554   4.350   2.138  1.0956 -0.3557 -0.5240
 5835SOL    HW129138   1.565   4.363   2.044  0.0833 -0.3530 -0.6411
 5835SOL    HW229139   1.621   4.397   2.187  0.6815 -0.5776  0.2671
 5836SOL     OW29140   4.308   4.069   9.558 -0.1406 -0.3880  0.2906
 5836SOL    HW129141   4.285   4.141   9.616  1.8568  0.4567  0.0071
 5836SOL    HW229142   4.247   4.084   9.486  3.6047  3.2088 -2.1198
 5837SOL     OW29143   3.987   3.034  11.500  0.5843  0.3506  0.7000
 5837SOL    HW129144   4.031   3.105  11.547  1.3315 -1.7121  3.1017
 5837SOL    HW229145   4.050   2.962  11.498 -0.3128 -0.4285  0.6140
 5838SOL     OW29146   4.289   1.404   6.726 -1.2486  0.0773  0.2317
 5838SOL    HW129147   4.290   1.308   6.720 -2.5155 -0.0087  1.5181
 5838SOL    HW229148   4.272   1.420   6.818  1.4061 -1.0645  0.9387
 5839SOL     OW29149   0.049   0.896  13.950  0.5859 -0.3285  0.4213
 5839SOL    HW129150   0.122   0.856  13.902  1.5003 -0.9400  2.3550
 5839SOL    HW229151   0.047   0.973  13.892  1.7804  0.5507  1.5234
 5840SOL     OW29152   0.501   1.580   5.387  0.3604  0.1446  0.0180
 5840SOL    HW129153   0.408   1.582   5.409 -0.0633 -0.3621 -1.7065
 5840SOL    HW229154   0.507   1.500   5.334 -0.7038 -1.5345  2.4266
 5841SOL     OW29155   0.333   2.204  17.312 -0.1154  0.0273  0.8063
 5841SOL    HW129156   0.427   2.222  17.314  0.2316 -2.0524  2.3620
 5841SOL    HW229157   0.297   2.287  17.279  1.7333  0.7603  0.6479
 5842SOL     OW29158   4.335   3.177  16.957  0.6322 -0.4686  0.5950
 5842SOL    HW129159   4.281   3.255  16.966  0.4836 -0.3551 -1.3479
 5842SOL    HW229160   4.268   3.111  16.943  1.2074 -0.7099 -1.0061
 5843SOL     OW29161   4.068   3.969  16.913 -0.2961  0.0192  0.3555
 5843SOL    HW129162   4.123   3.949  16.989 -1.7706 -0.6315  1.2464
 5843SOL    HW229163   4.125   4.033  16.869 -1.1984 -1.7165 -3.3106
 5844SOL     OW29164   1.459   1.365   5.477 -0.0681 -0.8513  0.1262
 5844SOL    HW129165   1.468   1.423   5.553  0.6973 -1.2515  0.3398
 5844SOL    HW229166   1.513   1.415   5.416 -1.4066 -0.6695 -0.9314
 5845SOL     OW29167   0.725   3.721   5.512  0.1832 -0.0935  0.2993
 5845SOL    HW129168   0.804   3.690   5.468 -0.4674  0.3210 -1.1312
 5845SOL    HW229169   0.764   3.763   5.590  0.0025  1.3131 -0.3721
 5846SOL     OW29170   0.472   4.706  15.294  0.3001 -0.5372 -0.1385
 5846SOL    HW129171   0.432   4.629  15.254 -2.8755  0.6524  0.8028
 5846SOL    HW229172   0.551   4.672  15.337  2.9024  1.1347 -3.5390
 5847SOL     OW29173   4.609   3.688   8.046  0.1577 -0.1931  0.1966
 5847SOL    HW129174   4.529   3.681   8.098 -0.3444  1.2628 -0.3761
 5847SOL    HW229175   4.657   3.608   8.068  2.9133  1.1369 -0.9055
 5848SOL     OW29176   2.974   1.706  15.208  0.4461 -0.0492 -0.6534
 5848SOL    HW129177   2.899   1.701  15.150 -0.0354  1.2631 -0.1540
 5848SOL    HW229178   2.979   1.616  15.241  0.5692  0.7148  1.3970
 5849SOL     OW29179   3.400   0.086  15.508 -0.2512 -0.3722 -0.0191
 5849SOL    HW129180   3.346   0.011  15.535 -0.5195  0.3296  1.4283
 5849SOL    HW229181   3.379   0.147  15.579  0.4907  0.7235 -0.7532
 5850SOL     OW29182   3.668   2.473   5.342  0.4385  0.5507  0.2985
 5850SOL    HW129183   3.605   2.437   5.405 -1.3607 -0.8268 -2.2734
 5850SOL    HW229184   3.682   2.557   5.385  2.8782  0.3818 -0.1692
 5851SOL     OW29185   0.808   2.954   5.761 -0.1581 -0.7688  0.6835
 5851SOL    HW129186   0.798   2.979   5.853 -2.3787  0.0314  0.2489
 5851SOL    HW229187   0.740   3.009   5.721  2.0897  1.9559  0.6400
 5852SOL     OW29188   3.904   0.014   5.440 -0.0047 -0.1692  0.2409
 5852SOL    HW129189   3.960   4.713   5.371 -0.5949  3.8804 -2.2934
 5852SOL    HW229190   3.824   0.035   5.393  0.5951 -0.6386 -0.9817
 5853SOL     OW29191   2.174   0.071  12.716 -0.4071 -0.0773 -0.1610
 5853SOL    HW129192   2.174   0.159  12.677  3.3767 -0.8396 -1.8298
 5853SOL    HW229193   2.266   0.068  12.740 -0.6613  0.9575  0.9104
 5854SOL     OW29194   0.849   0.543   5.131  0.0531 -0.2023  0.0390
 5854SOL    HW129195   0.819   0.503   5.050 -0.2550 -0.2355  0.1687
 5854SOL    HW229196   0.768   0.554   5.182  0.0577 -1.6414  0.3517
 5855SOL     OW29197   2.476   2.365   8.450 -0.1036 -0.6823  0.4445
 5855SOL    HW129198   2.429   2.302   8.395 -0.6711  0.9136 -0.8911
 5855SOL    HW229199   2.420   2.398   8.519  0.0864 -0.0851  0.3141
 5856SOL     OW29200   2.250   1.527   2.357 -0.2872 -0.0177 -0.8330
 5856SOL    HW129201   2.318   1.586   2.324 -0.5411  0.5726 -0.3242
 5856SOL    HW229202   2.171   1.569   2.324 -1.5744  1.3836  3.9216
 5857SOL     OW29203   1.421   1.250  12.883  0.1921 -0.2259  0.0457
 5857SOL    HW129204   1.459   1.188  12.945 -0.0512 -1.4331 -0.9960
 5857SOL    HW229205   1.388   1.190  12.816  1.8222  0.5854 -1.4699
 5858SOL     OW29206   3.458   1.043  13.755 -0.6442 -0.4933  0.0625
 5858SOL    HW129207   3.446   1.038  13.849 -0.9691 -1.2704 -0.0198
 5858SOL    HW229208   3.487   0.957  13.726 -1.3418 -0.9938  0.8730
 5859SOL     OW29209   2.911   0.009   4.528 -0.0396  0.0664 -0.1025
 5859SOL    HW129210   2.838   0.069   4.508  1.5006  2.5964  1.8931
 5859SOL    HW229211   2.884   4.672   4.469  2.1915 -1.6760  1.0073
 5860SOL     OW29212   2.970   2.145   2.947  0.2685  0.0968  0.7471
 5860SOL    HW129213   3.039   2.187   2.895  0.7496 -1.5894  0.0262
 5860SOL    HW229214   2.895   2.122   2.892 -1.9375  0.3635  3.6690
 5861SOL     OW29215   1.136   1.522  14.988  0.0300  0.0625 -0.3833
 5861SOL    HW129216   1.043   1.519  15.012 -0.1033 -1.2465 -1.0609
 5861SOL    HW229217   1.126   1.527  14.893  0.5665 -2.8880 -0.6193
 5862SOL     OW29218   3.235   3.739   4.665  0.3735 -0.2746 -0.3101
 5862SOL    HW129219   3.183   3.793   4.606 -1.6019 -1.0258  0.7573
 5862SOL    HW229220   3.166   3.706   4.723 -0.3537 -0.6189 -1.3844
 5863SOL     OW29221   3.822   2.684  10.623  0.2354  0.2255  0.0213
 5863SOL    HW129222   3.751   2.746  10.606  1.5864  1.5141 -1.0058
 5863SOL    HW229223   3.846   2.702  10.714 -1.2149  1.1133  0.2325
 5864SOL     OW29224   2.609   4.012   3.247 -0.1642  0.1904  0.0604
 5864SOL    HW129225   2.612   4.052   3.160  0.6331 -1.7308 -0.7958
 5864SOL    HW229226   2.618   4.091   3.300  2.0699  1.0019 -1.5118
 5865SOL     OW29227   3.314   4.478   3.484 -0.4797  0.4516 -0.0813
 5865SOL    HW129228   3.303   4.529   3.404  1.6371  1.0311  0.0017
 5865SOL    HW229229   3.403   4.502   3.509 -0.7504  0.8367  0.5064
 5866SOL     OW29230   3.635   3.100   4.419 -0.2221  0.0058 -0.0564
 5866SOL    HW129231   3.653   3.106   4.512  1.9838  0.7583 -0.5392
 5866SOL    HW229232   3.671   3.012   4.409 -0.2068  0.0930 -0.7891
 5867SOL     OW29233   1.432   2.629  10.902  0.0031  0.0489 -0.1925
 5867SOL    HW129234   1.345   2.612  10.867 -0.3295 -2.1216  1.6499
 5867SOL    HW229235   1.464   2.538  10.902  1.7315  0.6509 -0.1534
 5868SOL     OW29236   3.545   3.440   6.562 -0.6031 -0.4338 -0.1445
 5868SOL    HW129237   3.597   3.520   6.566  0.4508 -1.1894  1.3711
 5868SOL    HW229238   3.487   3.448   6.486 -0.3725  0.0968 -0.2623
 5869SOL     OW29239   3.257   0.622   1.770  0.1220 -0.7705 -0.1380
 5869SOL    HW129240   3.305   0.669   1.701 -2.4850 -0.3465 -1.6727
 5869SOL    HW229241   3.276   0.674   1.849  1.9090 -2.0658  0.2824
 5870SOL     OW29242   2.290   0.339   8.344 -0.0792  0.1037  0.0101
 5870SOL    HW129243   2.315   0.271   8.407 -1.6809 -0.7181 -0.2390
 5870SOL    HW229244   2.370   0.388   8.327  0.7307 -0.7899  1.2287
 5871SOL     OW29245   3.406   3.326  12.797  0.7754  0.3181 -0.0840
 5871SOL    HW129246   3.399   3.341  12.892 -1.3493  0.8630 -0.3240
 5871SOL    HW229247   3.340   3.258  12.785  1.7508 -0.4688 -0.9935
 5872SOL     OW29248   0.517   3.397   6.525  0.1685  0.4115 -0.2613
 5872SOL    HW129249   0.556   3.350   6.451  1.3938  3.2184 -1.4299
 5872SOL    HW229250   0.427   3.404   6.491  1.1544 -2.1463 -3.3721
 5873SOL     OW29251   3.632   2.369   8.826 -0.5906  0.4399  0.2572
 5873SOL    HW129252   3.681   2.380   8.908  1.5917 -2.4679 -0.6608
 5873SOL    HW229253   3.596   2.458   8.821 -1.3430  0.1435  0.5236
 5874SOL     OW29254   3.876   1.892   3.676 -0.1852 -0.3655  0.2801
 5874SOL    HW129255   3.938   1.832   3.635  0.3606  0.0324  0.5250
 5874SOL    HW229256   3.929   1.970   3.687 -0.9310  0.0962  0.6109
 5875SOL     OW29257   3.792   1.823  14.758  0.1554 -0.3922 -0.1905
 5875SOL    HW129258   3.724   1.833  14.692  0.8684 -1.5932 -1.1021
 5875SOL    HW229259   3.793   1.913  14.790  0.8359  0.1806 -1.8159
 5876SOL     OW29260   1.219   4.088   7.311 -0.2812  0.0293  0.0370
 5876SOL    HW129261   1.162   4.019   7.346 -0.6314 -0.1794 -0.9464
 5876SOL    HW229262   1.158   4.162   7.303  2.8066  2.4847 -0.7376
 5877SOL     OW29263   4.125   0.588   7.897 -0.0921  0.2921  0.1236
 5877SOL    HW129264   4.127   0.620   7.987 -0.5485  0.7666 -0.0397
 5877SOL    HW229265   4.099   0.670   7.855  1.4613  0.7848  0.1365
 5878SOL     OW29266   0.507   1.505  11.965  0.1800 -0.5750 -0.2832
 5878SOL    HW129267   0.567   1.481  11.895  0.5795  2.7155 -1.0825
 5878SOL    HW229268   0.473   1.585  11.925  3.4428  0.9991  0.0991
 5879SOL     OW29269   1.468   2.765  11.341 -0.0441  0.8363 -0.6033
 5879SOL    HW129270   1.408   2.799  11.275 -0.6414  1.7263  0.3902
 5879SOL    HW229271   1.424   2.681  11.346  0.4357  0.6152  0.0076
 5880SOL     OW29272   1.192   1.296   6.176  0.7484 -0.8807  0.0830
 5880SOL    HW129273   1.178   1.210   6.216  0.5758 -1.0738 -0.3925
 5880SOL    HW229274   1.172   1.296   6.082 -1.1851 -4.2174  0.5023
 5881SOL     OW29275   1.016   1.059   6.674  0.1148 -0.2314  0.0921
 5881SOL    HW129276   0.946   1.005   6.637  0.0354  0.2205 -0.4071
 5881SOL    HW229277   1.021   1.124   6.604  1.8599 -0.0713  0.3595
 5882SOL     OW29278   1.958   2.912  14.005  0.1135 -0.5156 -0.0087
 5882SOL    HW129279   1.964   2.846  13.936 -0.1023 -0.4243 -0.1154
 5882SOL    HW229280   1.865   2.934  13.996 -0.0174 -1.0925 -0.0752
 5883SOL     OW29281   1.262   4.719   3.445 -0.1911  0.0786  0.5578
 5883SOL    HW129282   1.201   4.682   3.382  1.6372 -1.0049 -0.5895
 5883SOL    HW229283   1.197   0.038   3.491  0.2079  0.3798  0.7691
 5884SOL     OW29284   4.235   0.954   8.061  0.1418  0.5636 -0.1562
 5884SOL    HW129285   4.243   0.955   8.157 -2.1572 -1.6301  0.0540
 5884SOL    HW229286   4.290   0.878   8.039 -1.2786  0.2347 -2.5062
 5885SOL     OW29287   1.420   1.521   6.049 -0.6276 -0.3059 -0.2899
 5885SOL    HW129288   1.474   1.585   6.003 -0.7272  1.0000  1.4062
 5885SOL    HW229289   1.465   1.519   6.134 -0.5009 -2.2079 -0.3973
 5886SOL     OW29290   1.565   4.252  10.060  0.2280 -0.4809  0.4640
 5886SOL    HW129291   1.618   4.269  10.138  1.6405 -2.4171 -0.0966
 5886SOL    HW229292   1.533   4.342  10.054  0.5158 -0.4360 -0.3561
 5887SOL     OW29293   4.530   4.481   7.612 -0.5590 -0.0812  0.3579
 5887SOL    HW129294   4.548   4.494   7.519  0.1734  2.1460  0.8129
 5887SOL    HW229295   4.458   4.417   7.611  0.2082 -0.9113 -1.0041
 5888SOL     OW29296   4.548   2.373   6.470 -0.1689  0.1771  0.5238
 5888SOL    HW129297   4.597   2.366   6.388 -0.1367  0.4675  0.5159
 5888SOL    HW229298   4.586   2.308   6.528 -2.4306 -1.2144  0.4572
 5889SOL     OW29299   2.178   0.494   7.937  0.6614 -0.5160  0.3686
 5889SOL    HW129300   2.272   0.480   7.944  0.8416 -0.3751 -1.6527
 5889SOL    HW229301   2.154   0.425   7.875 -0.3328  0.0475  0.1323
 5890SOL     OW29302   3.941   4.649   0.387 -0.3716  0.7007 -0.3637
 5890SOL    HW129303   4.029   4.640   0.422 -0.1110 -0.9190 -1.4320
 5890SOL    HW229304   3.894   4.666   0.468 -0.2000  2.1563 -0.5710
 5891SOL     OW29305   3.904   0.405   7.975 -0.5790  0.8555  0.0249
 5891SOL    HW129306   3.946   0.344   8.036  0.6894  2.3795  0.6770
 5891SOL    HW229307   3.979   0.443   7.928  0.1051 -0.0172  0.4008
 5892SOL     OW29308   0.666   1.604  13.062  0.0848  0.2693  0.3101
 5892SOL    HW129309   0.662   1.585  12.968 -0.2223  0.7519  0.2240
 5892SOL    HW229310   0.697   1.522  13.099  0.8801  1.2770  1.8599
 5893SOL     OW29311   1.607   0.665  17.258 -0.4505 -0.7817  0.4487
 5893SOL    HW129312   1.569   0.752  17.261  3.8028  0.9805  2.5080
 5893SOL    HW229313   1.541   0.615  17.306 -0.9274  0.6834  1.2891
 5894SOL     OW29314   0.469   0.583  14.736  0.4432  0.1158 -0.3441
 5894SOL    HW129315   0.519   0.503  14.752 -0.4257  0.0437  2.0112
 5894SOL    HW229316   0.497   0.634  14.812  0.8339  2.5853 -2.1673
 5895SOL     OW29317   0.252   1.718   4.421  0.5727 -0.8363 -0.1171
 5895SOL    HW129318   0.292   1.652   4.363  1.8629 -0.7426  0.6720
 5895SOL    HW229319   0.294   1.796   4.386  3.1932 -1.8722  0.6490
 5896SOL     OW29320   1.376   2.928  11.818  0.2366  0.6829  0.2419
 5896SOL    HW129321   1.440   2.991  11.852 -0.4758  0.8326  1.2988
 5896SOL    HW229322   1.423   2.906  11.737 -0.9496 -1.7242  0.2170
 5897SOL     OW29323   1.499   2.628   5.091 -0.1548  0.3571 -0.4780
 5897SOL    HW129324   1.518   2.699   5.031  1.2904  1.5995  1.4638
 5897SOL    HW229325   1.541   2.556   5.043 -1.5023 -1.1272  0.5394
 5898SOL     OW29326   4.704   2.656  15.567  0.1922 -0.2150  0.6738
 5898SOL    HW129327   4.722   2.673  15.475  0.9045 -1.0027  0.6691
 5898SOL    HW229328   4.729   2.734  15.617 -0.5750 -0.7150  1.8212
 5899SOL     OW29329   1.868   4.727   4.307  0.4939  0.0474 -0.6351
 5899SOL    HW129330   1.816   0.025   4.233 -2.0002 -1.2108  0.5940
 5899SOL    HW229331   1.905   0.079   4.326  2.1313 -0.5255 -1.1925
 5900SOL     OW29332   3.023   0.996   8.599  0.1795  0.3148  0.0990
 5900SOL    HW129333   2.929   0.980   8.598 -0.2414  3.0162 -1.9029
 5900SOL    HW229334   3.047   1.017   8.689 -0.0782  1.7501 -0.1639
 5901SOL     OW29335   2.494   4.290   3.415 -0.9098 -0.1234 -0.0879
 5901SOL    HW129336   2.518   4.320   3.502  2.6233  1.2437 -1.5440
 5901SOL    HW229337   2.454   4.370   3.382  1.9239  0.7831 -1.3172
 5902SOL     OW29338   1.902   1.453   4.429 -0.5351  0.3340  0.0738
 5902SOL    HW129339   1.827   1.501   4.393 -1.0506 -0.3226  0.2656
 5902SOL    HW229340   1.851   1.400   4.490 -0.8032  1.0849  0.5119
 5903SOL     OW29341   1.865   2.549  12.085  0.6239 -0.8639 -0.2630
 5903SOL    HW129342   1.851   2.634  12.043  3.9608 -0.4718 -0.5770
 5903SOL    HW229343   1.803   2.545  12.158  0.3092 -1.4047 -0.5606
 5904SOL     OW29344   1.503   2.165   0.212  0.7860 -0.1555 -0.5385
 5904SOL    HW129345   1.489   2.070   0.210 -0.4096  0.0205 -0.7447
 5904SOL    HW229346   1.589   2.171   0.252  0.0271  0.8477  0.9347
 5905SOL     OW29347   3.112   0.022   9.412 -0.3957 -0.3476 -0.2619
 5905SOL    HW129348   3.147   0.029   9.324 -0.0244 -1.6986 -0.2309
 5905SOL    HW229349   3.188   4.728   9.463 -0.8685 -0.3685  0.4433
 5906SOL     OW29350   0.098   1.932   2.594  0.6192 -0.1415 -0.6531
 5906SOL    HW129351   0.109   1.846   2.635 -1.0235 -0.5315 -1.0149
 5906SOL    HW229352   0.167   1.983   2.637  0.9884  0.4992 -1.9981
 5907SOL     OW29353   1.293   0.553   6.924  0.2179  0.4492  0.1352
 5907SOL    HW129354   1.278   0.638   6.963 -0.7790  0.3800 -0.1006
 5907SOL    HW229355   1.233   0.558   6.849  0.2642  2.7174  0.2669
 5908SOL     OW29356   2.745   0.585   6.934  0.4763  0.0617 -0.4279
 5908SOL    HW129357   2.682   0.647   6.970 -0.6181 -1.8989  1.0852
 5908SOL    HW229358   2.694   0.505   6.917 -2.2900  1.5223  0.9439
 5909SOL     OW29359   1.116   3.801   5.436 -1.1777  0.3620  0.2125
 5909SOL    HW129360   1.038   3.762   5.396 -0.1877  0.0756 -1.4632
 5909SOL    HW229361   1.170   3.724   5.455 -0.7528  0.8354  0.9262
 5910SOL     OW29362   2.092   1.383   8.142 -0.8445  0.0325  0.0413
 5910SOL    HW129363   2.051   1.445   8.083 -1.7479 -0.8720 -0.2730
 5910SOL    HW229364   2.062   1.303   8.099  0.6196 -1.3150  1.4858
 5911SOL     OW29365   4.322   4.698   2.429 -0.5021  1.0684  0.6331
 5911SOL    HW129366   4.261   0.034   2.454  1.4882  3.3090 -0.7621
 5911SOL    HW229367   4.308   4.698   2.334  0.5963  1.1865  0.4740
 5912SOL     OW29368   1.595   3.554   4.119 -0.4292 -0.3139  0.2870
 5912SOL    HW129369   1.598   3.482   4.055 -2.0483  1.3453 -1.6753
 5912SOL    HW229370   1.654   3.613   4.073  1.2155 -2.0450  0.1723
 5913SOL     OW29371   0.316   3.564   6.195 -0.1166 -0.0143  0.9831
 5913SOL    HW129372   0.358   3.586   6.279  0.4071 -1.6054  1.1529
 5913SOL    HW229373   0.327   3.469   6.199  0.7729  0.0797  0.8562
 5914SOL     OW29374   1.071   1.500   6.287 -0.2573 -0.7833 -0.4982
 5914SOL    HW129375   1.130   1.431   6.258  1.6319  0.4662  0.3660
 5914SOL    HW229376   1.083   1.570   6.222  0.5058 -0.2574  0.2030
 5915SOL     OW29377   0.208   3.580   1.472 -0.7545  0.1872 -0.4181
 5915SOL    HW129378   0.257   3.662   1.465  4.2397 -2.6852  0.6675
 5915SOL    HW229379   0.194   3.575   1.566  3.3054 -2.5968  0.0586
 5916SOL     OW29380   0.117   2.741   3.735 -0.0258  0.6586  0.1738
 5916SOL    HW129381   0.073   2.717   3.653 -1.4653  3.0868  0.2297
 5916SOL    HW229382   0.046   2.777   3.788 -0.6221 -1.1341  0.5901
 5917SOL     OW29383   2.662   2.281  15.880 -0.0662 -0.3608  0.7627
 5917SOL    HW129384   2.743   2.297  15.833  0.3020  0.9197  1.8238
 5917SOL    HW229385   2.684   2.202  15.929 -0.1185  0.6390  2.4078
 5918SOL     OW29386   3.574   0.914   4.444 -0.1145  0.1854  0.0545
 5918SOL    HW129387   3.622   0.916   4.527 -3.1999 -1.9758  1.9110
 5918SOL    HW229388   3.654   0.900   4.394  0.9289  3.4345  0.8162
 5919SOL     OW29389   2.669   2.483   5.669  0.4111  0.6322  0.0126
 5919SOL    HW129390   2.713   2.467   5.585 -2.0825  1.3884 -1.4550
 5919SOL    HW229391   2.616   2.559   5.642 -0.1442  1.2087  2.7867
 5920SOL     OW29392   2.631   2.624  14.731  0.3446  0.5846  0.4971
 5920SOL    HW129393   2.581   2.637  14.811  0.9564  2.1046  0.6332
 5920SOL    HW229394   2.693   2.695  14.744 -2.1826  2.5126  1.8485
 5921SOL     OW29395   4.304   3.187   9.591 -0.2113  0.0345 -0.1237
 5921SOL    HW129396   4.375   3.157   9.648 -0.4156  0.2744  0.2560
 5921SOL    HW229397   4.241   3.115   9.587  0.1578 -0.2676 -0.5162
 5922SOL     OW29398   2.676   0.283   1.553  0.4003  0.2972 -0.2703
 5922SOL    HW129399   2.669   0.336   1.632 -1.7365  1.3163 -1.1577
 5922SOL    HW229400   2.710   0.350   1.494 -1.2111  2.6170  1.4655
 5923SOL     OW29401   3.141   2.271   8.401  0.2079 -0.0612 -0.7078
 5923SOL    HW129402   3.213   2.229   8.447  1.1982  1.0361 -1.2619
 5923SOL    HW229403   3.191   2.340   8.358 -0.6001  1.6955  1.2041
 5924SOL     OW29404   0.772   0.844   8.245 -0.2053 -0.1892 -0.1518
 5924SOL    HW129405   0.814   0.768   8.286 -0.6346  0.7661  2.0332
 5924SOL    HW229406   0.804   0.920   8.294 -0.8704 -0.3208  0.4891
 5925SOL     OW29407   0.183   1.820   7.750  0.2053  0.2936  0.2726
 5925SOL    HW129408   0.131   1.754   7.703 -0.8859  0.2010  1.5899
 5925SOL    HW229409   0.205   1.778   7.833 -2.3236  2.3822  2.0079
 5926SOL     OW29410   1.485   3.860   7.559  0.1665  0.0943  0.7605
 5926SOL    HW129411   1.549   3.791   7.573 -1.8981 -1.4865  2.1933
 5926SOL    HW229412   1.414   3.803   7.531  1.2570 -0.9512  0.1074
 5927SOL     OW29413   4.474   4.678  11.473 -0.0843  0.1197  0.1488
 5927SOL    HW129414   4.461   0.028  11.429  1.0703  0.2917  0.1358
 5927SOL    HW229415   4.570   4.677  11.479  0.0038 -0.4215 -1.1943
 5928SOL     OW29416   1.879   1.386  15.228  0.1753  0.8964 -0.0960
 5928SOL    HW129417   1.914   1.299  15.245  0.2492  1.1828  1.1759
 5928SOL    HW229418   1.950   1.434  15.185  0.9262  1.6347  1.9572
 5929SOL     OW29419   2.361   3.900   8.614  0.1759  0.3397 -0.2919
 5929SOL    HW129420   2.329   3.852   8.691 -0.4900  1.7759  0.3437
 5929SOL    HW229421   2.338   3.835   8.548 -0.2530 -1.9387  2.1052
 5930SOL     OW29422   2.075   4.301   1.377 -0.2877 -0.4163  0.0797
 5930SOL    HW129423   2.142   4.316   1.443 -0.9269 -0.0022  0.6355
 5930SOL    HW229424   1.992   4.293   1.423  0.4262 -0.1314  1.3891
 5931SOL     OW29425   3.769   1.418   3.211  0.5155 -0.4801  0.0478
 5931SOL    HW129426   3.738   1.329   3.199  0.3063 -0.2343 -1.2028
 5931SOL    HW229427   3.745   1.443   3.300  1.1174  1.0984 -0.2224
 5932SOL     OW29428   2.732   2.031   1.067  0.6206 -0.2216  0.3766
 5932SOL    HW129429   2.789   2.006   0.994  2.3068 -1.1783  2.0255
 5932SOL    HW229430   2.687   2.107   1.030 -2.4057 -1.6966  1.0592
 5933SOL     OW29431   4.496   3.800   2.609 -0.2514  0.4338  0.2453
 5933SOL    HW129432   4.463   3.745   2.537 -0.5119  1.4585 -0.4181
 5933SOL    HW229433   4.590   3.786   2.601 -0.3199  0.2362 -0.2478
 5934SOL     OW29434   0.071   0.669   1.255  0.1465  0.0204  0.7071
 5934SOL    HW129435   0.075   0.577   1.229  0.3614  0.1195  0.3944
 5934SOL    HW229436   0.088   0.671   1.349  1.2493  1.2050  0.4760
 5935SOL     OW29437   4.205   2.593   7.179  0.6460 -0.4280 -0.5738
 5935SOL    HW129438   4.144   2.643   7.125 -0.2584 -1.2033 -0.2705
 5935SOL    HW229439   4.150   2.572   7.254 -0.4865 -2.5550 -1.9891
 5936SOL     OW29440   3.149   2.786   7.476  0.4727 -0.3095  0.6745
 5936SOL    HW129441   3.187   2.866   7.514 -1.0071  1.3958 -1.4740
 5936SOL    HW229442   3.070   2.786   7.530 -0.0632 -0.8575 -0.1146
 5937SOL     OW29443   2.947   2.319   1.329 -0.5899 -0.0336 -0.4001
 5937SOL    HW129444   2.935   2.334   1.423 -1.6004 -0.5542 -0.4457
 5937SOL    HW229445   2.865   2.347   1.289 -1.5577 -0.4923  1.2416
 5938SOL     OW29446   3.342   1.563  11.636  0.1491  0.0822  0.1590
 5938SOL    HW129447   3.267   1.516  11.674  1.2256 -3.1855 -1.7379
 5938SOL    HW229448   3.407   1.493  11.623  1.0991  0.9226  0.4062
 5939SOL     OW29449   3.893   0.675   4.775 -0.3349 -0.2864  0.4700
 5939SOL    HW129450   3.952   0.702   4.705  0.8336 -0.4997  1.3709
 5939SOL    HW229451   3.939   0.717   4.847 -2.0502 -0.5154  1.7017
 5940SOL     OW29452   0.642   0.326   4.131 -0.3446 -0.1051  0.1530
 5940SOL    HW129453   0.658   0.280   4.213  1.2556 -0.3835 -0.3182
 5940SOL    HW229454   0.725   0.374   4.126 -1.6116  1.9570 -0.9578
 5941SOL     OW29455   1.865   3.541   6.268  0.5548 -0.6016 -0.7476
 5941SOL    HW129456   1.899   3.616   6.220 -1.6753 -0.0393 -1.4166
 5941SOL    HW229457   1.901   3.564   6.354 -0.1346  0.5657 -0.7769
 5942SOL     OW29458   2.447   1.770   7.458  0.1693 -0.9856  0.2200
 5942SOL    HW129459   2.484   1.740   7.542  2.1968 -0.5415 -0.5168
 5942SOL    HW229460   2.508   1.726   7.399 -1.4335 -1.8368 -0.8299
 5943SOL     OW29461   0.726   3.043   4.656 -0.5262  0.0787 -0.1013
 5943SOL    HW129462   0.776   3.119   4.625 -2.3092  0.7861 -1.2847
 5943SOL    HW229463   0.801   2.988   4.675 -0.7117  0.0168  0.4680
 5944SOL     OW29464   0.362   2.057   7.914  0.4611 -0.0325 -0.4237
 5944SOL    HW129465   0.396   2.112   7.985 -2.4629 -0.1994  1.1233
 5944SOL    HW229466   0.304   1.997   7.961  1.5394  0.5241  1.6026
 5945SOL     OW29467   3.292   2.400   0.368  0.5768 -0.2533  0.2245
 5945SOL    HW129468   3.230   2.472   0.378  2.6035  1.1880  2.3531
 5945SOL    HW229469   3.360   2.420   0.433  0.8139 -0.9369  0.1853
 5946SOL     OW29470   3.555   1.831  16.339 -0.5068  0.0119  0.1914
 5946SOL    HW129471   3.467   1.814  16.306  0.1252 -1.8924 -0.5386
 5946SOL    HW229472   3.575   1.921  16.313 -1.9766  0.2071 -0.2566
 5947SOL     OW29473   0.022   2.705   6.187  0.1460 -0.3080  0.0625
 5947SOL    HW129474   0.047   2.675   6.099 -2.9665 -2.0941 -0.2151
 5947SOL    HW229475   0.006   2.623   6.236 -0.7778 -0.3621 -0.3218
 5948SOL     OW29476   3.538   4.552   8.422  0.5802  0.4144  0.1156
 5948SOL    HW129477   3.602   4.606   8.376  1.0283  0.4412  0.7824
 5948SOL    HW229478   3.576   4.507   8.497 -0.7849 -1.3710 -0.2630
 5949SOL     OW29479   3.521   0.049   9.086 -0.6932 -0.4686 -0.9823
 5949SOL    HW129480   3.453   0.005   9.137  0.3186 -1.8967 -0.8505
 5949SOL    HW229481   3.499   0.033   8.994  0.9584 -0.0496 -1.4552
 5950SOL     OW29482   1.557   3.143   9.534 -0.7052 -0.3142  0.5137
 5950SOL    HW129483   1.548   3.231   9.498 -0.4950 -0.1188  0.9390
 5950SOL    HW229484   1.610   3.098   9.468 -1.4079  0.6753 -0.7145
 5951SOL     OW29485   3.406   1.989  13.988  0.2891 -0.0824 -0.2842
 5951SOL    HW129486   3.498   1.963  13.976 -0.1439 -0.0189 -3.7659
 5951SOL    HW229487   3.369   1.906  14.019  0.5374 -0.6644 -1.5536
 5952SOL     OW29488   2.265   1.019   7.458  0.2890  0.0885 -0.4711
 5952SOL    HW129489   2.345   0.980   7.496 -1.9005 -1.3746  2.6407
 5952SOL    HW229490   2.211   1.052   7.530 -0.5762 -0.8330 -0.7091
 5953SOL     OW29491   0.808   2.083   5.790  0.5838  0.0696 -0.2763
 5953SOL    HW129492   0.849   2.170   5.787  0.0275  0.3390 -0.0952
 5953SOL    HW229493   0.735   2.105   5.732 -0.0977  1.3268  1.0592
 5954SOL     OW29494   2.185   2.922  12.153 -0.1848 -0.1460  0.0731
 5954SOL    HW129495   2.223   2.834  12.156  1.0788  0.3773 -0.3935
 5954SOL    HW229496   2.104   2.909  12.201 -1.6955 -0.7037 -2.6210
 5955SOL     OW29497   3.379   2.411   4.532 -0.3543 -0.6889 -0.4333
 5955SOL    HW129498   3.339   2.487   4.489 -2.1303 -0.3966  1.7606
 5955SOL    HW229499   3.319   2.376   4.597  1.7104  0.5293  2.1401
 5956SOL     OW29500   0.418   3.092   6.429 -0.2659 -0.7083 -0.3442
 5956SOL    HW129501   0.401   3.006   6.389 -0.8086 -0.2248 -1.1514
 5956SOL    HW229502   0.474   3.062   6.500 -1.1513 -0.2715  0.5272
 5957SOL     OW29503   1.979   0.298  17.200  0.7988 -0.3484 -0.2252
 5957SOL    HW129504   1.944   0.380  17.234 -0.4102 -0.7470 -0.5119
 5957SOL    HW229505   2.024   0.258  17.274 -1.0490 -1.2006  0.4341
 5958SOL     OW29506   3.407   3.152   2.050  0.1355  0.0646 -0.1523
 5958SOL    HW129507   3.363   3.079   2.005 -0.1453  0.7373 -0.9529
 5958SOL    HW229508   3.352   3.228   2.036  1.3124  0.7537 -1.0229
 5959SOL     OW29509   3.439   0.557   6.540 -0.1917 -0.3723 -0.2073
 5959SOL    HW129510   3.354   0.513   6.537 -0.5436  0.3123 -0.2604
 5959SOL    HW229511   3.433   0.597   6.627  1.3664  1.5601 -0.9822
 5960SOL     OW29512   1.727   3.977   8.923  0.4327 -0.6692  0.1919
 5960SOL    HW129513   1.817   4.004   8.906  0.3142  0.0141  0.6686
 5960SOL    HW229514   1.696   4.048   8.979 -2.4218  1.0676 -3.5585
 5961SOL     OW29515   3.800   0.858   7.159 -0.2709 -0.1881  0.5954
 5961SOL    HW129516   3.830   0.948   7.166  0.2731 -0.3051 -0.1746
 5961SOL    HW229517   3.882   0.809   7.158  0.7368  1.4853  2.6631
 5962SOL     OW29518   3.883   1.693   8.982 -1.0108  0.1618 -0.1706
 5962SOL    HW129519   3.904   1.600   8.975 -2.4552 -0.3381  1.9237
 5962SOL    HW229520   3.854   1.716   8.893  0.2833  3.4072  0.2456
 5963SOL     OW29521   2.032   3.734  12.255 -0.3681  0.4778  1.2628
 5963SOL    HW129522   1.967   3.691  12.310 -1.7468 -0.8769 -1.3976
 5963SOL    HW229523   2.001   3.701  12.171  0.0604 -1.0645  1.7016
 5964SOL     OW29524   1.854   3.515   2.567 -0.1982 -0.0489  0.2536
 5964SOL    HW129525   1.791   3.584   2.546  1.5384  0.5538 -2.9725
 5964SOL    HW229526   1.786   3.456   2.600  0.0849 -1.7191 -2.1815
 5965SOL     OW29527   2.054   1.737   8.076  0.3726 -0.3224 -0.0811
 5965SOL    HW129528   2.079   1.779   7.994  1.1948 -1.0891 -0.2344
 5965SOL    HW229529   2.014   1.658   8.039  0.3197 -0.0090 -0.6773
 5966SOL     OW29530   2.026   0.842  12.376  0.1113  0.3691  0.0909
 5966SOL    HW129531   2.115   0.875  12.382  0.2896  0.1506 -1.2768
 5966SOL    HW229532   1.993   0.835  12.465  1.1476  0.0409  0.4407
 5967SOL     OW29533   4.347   1.679   4.008 -0.3511  0.1601  0.1260
 5967SOL    HW129534   4.361   1.597   4.055  2.2929  0.1976 -0.6056
 5967SOL    HW229535   4.384   1.744   4.069  2.3674 -0.5377 -0.7837
 5968SOL     OW29536   2.713   1.818   2.159  0.8957  0.2437 -0.0251
 5968SOL    HW129537   2.688   1.828   2.067  1.2703  0.1259 -0.1420
 5968SOL    HW229538   2.689   1.905   2.191  2.5007  0.1588  1.4025
 5969SOL     OW29539   0.468   2.485   4.234 -0.1288 -0.3085  0.2218
 5969SOL    HW129540   0.442   2.450   4.148  0.4488 -0.3812  0.0810
 5969SOL    HW229541   0.416   2.435   4.297  1.7266 -1.9238  0.4513
 5970SOL     OW29542   0.873   4.165   1.240  0.4822 -0.3413 -0.2835
 5970SOL    HW129543   0.900   4.086   1.287 -3.3739 -1.3614  0.2636
 5970SOL    HW229544   0.919   4.154   1.157 -2.1305 -1.6702 -1.5510
 5971SOL     OW29545   3.529   0.607  14.107 -0.0595 -0.1368  0.0950
 5971SOL    HW129546   3.484   0.624  14.024 -2.9715 -0.6195  1.5523
 5971SOL    HW229547   3.537   0.698  14.136  1.5643 -0.3958  0.4214
 5972SOL     OW29548   3.340   3.992   0.743  0.1525 -0.0972  0.1615
 5972SOL    HW129549   3.410   3.950   0.793  1.0624  0.9521 -0.2233
 5972SOL    HW229550   3.280   4.010   0.815  1.3325  1.6703  0.7010
 5973SOL     OW29551   4.045   3.723   3.774 -0.0170  0.4169 -0.1465
 5973SOL    HW129552   4.140   3.734   3.766  0.4493 -3.2769  0.2944
 5973SOL    HW229553   4.041   3.676   3.857 -1.0357  0.5593 -0.1247
 5974SOL     OW29554   4.714   0.893   2.633 -0.1142  0.8356  0.6455
 5974SOL    HW129555   4.732   0.957   2.701  0.9504  1.1682  0.0539
 5974SOL    HW229556   4.654   0.944   2.580 -1.1797 -0.0494  1.0134
 5975SOL     OW29557   2.608   2.557   3.526 -0.3147 -0.6116  0.3739
 5975SOL    HW129558   2.646   2.485   3.576 -2.4788 -1.9923 -0.0010
 5975SOL    HW229559   2.633   2.632   3.581 -1.8055  0.2847 -0.1732
 5976SOL     OW29560   0.057   1.472   2.874  0.2655 -0.2846 -0.2992
 5976SOL    HW129561   0.117   1.397   2.879  0.3914 -0.0152  1.9775
 5976SOL    HW229562   4.709   1.429   2.899  0.1218 -1.2239 -2.3578
 5977SOL     OW29563   0.409   1.616   8.577 -0.0952  0.0520  0.2884
 5977SOL    HW129564   0.323   1.618   8.618 -0.9683 -0.5014 -1.5409
 5977SOL    HW229565   0.433   1.707   8.590 -1.0693  0.1352  1.5086
 5978SOL     OW29566   2.948   0.800   2.238  0.1755  0.4338 -0.9086
 5978SOL    HW129567   2.878   0.811   2.302 -0.2754 -0.2276 -1.2860
 5978SOL    HW229568   2.929   0.878   2.186  1.0111  0.7886 -0.6836
 5979SOL     OW29569   3.436   0.023   5.704 -0.4328  0.4264 -0.0823
 5979SOL    HW129570   3.412   4.668   5.728  0.6095  0.2221  0.1974
 5979SOL    HW229571   3.405   0.070   5.781 -0.1582 -0.1924  0.4014
 5980SOL     OW29572   3.461   2.922  11.482 -0.4293  0.3311  0.5199
 5980SOL    HW129573   3.535   2.910  11.542  1.3479  0.6796 -1.6149
 5980SOL    HW229574   3.412   2.840  11.492 -0.6071  0.7550  3.2348
 5981SOL     OW29575   1.914   1.654   3.320 -0.0721 -0.0664  0.1163
 5981SOL    HW129576   1.857   1.715   3.272  1.7499  0.8930 -0.8101
 5981SOL    HW229577   2.000   1.691   3.304 -0.1632 -0.7098 -1.8657
 5982SOL     OW29578   3.694   4.101   5.041 -0.1127  0.5801 -0.1585
 5982SOL    HW129579   3.648   4.172   4.997  1.7274  0.6119 -2.0361
 5982SOL    HW229580   3.751   4.154   5.096  0.2960 -0.4427  0.4233
 5983SOL     OW29581   2.802   0.027   1.535 -0.3748 -0.1668  0.7477
 5983SOL    HW129582   2.760   0.112   1.522 -2.3812 -1.0750  1.3538
 5983SOL    HW229583   2.856   0.046   1.612  3.2425  2.1310 -2.3198
 5984SOL     OW29584   1.447   2.112   2.816  0.3181 -0.2806 -0.6915
 5984SOL    HW129585   1.366   2.086   2.773 -0.1697  0.4321 -0.2199
 5984SOL    HW229586   1.455   2.040   2.879  0.1738  0.3489  0.0547
 5985SOL     OW29587   1.575   3.010  11.040  0.5205 -0.0069 -0.0091
 5985SOL    HW129588   1.634   3.006  10.964  0.2807  0.1679 -0.2017
 5985SOL    HW229589   1.543   3.100  11.042  0.8841  0.1283 -0.1638
 5986SOL     OW29590   0.234   0.465  11.066 -0.0996 -0.6722 -0.0402
 5986SOL    HW129591   0.146   0.444  11.035  0.2534 -0.7796 -0.9626
 5986SOL    HW229592   0.249   0.401  11.136  0.4324  0.8681  1.2417
 5987SOL     OW29593   3.742   4.656   1.492 -0.6504  0.0556 -0.3278
 5987SOL    HW129594   3.709   4.581   1.542 -1.1039  0.6738  0.2973
 5987SOL    HW229595   3.707   4.647   1.403 -2.8702 -0.5460  0.6103
 5988SOL     OW29596   3.167   3.828  11.827  0.9903 -0.1198  0.1493
 5988SOL    HW129597   3.185   3.909  11.779 -2.6106  0.1886 -0.6716
 5988SOL    HW229598   3.254   3.829  11.867  0.4010 -0.2455  1.4035
 5989SOL     OW29599   1.661   4.512   4.970  0.0015 -0.4807 -0.1029
 5989SOL    HW129600   1.635   4.441   4.911  0.1369 -0.0477 -0.6892
 5989SOL    HW229601   1.576   4.554   4.983 -1.3328 -2.8705 -1.1247
 5990SOL     OW29602   1.880   3.062   4.862 -0.4330  0.2717  0.2024
 5990SOL    HW129603   1.945   3.082   4.794 -2.5252  2.3852 -1.2198
 5990SOL    HW229604   1.915   3.124   4.926  1.1269 -0.2717 -0.1183
 5991SOL     OW29605   2.802   0.150  16.268  0.5594 -0.1747 -0.2644
 5991SOL    HW129606   2.881   0.148  16.214  0.4256 -1.6466 -0.4235
 5991SOL    HW229607   2.727   0.152  16.208  1.5662 -1.0668 -1.5348
 5992SOL     OW29608   4.198   1.927  10.006 -0.0283  0.2022 -0.5058
 5992SOL    HW129609   4.112   1.932  10.048 -0.5414  1.6021 -1.7336
 5992SOL    HW229610   4.258   1.918  10.081  0.0110  0.3294 -0.5221
 5993SOL     OW29611   2.309   3.721   4.093 -0.3904 -0.2050 -0.4808
 5993SOL    HW129612   2.398   3.718   4.128  0.0709  1.0642 -1.5703
 5993SOL    HW229613   2.299   3.630   4.065 -3.9742 -0.3241  1.1419
 5994SOL     OW29614   1.716   0.797   6.143 -0.1315 -0.3579  0.6767
 5994SOL    HW129615   1.763   0.717   6.121  0.0307 -0.2418  0.5961
 5994SOL    HW229616   1.637   0.777   6.094  1.6134 -1.4720 -1.6917
 5995SOL     OW29617   3.806   3.531  10.116 -0.2157 -0.6087  0.8881
 5995SOL    HW129618   3.888   3.577  10.093 -0.8093  0.0190  0.0232
 5995SOL    HW229619   3.789   3.476  10.039  0.8978  0.6934 -0.2961
 5996SOL     OW29620   3.718   3.632   2.768 -0.4258  0.8831 -0.3808
 5996SOL    HW129621   3.776   3.709   2.767 -1.0261  1.3443  0.2998
 5996SOL    HW229622   3.684   3.631   2.678 -2.8256  0.6519  0.5242
 5997SOL     OW29623   1.474   1.585   8.692  0.2887  0.0843 -0.5134
 5997SOL    HW129624   1.479   1.651   8.624 -0.7901  0.2339 -0.4508
 5997SOL    HW229625   1.526   1.623   8.763  0.9488  0.4082 -1.1646
 5998SOL     OW29626   0.696   2.591   2.522  0.4066  0.3099 -0.0755
 5998SOL    HW129627   0.733   2.675   2.546 -2.2287  1.1643  0.9690
 5998SOL    HW229628   0.640   2.620   2.450 -1.2273  2.2258  1.9676
 5999SOL     OW29629   2.368   2.422   5.585  0.3146 -0.3426  0.1449
 5999SOL    HW129630   2.330   2.407   5.498 -2.7613 -1.2203  1.6235
 5999SOL    HW229631   2.427   2.496   5.575 -0.3526  0.1937  0.1734
 6000SOL     OW29632   0.678   1.011  11.784 -0.5207  0.1997  0.1357
 6000SOL    HW129633   0.594   1.043  11.817 -0.6097 -0.1442  0.2488
 6000SOL    HW229634   0.692   0.940  11.848 -2.1844  0.2347  0.5437
 6001SOL     OW29635   3.290   3.435   7.194  0.0599  0.0835 -0.4242
 6001SOL    HW129636   3.369   3.381   7.204 -0.9637 -1.6904 -1.9317
 6001SOL    HW229637   3.291   3.437   7.098  2.1322  1.2470 -0.3816
 6002SOL     OW29638   3.084   3.501   3.133 -0.5426 -0.2978 -0.8263
 6002SOL    HW129639   3.006   3.448   3.113 -3.2506  3.7898 -1.1549
 6002SOL    HW229640   3.057   3.525   3.222  2.8196 -1.9166  0.6342
 6003SOL     OW29641   4.200   4.417   5.645 -0.0557  0.0175 -0.1246
 6003SOL    HW129642   4.121   4.471   5.654  0.8820  0.9841  2.4110
 6003SOL    HW229643   4.159   4.335   5.617  1.0758 -0.5576 -0.0754
 6004SOL     OW29644   4.289   0.694  10.869  0.0121  0.9881  0.4194
 6004SOL    HW129645   4.295   0.708  10.775 -1.0974 -0.1074  0.1893
 6004SOL    HW229646   4.254   0.776  10.905 -1.0327  0.9168 -0.4328
 6005SOL     OW29647   1.011   0.712   8.722  0.2768 -0.4190 -0.2611
 6005SOL    HW129648   0.938   0.767   8.696  0.7717  1.1639  1.7175
 6005SOL    HW229649   1.048   0.760   8.796 -0.3286 -2.0891  1.1215
 6006SOL     OW29650   0.180   3.737   8.093 -0.0209 -0.1183 -0.5306
 6006SOL    HW129651   0.233   3.808   8.129  0.5932  0.6895 -3.0433
 6006SOL    HW229652   0.133   3.779   8.021  0.5474 -1.5026 -1.6843
 6007SOL     OW29653   3.829   3.582   7.177  0.3213 -0.0746  0.0234
 6007SOL    HW129654   3.894   3.624   7.234  1.8315 -2.0776 -0.2405
 6007SOL    HW229655   3.797   3.659   7.130 -0.5058  0.3680  1.3235
 6008SOL     OW29656   2.401   3.823   8.222  0.1329  0.6758 -0.2339
 6008SOL    HW129657   2.358   3.819   8.308  0.5854  1.0541  0.0165
 6008SOL    HW229658   2.460   3.748   8.219 -1.9808 -1.0330  1.3922
 6009SOL     OW29659   1.084   1.807   2.258 -0.2057 -0.2089 -0.1198
 6009SOL    HW129660   1.002   1.854   2.275  0.4786  0.9239  0.0260
 6009SOL    HW229661   1.061   1.714   2.261  1.0404 -0.5242 -0.4192
 6010SOL     OW29662   3.437   2.398   2.465 -0.2835 -0.2231 -0.0844
 6010SOL    HW129663   3.468   2.318   2.507 -0.0243  0.1365  0.4044
 6010SOL    HW229664   3.424   2.439   2.551 -1.5299  0.7394 -0.7271
 6011SOL     OW29665   0.193   1.164   0.263  0.3286 -0.1242 -0.0874
 6011SOL    HW129666   0.208   1.219   0.186  1.8761 -1.5566 -0.8002
 6011SOL    HW229667   0.208   1.082   0.216  1.0858  1.6741 -2.9918
 6012SOL     OW29668   2.787   4.253   3.424 -0.5741  0.6527 -0.1779
 6012SOL    HW129669   2.807   4.247   3.330 -1.9052  2.4155 -0.5725
 6012SOL    HW229670   2.695   4.279   3.428 -0.5618  1.2887 -4.0003
 6013SOL     OW29671   0.801   4.585   4.362 -0.2873 -0.1152 -0.1469
 6013SOL    HW129672   0.752   4.532   4.425  2.5989  0.1863  2.3416
 6013SOL    HW229673   0.775   4.535   4.285  2.4282 -0.4104 -0.8962
 6014SOL     OW29674   1.293   4.640  14.683 -0.5108 -0.3172 -0.1946
 6014SOL    HW129675   1.363   4.663  14.622 -0.8847  1.4768  0.0648
 6014SOL    HW229676   1.344   4.638  14.764  1.3413 -1.4662 -1.4024
 6015SOL     OW29677   1.697   2.363   6.908  0.1962 -0.4944  0.6089
 6015SOL    HW129678   1.776   2.385   6.959  0.5201  0.4103 -0.2933
 6015SOL    HW229679   1.705   2.429   6.839 -3.5087 -0.8137 -0.1413
 6016SOL     OW29680   2.488   0.153   9.406  0.0917  0.0512 -0.1447
 6016SOL    HW129681   2.497   0.089   9.477 -0.9267  0.2708  0.1738
 6016SOL    HW229682   2.568   0.133   9.357  0.9225  0.9014  0.8366
 6017SOL     OW29683   3.039   0.639   2.051  0.1828  0.1717  0.0088
 6017SOL    HW129684   3.109   0.693   2.015 -1.7657  2.5545 -0.1973
 6017SOL    HW229685   2.995   0.705   2.105  1.4063  0.4912  0.6154
 6018SOL     OW29686   4.283   2.808   5.122  0.1449 -0.2502 -0.0969
 6018SOL    HW129687   4.255   2.864   5.195 -0.5616  1.5391 -1.7496
 6018SOL    HW229688   4.221   2.845   5.059  0.1017  0.0788  0.1359
 6019SOL     OW29689   0.866   3.409   9.723 -0.4959 -0.0475  0.2257
 6019SOL    HW129690   0.783   3.428   9.679 -1.9818 -1.5676  2.3580
 6019SOL    HW229691   0.845   3.318   9.741 -0.2522 -0.0383  0.5721
 6020SOL     OW29692   1.869   3.342   5.618 -0.0906 -0.0936  0.4101
 6020SOL    HW129693   1.779   3.364   5.593 -0.5463 -1.3667  0.9691
 6020SOL    HW229694   1.837   3.329   5.707  0.3739  0.9541  0.7348
 6021SOL     OW29695   2.970   1.604   3.885 -0.3172 -0.1267 -0.6837
 6021SOL    HW129696   2.958   1.509   3.885 -0.8098 -0.0770  2.9884
 6021SOL    HW229697   3.045   1.627   3.830 -0.6747  0.7670 -0.8013
 6022SOL     OW29698   2.969   2.310   9.684 -0.2034 -0.2477  0.2508
 6022SOL    HW129699   3.034   2.352   9.627  0.2543 -2.8408 -1.1797
 6022SOL    HW229700   3.010   2.223   9.684 -1.4065 -0.8151 -0.1717
 6023SOL     OW29701   0.306   3.958   7.275 -0.0952  0.6992  0.1742
 6023SOL    HW129702   0.382   3.995   7.319 -0.5963  0.6350  1.0918
 6023SOL    HW229703   0.352   3.924   7.198 -0.3612 -1.5897  1.0488
 6024SOL     OW29704   0.256   3.172   5.411  0.3133  0.0292 -0.3843
 6024SOL    HW129705   0.166   3.141   5.416  0.0972  0.8777  0.9232
 6024SOL    HW229706   0.273   3.184   5.505 -0.6651 -3.2318  0.2130
 6025SOL     OW29707   1.366   2.039   3.677  0.2614 -0.3460 -0.2553
 6025SOL    HW129708   1.328   1.961   3.718 -1.4464  0.0827 -0.9906
 6025SOL    HW229709   1.337   2.110   3.734 -0.5910 -2.2476  1.6611
 6026SOL     OW29710   3.107   3.354   8.894 -0.4481 -0.1703 -0.1930
 6026SOL    HW129711   3.045   3.424   8.917 -0.1311 -0.4145  1.3766
 6026SOL    HW229712   3.063   3.314   8.819 -1.7266  0.6119  0.1365
 6027SOL     OW29713   3.439   3.645  10.550 -0.0486  0.2094  0.2687
 6027SOL    HW129714   3.483   3.728  10.534  1.6305 -0.7709 -0.1366
 6027SOL    HW229715   3.418   3.628  10.642 -0.0180 -1.0640  0.0439
 6028SOL     OW29716   2.298   1.206   3.801 -0.5019 -0.0245  0.1697
 6028SOL    HW129717   2.231   1.149   3.763  0.3812  1.0040 -2.9534
 6028SOL    HW229718   2.370   1.213   3.737  0.8711 -0.6045  1.6445
 6029SOL     OW29719   4.227   1.303   2.589 -0.0532  0.7539  0.2887
 6029SOL    HW129720   4.292   1.350   2.537 -0.2284 -2.2864 -2.6680
 6029SOL    HW229721   4.149   1.324   2.537  0.7415  0.2153 -1.1062
 6030SOL     OW29722   4.602   0.606   0.869 -0.3427 -0.2130 -0.1027
 6030SOL    HW129723   4.580   0.542   0.937  2.2974 -3.1882 -2.0445
 6030SOL    HW229724   4.622   0.547   0.796  1.2535  1.0582 -0.6891
 6031SOL     OW29725   4.051   2.433   3.821 -0.2026 -0.7397  0.0295
 6031SOL    HW129726   4.061   2.385   3.739 -0.1712 -0.9074  0.1311
 6031SOL    HW229727   3.956   2.438   3.825 -0.1501  0.3619 -0.0382
 6032SOL     OW29728   3.731   0.001   8.327 -0.2170  0.3671  0.3088
 6032SOL    HW129729   3.793   0.020   8.397 -0.3397 -1.9824  1.0547
 6032SOL    HW229730   3.711   0.086   8.288 -1.0354  0.3599  0.7088
 6033SOL     OW29731   3.037   2.561  13.520 -0.4633 -0.0913  0.1854
 6033SOL    HW129732   2.952   2.519  13.533  0.1999 -1.6289 -0.4483
 6033SOL    HW229733   3.075   2.535  13.604  0.8106 -2.5567 -1.1365
 6034SOL     OW29734   2.163   0.788   1.661 -0.5216 -0.1886  0.4219
 6034SOL    HW129735   2.127   0.703   1.636  0.4196 -0.0039 -1.5799
 6034SOL    HW229736   2.081   0.822   1.698 -0.3108 -2.2531  2.8108
 6035SOL     OW29737   2.620   3.222   5.415 -0.0141 -0.8111  0.4701
 6035SOL    HW129738   2.594   3.292   5.355  3.5979  1.5460  1.6495
 6035SOL    HW229739   2.635   3.266   5.498 -0.8549 -2.0787  1.2862
 6036SOL     OW29740   2.494   3.867  14.138 -0.1313  0.2006  0.9053
 6036SOL    HW129741   2.447   3.910  14.210 -0.8366 -0.0593  0.6016
 6036SOL    HW229742   2.507   3.951  14.093  1.4081 -0.9772 -0.8683
 6037SOL     OW29743   4.449   4.579   0.151  0.1715  0.0294 -0.2047
 6037SOL    HW129744   4.537   4.606   0.177  0.0616 -0.8417  1.1209
 6037SOL    HW229745   4.475   4.516   0.084  1.5080  0.2814  0.0687
 6038SOL     OW29746   1.988   0.294   7.789  0.0264  0.1113 -0.4292
 6038SOL    HW129747   1.896   0.294   7.814 -0.0602 -0.5195 -0.7387
 6038SOL    HW229748   2.004   0.209   7.831  0.2280 -0.2042 -1.1321
 6039SOL     OW29749   2.193   3.239   8.673 -0.0131  0.0004  0.5475
 6039SOL    HW129750   2.110   3.210   8.637 -0.4025  0.7060  0.8615
 6039SOL    HW229751   2.257   3.214   8.606 -1.8047 -0.5605 -0.9487
 6040SOL     OW29752   0.614   0.225   3.817 -0.4749 -0.1897 -0.2335
 6040SOL    HW129753   0.595   0.136   3.846  1.6755 -0.9313 -1.1379
 6040SOL    HW229754   0.680   0.240   3.885 -2.4243  0.6882  1.4793
 6041SOL     OW29755   3.162   4.732   6.544 -0.1035 -0.2004 -0.4558
 6041SOL    HW129756   3.160   0.091   6.521  0.4028 -0.3147 -0.9747
 6041SOL    HW229757   3.114   4.697   6.470 -1.8148 -0.3226  0.7137
 6042SOL     OW29758   0.781   3.485   5.964  0.1508 -0.4461  0.3109
 6042SOL    HW129759   0.711   3.548   5.950  1.2612  0.7324  0.0336
 6042SOL    HW229760   0.848   3.554   5.971  0.9005 -1.3449  2.0524
 6043SOL     OW29761   3.575   1.427  17.475 -0.4517  0.3715  0.1080
 6043SOL    HW129762   3.482   1.449  17.471 -0.3236  0.6906 -1.2982
 6043SOL    HW229763   3.576   1.378  17.393  0.6237  1.5094 -0.5697
 6044SOL     OW29764   0.127   3.209   1.028  0.0011  0.1143  0.6014
 6044SOL    HW129765   0.151   3.256   0.948 -0.8729 -0.4103  0.0302
 6044SOL    HW229766   0.053   3.156   0.998  0.8948 -0.7824 -0.0646
 6045SOL     OW29767   1.875   2.377   2.845  0.2889  0.1194  0.1313
 6045SOL    HW129768   1.811   2.308   2.859  1.4305 -1.1588 -1.0255
 6045SOL    HW229769   1.855   2.409   2.757  0.1759 -0.7857 -0.1686
 6046SOL     OW29770   2.421   2.901  14.266  0.0529 -0.1210  0.2504
 6046SOL    HW129771   2.361   2.946  14.324  0.3407 -2.4511  2.3732
 6046SOL    HW229772   2.442   2.972  14.205  0.8592 -1.3986 -0.9748
 6047SOL     OW29773   1.464   3.136   3.849 -0.0817 -0.4441 -0.3340
 6047SOL    HW129774   1.432   3.203   3.789  1.9702 -0.7760 -1.8051
 6047SOL    HW229775   1.546   3.108   3.808 -0.1410  0.4520 -1.0551
 6048SOL     OW29776   1.881   4.395   1.581  0.3308  0.2946 -0.3711
 6048SOL    HW129777   1.870   4.483   1.544 -1.4915  0.0632 -0.3796
 6048SOL    HW229778   1.899   4.408   1.674 -0.1338 -2.5364  0.1141
 6049SOL     OW29779   1.282   1.941   9.789 -0.1986  0.0286  0.3475
 6049SOL    HW129780   1.263   2.034   9.799  0.3403  0.3769 -1.9437
 6049SOL    HW229781   1.329   1.940   9.706  1.2702 -2.6128  1.2253
 6050SOL     OW29782   4.418   3.313  10.583  0.3210  0.7507 -0.5276
 6050SOL    HW129783   4.442   3.223  10.558 -0.0349  0.5786 -0.2484
 6050SOL    HW229784   4.482   3.366  10.536 -0.1373  0.3424 -1.6338
 6051SOL     OW29785   1.870   2.672   6.307 -0.1365  0.2083  0.0997
 6051SOL    HW129786   1.779   2.695   6.327  0.5989  1.9473  1.4198
 6051SOL    HW229787   1.921   2.753   6.306  1.7784 -0.9902  1.9150
 6052SOL     OW29788   4.547   2.855  17.489 -0.6514  0.2435 -0.5634
 6052SOL    HW129789   4.616   2.819  17.544 -1.0326 -2.0865 -1.5968
 6052SOL    HW229790   4.574   2.944  17.464  1.0501  0.0656  0.7062
 6053SOL     OW29791   0.578   2.846   2.685 -0.4312  0.2642  0.5130
 6053SOL    HW129792   0.541   2.763   2.715 -0.5279  0.3976  0.7673
 6053SOL    HW229793   0.670   2.836   2.713 -0.1444  2.1554  0.2384
 6054SOL     OW29794   2.093   3.556   3.034  0.2208  0.2871 -0.0767
 6054SOL    HW129795   2.092   3.551   2.938 -2.1989 -0.2694 -0.0138
 6054SOL    HW229796   2.110   3.648   3.054 -0.9408  0.5712 -0.3764
 6055SOL     OW29797   0.388   3.168   7.978 -0.1638 -0.8386  0.2672
 6055SOL    HW129798   0.295   3.177   7.956 -0.2480  1.9798  1.7116
 6055SOL    HW229799   0.423   3.181   7.889 -2.2382 -1.9023 -0.6971
 6056SOL     OW29800   2.227   0.965   9.070 -0.0177  0.0505  0.7138
 6056SOL    HW129801   2.133   0.946   9.066  0.5902 -2.5153 -1.1407
 6056SOL    HW229802   2.263   0.884   9.106  2.0614 -0.1244 -1.7897
 6057SOL     OW29803   3.046   4.093   9.063 -0.1668 -0.3433 -0.3008
 6057SOL    HW129804   2.996   4.012   9.066 -0.2528 -0.3078 -0.8434
 6057SOL    HW229805   3.023   4.121   9.152 -1.0274  2.2672 -1.3551
 6058SOL     OW29806   2.406   2.530  14.205  0.0031 -0.3173 -0.2820
 6058SOL    HW129807   2.486   2.509  14.156 -0.4730 -0.9854 -0.7707
 6058SOL    HW229808   2.436   2.528  14.296  0.9514 -0.0602 -0.5836
 6059SOL     OW29809   2.011   4.498   0.528  0.0410 -0.0397 -0.2758
 6059SOL    HW129810   2.080   4.560   0.549  0.4081 -0.2816 -0.7621
 6059SOL    HW229811   1.986   4.531   0.442 -1.2125  0.6804  0.3611
 6060SOL     OW29812   1.975   1.873   9.586 -0.1328  0.4196 -0.1896
 6060SOL    HW129813   2.064   1.907   9.575 -0.7699  2.4953  1.0634
 6060SOL    HW229814   1.928   1.898   9.507  0.0502  0.6695 -0.2228
 6061SOL     OW29815   1.745   1.778   7.021  0.0549 -0.2758 -0.4694
 6061SOL    HW129816   1.779   1.847   7.079  0.6602 -0.9741  0.0022
 6061SOL    HW229817   1.796   1.802   6.943 -2.8135  1.4136 -1.8270
 6062SOL     OW29818   3.889   1.808   6.228 -0.0438 -0.2769  0.2716
 6062SOL    HW129819   3.801   1.796   6.192 -0.0732  0.7583  0.0061
 6062SOL    HW229820   3.928   1.723   6.210  1.0757  0.3689 -0.3922
 6063SOL     OW29821   2.879   3.009   2.966  0.5329  0.1921 -0.2064
 6063SOL    HW129822   2.959   3.042   3.006 -0.3385  2.2402 -0.2004
 6063SOL    HW229823   2.887   3.054   2.882 -0.4372 -0.6959 -0.7808
 6064SOL     OW29824   1.567   3.177  11.322 -0.7683  0.0878  0.6557
 6064SOL    HW129825   1.583   3.089  11.289  0.2938 -0.3544  2.3447
 6064SOL    HW229826   1.567   3.224  11.239 -1.0729 -2.5663 -0.8300
 6065SOL     OW29827   1.395   3.995   6.386  0.2660 -0.1016 -0.4790
 6065SOL    HW129828   1.394   4.073   6.332  1.0441  1.0720  1.1971
 6065SOL    HW229829   1.368   3.928   6.324 -1.0810  0.5719 -0.6100
 6066SOL     OW29830   3.130   2.143   9.906 -0.0816 -0.2974  0.3399
 6066SOL    HW129831   3.042   2.178   9.922  0.0753 -0.4568  1.5336
 6066SOL    HW229832   3.121   2.108   9.817  1.8203  1.3551 -0.4894
 6067SOL     OW29833   1.446   1.955   5.826 -0.4103 -0.2542  0.0340
 6067SOL    HW129834   1.393   2.033   5.810  0.1004  0.7649  3.2763
 6067SOL    HW229835   1.401   1.890   5.772 -1.7047  0.1354  0.6506
 6068SOL     OW29836   1.011   1.074   4.782  0.4775 -0.5116  0.3957
 6068SOL    HW129837   0.991   1.127   4.859  1.5874  0.9401 -0.2891
 6068SOL    HW229838   1.080   1.018   4.815  1.5704  0.2973 -0.5065
 6069SOL     OW29839   0.478   1.000   5.531 -0.2508 -0.1687  0.0101
 6069SOL    HW129840   0.386   0.976   5.538 -0.0970 -0.1011  2.0668
 6069SOL    HW229841   0.473   1.095   5.544  0.5867 -0.1633  0.2969
 6070SOL     OW29842   0.634   0.139   5.700  0.2637 -0.1904 -0.7673
 6070SOL    HW129843   0.633   0.081   5.624 -2.2550 -0.4230 -0.5411
 6070SOL    HW229844   0.574   0.206   5.668 -0.2535 -0.1902  0.2232
 6071SOL     OW29845   3.691   2.904  11.794 -0.0093  0.0924  0.4085
 6071SOL    HW129846   3.699   2.876  11.886 -0.3099 -0.0644  0.3853
 6071SOL    HW229847   3.612   2.853  11.781 -1.5095  1.8213  2.7258
 6072SOL     OW29848   0.772   0.277  10.617  0.2613 -0.2575 -0.0261
 6072SOL    HW129849   0.816   0.351  10.658  0.3861 -0.9812  1.1142
 6072SOL    HW229850   0.696   0.265  10.674  0.9873  0.5188  1.0811
 6073SOL     OW29851   4.018   2.679   4.896 -0.1059 -0.2310 -0.1148
 6073SOL    HW129852   4.021   2.584   4.895  1.2063 -0.2035  0.3817
 6073SOL    HW229853   4.063   2.700   4.814 -1.4749  0.9294 -0.5653
 6074SOL     OW29854   1.792   0.885  10.675  0.2768  0.5845  0.4489
 6074SOL    HW129855   1.711   0.897  10.723  0.4720  4.8464 -0.3520
 6074SOL    HW229856   1.771   0.817  10.610  0.9890  0.4210  0.3917
 6075SOL     OW29857   4.621   3.814   1.581  0.2126 -0.3485 -0.3778
 6075SOL    HW129858   4.628   3.731   1.628 -0.5443 -0.3417 -0.2568
 6075SOL    HW229859   4.705   3.858   1.588  0.8633 -1.7228  0.4212
 6076SOL     OW29860   3.502   2.485   0.528 -0.3188  0.2692  0.1932
 6076SOL    HW129861   3.555   2.419   0.483  0.5260  0.5333  0.7812
 6076SOL    HW229862   3.525   2.563   0.479 -0.4000  0.1555 -0.0223
 6077SOL     OW29863   4.393   4.222   3.177 -0.3782 -0.0727 -0.4850
 6077SOL    HW129864   4.400   4.302   3.229 -0.8525 -0.5985  0.3970
 6077SOL    HW229865   4.478   4.220   3.133  0.2634  0.5198  0.7271
 6078SOL     OW29866   2.083   0.903   5.862 -0.2008 -0.1155  0.2424
 6078SOL    HW129867   2.046   0.906   5.950  2.3378  1.0655  1.2902
 6078SOL    HW229868   2.163   0.955   5.870 -0.8327  1.1750 -1.9252
 6079SOL     OW29869   2.534   2.250  16.295 -0.1868 -0.0640  0.1671
 6079SOL    HW129870   2.508   2.304  16.369  0.5445  0.5405 -0.0180
 6079SOL    HW229871   2.484   2.283  16.221  0.8417  1.4723  0.1678
 6080SOL     OW29872   3.228   0.638  15.028  0.0556 -0.3937  0.0521
 6080SOL    HW129873   3.226   0.611  14.936 -0.9832  0.1522 -0.0825
 6080SOL    HW229874   3.262   0.727  15.018  1.1500 -0.8171 -0.0029
 6081SOL     OW29875   0.404   2.104   0.108  0.0409  0.4713  0.5894
 6081SOL    HW129876   0.478   2.092   0.048 -1.2793  1.5517 -1.2576
 6081SOL    HW229877   0.443   2.161   0.174  0.1000  0.2449  0.7516
 6082SOL     OW29878   1.475   2.598   7.075 -0.3631 -0.4054 -0.8046
 6082SOL    HW129879   1.397   2.548   7.095 -0.3807  0.4494  1.2822
 6082SOL    HW229880   1.494   2.628   7.164  0.9598 -0.3444 -1.1055
 6083SOL     OW29881   1.783   3.516   0.484  0.3356 -0.1971 -0.2394
 6083SOL    HW129882   1.854   3.486   0.539  1.3441  0.2689 -1.2881
 6083SOL    HW229883   1.754   3.437   0.439 -3.1748 -0.2303  2.1195
 6084SOL     OW29884   0.429   4.249   6.595 -0.0731 -0.3253  0.2757
 6084SOL    HW129885   0.371   4.325   6.587 -1.8172 -1.6276  0.5220
 6084SOL    HW229886   0.418   4.197   6.516  0.7970 -1.2541  0.7568
 6085SOL     OW29887   4.632   1.255   3.615  0.4559  0.2652 -0.0998
 6085SOL    HW129888   4.661   1.172   3.577 -0.1933 -0.3787  0.8266
 6085SOL    HW229889   4.553   1.271   3.563 -0.2082  1.4522  1.2932
 6086SOL     OW29890   4.487   0.020  16.709 -0.0642 -0.5920  0.7395
 6086SOL    HW129891   4.554   0.013  16.640  0.5076 -0.4601  1.2847
 6086SOL    HW229892   4.405   0.043  16.666  1.1677 -0.5921 -1.6548
 6087SOL     OW29893   4.300   3.402   7.364  0.2711  0.7366  0.2171
 6087SOL    HW129894   4.344   3.321   7.391  0.7590  0.4365 -1.4710
 6087SOL    HW229895   4.212   3.378   7.336 -1.0680  4.4176  1.2599
 6088SOL     OW29896   0.062   3.502  16.065  0.4783 -0.0727 -0.3069
 6088SOL    HW129897   0.140   3.526  16.014  0.0781 -0.0504 -0.9140
 6088SOL    HW229898   0.065   3.408  16.046 -0.8859 -0.3285  0.7463
 6089SOL     OW29899   3.516   2.431   0.780 -0.2043  0.6392  0.1949
 6089SOL    HW129900   3.428   2.432   0.818  0.6510 -1.5052  2.2438
 6089SOL    HW229901   3.498   2.448   0.687  1.3337  0.3167 -0.1658
 6090SOL     OW29902   1.860   4.036   4.991  0.2767 -0.0273  0.4137
 6090SOL    HW129903   1.878   4.130   4.982 -0.9853  0.0819 -0.9294
 6090SOL    HW229904   1.917   3.996   4.925  0.5177  1.1581 -0.1052
 6091SOL     OW29905   0.935   0.761  13.542  0.3754 -0.6446  0.9396
 6091SOL    HW129906   0.842   0.771  13.563  0.6216  0.8104  1.3683
 6091SOL    HW229907   0.920   0.694  13.476 -1.4865 -0.2299  0.9194
 6092SOL     OW29908   0.598   3.655   4.294  0.5016 -0.0225  0.1023
 6092SOL    HW129909   0.574   3.728   4.351  0.6569  1.1079 -1.2676
 6092SOL    HW229910   0.585   3.586   4.359 -1.2127  1.3774  1.2268
 6093SOL     OW29911   4.731   1.352   3.862 -0.2351  0.1768 -0.3993
 6093SOL    HW129912   4.695   1.294   3.796 -0.6922 -0.8368  0.7417
 6093SOL    HW229913   4.703   1.435   3.823  0.6132 -0.1321 -1.6668
 6094SOL     OW29914   3.196   2.576   3.964  0.0096  0.3182  0.6744
 6094SOL    HW129915   3.152   2.656   3.994 -0.2774  1.0747 -1.7361
 6094SOL    HW229916   3.290   2.592   3.970  0.1825  0.1141 -1.3173
 6095SOL     OW29917   3.947   1.484   2.032 -0.0737  0.1078  0.5978
 6095SOL    HW129918   3.979   1.412   2.087 -0.8509 -1.3961 -0.9354
 6095SOL    HW229919   4.008   1.473   1.959 -0.3696  2.3767  0.0322
 6096SOL     OW29920   3.091   1.268   3.296  0.1697 -0.5090 -0.3666
 6096SOL    HW129921   3.006   1.261   3.338  1.0147  2.1314  1.8116
 6096SOL    HW229922   3.077   1.211   3.220  1.9445  0.3441 -1.3333
 6097SOL     OW29923   0.907   2.727  11.815 -0.1509  0.3486  0.2473
 6097SOL    HW129924   0.869   2.786  11.749 -2.1145  1.7019  2.5677
 6097SOL    HW229925   0.919   2.646  11.765  2.6486  0.6263  0.5019
 6098SOL     OW29926   2.108   0.412  14.512  0.5033  0.0449  0.4134
 6098SOL    HW129927   2.112   0.316  14.505  1.0528  0.1355 -0.6040
 6098SOL    HW229928   2.108   0.437  14.419 -0.7700  1.3856  0.7767
 6099SOL     OW29929   0.692   4.152   4.171  0.0362 -0.2301  0.2861
 6099SOL    HW129930   0.618   4.093   4.158  2.1136 -2.2485 -2.3740
 6099SOL    HW229931   0.768   4.110   4.131 -0.7919 -1.2368 -0.2181
 6100SOL     OW29932   2.149   3.938   3.652  0.1926 -0.1130 -0.7162
 6100SOL    HW129933   2.224   3.995   3.672  0.0782 -0.1139 -0.2791
 6100SOL    HW229934   2.073   3.976   3.696 -0.1912 -1.0925 -0.5512
 6101SOL     OW29935   0.143   4.710  10.890  0.2793  0.3909  0.1214
 6101SOL    HW129936   0.170   0.047  10.831  0.4855  0.7342  0.6358
 6101SOL    HW229937   0.063   0.010  10.929 -1.0381 -0.5444 -1.7177
 6102SOL     OW29938   4.472   3.184   3.952  0.7157  0.3172 -0.0345
 6102SOL    HW129939   4.397   3.145   3.996  0.1108  0.8626 -0.5941
 6102SOL    HW229940   4.459   3.158   3.861  3.2235  0.1650 -0.3454
 6103SOL     OW29941   4.637   3.655  11.106  0.0161  0.3023  0.0053
 6103SOL    HW129942   4.547   3.632  11.129  0.5029  0.7449  2.4254
 6103SOL    HW229943   4.698   3.627  11.174  0.1879 -0.4486 -0.4584
 6104SOL     OW29944   3.800   1.934   8.103 -0.2910  0.1197  0.3028
 6104SOL    HW129945   3.799   1.842   8.078 -0.6651 -0.0688  1.0192
 6104SOL    HW229946   3.872   1.965   8.047 -0.0602  1.3116  1.2437
 6105SOL     OW29947   1.409   0.326  14.021  0.2940  0.1770 -0.2518
 6105SOL    HW129948   1.383   0.269  14.093  0.5302  3.4151  2.3612
 6105SOL    HW229949   1.323   0.336  13.979 -0.0389  0.5016  0.5148
 6106SOL     OW29950   3.094   3.715  17.056 -0.4686  0.2240 -0.1913
 6106SOL    HW129951   3.070   3.635  17.104  2.0571 -0.1590  0.4512
 6106SOL    HW229952   3.186   3.701  17.033 -0.1291  2.1244  0.0476
 6107SOL     OW29953   3.752   3.157  13.691  0.0548 -0.0486 -0.4342
 6107SOL    HW129954   3.677   3.118  13.646  0.0400 -1.4872  0.8328
 6107SOL    HW229955   3.795   3.208  13.622  0.8991  0.0747  0.1854
 6108SOL     OW29956   3.782   3.317   4.334 -0.1642 -0.3259  0.2987
 6108SOL    HW129957   3.740   3.235   4.357  0.5971 -0.3685  1.5211
 6108SOL    HW229958   3.711   3.376   4.359 -1.1641 -2.2993  2.0727
 6109SOL     OW29959   2.906   2.908   3.851 -0.1967  0.0952 -0.4341
 6109SOL    HW129960   2.932   2.998   3.873  2.1384 -0.8458  0.6979
 6109SOL    HW229961   2.871   2.879   3.935 -1.3090 -1.5589 -1.4750
 6110SOL     OW29962   0.504   2.246   6.045  0.3676 -0.2661 -0.3519
 6110SOL    HW129963   0.589   2.204   6.034  2.3649  2.9414  2.8859
 6110SOL    HW229964   0.461   2.232   5.961 -0.2095 -3.4630  0.4841
 6111SOL     OW29965   2.512   1.698   6.762 -0.2466 -0.0014  0.1041
 6111SOL    HW129966   2.453   1.699   6.837 -0.2817 -0.2505  0.0777
 6111SOL    HW229967   2.482   1.778   6.718 -0.5103 -1.0334 -1.5918
 6112SOL     OW29968   4.633   1.233   4.691  0.3861  0.0634  0.0635
 6112SOL    HW129969   4.677   1.280   4.620 -0.2961 -0.0974 -0.4614
 6112SOL    HW229970   4.698   1.165   4.711  0.2140 -0.2017 -0.2871
 6113SOL     OW29971   0.617   0.357  17.393  0.0466  0.2179  0.5564
 6113SOL    HW129972   0.557   0.318  17.330  0.2428 -0.0588  0.5429
 6113SOL    HW229973   0.592   0.448  17.407 -1.8035 -0.0106 -1.3142
 6114SOL     OW29974   0.711   4.294   6.159  0.1855  0.3786  0.0940
 6114SOL    HW129975   0.619   4.321   6.155  0.1323 -0.3247 -3.5211
 6114SOL    HW229976   0.705   4.227   6.227  1.9224  1.2668  1.1272
 6115SOL     OW29977   3.352   0.181  14.764 -0.2963  0.3595  0.1640
 6115SOL    HW129978   3.345   0.140  14.851  0.9180 -1.9056 -0.7976
 6115SOL    HW229979   3.275   0.137  14.728 -0.6674  1.3193 -0.2049
 6116SOL     OW29980   1.889   4.720   0.776  0.2625  0.1897  0.4371
 6116SOL    HW129981   1.958   4.692   0.835  0.3209 -0.4704  0.0537
 6116SOL    HW229982   1.948   0.023   0.710 -1.2454  0.1547 -0.9345
 6117SOL     OW29983   3.829   4.146   6.040 -0.6573  0.1593 -0.0315
 6117SOL    HW129984   3.827   4.085   6.113 -2.9080 -0.1877 -0.3889
 6117SOL    HW229985   3.776   4.104   5.972  0.1795  1.2236 -1.3661
 6118SOL     OW29986   2.879   3.180   8.754  0.0323 -0.0204 -0.3700
 6118SOL    HW129987   2.830   3.106   8.717  1.0054 -0.7314 -0.2127
 6118SOL    HW229988   2.849   3.243   8.688  0.2747  2.0631  1.4827
 6119SOL     OW29989   0.448   3.079  12.309  0.5378  0.1351  0.1960
 6119SOL    HW129990   0.413   3.144  12.370  2.5722  0.7947  0.6680
 6119SOL    HW229991   0.444   2.997  12.359 -0.4347 -0.5631 -1.0397
 6120SOL     OW29992   4.572   2.885   1.901 -0.0801 -0.2479 -0.0775
 6120SOL    HW129993   4.505   2.817   1.905  0.9947 -1.2497  0.9202
 6120SOL    HW229994   4.515   2.959   1.920 -2.7844 -2.2307 -0.3429
 6121SOL     OW29995   0.301   1.137   5.125  0.2497 -0.1754 -0.3485
 6121SOL    HW129996   0.350   1.071   5.075  0.7056 -0.0004 -0.1361
 6121SOL    HW229997   0.364   1.207   5.106 -0.2254  0.4034  0.2363
 6122SOL     OW29998   4.080   1.872   9.001  0.2043 -0.1949 -0.7056
 6122SOL    HW129999   3.995   1.915   9.011  0.5522  0.1544  0.7916
 6122SOL    HW230000   4.045   1.783   8.998 -0.9430  0.2654 -0.8559
 6123SOL     OW30001   3.714   3.391   7.953  0.4508 -0.0794 -0.1984
 6123SOL    HW130002   3.808   3.397   7.968  0.8609 -1.4320 -2.2541
 6123SOL    HW230003   3.696   3.336   8.029  3.2784 -0.5845  0.0907
 6124SOL     OW30004   2.161   2.360   4.134 -0.4852  0.6600  0.2947
 6124SOL    HW130005   2.137   2.452   4.135 -1.6197  0.3507  1.1266
 6124SOL    HW230006   2.105   2.326   4.065  0.3896  0.9079 -0.5403
 6125SOL     OW30007   1.308   4.360  14.726  0.6778  0.1091 -0.1849
 6125SOL    HW130008   1.395   4.386  14.697  1.7301  0.3429  3.1784
 6125SOL    HW230009   1.256   4.430  14.689  1.6131 -0.1236 -1.9625
 6126SOL     OW30010   3.670   0.719   3.879  0.6920 -0.6078  0.4314
 6126SOL    HW130011   3.745   0.770   3.850 -0.5007  0.1112 -1.4115
 6126SOL    HW230012   3.688   0.630   3.849  0.8089 -0.3670 -0.2169
 6127SOL     OW30013   3.485   3.721   4.492  0.6977  0.0722  0.2087
 6127SOL    HW130014   3.394   3.724   4.520  0.4064  1.2875 -0.8781
 6127SOL    HW230015   3.523   3.806   4.516  0.7448 -0.2323  1.2234
 6128SOL     OW30016   0.394   1.303   6.398 -0.2238 -0.1180 -0.2880
 6128SOL    HW130017   0.394   1.394   6.428 -1.7949 -0.1864 -0.0697
 6128SOL    HW230018   0.450   1.255   6.460 -1.3639  1.4684  1.9656
 6129SOL     OW30019   3.731   2.549   5.897  0.3047  0.6276 -0.3230
 6129SOL    HW130020   3.760   2.459   5.910  3.3913  1.6534 -0.0518
 6129SOL    HW230021   3.693   2.577   5.981 -1.2464 -2.3988 -0.0226
 6130SOL     OW30022   4.668   1.628   5.994  0.3104  0.1769  0.3261
 6130SOL    HW130023   4.574   1.620   6.011  0.5470 -0.0648  1.5230
 6130SOL    HW230024   4.667   1.720   5.965  0.3318  0.1228  0.1573
 6131SOL     OW30025   4.102   0.847   9.821  0.0160 -0.5102 -0.0275
 6131SOL    HW130026   4.034   0.821   9.759  0.3115 -2.4240  0.4388
 6131SOL    HW230027   4.145   0.917   9.772  1.0405 -0.8793  0.3219
 6132SOL     OW30028   1.409   3.317   6.924 -0.5692  0.4558  0.1542
 6132SOL    HW130029   1.441   3.377   6.991 -2.3572  1.2369  0.2792
 6132SOL    HW230030   1.489   3.270   6.898 -0.5150  1.4625 -1.4746
 6133SOL     OW30031   0.720   1.622   8.376 -0.2917 -0.4076 -0.5632
 6133SOL    HW130032   0.642   1.587   8.333 -0.9650 -0.4077  0.6612
 6133SOL    HW230033   0.738   1.702   8.327  0.4954 -0.5480 -0.5018
 6134SOL     OW30034   1.168   3.772   6.866  0.7032 -0.3762  0.0767
 6134SOL    HW130035   1.167   3.867   6.856  0.9014 -0.1428  2.1454
 6134SOL    HW230036   1.262   3.753   6.865  1.0271  1.4384 -3.4642
 6135SOL     OW30037   1.349   2.264   5.896 -0.2789  0.3614  0.3961
 6135SOL    HW130038   1.356   2.283   5.989 -1.4362 -2.5461  1.0733
 6135SOL    HW230039   1.362   2.353   5.864 -0.6984  1.3797  3.0554
 6136SOL     OW30040   3.090   2.697   4.629 -0.5730 -0.2014 -0.2262
 6136SOL    HW130041   3.077   2.792   4.623 -0.3513 -0.1461  0.1551
 6136SOL    HW230042   3.029   2.666   4.562  0.6538  0.9828 -1.9311
 6137SOL     OW30043   2.658   0.086  15.863 -0.2751 -0.2272  0.0643
 6137SOL    HW130044   2.617   0.108  15.946  1.1840 -1.8190  1.2115
 6137SOL    HW230045   2.644   4.726  15.853 -1.6521  0.2114 -2.1291
 6138SOL     OW30046   0.183   2.839  11.551  0.0890  0.0623  0.0821
 6138SOL    HW130047   0.123   2.788  11.497  0.8916 -1.4707  0.6476
 6138SOL    HW230048   0.266   2.794  11.535  0.6484  1.0961  0.0859
 6139SOL     OW30049   4.011   0.969  14.848  0.1046 -0.1259  0.5431
 6139SOL    HW130050   4.040   0.906  14.782  0.4870 -0.9242  1.4794
 6139SOL    HW230051   4.065   1.047  14.831 -1.4445  1.0464  1.0491
 6140SOL     OW30052   4.476   2.335  10.444  0.1086 -0.0738 -0.4987
 6140SOL    HW130053   4.447   2.300  10.528  1.4159  0.2951  0.0992
 6140SOL    HW230054   4.511   2.256  10.404  0.5082 -0.4609  0.6349
 6141SOL     OW30055   2.884   0.427   1.952 -0.3594  0.1384 -0.6361
 6141SOL    HW130056   2.939   0.505   1.963 -0.1725 -0.4844  3.0992
 6141SOL    HW230057   2.888   0.397   2.043  0.1465 -2.0178 -1.3661
 6142SOL     OW30058   4.059   2.329  11.909  0.2731 -0.4872 -0.2818
 6142SOL    HW130059   4.088   2.312  11.998 -0.7008  0.0488  0.1346
 6142SOL    HW230060   4.078   2.242  11.874  1.7225 -1.1065  2.1013
 6143SOL     OW30061   2.679   3.930   5.208 -0.1353 -0.4278  0.2388
 6143SOL    HW130062   2.587   3.929   5.185 -0.8661 -0.0822  3.1180
 6143SOL    HW230063   2.724   3.897   5.130  0.3870 -1.2500  0.8899
 6144SOL     OW30064   0.764   1.589   5.883  0.9174 -0.8478 -0.7265
 6144SOL    HW130065   0.746   1.496   5.866 -0.6463 -0.6199 -0.3555
 6144SOL    HW230066   0.825   1.629   5.821  0.6136  1.0256  0.1809
 6145SOL     OW30067   1.593   1.749   5.023  0.0721  0.3460  0.1714
 6145SOL    HW130068   1.531   1.762   5.094 -0.1588  0.5509 -0.0699
 6145SOL    HW230069   1.537   1.689   4.974  0.8710 -0.7706  0.6101
 6146SOL     OW30070   2.991   0.440  16.193  0.0777  0.3722 -0.0726
 6146SOL    HW130071   2.927   0.432  16.263  0.7682 -0.1225  0.5013
 6146SOL    HW230072   2.958   0.389  16.119 -2.5821  1.5296  0.3009
 6147SOL     OW30073   4.036   0.311   6.895 -0.1743 -0.2535 -0.5427
 6147SOL    HW130074   4.109   0.370   6.873 -0.7345 -0.5723 -3.2184
 6147SOL    HW230075   4.079   0.244   6.948 -0.5351 -0.2522 -0.2463
 6148SOL     OW30076   1.015   2.770   5.693  0.4261  0.5464  0.2698
 6148SOL    HW130077   0.961   2.849   5.694  1.8240  1.5273 -1.5435
 6148SOL    HW230078   1.089   2.812   5.737 -0.2965  0.7502  1.3103
 6149SOL     OW30079   3.683   0.261   7.460  0.1790 -0.4560 -0.0054
 6149SOL    HW130080   3.617   0.271   7.529  0.0975 -1.7374  0.1158
 6149SOL    HW230081   3.626   0.248   7.384  1.5073  1.7593 -1.3579
 6150SOL     OW30082   2.455   2.977  13.855 -0.2929 -0.1386  0.3400
 6150SOL    HW130083   2.504   2.990  13.774 -1.1709 -0.7893 -0.2896
 6150SOL    HW230084   2.468   3.054  13.911  2.2038  0.1402 -0.6381
 6151SOL     OW30085   3.364   0.507   3.601 -0.6184  0.0617  0.3614
 6151SOL    HW130086   3.443   0.453   3.593  1.6251  3.4213 -0.2498
 6151SOL    HW230087   3.383   0.566   3.528 -0.8100 -1.4937 -0.9516
 6152SOL     OW30088   0.488   3.550   4.068  0.2562  0.3063  0.7242
 6152SOL    HW130089   0.413   3.525   4.122 -0.6806 -0.0294 -0.7179
 6152SOL    HW230090   0.540   3.588   4.139  0.8012 -1.0509  1.0385
 6153SOL     OW30091   0.717   3.898   6.543 -0.1888  0.5035  0.7583
 6153SOL    HW130092   0.654   3.829   6.563 -1.7633  1.5869 -0.4769
 6153SOL    HW230093   0.706   3.953   6.620 -2.4657 -2.2973  2.4424
 6154SOL     OW30094   2.932   1.087   3.694 -0.2516  0.6367  0.7850
 6154SOL    HW130095   2.949   1.033   3.617  0.1305  0.6340  0.8679
 6154SOL    HW230096   3.004   1.066   3.754 -0.0011 -0.6520  0.0081
 6155SOL     OW30097   3.325   2.431   3.049  0.1245  0.0341 -0.2757
 6155SOL    HW130098   3.269   2.464   3.119  0.5425 -0.6761  0.3983
 6155SOL    HW230099   3.350   2.511   3.002 -0.5475  0.5134  0.1684
 6156SOL     OW30100   2.095   4.387   0.810  0.3288 -0.4611 -0.3488
 6156SOL    HW130101   2.081   4.450   0.881  2.0727 -0.1937 -0.2227
 6156SOL    HW230102   2.098   4.442   0.731 -2.4862  0.7053  0.3677
 6157SOL     OW30103   4.085   4.632   2.741  0.6216 -0.3722  0.1346
 6157SOL    HW130104   4.001   4.619   2.697 -0.6804  0.9720  2.2253
 6157SOL    HW230105   4.093   4.727   2.733  0.4082 -0.5276 -1.9235
 6158SOL     OW30106   1.103   3.770   1.697 -0.7328 -0.0491  0.0692
 6158SOL    HW130107   1.134   3.683   1.721  2.7151  1.1089 -0.2658
 6158SOL    HW230108   1.064   3.750   1.611 -0.2592 -2.4142  0.3851
 6159SOL     OW30109   1.265   4.092   3.890  0.1554 -0.2750  1.2976
 6159SOL    HW130110   1.345   4.140   3.912  1.0442 -1.2080  0.0964
 6159SOL    HW230111   1.228   4.149   3.822  1.7759 -1.3442 -0.4726
 6160SOL     OW30112   0.576   1.283   1.711  0.4677 -0.0296 -0.0702
 6160SOL    HW130113   0.659   1.253   1.676  0.7488 -0.2224  0.7572
 6160SOL    HW230114   0.528   1.304   1.631 -3.7731 -0.5020  2.3447
 6161SOL     OW30115   0.203   3.460  15.721  0.4630 -0.2682 -0.1745
 6161SOL    HW130116   0.273   3.506  15.768 -1.1807  1.8820  0.1846
 6161SOL    HW230117   0.179   3.516  15.647 -2.6199  0.7160  1.6023
 6162SOL     OW30118   2.556   4.612   2.474  0.6751 -0.2729  0.3532
 6162SOL    HW130119   2.510   4.630   2.556 -0.8723 -1.3870 -0.2610
 6162SOL    HW230120   2.542   4.684   2.413 -1.4985 -0.6892  0.3466
 6163SOL     OW30121   3.629   0.804   0.889 -0.1655  0.1232  0.1056
 6163SOL    HW130122   3.672   0.722   0.866  0.8336  1.0655 -1.3986
 6163SOL    HW230123   3.632   0.798   0.985  0.9796 -1.7250 -0.0416
 6164SOL     OW30124   2.581   3.304   9.500  0.3486  0.5032 -0.1598
 6164SOL    HW130125   2.513   3.326   9.564 -0.4542  1.3654 -1.2986
 6164SOL    HW230126   2.543   3.346   9.423  1.2696 -1.0839 -1.5052
 6165SOL     OW30127   3.031   3.182   1.675  0.2432  0.0727  0.3219
 6165SOL    HW130128   2.987   3.134   1.605 -0.9546 -3.1269  3.2678
 6165SOL    HW230129   3.099   3.228   1.627  0.8974  0.1508  1.3062
 6166SOL     OW30130   2.307   0.854   8.300 -0.1457  0.7194 -0.4353
 6166SOL    HW130131   2.234   0.913   8.283  0.0308  0.3106 -2.5721
 6166SOL    HW230132   2.270   0.791   8.362  0.8201  0.6891  0.1119
 6167SOL     OW30133   3.727   0.407   2.847 -0.0432 -0.2801 -0.0167
 6167SOL    HW130134   3.663   0.432   2.779  1.6081  0.2396 -1.3774
 6167SOL    HW230135   3.674   0.413   2.926 -1.7803 -0.4774 -1.1521
 6168SOL     OW30136   4.375   3.919   1.581  0.1036  0.4160 -0.1640
 6168SOL    HW130137   4.394   3.987   1.646  0.6770  0.1549 -0.0491
 6168SOL    HW230138   4.461   3.899   1.543 -1.0184 -0.1926 -2.3648
 6169SOL     OW30139   3.578   1.184  15.489  0.8813  0.2017 -0.6809
 6169SOL    HW130140   3.541   1.240  15.558  0.5295  0.1923 -0.8635
 6169SOL    HW230141   3.583   1.241  15.412  0.4216  2.2902  0.8165
 6170SOL     OW30142   4.643   3.443  10.500 -0.0750  0.4003 -0.1585
 6170SOL    HW130143   4.667   3.395  10.421  0.2274  1.4321 -0.6907
 6170SOL    HW230144   4.698   3.400  10.566 -1.6954  0.0662  0.9886
 6171SOL     OW30145   3.404   2.264   2.036  0.2864  0.2713  0.0436
 6171SOL    HW130146   3.420   2.307   1.952 -1.9926  1.6243  0.3099
 6171SOL    HW230147   3.329   2.312   2.070  0.3489 -0.6152  1.4591
 6172SOL     OW30148   4.277   2.563   5.776  0.2234  0.0773 -0.5198
 6172SOL    HW130149   4.183   2.573   5.792  0.2460 -1.2364  0.5290
 6172SOL    HW230150   4.314   2.546   5.863 -0.3314  0.6227 -0.1777
 6173SOL     OW30151   4.144   2.588   5.239 -0.2071 -0.1016  0.0760
 6173SOL    HW130152   4.183   2.637   5.167 -1.6255  0.7879 -0.0968
 6173SOL    HW230153   4.059   2.632   5.232 -0.4766 -0.3887  1.6127
 6174SOL     OW30154   3.424   4.572  16.885  0.8543  0.4165 -0.3151
 6174SOL    HW130155   3.508   4.583  16.929  0.9614  1.5165 -0.8032
 6174SOL    HW230156   3.437   4.487  16.841 -0.1364 -0.0558  0.3038
 6175SOL     OW30157   3.188   1.312  16.100  0.4752  0.4713  0.2064
 6175SOL    HW130158   3.128   1.276  16.164  0.3324 -0.4044 -0.4219
 6175SOL    HW230159   3.246   1.237  16.110  0.4395  0.3391 -0.5557
 6176SOL     OW30160   1.449   4.727  14.009  0.5127  0.3129 -0.2398
 6176SOL    HW130161   1.390   0.047  14.062  1.8008  0.6315  0.8502
 6176SOL    HW230162   1.502   4.684  14.075 -1.3803 -1.5674  0.0699
 6177SOL     OW30163   3.186   0.054  16.520  0.0699 -0.2327 -0.0401
 6177SOL    HW130164   3.180   0.005  16.603 -0.4962  0.8347  0.5389
 6177SOL    HW230165   3.110   0.021  16.473  0.1556 -1.1256  0.4432
 6178SOL     OW30166   2.148   1.318   9.288  0.3209 -0.2328 -0.1550
 6178SOL    HW130167   2.073   1.370   9.258 -1.0913 -0.6112  2.7309
 6178SOL    HW230168   2.226   1.361   9.255 -1.6022  2.6042 -0.9978
 6179SOL     OW30169   3.143   0.177   0.612  0.1253 -0.3227  0.6630
 6179SOL    HW130170   3.200   0.127   0.671  1.7574 -2.2411 -2.5311
 6179SOL    HW230171   3.070   0.117   0.593  1.1203 -1.6626  1.0622
 6180SOL     OW30172   0.750   4.135  12.460 -0.4306  0.5123  0.1623
 6180SOL    HW130173   0.755   4.082  12.540  1.8739  0.7587  0.1712
 6180SOL    HW230174   0.840   4.153  12.435 -0.5546 -0.1573 -0.7642
 6181SOL     OW30175   1.688   0.829   6.957  0.7826 -0.4344  0.1825
 6181SOL    HW130176   1.641   0.880   7.023  1.8366  1.3725 -0.4730
 6181SOL    HW230177   1.633   0.751   6.945  1.0739 -0.2421 -2.4238
 6182SOL     OW30178   0.597   2.033  15.089  0.0470 -0.0506  0.5522
 6182SOL    HW130179   0.586   2.113  15.037 -1.2357 -1.4988 -1.4310
 6182SOL    HW230180   0.505   2.009  15.101 -0.3665  1.0636 -0.3075
 6183SOL     OW30181   4.303   3.227   6.622  0.1404  0.4956 -0.1145
 6183SOL    HW130182   4.327   3.266   6.706  1.1296 -0.1918 -0.0837
 6183SOL    HW230183   4.384   3.230   6.571 -0.1698  0.9189 -0.5887
 6184SOL     OW30184   4.110   1.855   8.434 -0.2008  0.4250 -0.2601
 6184SOL    HW130185   4.116   1.892   8.346 -2.5680 -1.3841 -1.1558
 6184SOL    HW230186   4.059   1.778   8.410 -2.3727  1.6508  0.4327
 6185SOL     OW30187   3.387   0.245   4.684  0.3650  0.5564 -0.4886
 6185SOL    HW130188   3.335   0.249   4.604 -0.0247 -0.5792 -0.2907
 6185SOL    HW230189   3.476   0.237   4.647  0.2278 -2.2998 -0.2066
 6186SOL     OW30190   3.744   2.270   3.025  0.3485 -0.2527 -0.2882
 6186SOL    HW130191   3.717   2.181   3.047 -0.6312 -0.1509 -1.0584
 6186SOL    HW230192   3.835   2.270   3.054  0.9837  0.6278 -2.2720
 6187SOL     OW30193   2.281   4.083   9.125 -0.4210  0.1443  0.0937
 6187SOL    HW130194   2.375   4.085   9.143 -0.5204 -1.0170  0.7974
 6187SOL    HW230195   2.261   4.151   9.189  4.1250  1.7960 -0.2390
 6188SOL     OW30196   0.318   4.259   5.704  0.0785  0.1448 -0.1062
 6188SOL    HW130197   0.395   4.261   5.647 -1.8064  1.5697 -2.6241
 6188SOL    HW230198   0.248   4.237   5.642  1.1429 -1.8215 -0.6176
 6189SOL     OW30199   1.951   3.089   5.471  0.5087  0.1916  0.6577
 6189SOL    HW130200   1.856   3.088   5.458  1.1533 -2.1979 -4.0931
 6189SOL    HW230201   1.967   3.183   5.478 -0.8495  0.3305  1.7315
 6190SOL     OW30202   0.469   0.357  12.500  0.2052  0.4484  0.2013
 6190SOL    HW130203   0.406   0.350  12.572 -0.2325  0.7515 -0.1511
 6190SOL    HW230204   0.412   0.411  12.445 -1.1292 -0.5692  0.5748
 6191SOL     OW30205   4.539   0.275   2.970 -0.8013  0.1608  0.9108
 6191SOL    HW130206   4.517   0.211   2.902  1.9107  0.3059 -0.1371
 6191SOL    HW230207   4.631   0.292   2.948 -1.8327  0.0306 -3.6122
 6192SOL     OW30208   1.976   4.437   2.052 -0.3116 -0.0849 -0.1116
 6192SOL    HW130209   2.064   4.430   2.089 -0.3653 -1.1256 -0.2034
 6192SOL    HW230210   1.918   4.458   2.125 -0.5806  3.0440 -1.2260
 6193SOL     OW30211   2.838   0.552   6.671 -0.1281 -0.3611  0.2516
 6193SOL    HW130212   2.791   0.548   6.755  1.6016  0.7209  1.2735
 6193SOL    HW230213   2.922   0.513   6.697  0.1994 -0.5896 -1.1801
 6194SOL     OW30214   3.061   4.545   7.600 -0.2740 -0.4661 -0.2708
 6194SOL    HW130215   2.990   4.532   7.664  0.0295  3.2606  0.8623
 6194SOL    HW230216   3.099   4.459   7.587 -0.1385 -0.6292  1.1593
 6195SOL     OW30217   4.578   4.056  11.525 -0.4369 -0.1887 -0.1069
 6195SOL    HW130218   4.491   4.071  11.564 -1.4352 -1.4290 -1.8301
 6195SOL    HW230219   4.555   3.977  11.476 -0.0405 -1.3716  1.5697
 6196SOL     OW30220   0.744   3.061   4.098 -0.5903 -0.6380 -0.7179
 6196SOL    HW130221   0.773   3.041   4.009  1.2161 -1.1416 -0.0163
 6196SOL    HW230222   0.724   3.152   4.075  0.0268  0.2569  2.3000
 6197SOL     OW30223   2.556   1.135   7.231  0.3770  0.5613 -0.1242
 6197SOL    HW130224   2.643   1.095   7.238 -0.5134 -1.4870 -0.7230
 6197SOL    HW230225   2.511   1.077   7.171 -0.1313  3.8772 -2.9303
 6198SOL     OW30226   4.505   2.293   1.783  0.4109 -0.1258 -0.0177
 6198SOL    HW130227   4.478   2.297   1.875 -1.9476  2.2030 -0.7999
 6198SOL    HW230228   4.456   2.367   1.746 -0.6000 -0.6708  0.2148
 6199SOL     OW30229   3.721   4.202   2.418 -0.2284 -0.2186  0.5818
 6199SOL    HW130230   3.707   4.262   2.492  1.6456  0.6472  0.2308
 6199SOL    HW230231   3.779   4.254   2.364 -1.9111  2.0286  0.9296
 6200SOL     OW30232   2.897   2.125   8.956 -0.5643  0.2630 -0.5662
 6200SOL    HW130233   2.859   2.211   8.936  1.2551  1.2844  0.4585
 6200SOL    HW230234   2.871   2.115   9.047  0.5057 -4.6746 -0.8303
 6201SOL     OW30235   3.956   1.489   4.141 -0.0951 -0.4296  0.2245
 6201SOL    HW130236   3.932   1.578   4.115  1.2248 -0.1232  0.0660
 6201SOL    HW230237   4.026   1.470   4.079 -0.0857  1.1768 -0.2469
 6202SOL     OW30238   2.387   4.439   7.769 -0.2877  0.0043 -0.0566
 6202SOL    HW130239   2.368   4.345   7.762  0.0604 -0.1052  0.4523
 6202SOL    HW230240   2.325   4.456   7.840  3.1228  1.5587  2.5543
 6203SOL     OW30241   2.016   1.293   7.085  0.3549  0.1460  0.5200
 6203SOL    HW130242   1.969   1.376   7.090  1.3129  0.7664 -0.7329
 6203SOL    HW230243   2.081   1.311   7.152  0.4752 -1.4298  0.8350
 6204SOL     OW30244   2.997   0.602   1.627  0.5695 -0.5429 -0.0662
 6204SOL    HW130245   3.055   0.625   1.554  0.6542 -0.3893  0.0486
 6204SOL    HW230246   3.066   0.607   1.693  0.7423  1.0647 -0.3628
 6205SOL     OW30247   3.209   2.813  17.495  1.2781 -0.1758  0.0241
 6205SOL    HW130248   3.216   2.892  17.441  0.7249 -0.0222  0.1787
 6205SOL    HW230249   3.271   2.832  17.566  1.9272 -1.8721 -0.0932
 6206SOL     OW30250   1.312   2.696  12.646 -0.4009  0.0725 -0.0826
 6206SOL    HW130251   1.304   2.726  12.737 -0.9528  1.3286 -0.5442
 6206SOL    HW230252   1.221   2.681  12.622  0.7326 -1.5997 -3.2555
 6207SOL     OW30253   0.286   0.893   5.268  0.2610 -0.1710 -0.1773
 6207SOL    HW130254   0.221   0.864   5.203  0.7866 -0.3336 -0.6265
 6207SOL    HW230255   0.315   0.975   5.228 -0.5048 -0.8319 -2.1032
 6208SOL     OW30256   1.941   2.221   4.714 -0.4357  0.6455  0.6765
 6208SOL    HW130257   1.930   2.205   4.808 -3.6136  1.6233  0.4496
 6208SOL    HW230258   1.874   2.163   4.678 -0.1224  1.0573 -0.5577
 6209SOL     OW30259   4.287   2.886   9.246  0.3575  0.1757 -0.0198
 6209SOL    HW130260   4.202   2.927   9.229  0.3898  0.7017  1.0922
 6209SOL    HW230261   4.339   2.934   9.182  1.1700  0.3463  0.7706
 6210SOL     OW30262   3.763   3.033   2.713  0.0846 -0.3042 -0.2431
 6210SOL    HW130263   3.784   3.023   2.806 -0.4960  0.4820 -0.0260
 6210SOL    HW230264   3.838   3.085   2.684 -0.2405  0.2922 -0.0183
 6211SOL     OW30265   1.548   0.041   3.909 -0.1321  0.6176 -0.6928
 6211SOL    HW130266   1.457   0.016   3.894  1.5057 -3.3649 -4.0746
 6211SOL    HW230267   1.565   0.111   3.846 -2.0103  0.2148 -1.6573
 6212SOL     OW30268   4.146   3.829   4.805  0.3484 -0.0914  0.1626
 6212SOL    HW130269   4.185   3.885   4.872  2.2099 -0.2723 -0.7962
 6212SOL    HW230270   4.216   3.769   4.782  0.1305 -1.1079  2.1636
 6213SOL     OW30271   4.653   0.500   6.721  0.2902 -0.2960  0.2308
 6213SOL    HW130272   4.687   0.492   6.632  0.8181  0.3711  0.3744
 6213SOL    HW230273   4.660   0.595   6.729 -0.3279 -0.3171  1.0208
 6214SOL     OW30274   0.932   1.152   2.914  0.4063  0.1763 -0.3905
 6214SOL    HW130275   0.954   1.245   2.910  0.2830  0.1487 -1.7282
 6214SOL    HW230276   0.990   1.130   2.987 -0.2286  0.9071  0.3417
 6215SOL     OW30277   4.724   0.479  16.230 -0.2749  0.0353  0.3049
 6215SOL    HW130278   4.710   0.550  16.292  0.6907  0.6612 -0.1982
 6215SOL    HW230279   0.084   0.461  16.234 -0.4378 -1.0386 -0.6792
 6216SOL     OW30280   1.363   2.159   4.135  0.0049 -0.1315  0.3159
 6216SOL    HW130281   1.322   2.098   4.195  1.3141 -1.5443 -0.2283
 6216SOL    HW230282   1.358   2.245   4.178 -0.6934 -0.5187  0.9886
 6217SOL     OW30283   3.515   4.436   6.341  0.0610  0.0132 -0.1488
 6217SOL    HW130284   3.546   4.425   6.431 -0.5229  0.2517  0.0862
 6217SOL    HW230285   3.427   4.398   6.340  0.9203 -1.9862  0.2282
 6218SOL     OW30286   1.301   2.620   4.087  0.3422 -0.2124  0.3925
 6218SOL    HW130287   1.217   2.655   4.055 -0.2504 -1.9507  0.0540
 6218SOL    HW230288   1.346   2.693   4.129 -0.4059 -0.7647  2.1428
 6219SOL     OW30289   1.551   1.128   3.803  0.1380  0.4995 -0.1363
 6219SOL    HW130290   1.570   1.214   3.766  0.7236  0.8104  0.8905
 6219SOL    HW230291   1.607   1.083   3.740  1.3319 -0.1307  1.3506
 6220SOL     OW30292   3.378   1.485   5.754 -0.1894  0.0131  0.5297
 6220SOL    HW130293   3.320   1.545   5.707 -1.0296 -0.8671  0.4394
 6220SOL    HW230294   3.315   1.454   5.819 -1.5298  0.1654 -0.7076
 6221SOL     OW30295   2.552   4.373   7.466 -0.4452  0.0658  0.5415
 6221SOL    HW130296   2.577   4.318   7.540 -1.5045 -1.4071 -0.2068
 6221SOL    HW230297   2.464   4.398   7.495 -1.1163  0.8113 -2.0805
 6222SOL     OW30298   3.158   3.016   0.785  0.0412 -0.4265  0.3641
 6222SOL    HW130299   3.149   3.109   0.765 -2.2076 -0.4467  1.2559
 6222SOL    HW230300   3.088   3.001   0.848 -0.8464  0.2808 -0.4504
 6223SOL     OW30301   0.532   4.683  10.675  0.4221 -0.4019  0.6735
 6223SOL    HW130302   0.543   4.721  10.588 -2.4617  0.7697  0.8269
 6223SOL    HW230303   0.503   0.028  10.721  0.9530  0.8118 -1.0582
 6224SOL     OW30304   0.663   2.106  13.997  0.2096  0.1007 -0.2248
 6224SOL    HW130305   0.605   2.116  14.072  1.1733  2.0249  0.2705
 6224SOL    HW230306   0.636   2.020  13.966 -1.6969  0.5571  0.1506
 6225SOL     OW30307   0.253   2.813   6.808  1.0194 -0.4942  0.7651
 6225SOL    HW130308   0.202   2.818   6.727 -0.3164 -0.5629  1.6018
 6225SOL    HW230309   0.283   2.723   6.810 -1.7424 -1.4288  0.1002
 6226SOL     OW30310   1.296   3.378   2.461  0.2438  0.0033 -0.1734
 6226SOL    HW130311   1.273   3.470   2.449 -0.2494 -0.1544 -0.4409
 6226SOL    HW230312   1.296   3.364   2.555  2.3002 -1.3274 -0.3732
 6227SOL     OW30313   3.519   0.395   8.320 -0.6989 -0.4604 -0.2350
 6227SOL    HW130314   3.521   0.481   8.363  0.5974 -0.5337 -0.1431
 6227SOL    HW230315   3.428   0.375   8.340 -0.0194 -1.0314  2.2394
 6228SOL     OW30316   3.755   3.223   4.718  0.2465  0.0617  0.2480
 6228SOL    HW130317   3.728   3.304   4.673  1.2513 -0.3337 -1.0657
 6228SOL    HW230318   3.737   3.238   4.811  0.6532  1.4129  0.1138
 6229SOL     OW30319   4.078   0.975   5.237  0.0529  0.5649 -0.1025
 6229SOL    HW130320   4.041   1.032   5.304  0.4277  1.8478 -0.9831
 6229SOL    HW230321   4.090   1.041   5.168 -1.8813  0.4287 -0.5713
 6230SOL     OW30322   0.164   3.731  11.350 -0.6018 -0.2538  0.2004
 6230SOL    HW130323   0.230   3.706  11.415  0.3682 -0.0082 -0.6833
 6230SOL    HW230324   0.169   3.650  11.299 -1.6072 -1.1373  1.5208
 6231SOL     OW30325   0.129   3.650   8.942 -0.1288 -0.1374 -0.3081
 6231SOL    HW130326   0.097   3.740   8.954  0.6341 -0.0884  1.4019
 6231SOL    HW230327   0.075   3.600   9.003 -0.5944  2.2264  1.2458
 6232SOL     OW30328   1.808   3.994   9.709  0.1626  0.5589  0.3026
 6232SOL    HW130329   1.895   3.954   9.702  0.7422  1.9199 -0.2381
 6232SOL    HW230330   1.833   4.085   9.725  3.6716 -0.6185  1.4203
 6233SOL     OW30331   4.642   2.528  10.340 -0.3232 -0.0379 -0.6266
 6233SOL    HW130332   4.600   2.445  10.364 -1.4881  0.4477 -1.0178
 6233SOL    HW230333   4.628   2.515  10.246  1.6638 -1.0784 -0.7937
 6234SOL     OW30334   0.375   4.247  11.402 -0.7259 -0.0405 -0.8344
 6234SOL    HW130335   0.428   4.220  11.477 -1.2162  1.5257  0.0738
 6234SOL    HW230336   0.366   4.167  11.350  0.5542 -1.0028  0.4351
 6235SOL     OW30337   3.352   3.202   9.056 -0.0530  0.3013  0.7523
 6235SOL    HW130338   3.436   3.247   9.043  0.0436 -0.2562 -0.5489
 6235SOL    HW230339   3.300   3.280   9.078  0.2719  0.1506  2.1056
 6236SOL     OW30340   4.188   1.299   8.263 -0.6680 -0.2338  0.5419
 6236SOL    HW130341   4.230   1.214   8.277  0.9680  0.4940 -0.0004
 6236SOL    HW230342   4.203   1.340   8.348 -1.6773 -0.0609  0.6480
 6237SOL     OW30343   2.455   0.580   7.343 -0.0898  0.6876 -0.6481
 6237SOL    HW130344   2.397   0.511   7.310  2.4932 -1.0957 -1.5645
 6237SOL    HW230345   2.530   0.531   7.377 -1.3488 -0.4118  0.5151
 6238SOL     OW30346   2.287   4.528   6.745 -0.3834 -0.0814  0.0418
 6238SOL    HW130347   2.366   4.571   6.711 -0.3031  0.3107  0.7433
 6238SOL    HW230348   2.299   4.438   6.715 -0.5726  0.9461 -3.1560
 6239SOL     OW30349   0.647   4.509   4.571  0.4545 -0.0616  0.1168
 6239SOL    HW130350   0.588   4.435   4.590  1.1161 -0.2453  1.4523
 6239SOL    HW230351   0.687   4.533   4.654 -0.4937  0.6271  0.3809
 6240SOL     OW30352   2.773   2.089   3.631  0.1150  0.3808 -0.0672
 6240SOL    HW130353   2.852   2.116   3.585  0.1780  0.3366  0.0155
 6240SOL    HW230354   2.791   2.010   3.682 -5.1587 -1.3359 -0.7850
 6241SOL     OW30355   3.591   1.164  13.250  0.1194  0.6473  0.4217
 6241SOL    HW130356   3.608   1.167  13.156 -1.4741 -0.7986  0.0731
 6241SOL    HW230357   3.588   1.257  13.268  0.2303  0.3993  1.6956
 6242SOL     OW30358   0.342   4.379   6.296  0.3157  0.0109  0.1203
 6242SOL    HW130359   0.254   4.417   6.289 -0.9096 -2.7853  0.2819
 6242SOL    HW230360   0.341   4.285   6.315 -0.2209  0.2221  1.1122
 6243SOL     OW30361   2.885   4.096  14.964 -0.1728 -0.1103 -0.1065
 6243SOL    HW130362   2.939   4.022  14.936 -0.9414 -0.6803 -0.0909
 6243SOL    HW230363   2.815   4.093  14.899 -1.4828  3.3317  1.1709
 6244SOL     OW30364   3.782   3.462   9.245  0.2605 -0.2717 -0.1157
 6244SOL    HW130365   3.806   3.463   9.338 -2.3530  0.8743  0.5500
 6244SOL    HW230366   3.795   3.368   9.227 -1.6303 -0.0408 -2.7641
 6245SOL     OW30367   3.377   2.765  15.972 -0.8983  0.0328  0.0781
 6245SOL    HW130368   3.367   2.840  16.031  2.3404 -1.3779  2.4446
 6245SOL    HW230369   3.361   2.692  16.032 -0.5333 -1.0515 -1.1703
 6246SOL     OW30370   0.729   2.488   4.079 -0.0627  0.0285 -0.4649
 6246SOL    HW130371   0.743   2.395   4.095 -1.0046 -0.1413 -0.6154
 6246SOL    HW230372   0.668   2.513   4.149  0.5433 -0.4018  0.2149
 6247SOL     OW30373   1.255   2.951   3.926 -0.1063  0.3653  0.7107
 6247SOL    HW130374   1.332   2.940   3.871 -0.6948  1.4306 -0.3164
 6247SOL    HW230375   1.282   3.038   3.956 -0.2906  1.2278 -1.6661
 6248SOL     OW30376   0.678   2.775   2.168  0.9652  0.5625 -0.0098
 6248SOL    HW130377   0.735   2.852   2.166  0.2922  1.0240 -1.2679
 6248SOL    HW230378   0.708   2.723   2.093  0.7816  0.3849  0.0381
 6249SOL     OW30379   4.629   0.080   8.165 -0.3516 -0.0318  0.0070
 6249SOL    HW130380   4.687   0.149   8.132 -1.0984  1.5945  2.1012
 6249SOL    HW230381   4.630   0.102   8.258 -3.8711  0.1086  0.0190
 6250SOL     OW30382   2.942   0.618   0.914 -0.1435  0.8279 -0.7292
 6250SOL    HW130383   2.872   0.674   0.880  0.8409  2.3323 -0.2674
 6250SOL    HW230384   3.017   0.650   0.865 -0.3035  1.4643 -0.5545
 6251SOL     OW30385   3.565   2.570   4.647  0.3145  0.1066 -0.0708
 6251SOL    HW130386   3.642   2.515   4.658 -0.5542 -1.1531 -0.2968
 6251SOL    HW230387   3.502   2.514   4.602  0.0072  0.9616 -0.6983
 6252SOL     OW30388   3.282   1.534   3.203 -0.1207  0.0658  0.0881
 6252SOL    HW130389   3.245   1.483   3.130 -0.0925 -1.0264  0.8366
 6252SOL    HW230390   3.252   1.477   3.274  1.3602  0.8015  1.2914
 6253SOL     OW30391   2.966   3.909  12.056 -0.1014  0.4522 -0.3824
 6253SOL    HW130392   3.018   3.858  11.993  1.2581 -0.3308  1.3751
 6253SOL    HW230393   3.041   3.915  12.115 -0.9113  0.5159  0.6200
 6254SOL     OW30394   0.603   2.778   5.190  0.3182  0.2893 -0.3445
 6254SOL    HW130395   0.535   2.747   5.130  0.9167 -1.1722 -0.2608
 6254SOL    HW230396   0.679   2.759   5.134 -0.2266  0.2445 -1.0622
 6255SOL     OW30397   2.927   1.266   6.434 -0.1087 -0.3832 -0.1841
 6255SOL    HW130398   3.009   1.316   6.425  0.9264 -2.3904 -1.8135
 6255SOL    HW230399   2.928   1.201   6.364  1.1951 -1.9526  1.3096
 6256SOL     OW30400   1.464   2.477   2.467 -0.1537 -0.9778 -0.4607
 6256SOL    HW130401   1.537   2.525   2.505 -0.9362  1.0938 -1.5948
 6256SOL    HW230402   1.407   2.455   2.541 -0.4857 -2.3807 -1.1260
 6257SOL     OW30403   0.675   0.858   5.116 -0.3940  0.1401  0.0222
 6257SOL    HW130404   0.720   0.870   5.032  2.1253  0.3635  1.3895
 6257SOL    HW230405   0.582   0.863   5.093 -0.6772 -3.0756  0.4842
 6258SOL     OW30406   0.538   0.936  10.600  0.0808 -0.6153 -0.0729
 6258SOL    HW130407   0.599   0.879  10.554 -0.6843 -0.9629 -0.6610
 6258SOL    HW230408   0.528   0.883  10.679 -0.7626  1.4744  1.2358
 6259SOL     OW30409   0.584   0.189   0.432  0.0680  0.3892 -1.2140
 6259SOL    HW130410   0.666   0.224   0.466  0.6577  0.1034 -2.3380
 6259SOL    HW230411   0.619   0.140   0.358  0.0160  0.9040 -1.5857
 6260SOL     OW30412   4.650   4.580  14.563  0.1166 -0.2766 -0.0823
 6260SOL    HW130413   4.670   4.561  14.655  1.9627  0.4291 -0.3486
 6260SOL    HW230414   4.565   4.624  14.574 -0.1459 -0.8253  0.1119
 6261SOL     OW30415   3.404   1.484   6.456 -0.2919  0.3370  0.2329
 6261SOL    HW130416   3.494   1.482   6.422 -0.4640  0.1271 -0.2036
 6261SOL    HW230417   3.390   1.579   6.451  0.0941  0.3781 -0.0452
 6262SOL     OW30418   3.374   2.653   5.098 -0.3039 -0.0819  0.1213
 6262SOL    HW130419   3.340   2.667   5.009 -0.4305 -0.5036  0.1050
 6262SOL    HW230420   3.456   2.701   5.089 -1.9675  2.5723 -1.2783
 6263SOL     OW30421   0.011   2.033   5.070 -0.0727  0.2767 -0.2160
 6263SOL    HW130422   0.054   2.016   4.987  2.6323  3.9923  0.4259
 6263SOL    HW230423   4.700   2.110   5.036  1.8279  1.9801  1.1336
 6264SOL     OW30424   0.164   3.268   9.222 -0.0708  0.7615  0.0606
 6264SOL    HW130425   0.241   3.222   9.254 -1.2277 -1.4437 -0.3732
 6264SOL    HW230426   0.206   3.354   9.218  1.5092 -0.0113  0.1075
 6265SOL     OW30427   1.231   0.592  11.959  0.1282 -0.5139 -0.3520
 6265SOL    HW130428   1.325   0.577  11.966  0.2018  0.0900 -0.0636
 6265SOL    HW230429   1.192   0.508  11.985 -1.5411  1.5342  3.6347
 6266SOL     OW30430   0.618   1.736   4.507 -0.3071 -0.3845  0.1302
 6266SOL    HW130431   0.525   1.754   4.520 -0.4290 -1.1527  0.3134
 6266SOL    HW230432   0.668   1.749   4.587  0.7853 -1.0471 -0.4521
 6267SOL     OW30433   0.389   3.568  15.865 -0.6677 -0.0792  0.4942
 6267SOL    HW130434   0.412   3.562  15.957 -0.9375  0.1552  0.5799
 6267SOL    HW230435   0.393   3.664  15.862  1.5212 -0.1062  2.8102
 6268SOL     OW30436   2.197   3.640  15.443  0.5140 -0.5393  0.0213
 6268SOL    HW130437   2.116   3.677  15.407  0.8928 -0.1265 -0.3887
 6268SOL    HW230438   2.187   3.665  15.535 -2.3500 -3.7743  0.6093
 6269SOL     OW30439   0.674   3.591   1.721 -0.6897 -0.4788 -0.0436
 6269SOL    HW130440   0.732   3.528   1.764 -0.2162  0.2389  0.3706
 6269SOL    HW230441   0.696   3.588   1.627 -0.6978 -1.8635  0.0016
 6270SOL     OW30442   3.004   0.293   7.473 -0.1027  0.2210  0.6554
 6270SOL    HW130443   3.081   0.237   7.478  0.4525  0.8443 -0.8839
 6270SOL    HW230444   2.930   0.237   7.450  1.3168 -1.1366 -0.6232
 6271SOL     OW30445   3.538   3.231  16.816  0.7598 -0.0979 -0.2671
 6271SOL    HW130446   3.446   3.235  16.790  0.4653  3.5931  1.3113
 6271SOL    HW230447   3.529   3.292  16.889  0.4014 -0.0690 -0.3369
 6272SOL     OW30448   0.628   1.238   2.367  0.1255  0.3188 -0.0266
 6272SOL    HW130449   0.673   1.245   2.451  0.6820  3.5556 -0.5810
 6272SOL    HW230450   0.637   1.146   2.343 -2.3621  0.1937 -0.4798
 6273SOL     OW30451   4.242   0.175  11.646 -0.3590  0.2136 -0.5279
 6273SOL    HW130452   4.230   0.108  11.578  0.5354  0.5293 -0.9966
 6273SOL    HW230453   4.284   0.245  11.596 -0.0391  0.6407  0.3393
 6274SOL     OW30454   3.338   4.008  10.194  0.2316 -0.7341 -0.1986
 6274SOL    HW130455   3.339   4.097  10.228 -1.7003 -0.7230 -0.1701
 6274SOL    HW230456   3.419   3.973  10.230  0.5952  0.9199  0.5964
 6275SOL     OW30457   4.366   0.689  16.481  0.5932 -0.2305  0.1980
 6275SOL    HW130458   4.290   0.670  16.535  1.4143 -0.7633  1.1605
 6275SOL    HW230459   4.383   0.782  16.501 -0.0282 -0.3352  1.1933
 6276SOL     OW30460   2.454   0.011   5.141 -0.2097 -0.2975 -0.1128
 6276SOL    HW130461   2.484   4.654   5.147  0.2135 -0.0849  1.0448
 6276SOL    HW230462   2.392   0.007   5.213  0.9923  2.0039  1.0335
 6277SOL     OW30463   2.691   0.656   5.196  0.3649 -0.2382 -0.3731
 6277SOL    HW130464   2.648   0.573   5.178 -1.9752  1.1371 -1.1569
 6277SOL    HW230465   2.779   0.620   5.201  0.2413 -0.7815 -1.9658
 6278SOL     OW30466   0.002   1.082   5.054  0.1003 -0.0712 -0.4595
 6278SOL    HW130467   0.096   1.093   5.068  0.1099  1.4975 -1.8653
 6278SOL    HW230468   4.698   1.152   5.106 -0.5383 -2.1177  1.8457
 6279SOL     OW30469   4.439   2.671   3.839  0.3095 -0.4071  0.1654
 6279SOL    HW130470   4.482   2.737   3.785 -1.9205 -0.3892 -1.5448
 6279SOL    HW230471   4.516   2.616   3.854  0.5650 -0.3619 -1.0383
 6280SOL     OW30472   3.710   1.323  13.714  0.2099  0.3528  0.2216
 6280SOL    HW130473   3.689   1.256  13.649 -1.6659  1.5532 -0.4005
 6280SOL    HW230474   3.665   1.392  13.664  0.6986  0.5233  0.0170
 6281SOL     OW30475   2.901   3.011   5.773 -0.9756 -0.0717  0.6535
 6281SOL    HW130476   2.935   3.100   5.761 -0.7723 -0.1458  0.6756
 6281SOL    HW230477   2.820   3.032   5.820  0.1285 -0.4104  2.7267
 6282SOL     OW30478   1.815   0.750   5.820  0.5613  0.7029 -0.0351
 6282SOL    HW130479   1.759   0.827   5.828  1.1533  1.2228 -0.8794
 6282SOL    HW230480   1.903   0.785   5.807  0.5893  0.3136 -0.9303
 6283SOL     OW30481   4.710   2.644   3.496 -0.4868  0.0219  0.6618
 6283SOL    HW130482   0.043   2.699   3.455  0.5089 -1.7121  0.0023
 6283SOL    HW230483   4.734   2.559   3.459 -1.2902  0.4007 -0.7695
 6284SOL     OW30484   2.037   4.038   7.332  0.4018  0.1158 -0.8938
 6284SOL    HW130485   2.125   4.047   7.296  0.0040 -0.0377 -1.9355
 6284SOL    HW230486   2.042   3.970   7.399  0.0619  0.8331 -0.1371
 6285SOL     OW30487   3.156   4.658   4.974  0.0971  0.5340 -0.2456
 6285SOL    HW130488   3.162   4.563   4.973  2.5004  0.6866 -1.2037
 6285SOL    HW230489   3.132   4.668   4.882 -1.1523  1.4698  0.1840
 6286SOL     OW30490   1.549   0.286  15.721 -0.4866 -0.4211  0.6765
 6286SOL    HW130491   1.599   0.210  15.748  2.5500  1.4572  0.3157
 6286SOL    HW230492   1.567   0.347  15.793 -0.7390 -1.3908  1.5568
 6287SOL     OW30493   0.191   0.986   3.225 -0.4149  0.1296 -0.3154
 6287SOL    HW130494   0.171   1.080   3.228 -2.0024 -0.1675 -1.6517
 6287SOL    HW230495   0.123   0.956   3.165 -1.0358 -0.8293  0.8744
 6288SOL     OW30496   2.822   0.939  12.649 -0.8112  0.0356 -0.1373
 6288SOL    HW130497   2.822   1.011  12.586  0.1312  0.8677  0.8109
 6288SOL    HW230498   2.745   0.888  12.623 -0.1968 -1.2138  0.5250
 6289SOL     OW30499   2.801   3.250   5.075 -0.1605 -0.6102  0.4971
 6289SOL    HW130500   2.892   3.224   5.057 -0.1135 -1.1130  1.4813
 6289SOL    HW230501   2.812   3.304   5.153 -1.0062  0.5166 -0.1625
 6290SOL     OW30502   3.706   0.300   5.818 -0.0841  0.0453  0.2227
 6290SOL    HW130503   3.715   0.244   5.741 -1.7720 -3.1001  2.3402
 6290SOL    HW230504   3.797   0.303   5.845  0.4914  1.1530 -1.8292
 6291SOL     OW30505   0.814   3.358  15.726 -0.2046 -0.1377  0.1416
 6291SOL    HW130506   0.796   3.452  15.727  0.6197  0.0144  0.5154
 6291SOL    HW230507   0.737   3.338  15.779  1.7678 -0.4874  2.8522
 6292SOL     OW30508   3.668   3.431   4.915 -0.3765 -0.1201 -0.1252
 6292SOL    HW130509   3.719   3.503   4.951  0.4608 -0.0074 -1.5105
 6292SOL    HW230510   3.659   3.469   4.827 -0.8512  2.1776  0.9237
 6293SOL     OW30511   0.546   3.749   7.281 -0.7467  0.8844  0.5940
 6293SOL    HW130512   0.466   3.761   7.229  0.0239  2.9020 -0.1227
 6293SOL    HW230513   0.601   3.700   7.220 -1.5960 -0.6974  1.1032
 6294SOL     OW30514   2.453   0.445  16.378 -0.5660  0.1854 -0.0548
 6294SOL    HW130515   2.509   0.420  16.451  2.6495  3.7730 -1.2990
 6294SOL    HW230516   2.510   0.510  16.336 -1.0096  0.2903 -0.4980
 6295SOL     OW30517   2.859   2.785   9.845  0.0826 -0.5971 -0.0359
 6295SOL    HW130518   2.848   2.868   9.891  1.1739 -0.7797  0.5532
 6295SOL    HW230519   2.953   2.768   9.850  0.0294 -1.4487 -2.2263
 6296SOL     OW30520   4.526   2.774  15.316  0.0855  0.5015  0.3537
 6296SOL    HW130521   4.479   2.742  15.392 -0.1542 -0.1600 -0.0732
 6296SOL    HW230522   4.539   2.864  15.346 -0.1141  0.5188  0.3865
 6297SOL     OW30523   2.716   1.645   2.960 -0.1649 -0.5396  0.0479
 6297SOL    HW130524   2.787   1.709   2.962  0.5819 -1.2966 -3.4517
 6297SOL    HW230525   2.755   1.584   3.023  0.1990  0.4980  0.8290
 6298SOL     OW30526   2.864   1.282   4.950 -0.4659  0.0673 -0.2979
 6298SOL    HW130527   2.834   1.330   5.027 -1.5159 -0.2494 -0.5033
 6298SOL    HW230528   2.851   1.344   4.878  3.9046 -0.2067 -1.2913
 6299SOL     OW30529   3.016   3.083   6.968 -0.4923  0.0766 -0.1092
 6299SOL    HW130530   2.988   3.116   7.053 -1.2412 -2.2617  0.5593
 6299SOL    HW230531   3.106   3.113   6.954 -0.5322  0.4396  0.4231
 6300SOL     OW30532   2.856   2.219  17.437  0.3563  0.0883  0.2065
 6300SOL    HW130533   2.855   2.304  17.482  2.6821  0.4587 -0.4283
 6300SOL    HW230534   2.861   2.248  17.346  0.8942 -1.1852 -0.1706
 6301SOL     OW30535   2.991   1.185   5.955  0.2099  0.3574  0.0874
 6301SOL    HW130536   3.040   1.137   5.888 -0.7937 -0.7378  0.1279
 6301SOL    HW230537   3.036   1.269   5.949  0.2027  0.1501 -2.9201
 6302SOL     OW30538   0.152   3.269   7.908  0.5129 -0.3100  0.7084
 6302SOL    HW130539   0.145   3.355   7.950  2.2157  1.2535 -2.1856
 6302SOL    HW230540   0.068   3.228   7.926  1.5711 -1.9188  1.9798
 6303SOL     OW30541   0.849   1.724   4.320  0.2607 -0.0454 -0.5149
 6303SOL    HW130542   0.759   1.752   4.332  0.5521  0.9277 -0.6052
 6303SOL    HW230543   0.873   1.754   4.232 -0.9120  0.3161 -0.7021
 6304SOL     OW30544   1.033   0.750   0.420  0.3677  0.2083 -1.1470
 6304SOL    HW130545   0.987   0.747   0.336  0.9638 -2.1985 -1.3887
 6304SOL    HW230546   1.094   0.679   0.402  1.1688 -0.1872  3.2004
 6305SOL     OW30547   1.366   3.721   8.409 -0.2091  0.2533 -0.3166
 6305SOL    HW130548   1.294   3.663   8.433  0.3603 -0.7605 -1.0465
 6305SOL    HW230549   1.445   3.668   8.421 -0.9906 -1.0561 -1.0096
 6306SOL     OW30550   0.359   0.689   0.105 -0.0319 -0.1717  0.2394
 6306SOL    HW130551   0.278   0.673   0.155  1.2029  0.0899  2.3350
 6306SOL    HW230552   0.386   0.605   0.070 -1.6704 -1.1908  1.3913
 6307SOL     OW30553   2.450   4.490  17.010  0.1290  0.0252 -0.0245
 6307SOL    HW130554   2.417   4.417  17.062 -0.9774  0.6082  0.0989
 6307SOL    HW230555   2.501   4.541  17.072  1.1409 -1.8864  0.7201
 6308SOL     OW30556   1.502   2.588   5.379 -0.4804 -0.4171 -0.5279
 6308SOL    HW130557   1.480   2.502   5.343 -3.0375 -0.0989  0.2852
 6308SOL    HW230558   1.508   2.631   5.294 -2.3397  2.0096  0.5731
 6309SOL     OW30559   3.247   0.062   7.800 -0.2211 -0.0236  0.1901
 6309SOL    HW130560   3.231   0.055   7.895  0.0625 -2.9178  0.0496
 6309SOL    HW230561   3.273   4.705   7.785 -0.2746  0.0207 -0.1658
 6310SOL     OW30562   4.730   4.561   0.697 -0.1275  0.6600 -0.3628
 6310SOL    HW130563   4.725   4.468   0.715  2.3934  0.7605  0.7391
 6310SOL    HW230564   0.089   4.560   0.675  0.2626  3.1179  1.1844
 6311SOL     OW30565   0.722   4.129   6.353 -0.0279  0.0388  0.0564
 6311SOL    HW130566   0.737   4.038   6.379 -1.1664  0.0427  0.7567
 6311SOL    HW230567   0.696   4.156   6.441 -0.9667  0.0364 -0.2212
 6312SOL     OW30568   4.190   4.229   6.383 -0.0188  0.0708  0.6596
 6312SOL    HW130569   4.184   4.134   6.392  0.7018  0.1461  1.9398
 6312SOL    HW230570   4.101   4.259   6.364  1.2387  2.8066 -0.8556
 6313SOL     OW30571   3.511   3.960   7.257  1.2009 -0.1173  0.4578
 6313SOL    HW130572   3.501   3.898   7.329 -0.5147 -0.4444 -0.0648
 6313SOL    HW230573   3.478   3.903   7.188 -1.6699  0.2033  1.5753
 6314SOL     OW30574   4.214   4.302   4.067  0.0104  0.0423  0.0475
 6314SOL    HW130575   4.269   4.381   4.069 -1.0020  0.7323  0.3572
 6314SOL    HW230576   4.281   4.235   4.084 -2.0605 -2.1846 -0.6528
 6315SOL     OW30577   0.832   3.396   1.831 -0.0111  0.2387  0.0505
 6315SOL    HW130578   0.893   3.411   1.904  1.5883  0.9208 -1.4127
 6315SOL    HW230579   0.894   3.353   1.772 -0.5858  1.0443 -1.1452
 6316SOL     OW30580   1.158   3.351   2.730 -0.4082 -0.6291  0.5111
 6316SOL    HW130581   1.095   3.311   2.670  0.6396  3.5297 -3.3896
 6316SOL    HW230582   1.126   3.316   2.812  0.2699  0.0231  1.0575
 6317SOL     OW30583   0.728   0.460   5.750  0.0067 -0.5585  0.4024
 6317SOL    HW130584   0.736   0.365   5.764  3.6802 -0.1637  0.7671
 6317SOL    HW230585   0.782   0.466   5.672 -2.2832  1.9254 -0.9737
 6318SOL     OW30586   4.490   0.723   1.492 -0.4834  0.5760  0.0376
 6318SOL    HW130587   4.477   0.693   1.402 -2.4620 -1.5927  1.0187
 6318SOL    HW230588   4.477   0.816   1.475  1.9957  0.6276 -1.5729
 6319SOL     OW30589   1.021   2.252   6.140  0.3484 -0.3692  0.0265
 6319SOL    HW130590   1.076   2.300   6.202 -0.5711 -0.1185  0.6296
 6319SOL    HW230591   1.004   2.165   6.177  1.2742  0.2720  1.9509
 6320SOL     OW30592   0.361   0.902  14.051 -0.1991  0.0922 -0.1737
 6320SOL    HW130593   0.331   0.993  14.053 -0.3565  0.1293 -4.2252
 6320SOL    HW230594   0.332   0.877  13.963  0.7891  1.9272 -1.0268
 6321SOL     OW30595   0.216   2.616   8.250 -0.2532 -0.1868  0.1993
 6321SOL    HW130596   0.212   2.540   8.191 -0.4775  1.8610 -2.4243
 6321SOL    HW230597   0.132   2.616   8.295 -0.1752  0.7516  0.3492
 6322SOL     OW30598   1.667   4.413   7.855  0.3372  0.1431 -0.3400
 6322SOL    HW130599   1.722   4.386   7.781 -1.3949  1.0010 -1.9523
 6322SOL    HW230600   1.639   4.328   7.889  0.3723  0.2333 -0.0902
 6323SOL     OW30601   2.716   2.164   7.460  0.1607 -0.6499  0.6011
 6323SOL    HW130602   2.672   2.225   7.401  2.2623 -0.4477 -0.7478
 6323SOL    HW230603   2.633   2.129   7.494  0.5399  1.0983  3.3712
 6324SOL     OW30604   0.582   0.201  10.813 -0.5424  0.3955 -0.1795
 6324SOL    HW130605   0.652   0.169  10.870  0.6477  0.8906 -1.3698
 6324SOL    HW230606   0.572   0.295  10.828  0.0392  0.2366  1.2144
 6325SOL     OW30607   1.482   3.108   4.134  0.9246  0.4612 -0.1582
 6325SOL    HW130608   1.454   3.144   4.050 -2.7190  1.3110  1.4010
 6325SOL    HW230609   1.537   3.176   4.171  0.7837  0.2539  0.4275
 6326SOL     OW30610   4.002   1.107   2.923 -0.0639 -0.2703  0.0510
 6326SOL    HW130611   3.916   1.100   2.964  0.9942  0.4244  2.3840
 6326SOL    HW230612   4.051   1.136   3.000 -0.8130  2.9808 -0.7053
 6327SOL     OW30613   2.177   1.702   3.351 -0.2319 -0.3740  0.1024
 6327SOL    HW130614   2.221   1.680   3.434 -1.6626 -0.2555  0.8904
 6327SOL    HW230615   2.244   1.756   3.309  0.4000 -0.0604  1.5028
 6328SOL     OW30616   0.051   3.929  14.408  0.3351  0.2392  0.2083
 6328SOL    HW130617   0.126   3.929  14.468 -0.5521 -0.2608  1.3285
 6328SOL    HW230618   4.715   3.937  14.473 -0.0523  2.2563 -0.4562
 6329SOL     OW30619   1.157   0.980   0.577 -0.5084  0.0774  0.2357
 6329SOL    HW130620   1.106   0.919   0.523  0.3791 -0.2818 -0.1813
 6329SOL    HW230621   1.105   1.060   0.575  0.6740  0.8427  0.5219
 6330SOL     OW30622   1.060   1.205  15.937  0.0366 -0.6559  0.0294
 6330SOL    HW130623   1.112   1.173  15.863  1.6140 -0.3273  0.9959
 6330SOL    HW230624   1.080   1.298  15.929  0.3899 -0.7170  0.1915
 6331SOL     OW30625   3.255   3.544  14.226  0.1650 -0.0150 -0.1614
 6331SOL    HW130626   3.172   3.590  14.242 -1.4327 -2.4408 -1.4500
 6331SOL    HW230627   3.285   3.583  14.145 -0.3704  2.3289  0.7556
 6332SOL     OW30628   3.282   2.139  13.817  0.2144  0.4109 -0.9304
 6332SOL    HW130629   3.321   2.089  13.888 -0.9586 -1.6986 -1.7666
 6332SOL    HW230630   3.344   2.212  13.819  1.0847 -0.4000  1.4731
 6333SOL     OW30631   1.969   1.208   6.094  0.3218  0.0689  0.1466
 6333SOL    HW130632   2.054   1.207   6.138 -0.1844  1.4500  1.1544
 6333SOL    HW230633   1.950   1.301   6.106 -1.0242 -0.3772  1.3753
 6334SOL     OW30634   2.760   4.067   7.340  0.1185 -0.4771  0.1050
 6334SOL    HW130635   2.796   4.102   7.259  0.8161  1.4087  1.2060
 6334SOL    HW230636   2.791   4.136   7.399  0.9259 -1.2325  0.5665
 6335SOL     OW30637   4.047   0.802  10.728 -0.4077 -0.1258  0.2332
 6335SOL    HW130638   4.076   0.876  10.675 -0.7823 -0.9389 -1.1098
 6335SOL    HW230639   3.963   0.837  10.759  0.2297  1.1350  0.5309
 6336SOL     OW30640   0.546   0.545   8.338  0.3303  0.1073 -0.5275
 6336SOL    HW130641   0.498   0.544   8.421  1.6297  1.5449  0.2380
 6336SOL    HW230642   0.579   0.456   8.323 -1.0329 -0.5771  0.4819
 6337SOL     OW30643   2.705   1.831  16.568 -0.3075 -0.2122 -0.6286
 6337SOL    HW130644   2.779   1.825  16.509 -0.3083 -1.2756 -0.5243
 6337SOL    HW230645   2.739   1.881  16.643  0.4067 -1.7895  0.1028
 6338SOL     OW30646   3.223   1.402   5.968 -0.2321  0.1393  0.0169
 6338SOL    HW130647   3.239   1.425   6.059  3.0369 -2.5872  0.1439
 6338SOL    HW230648   3.287   1.331   5.974 -0.0104  0.4444  1.2894
 6339SOL     OW30649   3.790   2.871   7.840 -0.1694 -0.5105  0.0557
 6339SOL    HW130650   3.815   2.778   7.842  0.3656 -0.3451  1.5372
 6339SOL    HW230651   3.701   2.873   7.876  0.4165 -1.6806  1.5809
 6340SOL     OW30652   2.852   2.793   2.222  0.2114  0.4308 -0.1049
 6340SOL    HW130653   2.887   2.711   2.187 -0.1826  0.1059  0.2599
 6340SOL    HW230654   2.925   2.825   2.276  0.5013  0.3591 -0.4557
 6341SOL     OW30655   1.012   4.300   4.236 -0.5895 -0.6182  0.4556
 6341SOL    HW130656   1.082   4.365   4.230 -1.2457 -0.0283 -0.9146
 6341SOL    HW230657   1.061   4.222   4.213 -0.2072 -0.0979 -0.4842
 6342SOL     OW30658   0.579   3.842   1.647  0.0935  0.0551  0.6218
 6342SOL    HW130659   0.488   3.823   1.624 -0.1430  2.3257 -0.3148
 6342SOL    HW230660   0.593   3.753   1.680 -0.3259 -0.7384 -1.3530
 6343SOL     OW30661   4.694   0.235   6.206  0.1174  0.0330  0.2383
 6343SOL    HW130662   4.726   0.237   6.115 -1.8922 -0.0591 -0.4752
 6343SOL    HW230663   4.729   0.318   6.238 -0.5014  1.4019 -2.6035
 6344SOL     OW30664   4.189   0.470   0.065  0.1318 -0.5561 -0.2233
 6344SOL    HW130665   4.237   0.521  17.735 -0.1394  1.6706  1.3114
 6344SOL    HW230666   4.259   0.408   0.087  0.6936 -0.4303 -1.6735
 6345SOL     OW30667   0.914   4.459  13.241  0.0917  0.1734 -0.0268
 6345SOL    HW130668   0.997   4.504  13.261  1.0964 -2.4542  1.7700
 6345SOL    HW230669   0.854   4.533  13.229 -0.0031 -0.1692 -1.5710
 6346SOL     OW30670   1.705   0.919   7.241  0.4485  0.1614 -0.4884
 6346SOL    HW130671   1.791   0.960   7.229  1.8760 -2.3234  1.2412
 6346SOL    HW230672   1.728   0.828   7.223  2.0475  1.1386 -3.3054
 6347SOL     OW30673   0.181   3.095   7.264 -0.4265 -0.0004 -0.4829
 6347SOL    HW130674   0.164   3.087   7.170 -0.8508  0.8832 -0.4770
 6347SOL    HW230675   0.253   3.034   7.282 -0.0797  1.1885  2.0992
 6348SOL     OW30676   3.180   1.728   9.350  1.0433 -0.0718 -0.1849
 6348SOL    HW130677   3.187   1.638   9.318  1.4036 -0.5073  1.1009
 6348SOL    HW230678   3.272   1.748   9.372  0.1367  1.5436  2.1384
 6349SOL     OW30679   2.791   0.392  16.389  0.7362  0.4882 -0.3336
 6349SOL    HW130680   2.724   0.362  16.451 -0.5489  2.6411 -0.6715
 6349SOL    HW230681   2.817   0.304  16.362  0.8937  0.1957  0.7587
 6350SOL     OW30682   1.584   2.391   9.912  0.1539  0.4242  0.1298
 6350SOL    HW130683   1.605   2.318   9.970 -1.2103  0.7280  1.0134
 6350SOL    HW230684   1.598   2.346   9.828 -0.5029  0.0882  0.1942
 6351SOL     OW30685   0.874   1.721   0.705 -0.3574 -0.2301  0.1908
 6351SOL    HW130686   0.800   1.702   0.763  0.1937  0.3740  1.0805
 6351SOL    HW230687   0.866   1.649   0.642  1.3797 -2.7004  2.7908
 6352SOL     OW30688   2.551   0.612  12.173 -0.2338  0.0048  0.3800
 6352SOL    HW130689   2.555   0.640  12.082  0.5136 -1.8287 -0.1571
 6352SOL    HW230690   2.486   0.542  12.166  1.2859 -1.3630 -0.1832
 6353SOL     OW30691   3.770   0.056   6.215 -0.2489  0.0432  0.2285
 6353SOL    HW130692   3.785   0.134   6.268  1.3811 -0.4252  0.4554
 6353SOL    HW230693   3.720   0.098   6.146  0.2952 -0.1747 -0.3001
 6354SOL     OW30694   3.180   0.063   8.059 -0.5302  0.4338 -0.1622
 6354SOL    HW130695   3.258   0.044   8.111  1.0678  0.4995 -2.5384
 6354SOL    HW230696   3.144   0.131   8.117  0.0507  1.1159 -0.6106
 6355SOL     OW30697   2.145   4.629  15.017  0.2473  0.5130 -0.2942
 6355SOL    HW130698   2.072   4.641  15.078 -0.1188  0.4938 -0.7369
 6355SOL    HW230699   2.098   4.600  14.939  0.2288 -0.9402  0.2531
 6356SOL     OW30700   0.455   3.449   5.427  0.0854  0.2032 -0.4989
 6356SOL    HW130701   0.525   3.389   5.452  0.6379  1.1319  0.1862
 6356SOL    HW230702   0.396   3.424   5.498  1.4260 -1.3951  0.0310
 6357SOL     OW30703   3.843   1.799   2.736 -0.4299 -0.2181 -0.2929
 6357SOL    HW130704   3.780   1.735   2.703  0.0602 -0.7697 -0.1542
 6357SOL    HW230705   3.789   1.838   2.806  0.8392 -0.7632  1.0002
 6358SOL     OW30706   4.347   3.085  11.698  0.0804  0.0127  0.4994
 6358SOL    HW130707   4.394   3.167  11.683  1.8803 -1.8579 -4.0612
 6358SOL    HW230708   4.260   3.122  11.691 -0.3954 -0.9158  1.4768
 6359SOL     OW30709   3.601   3.128   8.773 -0.0331 -0.0368  0.7788
 6359SOL    HW130710   3.609   3.164   8.685 -0.2949 -1.5702  0.1192
 6359SOL    HW230711   3.615   3.211   8.818 -0.3889  0.2469  0.3690
 6360SOL     OW30712   3.247   1.095   4.263 -0.9613 -0.0930  0.0603
 6360SOL    HW130713   3.254   0.999   4.264  0.3074  0.0149  1.6501
 6360SOL    HW230714   3.303   1.128   4.192  0.4374 -1.0330  0.7190
 6361SOL     OW30715   4.358   0.245   0.224  0.6068 -0.4918  0.2384
 6361SOL    HW130716   4.339   0.181   0.292 -1.2320 -0.2117 -0.0171
 6361SOL    HW230717   4.350   0.328   0.271  0.4375 -1.1730  1.3992
 6362SOL     OW30718   2.656   4.442  15.566 -0.4712  0.3557 -0.4691
 6362SOL    HW130719   2.680   4.427  15.658  0.7880  1.0494 -0.6900
 6362SOL    HW230720   2.674   4.536  15.566 -0.8275  0.4269  1.9003
 6363SOL     OW30721   2.642   0.610   6.356  0.2515 -0.1293  0.3400
 6363SOL    HW130722   2.611   0.575   6.272 -0.1464 -0.2998  0.5584
 6363SOL    HW230723   2.716   0.558   6.385 -0.2095 -0.0748  1.6051
 6364SOL     OW30724   2.562   3.093   4.153 -0.6695 -0.1653 -0.5046
 6364SOL    HW130725   2.487   3.138   4.192  0.2556  0.3529  0.6682
 6364SOL    HW230726   2.518   3.066   4.072  1.4198 -0.8809 -1.4106
 6365SOL     OW30727   1.071   1.927   5.408  0.1697 -0.5667  0.8684
 6365SOL    HW130728   1.037   1.896   5.492  0.4047  0.1343  1.2239
 6365SOL    HW230729   1.027   1.869   5.345 -2.2541  2.0034  0.1869
 6366SOL     OW30730   1.046   2.186   6.884 -0.2156 -0.9281 -0.0877
 6366SOL    HW130731   0.976   2.126   6.910 -0.2836 -0.2351  1.3616
 6366SOL    HW230732   1.056   2.228   6.969  1.2671 -2.0108  0.2668
 6367SOL     OW30733   3.940   4.473   0.185  0.1490 -0.0924 -0.7161
 6367SOL    HW130734   3.969   4.533   0.116  0.4635  1.9163  1.1727
 6367SOL    HW230735   3.914   4.536   0.252 -1.0647  1.9360 -3.0824
 6368SOL     OW30736   0.231   4.521   1.928 -0.7237  0.1262  0.4351
 6368SOL    HW130737   0.310   4.469   1.939 -0.5279  0.5305  0.9703
 6368SOL    HW230738   0.262   4.585   1.863 -0.0268 -0.7039 -0.0424
 6369SOL     OW30739   2.566   1.887  13.493 -0.3546  0.0908  0.5631
 6369SOL    HW130740   2.484   1.866  13.537 -1.3886  0.0449 -1.3934
 6369SOL    HW230741   2.617   1.816  13.532 -0.8953  0.7203  2.4049
 6370SOL     OW30742   3.593   4.044   8.047  0.3197 -0.1057  0.2169
 6370SOL    HW130743   3.534   4.073   8.116 -0.0555  0.8029 -0.4822
 6370SOL    HW230744   3.651   4.121   8.045 -1.4623  1.2314 -0.1217
 6371SOL     OW30745   3.841   2.620   9.080 -0.0268 -0.0419 -0.5395
 6371SOL    HW130746   3.850   2.671   9.161  0.0568  0.5869 -0.9412
 6371SOL    HW230747   3.818   2.689   9.017  0.3393  1.1258  0.5995
 6372SOL     OW30748   1.521   3.621   2.346 -0.4991 -0.3584 -0.1063
 6372SOL    HW130749   1.479   3.678   2.410  2.2667  0.6270  0.8207
 6372SOL    HW230750   1.469   3.639   2.267 -0.4243 -0.3516 -0.1545
 6373SOL     OW30751   2.177   1.373   1.465  0.2389  0.0875  0.4925
 6373SOL    HW130752   2.084   1.393   1.453  0.2234 -0.1935  0.1629
 6373SOL    HW230753   2.211   1.454   1.425  3.1841 -0.3076  2.2081
 6374SOL     OW30754   3.137   1.384   2.809  0.2762 -0.3417 -0.7565
 6374SOL    HW130755   3.146   1.479   2.802  3.2976 -0.6397 -1.0011
 6374SOL    HW230756   3.230   1.361   2.800  0.8915  1.3809  1.0191
 6375SOL     OW30757   0.988   0.978   2.591  0.0034 -0.1169  0.1379
 6375SOL    HW130758   0.918   1.002   2.651 -0.3589 -1.4443  0.2638
 6375SOL    HW230759   1.005   0.892   2.629  0.7171  0.1289  0.3760
 6376SOL     OW30760   1.000   0.236   6.230  0.0486  0.2363 -0.5820
 6376SOL    HW130761   0.944   0.166   6.195  1.3005 -2.1663  2.1814
 6376SOL    HW230762   1.090   0.205   6.217 -0.5011 -1.8961  0.6629
 6377SOL     OW30763   3.333   2.170   5.939  0.4658 -0.7667 -0.0272
 6377SOL    HW130764   3.407   2.122   5.978  1.0760 -0.8469 -1.2776
 6377SOL    HW230765   3.335   2.256   5.980 -0.3848 -1.2964  1.0958
 6378SOL     OW30766   4.224   3.658   8.370  0.1067  0.1587 -0.3564
 6378SOL    HW130767   4.160   3.612   8.315 -0.7591 -0.1017  0.8640
 6378SOL    HW230768   4.165   3.699   8.433 -0.7971 -1.1443 -0.3558
 6379SOL     OW30769   4.595   3.526   9.082  0.1965  0.8502  0.2777
 6379SOL    HW130770   4.587   3.451   9.140 -0.0378  0.8518  0.2490
 6379SOL    HW230771   4.561   3.592   9.143 -0.6042  1.4557 -0.8257
 6380SOL     OW30772   3.872   3.367  10.977  0.2987  0.0659 -0.5462
 6380SOL    HW130773   3.958   3.404  10.999  0.0802 -0.0502  0.5012
 6380SOL    HW230774   3.816   3.383  11.054  0.3379 -0.5540 -0.3874
 6381SOL     OW30775   4.269   1.513   3.258  0.1719  0.3140 -0.3666
 6381SOL    HW130776   4.221   1.547   3.182  0.6366  1.2727 -0.2346
 6381SOL    HW230777   4.221   1.528   3.339 -0.0141 -0.9188 -0.2519
 6382SOL     OW30778   4.695   3.917  12.871  0.2298  0.3162 -0.1841
 6382SOL    HW130779   0.025   3.868  12.922  1.9547  1.8060 -0.8993
 6382SOL    HW230780   0.012   3.924  12.790  0.7910 -1.5968  0.0110
 6383SOL     OW30781   3.754   3.787   8.080 -0.6881 -0.9193  0.4178
 6383SOL    HW130782   3.831   3.837   8.108 -0.8718  0.5287 -1.6795
 6383SOL    HW230783   3.683   3.848   8.099  0.4832  1.1795 -1.9773
 6384SOL     OW30784   4.331   0.389  11.529 -0.0939  0.0606  0.5561
 6384SOL    HW130785   4.335   0.426  11.441 -3.3290 -0.6183  0.1150
 6384SOL    HW230786   4.404   0.427  11.577  0.6771  0.1868 -0.7237
 6385SOL     OW30787   3.414   3.739   1.554  0.6612 -0.1453 -0.6528
 6385SOL    HW130788   3.357   3.815   1.563  0.1524 -0.4582 -1.2331
 6385SOL    HW230789   3.350   3.674   1.583  2.7137 -2.1925 -0.6903
 6386SOL     OW30790   1.727   1.037   8.171 -0.0311 -0.1415  0.5519
 6386SOL    HW130791   1.705   0.982   8.246  0.7398 -0.1563  0.7724
 6386SOL    HW230792   1.729   1.123   8.213 -0.3284 -0.1344  0.5485
 6387SOL     OW30793   1.326   3.537   3.834 -0.2539  0.0066 -0.5023
 6387SOL    HW130794   1.343   3.498   3.920 -2.6709 -1.7325 -0.8236
 6387SOL    HW230795   1.316   3.632   3.845 -0.1390 -0.0630  0.2501
 6388SOL     OW30796   3.522   0.786   1.151 -0.0606 -0.1226  0.3056
 6388SOL    HW130797   3.604   0.802   1.197 -0.1563  1.6826 -0.1722
 6388SOL    HW230798   3.456   0.765   1.218  0.2969  1.1622  1.0489
 6389SOL     OW30799   1.693   4.007  10.026  0.9090  0.7816  0.0080
 6389SOL    HW130800   1.647   4.091  10.034 -0.4638 -0.0122  0.4864
 6389SOL    HW230801   1.656   3.969   9.946 -0.8265 -0.7540  1.5308
 6390SOL     OW30802   3.838   4.628   7.765 -0.4303 -0.3125  0.2807
 6390SOL    HW130803   3.856   4.549   7.714  2.8237  0.6458 -0.0617
 6390SOL    HW230804   3.864   4.688   7.696 -0.9318 -0.4127  0.0017
 6391SOL     OW30805   2.204   0.560   5.290 -0.3936  0.3540  0.0343
 6391SOL    HW130806   2.175   0.514   5.368 -0.5061  0.3936  0.0172
 6391SOL    HW230807   2.275   0.499   5.272 -0.9438  0.1867 -1.5863
 6392SOL     OW30808   0.868   0.195   5.815 -0.3823  0.2086  0.4018
 6392SOL    HW130809   0.777   0.174   5.796  0.3487 -2.7398  0.2820
 6392SOL    HW230810   0.893   0.116   5.863  1.1154  0.7746  0.5582
 6393SOL     OW30811   0.843   1.045   8.421  0.4669 -0.0279  0.6681
 6393SOL    HW130812   0.896   1.121   8.444  2.0254 -1.1113  0.6439
 6393SOL    HW230813   0.832   1.000   8.504  1.0242  1.3400  1.4809
 6394SOL     OW30814   3.498   0.791   5.361  0.0805 -0.6438  0.0550
 6394SOL    HW130815   3.591   0.781   5.382 -0.0609  0.7806  1.3578
 6394SOL    HW230816   3.477   0.781   5.268  0.8557 -3.0289  0.1361
 6395SOL     OW30817   1.207   1.503   2.705  0.7539  0.1217  0.2359
 6395SOL    HW130818   1.163   1.476   2.625  0.6057 -0.2831  0.4505
 6395SOL    HW230819   1.271   1.432   2.716  0.4735 -0.1835 -0.1505
 6396SOL     OW30820   3.995   4.122  17.143  0.5662  0.2199  0.1727
 6396SOL    HW130821   3.923   4.084  17.193  0.9603  1.5068  1.7114
 6396SOL    HW230822   3.974   4.104  17.051 -0.0672 -0.1781  0.3942
 6397SOL     OW30823   0.602   1.218   0.789 -0.5397 -0.3958  0.3839
 6397SOL    HW130824   0.697   1.227   0.783 -0.3736 -0.8037  2.4970
 6397SOL    HW230825   0.578   1.174   0.707  0.7191 -0.3567 -0.0007
 6398SOL     OW30826   2.825   1.052  17.054 -0.3019  0.0174  0.2112
 6398SOL    HW130827   2.740   1.010  17.061  0.0812 -0.9008 -0.7020
 6398SOL    HW230828   2.833   1.100  17.137  0.0469  0.5420 -0.1271
 6399SOL     OW30829   3.972   1.394   2.443 -0.0420 -0.1852  0.2681
 6399SOL    HW130830   3.995   1.358   2.357 -1.2113 -1.9189  0.6782
 6399SOL    HW230831   3.970   1.486   2.419  0.9196 -1.0502 -3.1803
 6400SOL     OW30832   4.288   4.438   1.630 -0.5381  0.0934 -0.0985
 6400SOL    HW130833   4.227   4.372   1.597  0.6086 -0.5368 -0.9316
 6400SOL    HW230834   4.234   4.517   1.642 -0.5765 -0.3378  2.5933
 6401SOL     OW30835   0.847   2.797   9.468 -0.3111 -0.1133  0.7407
 6401SOL    HW130836   0.892   2.729   9.517 -0.5122  0.8662  2.3116
 6401SOL    HW230837   0.755   2.769   9.470  0.2162 -2.0404 -2.0069
 6402SOL     OW30838   0.228   3.011   0.456 -0.3618 -0.0758 -0.3335
 6402SOL    HW130839   0.296   3.044   0.397 -0.0466  0.7612  0.5035
 6402SOL    HW230840   0.201   2.940   0.398 -0.0010 -0.4927  0.0038
 6403SOL     OW30841   1.911   1.059   8.846  0.1972 -0.8037  0.3371
 6403SOL    HW130842   1.948   1.147   8.844 -1.7528 -0.0220 -0.6316
 6403SOL    HW230843   1.842   1.064   8.781 -0.3247  0.9247  1.0270
 6404SOL     OW30844   1.259   0.636  14.648  0.4557 -0.1508  0.3389
 6404SOL    HW130845   1.296   0.646  14.736 -2.2310 -1.2230  1.5804
 6404SOL    HW230846   1.278   0.542  14.644  0.3425 -0.1661  0.1299
 6405SOL     OW30847   3.789   0.531   6.477  0.2305  0.0883 -0.5430
 6405SOL    HW130848   3.868   0.585   6.464  0.5449 -0.5082 -1.0974
 6405SOL    HW230849   3.749   0.562   6.558 -1.5537 -2.2469 -0.5488
 6406SOL     OW30850   3.783   2.504   7.350 -0.6860  0.2539  0.6429
 6406SOL    HW130851   3.737   2.438   7.402  0.3871 -0.3860  0.7939
 6406SOL    HW230852   3.785   2.577   7.411 -0.7790 -0.7014  1.7784
 6407SOL     OW30853   2.709   0.283   4.412 -0.4309  0.0419 -0.2715
 6407SOL    HW130854   2.787   0.334   4.437  0.5783 -1.1023 -1.0779
 6407SOL    HW230855   2.653   0.360   4.405  0.2769  0.6435  0.6050
 6408SOL     OW30856   3.238   2.915   2.838  0.0372  0.1017 -0.5392
 6408SOL    HW130857   3.325   2.889   2.809 -0.3275 -0.3212 -1.2368
 6408SOL    HW230858   3.244   3.010   2.822 -0.1348  0.4085  1.1836
 6409SOL     OW30859   1.107   1.802  16.541 -0.7093 -0.2068  0.3982
 6409SOL    HW130860   1.036   1.798  16.605 -1.3159 -0.6069 -0.3100
 6409SOL    HW230861   1.179   1.784  16.603 -0.4259  0.8629  0.3863
 6410SOL     OW30862   2.012   3.300   3.916 -0.0316 -0.4023 -0.3583
 6410SOL    HW130863   2.068   3.222   3.916 -0.3414 -0.6303  0.7108
 6410SOL    HW230864   1.975   3.290   3.829 -1.1247  1.9487 -0.1461
 6411SOL     OW30865   3.700   1.504   1.678 -0.1183  0.0785 -0.1920
 6411SOL    HW130866   3.747   1.587   1.688  1.4688 -0.9704  1.1013
 6411SOL    HW230867   3.688   1.488   1.772 -0.2278  1.0343 -0.0461
 6412SOL     OW30868   2.975   4.154  17.079  0.2268 -0.0104  0.1674
 6412SOL    HW130869   3.011   4.095  17.012 -2.3170  0.3361 -1.4900
 6412SOL    HW230870   2.904   4.190  17.026 -0.6246 -0.7571  0.8192
 6413SOL     OW30871   2.687   0.693   2.053  0.0133 -0.0630  0.1362
 6413SOL    HW130872   2.700   0.601   2.027 -0.4014 -0.3802  1.0675
 6413SOL    HW230873   2.633   0.687   2.132 -0.3789  0.9121 -0.0583
 6414SOL     OW30874   2.546   1.973  17.572 -0.3860 -0.1415  0.2108
 6414SOL    HW130875   2.536   1.881  17.549  1.7633  0.2619 -2.4062
 6414SOL    HW230876   2.642   1.979  17.573 -0.4760  1.4225  0.2192
 6415SOL     OW30877   3.355   1.126   8.270 -0.2855 -0.7210 -0.7830
 6415SOL    HW130878   3.447   1.150   8.282 -0.4399 -0.2556 -0.5239
 6415SOL    HW230879   3.310   1.208   8.288  0.8677 -0.4735  1.0328
 6416SOL     OW30880   3.130   3.783   7.922  0.1316  0.3526 -0.4229
 6416SOL    HW130881   3.192   3.741   7.863 -2.5412 -1.4068 -1.9627
 6416SOL    HW230882   3.168   3.764   8.008 -2.6181 -0.4216  0.6151
 6417SOL     OW30883   1.500   2.810  14.368  0.0609 -0.0390  0.4831
 6417SOL    HW130884   1.569   2.744  14.359  0.1128 -0.0650  1.0904
 6417SOL    HW230885   1.425   2.757  14.345 -0.0901  1.0286 -1.4835
 6418SOL     OW30886   4.487   1.629  16.370  0.5742  0.8046 -0.0038
 6418SOL    HW130887   4.503   1.660  16.281 -1.5031 -0.6644 -0.9037
 6418SOL    HW230888   4.402   1.671  16.381 -1.4823 -2.9863 -1.3682
 6419SOL     OW30889   0.669   0.086   4.321 -0.9501  0.6089 -0.4345
 6419SOL    HW130890   0.716   0.003   4.333  1.1149  2.3825  3.8411
 6419SOL    HW230891   0.725   0.139   4.379 -1.0280 -0.7009  0.8424
 6420SOL     OW30892   4.702   3.192  16.247  0.4536  0.3308  0.3360
 6420SOL    HW130893   0.025   3.261  16.281  0.8396 -0.9772  2.3345
 6420SOL    HW230894   4.660   3.161  16.327 -1.3368  0.4072 -0.5705
 6421SOL     OW30895   0.204   1.095  16.344 -0.2031 -0.0434 -0.1708
 6421SOL    HW130896   0.179   1.187  16.357  1.7777  0.2903  1.2498
 6421SOL    HW230897   0.227   1.067  16.432 -2.6709  1.9313  1.1127
 6422SOL     OW30898   3.590   3.364   6.041 -0.5166  0.1254  0.1554
 6422SOL    HW130899   3.568   3.286   5.990 -0.2561 -0.2402  0.6040
 6422SOL    HW230900   3.637   3.327   6.116  1.0068 -0.1758 -0.9514
 6423SOL     OW30901   4.717   2.265   3.736 -0.1521 -0.0650 -0.6025
 6423SOL    HW130902   4.642   2.320   3.758 -0.4664 -0.6268 -0.2785
 6423SOL    HW230903   0.015   2.234   3.821  0.3913  0.4018 -0.6321
 6424SOL     OW30904   3.798   1.485  10.875  0.1037  0.5453  0.6809
 6424SOL    HW130905   3.792   1.546  10.801 -1.6956  0.2306  0.5582
 6424SOL    HW230906   3.712   1.495  10.916 -1.0045  2.1470 -1.9941
 6425SOL     OW30907   3.815   4.229   0.868  0.0668 -0.1544 -0.5709
 6425SOL    HW130908   3.734   4.190   0.835  0.3512  0.1278 -1.5849
 6425SOL    HW230909   3.822   4.312   0.822  0.4147 -0.8256 -1.7556
 6426SOL     OW30910   4.272   0.043  10.045 -0.6676 -0.1435  0.3703
 6426SOL    HW130911   4.285   0.004   9.958 -0.0616 -1.2103  0.9325
 6426SOL    HW230912   4.283   4.696  10.094 -0.4258 -0.7596 -0.7012
 6427SOL     OW30913   0.731   0.525   3.685 -0.6456  0.0957 -0.1605
 6427SOL    HW130914   0.664   0.540   3.751  1.0136  0.6322  1.3998
 6427SOL    HW230915   0.807   0.526   3.743  0.8528 -1.2410 -2.0879
 6428SOL     OW30916   0.903   4.060   8.859 -0.1522 -0.0822 -0.0123
 6428SOL    HW130917   0.854   4.054   8.777  1.2654  0.7193 -0.9084
 6428SOL    HW230918   0.995   4.050   8.836 -0.1644  0.7705 -0.4012
 6429SOL     OW30919   2.866   1.443   3.111 -0.0845 -0.3160  0.0868
 6429SOL    HW130920   2.832   1.375   3.170 -1.9975 -0.8252 -1.5930
 6429SOL    HW230921   2.903   1.387   3.042  1.1384 -1.7410  1.9131
 6430SOL     OW30922   3.032   3.919  15.829 -0.3387  0.2012  0.0883
 6430SOL    HW130923   3.098   3.929  15.760  1.1092  1.5636  1.6946
 6430SOL    HW230924   2.955   3.935  15.774 -0.5565 -0.3099  0.2448
 6431SOL     OW30925   0.319   4.254   8.228 -0.0832 -0.6335 -0.2642
 6431SOL    HW130926   0.227   4.236   8.207 -0.2375 -1.5238  1.2006
 6431SOL    HW230927   0.322   4.237   8.322  2.1656  1.9295  0.1265
 6432SOL     OW30928   1.659   0.959   9.509 -0.4614 -0.0668  0.1728
 6432SOL    HW130929   1.741   0.914   9.491  0.4476  1.1645  1.2802
 6432SOL    HW230930   1.614   0.882   9.544 -0.9823  0.6946  1.1871
 6433SOL     OW30931   1.543   0.040   5.372 -0.5854 -0.4709  0.0496
 6433SOL    HW130932   1.518   4.726   5.293 -0.5212  1.0978 -0.9181
 6433SOL    HW230933   1.453   0.051   5.402 -0.5128 -1.0259  0.4866
 6434SOL     OW30934   3.588   2.878   9.566 -0.3834  0.2426  0.6975
 6434SOL    HW130935   3.534   2.954   9.547  0.6498  0.5125 -1.2019
 6434SOL    HW230936   3.670   2.906   9.526 -0.8739 -1.0434 -1.1994
 6435SOL     OW30937   1.613   3.834   1.086 -0.0130  0.2010 -0.4818
 6435SOL    HW130938   1.523   3.849   1.056 -0.1924 -1.2958 -0.7143
 6435SOL    HW230939   1.655   3.902   1.035  0.5765 -0.3918 -0.7835
 6436SOL     OW30940   3.515   1.210   6.712 -0.0917 -0.5976 -0.0703
 6436SOL    HW130941   3.492   1.121   6.686 -0.2664  0.2801 -2.9161
 6436SOL    HW230942   3.609   1.195   6.715  0.0459  1.1073  3.9751
 6437SOL     OW30943   1.255   1.692  10.760 -0.0891  0.4061 -0.0136
 6437SOL    HW130944   1.175   1.709  10.809  0.0206  0.6727  0.0713
 6437SOL    HW230945   1.275   1.603  10.790 -0.2576  0.4946  0.3556
 6438SOL     OW30946   3.062   3.507  13.966 -0.1451 -0.0713  0.2566
 6438SOL    HW130947   3.149   3.545  13.975 -0.4076  0.6996 -0.4450
 6438SOL    HW230948   3.077   3.422  14.007 -1.4747  0.7642  2.4586
 6439SOL     OW30949   4.403   4.239   6.174  0.2686 -0.0751 -0.5669
 6439SOL    HW130950   4.354   4.264   6.096  0.9097 -1.6888 -1.4874
 6439SOL    HW230951   4.330   4.230   6.235 -0.2457 -1.9186 -1.4759
 6440SOL     OW30952   4.273   2.762  16.445  0.0098 -0.4765 -0.6364
 6440SOL    HW130953   4.185   2.786  16.475 -0.6440 -2.3811 -1.0022
 6440SOL    HW230954   4.249   2.748  16.353 -1.8619  2.9149 -0.6565
 6441SOL     OW30955   1.513   2.946  14.598 -0.0168 -0.0586 -0.0157
 6441SOL    HW130956   1.528   2.906  14.512  0.3668  0.0274  0.0135
 6441SOL    HW230957   1.590   3.001  14.612  1.3075 -1.5592 -1.4034
 6442SOL     OW30958   2.811   3.443   7.749  0.1920  0.0135 -0.0308
 6442SOL    HW130959   2.891   3.393   7.731  0.3528  0.1701  0.2530
 6442SOL    HW230960   2.846   3.513   7.805  0.1654  0.9982 -1.2452
 6443SOL     OW30961   0.307   1.551  17.122 -0.3151 -0.0209 -0.0981
 6443SOL    HW130962   0.283   1.644  17.125  2.0551  0.5808  0.2455
 6443SOL    HW230963   0.277   1.521  17.037 -0.4381 -0.3075  0.0483
 6444SOL     OW30964   3.023   2.906   1.036 -1.0843 -0.3604  0.0745
 6444SOL    HW130965   2.981   2.848   1.099  0.2146 -0.9873  0.3665
 6444SOL    HW230966   2.970   2.881   0.960  0.2155  0.8952 -1.2492
 6445SOL     OW30967   2.400   4.016  14.348  0.3468 -0.0443 -0.3516
 6445SOL    HW130968   2.356   3.965  14.416 -1.5391  1.2783 -0.5837
 6445SOL    HW230969   2.330   4.079  14.333 -1.5174 -1.3655  2.7359
 6446SOL     OW30970   1.410   3.233   5.815 -0.2903 -0.3567  0.1345
 6446SOL    HW130971   1.369   3.149   5.797  1.1590 -1.5123  2.2065
 6446SOL    HW230972   1.428   3.221   5.908 -0.3608  0.3161  0.2381
 6447SOL     OW30973   4.575   0.439   7.794 -0.4944 -0.3272 -0.1516
 6447SOL    HW130974   4.512   0.459   7.725 -1.1534 -1.0906  0.2225
 6447SOL    HW230975   4.648   0.399   7.747 -0.7828 -4.0471  2.5123
 6448SOL     OW30976   3.386   4.593   6.069  0.5008 -0.6723  0.1755
 6448SOL    HW130977   3.434   4.653   6.126 -0.5059 -1.1602  1.5333
 6448SOL    HW230978   3.310   4.645   6.045 -0.0683 -0.1728  3.0509
 6449SOL     OW30979   1.545   0.002   8.073  0.0911  0.2267  0.4394
 6449SOL    HW130980   1.582   4.685   8.002 -1.5330  1.0785 -1.0178
 6449SOL    HW230981   1.524   0.080   8.022  0.7830 -0.7059 -1.2372
 6450SOL     OW30982   4.489   3.403  11.577  0.3769 -0.5345  0.1475
 6450SOL    HW130983   4.428   3.463  11.535 -1.1423 -0.4954  2.4166
 6450SOL    HW230984   4.495   3.445  11.663  0.3109 -2.1436  0.9524
 6451SOL     OW30985   3.777   3.170  12.109 -0.5604  0.3228  0.1839
 6451SOL    HW130986   3.829   3.152  12.031 -0.4809  0.2505  0.2533
 6451SOL    HW230987   3.726   3.090  12.121  2.0209 -1.6351 -1.9645
 6452SOL     OW30988   4.560   3.114   2.537 -0.4958 -0.4587  0.1924
 6452SOL    HW130989   4.500   3.142   2.467 -1.4005 -1.0964  0.7100
 6452SOL    HW230990   4.581   3.205   2.560 -0.7965  0.0373 -1.4522
 6453SOL     OW30991   1.266   2.683   8.772 -0.2202 -0.6077 -0.4928
 6453SOL    HW130992   1.213   2.741   8.826 -0.0710 -1.7773  0.9364
 6453SOL    HW230993   1.208   2.679   8.696 -1.0786 -2.8526  0.2816
 6454SOL     OW30994   3.482   4.085   8.638  0.0780  0.4871 -0.3267
 6454SOL    HW130995   3.398   4.071   8.596  1.1074  1.3932 -2.6827
 6454SOL    HW230996   3.474   4.177   8.664  0.2323  0.2357  0.6348
 6455SOL     OW30997   2.982   2.824   9.221 -0.1301 -0.0180 -0.6049
 6455SOL    HW130998   2.927   2.873   9.160  0.4268  1.7165  0.3072
 6455SOL    HW230999   3.005   2.876   9.298 -1.1311 -0.2272 -0.1678
 6456SOL     OW31000   0.444   4.003  10.374  0.3265 -0.0654 -0.0150
 6456SOL    HW131001   0.504   4.075  10.354 -0.1546 -0.2995 -2.2950
 6456SOL    HW231002   0.500   3.936  10.414  2.0472  1.1114 -0.4493
 6457SOL     OW31003   0.431   0.110   8.060  0.1922  0.3792 -0.6724
 6457SOL    HW131004   0.497   0.048   8.028  1.0738 -0.0739  1.9812
 6457SOL    HW231005   0.377   0.129   7.984 -0.0412  2.0401 -0.0998
 6458SOL     OW31006   0.036   3.231  13.151  0.3010  0.8850  0.4596
 6458SOL    HW131007   4.721   3.306  13.186  1.3236  1.9869 -0.4494
 6458SOL    HW231008   0.035   3.169  13.224  0.3146 -0.3730 -0.6289
 6459SOL     OW31009   1.140   2.407   6.688 -0.4613  0.2343 -0.2438
 6459SOL    HW131010   1.088   2.353   6.747 -0.6030  0.5489 -0.0757
 6459SOL    HW231011   1.220   2.403   6.741  0.2448 -0.6137 -1.3744
 6460SOL     OW31012   3.649   1.004   6.925 -0.5156 -0.0539  0.0871
 6460SOL    HW131013   3.562   0.982   6.959  0.2429 -2.0828  0.7248
 6460SOL    HW231014   3.704   0.994   7.003 -0.1527 -0.4623 -0.2259
 6461SOL     OW31015   4.317   1.395  10.710 -0.0281 -0.1597 -0.2421
 6461SOL    HW131016   4.297   1.388  10.803  1.0706 -0.9215 -0.0614
 6461SOL    HW231017   4.408   1.366  10.700 -0.2778 -0.0237 -2.7427
 6462SOL     OW31018   2.260   3.443  14.619 -0.1943  0.5508 -0.6016
 6462SOL    HW131019   2.180   3.420  14.667  1.2788  0.2526  1.7381
 6462SOL    HW231020   2.266   3.359  14.575  0.9802  1.9459 -3.0958
 6463SOL     OW31021   2.915   4.174   6.315  0.3323 -0.5687 -0.2085
 6463SOL    HW131022   2.922   4.079   6.326 -2.1133 -0.7878 -0.5292
 6463SOL    HW231023   2.843   4.191   6.376 -0.0560 -0.0449 -0.8127
 6464SOL     OW31024   4.540   2.241   4.406  1.0779 -0.1531  0.4521
 6464SOL    HW131025   4.477   2.199   4.464 -0.3760  0.6512 -0.5385
 6464SOL    HW231026   4.593   2.273   4.480  2.1234 -2.4796  0.7138
 6465SOL     OW31027   3.877   0.388   4.943  0.3487  0.1898 -0.5040
 6465SOL    HW131028   3.818   0.464   4.941 -0.5794 -0.4618  2.8290
 6465SOL    HW231029   3.813   0.317   4.940 -2.7497  2.9414  1.1176
 6466SOL     OW31030   4.472   0.341   2.645  0.3951 -0.2776  0.2458
 6466SOL    HW131031   4.394   0.339   2.590 -0.1604  3.5733  0.8725
 6466SOL    HW231032   4.463   0.255   2.686 -0.0703 -0.3806 -0.0710
 6467SOL     OW31033   3.638   2.293  14.957 -0.0103  0.3120 -0.1631
 6467SOL    HW131034   3.636   2.387  14.938 -1.4086  0.0431 -1.3752
 6467SOL    HW231035   3.543   2.285  14.960  0.0993 -0.7857  0.4197
 6468SOL     OW31036   1.193   0.435   8.436 -0.1129 -0.0568  0.5960
 6468SOL    HW131037   1.120   0.462   8.380 -0.4763 -0.0822  1.0617
 6468SOL    HW231038   1.148   0.435   8.521  0.0211 -0.7753  0.6613
 6469SOL     OW31039   2.234   3.186   1.293 -0.0238  0.1291  0.3013
 6469SOL    HW131040   2.145   3.220   1.308 -0.2134 -0.1864 -0.0960
 6469SOL    HW231041   2.238   3.132   1.372 -0.8267  2.2810  1.8274
 6470SOL     OW31042   3.058   1.071   3.099 -0.6378 -0.3003  0.6001
 6470SOL    HW131043   3.151   1.070   3.077 -0.4413  1.1450  1.3358
 6470SOL    HW231044   3.053   0.976   3.107 -4.1508 -0.2930 -1.9877
 6471SOL     OW31045   1.941   0.165  13.831  0.0968  0.4197  0.2195
 6471SOL    HW131046   2.031   0.146  13.803 -0.7652  1.5839 -3.3519
 6471SOL    HW231047   1.907   0.241  13.784  0.6907  0.9035  0.5700
 6472SOL     OW31048   2.632   2.037  14.881  0.1976  0.6826  0.1249
 6472SOL    HW131049   2.591   2.040  14.794  1.2842  0.3874 -0.4014
 6472SOL    HW231050   2.641   2.131  14.897  1.8566  0.7033 -0.8382
 6473SOL     OW31051   4.285   4.174   8.137 -0.0744  0.1957  0.3809
 6473SOL    HW131052   4.376   4.180   8.110 -0.1631 -1.5106 -0.2883
 6473SOL    HW231053   4.271   4.229   8.214 -1.1807  1.2384 -0.5615
 6474SOL     OW31054   1.098   4.183  15.127  1.1801  0.1949 -0.5570
 6474SOL    HW131055   1.084   4.276  15.110  1.2416  0.2274 -0.4268
 6474SOL    HW231056   1.189   4.172  15.154  1.8360 -0.1182 -2.9299
 6475SOL     OW31057   2.044   0.469   5.898 -0.9079 -0.5414  0.1217
 6475SOL    HW131058   2.080   0.388   5.935 -1.1230 -0.9171 -0.4870
 6475SOL    HW231059   1.993   0.435   5.824  0.7214  0.0347 -1.2488
 6476SOL     OW31060   3.112   1.933  15.278 -0.6282 -0.6562 -0.3113
 6476SOL    HW131061   3.111   1.966  15.367  3.0117  0.6052 -0.7112
 6476SOL    HW231062   3.052   1.859  15.272 -1.1297 -0.1509 -1.6273
 6477SOL     OW31063   3.639   0.862  11.901 -0.1780 -0.1148  0.3546
 6477SOL    HW131064   3.647   0.900  11.814 -0.5987 -1.0663 -0.0947
 6477SOL    HW231065   3.599   0.937  11.945 -0.5451  0.1488 -0.4231
 6478SOL     OW31066   1.921   2.092   2.507  0.1422 -0.5502 -0.5220
 6478SOL    HW131067   1.890   2.153   2.574  2.4032  0.5796 -0.5250
 6478SOL    HW231068   1.880   2.130   2.429  0.4372  0.5385 -0.1435
 6479SOL     OW31069   0.858   1.357   0.836 -0.1299 -0.3945 -0.0820
 6479SOL    HW131070   0.868   1.426   0.771 -1.2023 -1.7672 -1.6974
 6479SOL    HW231071   0.803   1.408   0.895  1.3137  1.7466 -0.5680
 6480SOL     OW31072   2.699   1.712   0.128  0.2002  0.3557  0.3363
 6480SOL    HW131073   2.760   1.667   0.070  0.9908  1.6795  0.1191
 6480SOL    HW231074   2.616   1.668   0.113 -0.8779  1.7686  2.0651
 6481SOL     OW31075   2.843   4.454   9.157  0.1712  0.8524  0.4983
 6481SOL    HW131076   2.872   4.397   9.228  1.4718  1.8278  0.7563
 6481SOL    HW231077   2.771   4.508   9.189 -0.1914  0.8898 -0.3844
 6482SOL     OW31078   0.540   0.620   2.754  0.1949 -0.1303 -0.2951
 6482SOL    HW131079   0.528   0.533   2.715  0.2544 -0.0658 -0.4572
 6482SOL    HW231080   0.456   0.662   2.734  0.4964  1.1195  1.0525
 6483SOL     OW31081   4.715   3.086   8.976  0.0474 -0.3942  0.2842
 6483SOL    HW131082   4.675   3.013   9.022 -0.3414  0.8983  1.9844
 6483SOL    HW231083   0.030   3.122   9.050 -0.3647  1.1666 -0.2040
 6484SOL     OW31084   0.896   2.252  13.925 -0.3653  0.0228  0.1410
 6484SOL    HW131085   0.819   2.270  13.979 -1.2493 -0.5252 -0.9467
 6484SOL    HW231086   0.971   2.265  13.984  0.4648 -1.7632 -0.5004
 6485SOL     OW31087   4.113   3.226   3.771  0.1051 -0.1246 -0.0889
 6485SOL    HW131088   4.176   3.177   3.718 -0.2733 -0.1351 -0.5291
 6485SOL    HW231089   4.162   3.306   3.786 -0.0608  0.4983 -2.8918
 6486SOL     OW31090   1.926   0.386   0.811 -0.5286  0.6641  0.1425
 6486SOL    HW131091   1.978   0.320   0.859 -1.2302 -0.1553 -0.2268
 6486SOL    HW231092   1.935   0.454   0.877  3.1053  0.3833 -0.0405
 6487SOL     OW31093   1.523   2.298   8.228  0.0190  0.4673 -0.5502
 6487SOL    HW131094   1.576   2.229   8.267  0.5184  1.6507  0.8637
 6487SOL    HW231095   1.577   2.340   8.162  0.8687 -2.6633 -1.8264
 6488SOL     OW31096   2.885   2.099  10.897 -0.0065 -0.5072  0.3649
 6488SOL    HW131097   2.822   2.075  10.828  1.2705 -1.5520 -0.4324
 6488SOL    HW231098   2.928   2.013  10.896  0.9555  0.0135 -2.0167
 6489SOL     OW31099   4.128   4.701   4.377 -0.1398  0.2395 -0.6302
 6489SOL    HW131100   4.182   0.034   4.334  1.5823 -0.7270 -0.0110
 6489SOL    HW231101   4.050   0.018   4.398  1.2468  3.2892 -2.8784
 6490SOL     OW31102   4.346   0.267   9.462  0.0837  0.2022  0.0837
 6490SOL    HW131103   4.427   0.314   9.442 -0.7684  1.2579 -0.9249
 6490SOL    HW231104   4.308   0.312   9.538  2.1424 -1.7455  2.2306
 6491SOL     OW31105   2.386   2.955   3.975  0.5618  0.4294 -0.2866
 6491SOL    HW131106   2.448   2.982   3.908  2.9000  0.6548  2.0001
 6491SOL    HW231107   2.370   2.871   3.932 -0.0677  0.1701  0.4352
 6492SOL     OW31108   4.310   1.900   8.139 -0.2626 -0.0771 -0.2369
 6492SOL    HW131109   4.272   1.983   8.167 -0.9675  0.6920 -3.4740
 6492SOL    HW231110   4.229   1.850   8.145  0.7552 -1.6635  0.3820
 6493SOL     OW31111   2.849   0.063   2.333  0.3784 -0.0304  0.0854
 6493SOL    HW131112   2.931   0.013   2.325 -0.2075 -0.7760 -1.1959
 6493SOL    HW231113   2.833   0.055   2.427  0.5047  1.9081  0.2619
 6494SOL     OW31114   2.986   2.833   4.883 -0.1608  0.2001  0.2830
 6494SOL    HW131115   2.975   2.863   4.793  1.4547  0.2823  0.1036
 6494SOL    HW231116   2.896   2.837   4.914  0.1917 -0.8259  1.4847
 6495SOL     OW31117   2.770   4.374   3.841  0.4260  0.2474 -0.1073
 6495SOL    HW131118   2.797   4.452   3.889  2.7749 -1.3614  1.1349
 6495SOL    HW231119   2.840   4.310   3.849 -0.0672 -0.2831 -0.1042
 6496SOL     OW31120   0.896   1.179  14.445  0.2780  0.7082 -0.7865
 6496SOL    HW131121   0.896   1.107  14.382 -2.9103  0.3711 -0.3716
 6496SOL    HW231122   0.941   1.143  14.521 -1.5478  0.0343 -0.0316
 6497SOL     OW31123   2.723   2.347   5.201  0.5460 -0.2144 -0.1740
 6497SOL    HW131124   2.695   2.279   5.140  0.6715  0.7147 -1.2528
 6497SOL    HW231125   2.741   2.418   5.140  3.8782 -0.7409  0.2069
 6498SOL     OW31126   0.066   3.226   6.975 -0.1704 -0.4249  0.5879
 6498SOL    HW131127   0.079   3.303   6.919 -2.0352 -0.4523  0.1376
 6498SOL    HW231128   0.153   3.190   6.959 -0.8526 -1.9465  0.3440
 6499SOL     OW31129   2.144   1.640   6.116  0.6528  0.4402  0.0988
 6499SOL    HW131130   2.110   1.707   6.175  0.2646 -0.6443  1.1285
 6499SOL    HW231131   2.090   1.656   6.039 -1.0025  2.0572  1.5586
 6500SOL     OW31132   3.530   4.045   3.208 -0.5162 -0.1898  0.0739
 6500SOL    HW131133   3.555   4.115   3.268 -3.5205 -0.3110  1.4480
 6500SOL    HW231134   3.608   4.031   3.154 -0.7370  0.1876 -0.3516
 6501SOL     OW31135   0.474   0.145  12.776  0.1649  0.3327  0.5584
 6501SOL    HW131136   0.404   0.210  12.765  0.1964  0.1590 -0.6836
 6501SOL    HW231137   0.427   0.063  12.792 -1.4785  1.3855  1.1767
 6502SOL     OW31138   4.285   1.982   2.840 -0.2476  0.3636 -0.0134
 6502SOL    HW131139   4.235   1.940   2.769  0.0821  0.7097 -0.4443
 6502SOL    HW231140   4.313   1.913   2.900  1.8929 -0.4543 -1.9549
 6503SOL     OW31141   0.241   0.844   6.614  0.4294  0.7509 -0.6371
 6503SOL    HW131142   0.326   0.800   6.606 -0.9306 -2.3039  1.8461
 6503SOL    HW231143   0.258   0.911   6.681  0.8648  0.6426 -0.6372
 6504SOL     OW31144   4.374   4.357   6.724  0.1678 -0.4628 -0.3235
 6504SOL    HW131145   4.349   4.316   6.641 -1.5078 -1.7393  0.8107
 6504SOL    HW231146   4.412   4.278   6.762 -0.5343 -0.9028 -0.5313
 6505SOL     OW31147   2.102   1.560  16.485 -0.3185 -0.7148  0.0100
 6505SOL    HW131148   2.184   1.514  16.506 -0.8952 -1.8111 -0.1683
 6505SOL    HW231149   2.120   1.638  16.538 -0.2436 -1.7733  1.5450
 6506SOL     OW31150   4.641   2.920   3.839  0.2444 -0.2386  0.9365
 6506SOL    HW131151   4.625   2.952   3.750 -0.3733  0.2756  1.2386
 6506SOL    HW231152   4.695   2.995   3.865  0.8827  0.2329 -1.6810
 6507SOL     OW31153   3.395   2.995   4.671  0.1829  0.2269 -0.0935
 6507SOL    HW131154   3.448   2.922   4.703  2.9838  1.0432 -2.8191
 6507SOL    HW231155   3.375   2.955   4.586 -0.0612 -2.2149  1.0919
 6508SOL     OW31156   0.672   4.427   4.114  0.0719  0.6326 -0.9914
 6508SOL    HW131157   0.699   4.338   4.135 -2.5086 -0.0396 -0.4697
 6508SOL    HW231158   0.580   4.403   4.098  0.1185 -2.0947  2.7701
 6509SOL     OW31159   1.449   3.171  13.212  0.1333  0.4999 -0.0759
 6509SOL    HW131160   1.392   3.129  13.277  1.6487 -3.1548 -1.1187
 6509SOL    HW231161   1.442   3.264  13.234 -0.2644  0.3175  0.5748
 6510SOL     OW31162   3.211   4.047   7.417  0.0526 -0.2884  0.6701
 6510SOL    HW131163   3.240   4.107   7.349 -0.2475 -1.7114 -0.7086
 6510SOL    HW231164   3.232   4.098   7.495 -2.0874  0.5135  0.7035
 6511SOL     OW31165   3.543   2.117  10.984 -0.4749  0.0234  0.1758
 6511SOL    HW131166   3.456   2.099  11.019 -0.3030  1.3428  1.2663
 6511SOL    HW231167   3.558   2.211  10.978 -0.3490  0.0539  0.9678
 6512SOL     OW31168   3.171   2.599   6.762  0.0864 -0.0387  0.2107
 6512SOL    HW131169   3.104   2.541   6.726  0.7651  0.2489 -1.4926
 6512SOL    HW231170   3.127   2.643   6.835 -1.6734 -0.7780 -0.4079
 6513SOL     OW31171   2.524   0.675   7.085  0.3948 -0.3967  0.0423
 6513SOL    HW131172   2.487   0.653   7.170 -1.7873 -3.9009 -1.8048
 6513SOL    HW231173   2.473   0.618   7.027 -1.8117  1.5878  0.0751
 6514SOL     OW31174   1.922   1.974   5.806  0.0585  0.4435 -0.3318
 6514SOL    HW131175   1.962   2.033   5.743 -2.9456  0.9918 -1.7351
 6514SOL    HW231176   1.953   2.008   5.890  0.4389  0.3901 -0.4537
 6515SOL     OW31177   0.578   1.820   3.956 -0.0696  0.4650  0.2289
 6515SOL    HW131178   0.561   1.879   3.883 -0.1204 -3.3940 -2.8881
 6515SOL    HW231179   0.580   1.738   3.907 -1.1295  0.5073  0.0968
 6516SOL     OW31180   4.315   3.969   6.392  0.7611 -0.1589  0.4846
 6516SOL    HW131181   4.334   3.898   6.454 -1.1951  0.0867  1.3531
 6516SOL    HW231182   4.405   3.981   6.361  1.0718 -0.9701  1.0593
 6517SOL     OW31183   0.458   0.581   1.906 -0.1790  0.0260 -0.3104
 6517SOL    HW131184   0.472   0.611   1.996  1.8724  0.4664 -0.7579
 6517SOL    HW231185   0.489   0.657   1.855 -0.5794  1.3171  1.3495
 6518SOL     OW31186   4.676   0.050   0.858 -0.1565  0.0415  0.3406
 6518SOL    HW131187   4.681   4.709   0.798 -1.0132  0.9490 -0.8645
 6518SOL    HW231188   0.033   0.079   0.849 -0.9009  2.0366 -0.8438
 6519SOL     OW31189   2.882   4.136  17.625 -0.5052  0.0436 -0.1760
 6519SOL    HW131190   2.934   4.150  17.546 -0.4832  0.3433 -0.1103
 6519SOL    HW231191   2.804   4.090  17.594 -0.1365 -1.7288  1.5535
 6520SOL     OW31192   1.469   3.417   7.204 -0.3579 -0.7748 -0.9094
 6520SOL    HW131193   1.431   3.349   7.260 -0.2490  0.0101  0.1142
 6520SOL    HW231194   1.562   3.420   7.226 -0.7931  0.5417  0.7570
 6521SOL     OW31195   3.031   4.603  14.913 -0.2105  0.3360  0.0016
 6521SOL    HW131196   3.014   4.522  14.865  2.0185 -0.8249  1.1688
 6521SOL    HW231197   2.943   4.622  14.947 -0.6072 -2.5089  0.5662
 6522SOL     OW31198   4.708   1.586   2.252 -0.3048  0.6966 -0.3522
 6522SOL    HW131199   4.674   1.666   2.292 -0.3032  1.1757 -1.3047
 6522SOL    HW231200   4.625   1.552   2.218  0.0947 -0.7469  0.1250
 6523SOL     OW31201   1.362   4.468   4.029  0.5000 -0.0656  0.5064
 6523SOL    HW131202   1.266   4.469   4.019  0.5852  0.1209 -0.2476
 6523SOL    HW231203   1.366   4.469   4.125  0.7681  0.2632  0.4917
 6524SOL     OW31204   4.374   1.993   5.064 -0.2620  0.1698 -0.7465
 6524SOL    HW131205   4.425   1.920   5.029  0.8806  0.0421  1.1569
 6524SOL    HW231206   4.287   1.956   5.049  0.1163 -1.1844  0.3542
 6525SOL     OW31207   3.654   0.291   4.643  0.4273 -0.9976 -0.4977
 6525SOL    HW131208   3.663   0.287   4.738 -2.3043  0.2283 -0.1854
 6525SOL    HW231209   3.728   0.342   4.609 -0.8242  0.8247 -0.5161
 6526SOL     OW31210   2.986   0.716   9.207 -0.0660 -0.3619 -0.3105
 6526SOL    HW131211   2.994   0.767   9.288 -0.3333  3.0119 -2.3720
 6526SOL    HW231212   2.954   0.783   9.146 -0.9188 -0.5527 -0.0790
 6527SOL     OW31213   1.135   4.452  11.608 -0.1466  0.2711  1.0296
 6527SOL    HW131214   1.202   4.516  11.585  0.8868 -0.4827  1.9753
 6527SOL    HW231215   1.131   4.461  11.703 -1.8046 -0.0174  0.9851
 6528SOL     OW31216   2.425   1.397   5.383 -0.4666 -0.2676  0.6970
 6528SOL    HW131217   2.426   1.302   5.399  0.2233 -0.4618 -0.5588
 6528SOL    HW231218   2.516   1.417   5.406  0.1976 -0.7606 -1.4695
 6529SOL     OW31219   4.168   4.159   8.483 -0.0692 -0.3577  0.1005
 6529SOL    HW131220   4.243   4.193   8.435 -1.0340 -0.3683 -1.4256
 6529SOL    HW231221   4.099   4.200   8.429 -1.8987 -3.2583  0.2442
 6530SOL     OW31222   0.819   2.212   3.550 -0.1231 -0.2895 -0.1530
 6530SOL    HW131223   0.900   2.212   3.601  0.0914 -1.8103 -0.4987
 6530SOL    HW231224   0.821   2.307   3.550  2.6866 -0.3283  4.4518
 6531SOL     OW31225   2.610   0.938   1.082  0.0474 -0.3401  0.0925
 6531SOL    HW131226   2.575   0.852   1.105 -1.1031  0.0607 -0.1650
 6531SOL    HW231227   2.551   0.975   1.016 -0.3586  0.2858  0.7975
 6532SOL     OW31228   1.108   1.627   4.043  0.4906  0.2312 -0.4872
 6532SOL    HW131229   1.174   1.590   4.102  0.0478 -0.5432 -0.4822
 6532SOL    HW231230   1.123   1.721   4.051 -3.2191  0.9676 -2.3054
 6533SOL     OW31231   1.111   3.431   9.578  0.0332  0.0225 -0.0831
 6533SOL    HW131232   1.033   3.422   9.632  0.1819  0.6241  0.2347
 6533SOL    HW231233   1.085   3.437   9.487 -0.3683 -1.4961 -0.0607
 6534SOL     OW31234   2.464   0.342   6.683  0.3376 -0.9937  0.6279
 6534SOL    HW131235   2.457   0.437   6.694 -0.4797 -1.2526  2.4049
 6534SOL    HW231236   2.555   0.332   6.654  0.7677  0.3755  1.5101
 6535SOL     OW31237   3.349   4.698   4.300  0.6220 -0.6714  0.1137
 6535SOL    HW131238   3.343   0.058   4.311 -0.2420 -0.7533  0.3658
 6535SOL    HW231239   3.344   4.684   4.206  0.8983 -1.2271  0.1789
 6536SOL     OW31240   2.272   1.133   1.943  0.1093 -0.0508  0.0630
 6536SOL    HW131241   2.215   1.180   2.004 -0.7208  0.0004 -0.7498
 6536SOL    HW231242   2.287   1.203   1.880  0.9085 -0.6948 -0.4782
 6537SOL     OW31243   1.075   0.784   8.122  0.3179 -0.3825  0.1250
 6537SOL    HW131244   1.157   0.761   8.167  0.4781 -0.6875 -0.3315
 6537SOL    HW231245   1.073   0.718   8.053 -0.9407 -1.3906  1.1216
 6538SOL     OW31246   2.083   3.537  15.007  0.1458  0.1732 -0.2375
 6538SOL    HW131247   2.046   3.504  14.925  0.8282 -2.4666  0.5357
 6538SOL    HW231248   2.008   3.595  15.021 -0.7273 -0.9755 -0.1040
 6539SOL     OW31249   4.606   3.139   1.501 -0.1794 -0.0861  0.3988
 6539SOL    HW131250   4.642   3.218   1.543  2.2662 -0.5603 -0.7837
 6539SOL    HW231251   4.665   3.078   1.547  0.0845  0.4635  0.8043
 6540SOL     OW31252   2.700   2.429   1.229 -0.2796 -0.2243 -0.4316
 6540SOL    HW131253   2.665   2.514   1.201  0.3348  0.5401  1.1258
 6540SOL    HW231254   2.678   2.371   1.156 -1.7361  1.6416 -1.4839
 6541SOL     OW31255   4.656   1.733  16.592  0.1054  0.0626  0.3463
 6541SOL    HW131256   4.628   1.799  16.656  0.1141 -0.4261  0.8564
 6541SOL    HW231257   4.570   1.712  16.556  1.3789 -4.0469 -0.2158
 6542SOL     OW31258   0.086   0.228   5.949  0.1626  0.0472  0.1757
 6542SOL    HW131259   0.119   0.154   5.900 -0.4375 -0.4629  0.5407
 6542SOL    HW231260   0.015   0.252   5.890  0.9329 -0.5892 -0.9939
 6543SOL     OW31261   3.404   1.764   3.250 -0.6777  0.3061 -0.2005
 6543SOL    HW131262   3.382   1.672   3.238 -1.1560  1.0483 -5.0506
 6543SOL    HW231263   3.417   1.798   3.161  0.2697  0.2280 -0.0849
 6544SOL     OW31264   1.614   1.297   0.089  0.4584 -0.2526 -0.0692
 6544SOL    HW131265   1.632   1.384   0.054 -0.2850 -0.0755 -0.0203
 6544SOL    HW231266   1.543   1.321   0.150  0.0229 -0.4088 -0.5180
 6545SOL     OW31267   2.702   2.366   3.691 -0.3144  0.2195  0.7475
 6545SOL    HW131268   2.676   2.279   3.659  3.7416 -0.3330 -1.0375
 6545SOL    HW231269   2.637   2.387   3.757 -0.1856  1.7758  0.3665
 6546SOL     OW31270   1.203   1.748   2.577 -0.3811  0.1277  0.3754
 6546SOL    HW131271   1.118   1.758   2.535 -0.4028  0.9058  0.5963
 6546SOL    HW231272   1.183   1.696   2.654 -0.7781  0.9229  0.8114
 6547SOL     OW31273   0.998   0.769   5.028  0.3886 -0.2431  0.0410
 6547SOL    HW131274   0.961   0.852   4.995  0.7048 -0.5836 -1.1804
 6547SOL    HW231275   0.930   0.702   5.038 -0.4064  0.6164  0.4054
 6548SOL     OW31276   2.596   1.162   6.274  0.6968 -0.6753  0.1572
 6548SOL    HW131277   2.502   1.151   6.284  0.4338  0.2326 -1.4216
 6548SOL    HW231278   2.628   1.072   6.270 -2.3130 -1.7211 -0.5404
 6549SOL     OW31279   3.492   4.286   1.865  0.1136  0.3476  0.1476
 6549SOL    HW131280   3.422   4.237   1.908 -0.5893 -0.1628 -1.5817
 6549SOL    HW231281   3.502   4.242   1.780  1.0886 -0.2234  0.5526
 6550SOL     OW31282   2.245   2.815  13.180 -0.0667  0.3004 -0.2356
 6550SOL    HW131283   2.259   2.721  13.191 -0.5204  0.4193  1.4088
 6550SOL    HW231284   2.262   2.828  13.087  3.9366  1.9420  0.7274
 6551SOL     OW31285   2.321   1.927  13.264 -0.2626  0.1897 -0.3174
 6551SOL    HW131286   2.327   1.947  13.357  0.8444  2.5108 -0.9018
 6551SOL    HW231287   2.253   1.990  13.241 -0.0821  0.7199  0.6484
 6552SOL     OW31288   3.794   4.294   1.931 -0.0107  0.0488  0.2948
 6552SOL    HW131289   3.827   4.251   2.010  1.1240 -1.5804 -1.0745
 6552SOL    HW231290   3.706   4.259   1.914 -0.3008  1.2978 -0.7619
 6553SOL     OW31291   2.135   1.051   3.583 -0.0704 -0.0070  0.0934
 6553SOL    HW131292   2.080   1.123   3.553  0.0138  1.0533  2.4628
 6553SOL    HW231293   2.076   1.014   3.649 -2.0949  0.8417 -1.2410
 6554SOL     OW31294   4.016   3.782   9.084 -0.7327  0.0152 -0.8712
 6554SOL    HW131295   3.999   3.764   9.176  0.0301 -0.2860 -0.7916
 6554SOL    HW231296   3.934   3.827   9.063 -1.0878 -0.1716  0.1241
 6555SOL     OW31297   1.331   1.187   7.549 -0.3724 -0.0856  0.3680
 6555SOL    HW131298   1.385   1.238   7.610  0.3982 -1.0777  0.5039
 6555SOL    HW231299   1.397   1.133   7.506  0.7963  0.6434  1.2527
 6556SOL     OW31300   0.481   2.505  12.241 -0.7608  0.0164 -0.5434
 6556SOL    HW131301   0.567   2.465  12.258 -0.3368  0.9127 -0.5714
 6556SOL    HW231302   0.427   2.461  12.306  3.1896 -1.1687  1.9639
 6557SOL     OW31303   2.717   4.721   9.364 -0.2483  0.1750  0.0136
 6557SOL    HW131304   2.786   0.026   9.417 -0.0728 -0.2137  0.0717
 6557SOL    HW231305   2.769   4.731   9.284  0.2200 -0.3428  0.2541
 6558SOL     OW31306   3.546   3.169   9.507 -0.0028  0.4218 -0.2679
 6558SOL    HW131307   3.523   3.215   9.587  1.3175  0.3799  0.1460
 6558SOL    HW231308   3.466   3.198   9.464 -0.6851  0.1577  0.8168
 6559SOL     OW31309   4.199   4.243   5.989 -0.7425  0.0692  0.3114
 6559SOL    HW131310   4.124   4.301   5.975 -0.9668  0.2390  2.2466
 6559SOL    HW231311   4.169   4.153   5.978 -2.4803  0.5771  0.8396
 6560SOL     OW31312   0.532   4.012   7.725 -0.3476 -0.1308 -0.0592
 6560SOL    HW131313   0.555   3.924   7.753 -2.8769 -0.7781 -0.0199
 6560SOL    HW231314   0.443   4.020   7.761  0.5848  0.4782  2.1259
 6561SOL     OW31315   4.525   1.773  13.700 -0.4093 -0.5077 -0.4742
 6561SOL    HW131316   4.582   1.713  13.652 -0.6637 -1.4262  0.3803
 6561SOL    HW231317   4.566   1.854  13.668 -0.8716 -0.7399 -1.6378
 6562SOL     OW31318   3.131   4.435   4.219 -0.0953  0.3107 -0.1592
 6562SOL    HW131319   3.156   4.491   4.293  0.0122  2.3657 -1.7382
 6562SOL    HW231320   3.143   4.501   4.150 -1.4233  0.1888 -0.5028
 6563SOL     OW31321   3.112   4.512   9.098 -0.2296  0.9275  0.0597
 6563SOL    HW131322   3.142   4.437   9.149 -0.0226  0.9747  0.0112
 6563SOL    HW231323   3.017   4.500   9.102 -0.0566 -0.1070  1.1030
 6564SOL     OW31324   3.284   3.104   4.901  0.0449 -0.1600  0.0005
 6564SOL    HW131325   3.369   3.144   4.917 -0.5583  0.7409  0.9170
 6564SOL    HW231326   3.307   3.064   4.817  0.5548  0.9839 -0.3893
 6565SOL     OW31327   3.455   4.205   2.335 -0.2085  0.2486 -0.0889
 6565SOL    HW131328   3.443   4.297   2.310 -2.1604 -0.3218 -1.2292
 6565SOL    HW231329   3.547   4.190   2.357 -0.1956  0.0295 -0.2886
 6566SOL     OW31330   4.166   4.568   0.517  0.0887  0.0529  0.4566
 6566SOL    HW131331   4.183   4.570   0.611 -1.9917 -0.3076  0.8304
 6566SOL    HW231332   4.215   4.492   0.485 -0.6962 -0.1053 -0.3622
 6567SOL     OW31333   2.806   2.658   7.821  0.2771 -0.0376  0.5175
 6567SOL    HW131334   2.731   2.717   7.811  0.0524 -0.3735  0.1753
 6567SOL    HW231335   2.754   2.580   7.841  1.5123 -0.4442  2.1116
 6568SOL     OW31336   1.646   1.827   8.150  0.1532 -0.0950  0.0374
 6568SOL    HW131337   1.599   1.744   8.143  0.7706 -0.4973  0.6735
 6568SOL    HW231338   1.668   1.845   8.058 -0.5975 -1.7412 -0.4597
 6569SOL     OW31339   3.545   0.214   7.694 -0.1029 -0.5570  0.3943
 6569SOL    HW131340   3.451   0.236   7.690 -0.2658 -0.8517  2.5115
 6569SOL    HW231341   3.583   0.232   7.780 -1.9638 -0.7531  1.2589
 6570SOL     OW31342   0.129   1.475   1.937 -0.4394  0.0877  0.3169
 6570SOL    HW131343   0.107   1.568   1.941 -1.0362 -0.1154  1.7998
 6570SOL    HW231344   0.162   1.455   2.025  0.4361 -0.2464 -0.0887
 6571SOL     OW31345   1.216   0.919   4.865 -0.2032 -0.0598 -0.0752
 6571SOL    HW131346   1.278   0.847   4.872 -1.3850 -1.3352 -2.6033
 6571SOL    HW231347   1.259   0.987   4.814  1.9111 -1.1720  0.2362
 6572SOL     OW31348   0.234   0.634   5.882  0.3743  0.1763  0.2345
 6572SOL    HW131349   0.293   0.564   5.855  0.5015 -0.1640  1.3731
 6572SOL    HW231350   0.291   0.707   5.903 -2.2650  1.7494  1.9439
 6573SOL     OW31351   3.576   1.569  16.352 -0.6165 -0.7152 -0.1759
 6573SOL    HW131352   3.496   1.540  16.395 -0.4461  1.7849  1.8337
 6573SOL    HW231353   3.570   1.663  16.369  1.4073 -0.4489 -0.9685
 6574SOL     OW31354   1.729   2.166  10.802  0.3752 -0.1846 -0.1476
 6574SOL    HW131355   1.766   2.109  10.734 -0.7528 -1.2547  0.1361
 6574SOL    HW231356   1.650   2.112  10.811  0.7624 -0.2230  3.0427
 6575SOL     OW31357   0.587   4.448   7.543  0.0877 -0.6545  0.4877
 6575SOL    HW131358   0.598   4.373   7.601  0.8186 -1.5531 -0.7985
 6575SOL    HW231359   0.625   4.521   7.591  1.2697  0.0341 -1.5068
 6576SOL     OW31360   0.316   3.118   6.996  0.3773 -0.6735 -0.6389
 6576SOL    HW131361   0.333   3.038   7.046  1.2407 -1.1062 -1.5967
 6576SOL    HW231362   0.367   3.107   6.915 -0.1884 -1.8504 -0.8326
 6577SOL     OW31363   0.503   0.900   7.781  0.5576  0.9881  0.3559
 6577SOL    HW131364   0.585   0.945   7.801  0.0351  1.7556  0.7301
 6577SOL    HW231365   0.493   0.867   7.870  4.4922  0.1949  0.5367
 6578SOL     OW31366   3.958   3.724  17.082 -0.3172  0.4209  0.1837
 6578SOL    HW131367   4.022   3.792  17.058  0.4469 -0.1916  0.4902
 6578SOL    HW231368   3.888   3.774  17.124  0.0533 -0.1006  1.4302
 6579SOL     OW31369   3.804   3.221   9.640 -0.3123 -0.5602  0.3398
 6579SOL    HW131370   3.855   3.151   9.682  1.2525 -0.8232 -1.9550
 6579SOL    HW231371   3.754   3.173   9.573  1.2980  0.2407 -1.4393
 6580SOL     OW31372   1.852   1.857   3.988 -0.5046  0.1150 -0.3784
 6580SOL    HW131373   1.760   1.882   3.997 -0.1692  1.0381  0.5052
 6580SOL    HW231374   1.852   1.761   3.980 -0.7472  0.1509 -0.7635
 6581SOL     OW31375   4.483   1.042   1.440 -0.1157  0.2970  0.0739
 6581SOL    HW131376   4.539   1.103   1.486 -2.3472  2.0818  0.4344
 6581SOL    HW231377   4.403   1.042   1.493 -0.3575 -3.8736 -0.2782
 6582SOL     OW31378   1.542   2.076   4.447 -0.3203 -0.6983 -0.3645
 6582SOL    HW131379   1.507   2.005   4.502 -2.2993 -0.2651 -1.0662
 6582SOL    HW231380   1.463   2.104   4.400  0.6281 -1.2772 -2.2951
 6583SOL     OW31381   3.832   3.488   6.331  0.2201  0.3480 -0.5774
 6583SOL    HW131382   3.789   3.560   6.378  0.5846  1.1485 -1.4797
 6583SOL    HW231383   3.911   3.468   6.380 -0.0485 -0.6119 -0.5350
 6584SOL     OW31384   2.357   1.827  15.916 -0.1692  0.4065 -0.0080
 6584SOL    HW131385   2.321   1.744  15.948 -2.7433  1.5446  0.0900
 6584SOL    HW231386   2.278   1.868  15.881  0.2442  1.8277  0.7187
 6585SOL     OW31387   1.609   3.276  12.404  0.7011  0.6159 -0.2493
 6585SOL    HW131388   1.692   3.236  12.377  0.0491 -1.1357  0.3784
 6585SOL    HW231389   1.594   3.245  12.493  0.9957  1.5530  0.1304
 6586SOL     OW31390   1.665   3.335   2.622 -0.0250  0.1891  0.5442
 6586SOL    HW131391   1.623   3.348   2.537 -0.0233  0.5710  0.6015
 6586SOL    HW231392   1.588   3.321   2.677  0.1606 -1.4643  0.3693
 6587SOL     OW31393   4.234   4.311   1.882  0.1037  0.3425  0.1777
 6587SOL    HW131394   4.178   4.239   1.855  0.3370 -0.5022  2.0141
 6587SOL    HW231395   4.301   4.297   1.814 -1.1255  0.1221 -0.9837
 6588SOL     OW31396   1.516   3.947   8.602 -0.4100  0.2532  0.3488
 6588SOL    HW131397   1.485   3.895   8.527  0.5718  0.1597  0.0017
 6588SOL    HW231398   1.597   3.897   8.611  0.2931  1.1291 -1.0570
 6589SOL     OW31399   0.181   4.680   8.658  0.2774 -0.0725  0.6816
 6589SOL    HW131400   0.096   4.647   8.629  0.0885 -0.0012  1.1615
 6589SOL    HW231401   0.199   4.729   8.578 -3.9739 -0.2529 -0.3918
 6590SOL     OW31402   0.986   0.733   2.697 -0.1423  0.3674  0.1121
 6590SOL    HW131403   0.987   0.660   2.759  1.9423 -0.4500 -0.8871
 6590SOL    HW231404   0.915   0.691   2.648 -0.1000  0.9784 -0.4693
 6591SOL     OW31405   3.613   2.626   6.138  0.2994 -0.5468  0.4306
 6591SOL    HW131406   3.590   2.625   6.231  0.1748  0.0240  0.4038
 6591SOL    HW231407   3.566   2.708   6.123  2.1182  0.4894  0.3886
 6592SOL     OW31408   3.321   2.049   8.605 -0.3322 -0.0211  0.4871
 6592SOL    HW131409   3.368   2.124   8.640 -0.5770  0.2393  0.2573
 6592SOL    HW231410   3.233   2.079   8.628 -1.3942 -1.9277 -1.0593
 6593SOL     OW31411   1.387   3.050   8.878  0.0490 -0.2751 -0.3577
 6593SOL    HW131412   1.455   3.030   8.942  1.1027  2.3659 -0.6770
 6593SOL    HW231413   1.423   2.998   8.806 -0.2232  1.1744 -1.5534
 6594SOL     OW31414   2.432   4.194   3.860 -0.4993 -0.9054  0.4543
 6594SOL    HW131415   2.475   4.139   3.796  1.3093 -0.5016  1.3281
 6594SOL    HW231416   2.384   4.124   3.905 -2.4662  0.8344  1.0642
 6595SOL     OW31417   1.540   3.072  14.225  0.1943  0.2360 -0.2586
 6595SOL    HW131418   1.453   3.093  14.192  0.9690 -1.5759 -3.4397
 6595SOL    HW231419   1.536   2.981  14.254 -1.3531  0.4243  0.1002
 6596SOL     OW31420   0.200   0.980   5.565  1.0714  0.5058 -0.0645
 6596SOL    HW131421   0.156   0.902   5.600 -0.5096  2.4731  2.3375
 6596SOL    HW231422   0.153   0.993   5.483  0.6147 -1.6724 -0.1499
 6597SOL     OW31423   0.203   0.768   7.063  0.0998 -0.3612  0.2392
 6597SOL    HW131424   0.119   0.805   7.037 -0.5944 -0.9743  1.6318
 6597SOL    HW231425   0.251   0.847   7.088 -0.6883 -0.1254  1.0022
 6598SOL     OW31426   3.893   0.967   1.720 -0.1718  0.3851 -0.6682
 6598SOL    HW131427   3.947   1.044   1.703 -0.8304  0.2657 -3.3672
 6598SOL    HW231428   3.925   0.947   1.808  2.7230 -0.8475 -1.9716
 6599SOL     OW31429   1.916   1.624  16.876 -0.1691  0.7487 -0.1442
 6599SOL    HW131430   1.896   1.537  16.911  0.6010  0.1727 -1.1386
 6599SOL    HW231431   1.901   1.617  16.782 -0.2451  2.2513 -0.2375
 6600SOL     OW31432   1.697   0.405   4.200 -0.2965 -0.5443  0.7105
 6600SOL    HW131433   1.613   0.446   4.216 -1.6258 -3.4523  1.2506
 6600SOL    HW231434   1.669   0.314   4.212  0.3458 -0.6440  1.4883
 6601SOL     OW31435   3.566   1.580   7.322  0.1887  0.0780 -0.2135
 6601SOL    HW131436   3.503   1.590   7.395  2.5986 -0.2871  1.9094
 6601SOL    HW231437   3.547   1.656   7.268 -1.3133  0.3058  0.6137
 6602SOL     OW31438   2.018   3.811  15.265 -0.1000  0.8597 -0.7568
 6602SOL    HW131439   1.970   3.817  15.182  2.1992  1.2980 -2.0661
 6602SOL    HW231440   2.107   3.838  15.243  0.6110  0.1286  1.2035
 6603SOL     OW31441   1.568   1.041  10.773  0.4254  0.3573  0.4235
 6603SOL    HW131442   1.563   1.099  10.849 -0.2592 -0.7612  1.2307
 6603SOL    HW231443   1.497   1.080  10.721  1.1048  2.5684  1.1992
 6604SOL     OW31444   2.935   2.374   6.123  0.5318  0.3807 -0.5516
 6604SOL    HW131445   3.006   2.311   6.131 -0.4710 -0.6460  0.2345
 6604SOL    HW231446   2.971   2.462   6.129  1.5311  0.0326 -1.5696
 6605SOL     OW31447   0.685   0.390   5.453  0.1887 -0.3430  0.0135
 6605SOL    HW131448   0.659   0.450   5.384 -3.1310 -2.5907 -0.6879
 6605SOL    HW231449   0.774   0.423   5.465 -0.3382  0.7346  0.9062
 6606SOL     OW31450   1.409   4.444   3.167  0.1425 -0.7622  0.5244
 6606SOL    HW131451   1.448   4.512   3.221 -0.6740 -0.3578  0.5985
 6606SOL    HW231452   1.465   4.454   3.090 -3.7285  0.0001 -2.1635
 6607SOL     OW31453   1.038   1.607   7.232  0.5804 -0.2488 -0.6394
 6607SOL    HW131454   1.090   1.626   7.310  0.4126 -0.7668 -0.4020
 6607SOL    HW231455   1.101   1.594   7.162  0.4773  0.0481 -0.7892
 6608SOL     OW31456   4.724   3.499   2.150  0.2980  0.0114  0.4506
 6608SOL    HW131457   0.030   3.577   2.188 -1.6097  0.9815  0.4693
 6608SOL    HW231458   4.704   3.444   2.226 -1.1202 -2.3899 -1.6309
 6609SOL     OW31459   1.504   2.715   8.129  0.0068  0.2692  0.3920
 6609SOL    HW131460   1.555   2.776   8.075  0.2338 -0.6946 -0.4740
 6609SOL    HW231461   1.427   2.720   8.072 -1.6622 -1.8446  2.4598
 6610SOL     OW31462   1.916   1.153   8.495 -0.1187 -0.1632  0.6188
 6610SOL    HW131463   1.868   1.076   8.525  0.2257 -1.2594 -1.7111
 6610SOL    HW231464   1.886   1.219   8.558  1.0363  2.0186 -1.1316
 6611SOL     OW31465   1.237   2.023  11.196  0.3684 -0.1399  0.3275
 6611SOL    HW131466   1.190   1.945  11.168  0.2244  0.2490 -0.5048
 6611SOL    HW231467   1.197   2.042  11.281 -1.4476  1.0165 -0.7985
 6612SOL     OW31468   0.065   4.717   5.756 -0.4415  0.5625  0.8867
 6612SOL    HW131469   0.116   4.639   5.778  0.8601  1.0804 -0.3042
 6612SOL    HW231470   4.720   4.692   5.805  0.1282  1.6556  2.3706
 6613SOL     OW31471   1.518   4.575   0.970  0.0972 -0.4150 -0.9038
 6613SOL    HW131472   1.505   4.509   0.902  0.2505 -1.4300  0.0583
 6613SOL    HW231473   1.567   4.527   1.036 -0.0470 -0.7245 -1.0243
 6614SOL     OW31474   1.382   2.554   4.484 -0.2776  0.1312  0.2022
 6614SOL    HW131475   1.463   2.529   4.441 -1.0851 -1.5446 -0.3327
 6614SOL    HW231476   1.314   2.509   4.434  0.7133 -0.1727 -0.8523
 6615SOL     OW31477   0.170   4.327   0.980 -0.7149 -0.4052  0.2626
 6615SOL    HW131478   0.231   4.384   0.933  2.6857 -3.1433  1.3452
 6615SOL    HW231479   0.091   4.348   0.931 -1.3763 -2.4250  0.4445
 6616SOL     OW31480   4.354   0.816   9.173 -0.1180 -0.2296  0.0893
 6616SOL    HW131481   4.444   0.804   9.142  0.8638  0.1442  2.8173
 6616SOL    HW231482   4.335   0.888   9.113  1.1229  0.5270  0.6083
 6617SOL     OW31483   0.376   0.691   3.675  0.2461 -0.7044 -0.1546
 6617SOL    HW131484   0.383   0.601   3.706 -0.2946 -0.1286  1.6435
 6617SOL    HW231485   0.392   0.687   3.581 -0.8901 -1.0536 -0.3328
 6618SOL     OW31486   3.417   2.259   1.035 -0.5451 -0.2923  0.3418
 6618SOL    HW131487   3.352   2.291   0.973  1.2440 -0.7046 -1.7526
 6618SOL    HW231488   3.370   2.263   1.118 -0.7857  0.5549  0.1551
 6619SOL     OW31489   0.494   4.291   4.605 -0.5210  0.3210  0.6177
 6619SOL    HW131490   0.447   4.260   4.527 -0.3489  1.9310 -0.1249
 6619SOL    HW231491   0.510   4.205   4.644 -0.6639  0.0747  0.1380
 6620SOL     OW31492   3.384   1.132   8.838  0.1371 -0.2042  0.2109
 6620SOL    HW131493   3.447   1.081   8.889  0.2059 -2.3225 -2.0128
 6620SOL    HW231494   3.438   1.145   8.760  0.5259 -1.5775  0.2589
 6621SOL     OW31495   4.021   4.062   2.697 -0.7035  0.5380  0.6930
 6621SOL    HW131496   4.099   4.108   2.665 -1.2661 -0.4748 -2.0570
 6621SOL    HW231497   4.023   4.093   2.788 -0.1973  3.0116 -0.1609
 6622SOL     OW31498   4.238   4.354   2.938 -0.4337 -0.0227 -0.1907
 6622SOL    HW131499   4.238   4.296   3.013  0.5985  0.1544 -0.0576
 6622SOL    HW231500   4.214   4.294   2.868  0.4398  0.1152 -0.6144
 6623SOL     OW31501   3.760   1.831  16.517 -0.4595 -0.1229  0.3409
 6623SOL    HW131502   3.784   1.923  16.520  2.6539 -0.8315 -2.7987
 6623SOL    HW231503   3.676   1.845  16.474 -1.0220 -3.2360  0.4175
 6624SOL     OW31504   1.739   1.757   8.493  0.1101  0.5334  0.7780
 6624SOL    HW131505   1.756   1.751   8.587 -1.5598 -2.2245  0.9037
 6624SOL    HW231506   1.825   1.789   8.468 -0.8917  2.4186 -0.2858
 6625SOL     OW31507   0.775   3.794   9.022  0.0414 -0.1652  0.6471
 6625SOL    HW131508   0.763   3.846   8.943 -0.5068  1.6546  1.9264
 6625SOL    HW231509   0.863   3.830   9.036  0.2686 -0.0725 -1.0577
 6626SOL     OW31510   4.239   2.212   7.891 -0.2373  0.4963 -0.2820
 6626SOL    HW131511   4.294   2.220   7.970  0.9750  1.9748 -1.2746
 6626SOL    HW231512   4.266   2.128   7.852  0.8714 -0.5603  2.7379
 6627SOL     OW31513   0.842   1.068   3.640 -0.5919  0.5173 -0.5927
 6627SOL    HW131514   0.773   1.112   3.590  0.2637  1.9119 -0.5335
 6627SOL    HW231515   0.856   1.141   3.699  0.6156 -2.2187  2.4936
 6628SOL     OW31516   3.926   2.089   4.512  0.0956 -0.2492 -0.0742
 6628SOL    HW131517   3.873   2.099   4.591  0.2429  0.9066 -0.1317
 6628SOL    HW231518   3.927   1.996   4.488 -1.5025 -0.8783  2.2116
 6629SOL     OW31519   1.343   0.642   8.381  0.2269 -0.2182  0.9283
 6629SOL    HW131520   1.275   0.577   8.401 -0.9057  1.3721  2.2355
 6629SOL    HW231521   1.326   0.705   8.451  2.0965  0.0561  1.1443
 6630SOL     OW31522   1.658   0.074   0.681 -0.5365 -0.2007 -0.0470
 6630SOL    HW131523   1.739   0.031   0.710  0.3314  0.9049 -0.8217
 6630SOL    HW231524   1.618   0.098   0.765  2.3829 -0.8638  1.5397
 6631SOL     OW31525   1.554   3.945  11.489  0.0361 -0.0348 -0.2359
 6631SOL    HW131526   1.547   3.878  11.557  0.7322  1.7921  1.6489
 6631SOL    HW231527   1.460   3.955  11.481  0.1998  0.4014 -1.5053
 6632SOL     OW31528   0.445   3.521   3.485 -0.3626 -0.3155  0.0627
 6632SOL    HW131529   0.520   3.580   3.487  0.3542 -1.2787  1.3119
 6632SOL    HW231530   0.419   3.535   3.575 -0.3050 -0.2140  0.0631
 6633SOL     OW31531   4.281   4.010   4.455 -0.1554 -0.1505  0.4834
 6633SOL    HW131532   4.282   4.098   4.493  0.2124  0.1801 -0.3045
 6633SOL    HW231533   4.255   3.950   4.526 -3.5922  0.4099 -0.3141
 6634SOL     OW31534   1.242   4.022   7.624  0.1020 -0.2991 -0.5562
 6634SOL    HW131535   1.326   3.980   7.611  1.8051  3.4093 -1.6612
 6634SOL    HW231536   1.214   3.975   7.702  2.9046  0.8026  1.1017
 6635SOL     OW31537   2.448   3.622   9.032  0.1797  0.3190  0.1655
 6635SOL    HW131538   2.428   3.708   8.995  0.4262  0.4414  0.3141
 6635SOL    HW231539   2.357   3.594   9.031 -0.3198  1.9724 -0.7904
 6636SOL     OW31540   3.941   1.279  14.842 -0.5409  0.0777 -0.0690
 6636SOL    HW131541   4.034   1.260  14.855 -1.0393 -1.8669  0.6756
 6636SOL    HW231542   3.948   1.322  14.757  0.0813 -0.0510 -0.0785
 6637SOL     OW31543   3.920   4.193   7.363 -0.3802  0.7540 -0.0566
 6637SOL    HW131544   4.005   4.216   7.399 -0.6184  0.3215  0.7813
 6637SOL    HW231545   3.940   4.130   7.294 -1.0636  1.9748 -1.3772
 6638SOL     OW31546   0.574   4.284   1.788  0.2790 -0.5956 -0.8126
 6638SOL    HW131547   0.617   4.199   1.799 -1.6796 -1.3209  1.3258
 6638SOL    HW231548   0.642   4.331   1.740 -0.0120  0.1883 -0.4643
 6639SOL     OW31549   0.305   2.250   7.379  0.2449 -0.1828  0.0728
 6639SOL    HW131550   0.279   2.172   7.330  0.6060  0.3188 -0.9233
 6639SOL    HW231551   0.313   2.209   7.465 -1.4000 -1.3258 -0.3234
 6640SOL     OW31552   0.262   4.716  12.501 -0.5538  0.3179  0.2022
 6640SOL    HW131553   0.224   4.629  12.516  2.1747 -0.4358  2.6448
 6640SOL    HW231554   0.243   0.034  12.579  0.7036 -0.4133  0.9898
 6641SOL     OW31555   3.125   2.756   9.874 -0.0256  0.0918  0.6987
 6641SOL    HW131556   3.188   2.701   9.921  1.1369  0.4204 -0.4577
 6641SOL    HW231557   3.132   2.713   9.789  0.8485 -1.1065  1.3631
 6642SOL     OW31558   4.201   3.704   4.535 -0.1394  0.3718  0.1353
 6642SOL    HW131559   4.109   3.714   4.561  0.0123 -1.0912  1.2896
 6642SOL    HW231560   4.258   3.682   4.609  0.0782  1.6453  0.3427
 6643SOL     OW31561   2.753   1.758   4.593 -0.5674 -0.2309 -0.4943
 6643SOL    HW131562   2.835   1.808   4.601 -1.1113  0.8614 -1.8217
 6643SOL    HW231563   2.771   1.716   4.678 -0.3660 -0.5403 -0.6876
 6644SOL     OW31564   1.699   3.716   2.097 -0.0270 -0.1918 -0.4214
 6644SOL    HW131565   1.687   3.808   2.075 -0.9398  0.1519  1.5046
 6644SOL    HW231566   1.642   3.703   2.173 -0.8108  1.3213 -0.7545
 6645SOL     OW31567   0.628   1.210  13.866 -0.3964 -0.2317  0.0326
 6645SOL    HW131568   0.661   1.124  13.890 -4.1543 -1.8820 -0.6792
 6645SOL    HW231569   0.615   1.205  13.771 -1.6006  0.7345  0.1386
 6646SOL     OW31570   4.649   1.900   5.950  0.0710 -0.0658  0.5398
 6646SOL    HW131571   4.725   1.939   5.992 -0.9754  1.9191  0.5861
 6646SOL    HW231572   4.659   1.936   5.862  0.9284  1.7758  1.4012
 6647SOL     OW31573   2.817   3.378   8.578 -0.4323  0.0350 -0.1363
 6647SOL    HW131574   2.750   3.445   8.560  0.3105  0.5945 -0.8149
 6647SOL    HW231575   2.819   3.344   8.489 -0.1906 -0.1344 -0.0659
 6648SOL     OW31576   2.477   2.526   0.763  0.2857  0.0476  0.0464
 6648SOL    HW131577   2.511   2.439   0.784 -3.5483 -1.1578  1.2754
 6648SOL    HW231578   2.559   2.572   0.777 -0.9032  1.7672  1.3833
 6649SOL     OW31579   3.322   2.667   4.465 -1.0603 -0.0759  0.7305
 6649SOL    HW131580   3.267   2.690   4.390  0.2815  3.7556  0.9286
 6649SOL    HW231581   3.255   2.660   4.533 -0.1751  1.3684  1.7269
 6650SOL     OW31582   1.158   3.362   6.184 -0.7384 -0.0824 -0.0806
 6650SOL    HW131583   1.200   3.352   6.269 -0.1983 -4.6357 -0.8634
 6650SOL    HW231584   1.079   3.411   6.206  0.1222  0.2795  2.2325
 6651SOL     OW31585   1.633   2.690  13.904 -0.1176 -0.6720  0.0014
 6651SOL    HW131586   1.595   2.614  13.947  0.3832 -1.3066 -0.6904
 6651SOL    HW231587   1.720   2.688  13.946 -0.3180  2.3994  0.5944
 6652SOL     OW31588   4.319   3.626  10.267  0.2299 -0.0550  0.2467
 6652SOL    HW131589   4.396   3.652  10.317  1.0007 -0.9621 -0.4769
 6652SOL    HW231590   4.355   3.644  10.181  1.2530  2.1316  1.1392
 6653SOL     OW31591   1.070   0.252  10.881  0.2804 -0.2176 -0.3978
 6653SOL    HW131592   1.132   0.221  10.947 -0.7034 -0.5174  0.3770
 6653SOL    HW231593   0.996   0.195  10.898 -1.1893  1.4403 -1.2359
 6654SOL     OW31594   0.501   4.409  11.242 -0.3469  0.5935  0.2505
 6654SOL    HW131595   0.461   4.372  11.164  1.1105  4.1114 -2.1415
 6654SOL    HW231596   0.471   4.347  11.309  1.0020 -0.3440 -0.0134
 6655SOL     OW31597   3.370   1.602   8.536 -0.3700 -0.6244  0.3174
 6655SOL    HW131598   3.336   1.637   8.618 -2.1497 -0.5674 -0.4386
 6655SOL    HW231599   3.388   1.682   8.487  0.4766 -0.1241  1.4653
 6656SOL     OW31600   4.551   1.713   1.557 -0.1097 -0.9089 -0.0070
 6656SOL    HW131601   4.465   1.755   1.560  0.3080 -0.0767  0.3340
 6656SOL    HW231602   4.593   1.773   1.495  1.2116 -2.2360 -0.3885
 6657SOL     OW31603   2.406   3.955  13.840 -0.3431 -0.4145  0.3613
 6657SOL    HW131604   2.400   4.009  13.761  4.8965  0.3185  0.4681
 6657SOL    HW231605   2.464   4.010  13.893  2.6020 -1.0525 -2.1804
 6658SOL     OW31606   2.555   2.179  17.268 -0.6728 -0.5363  0.2978
 6658SOL    HW131607   2.564   2.212  17.357  1.2005  0.0268 -0.0862
 6658SOL    HW231608   2.610   2.241  17.219 -2.6699  1.3577  0.4782
 6659SOL     OW31609   4.136   2.558   7.946  0.5752 -0.2695  0.1397
 6659SOL    HW131610   4.202   2.552   7.877  0.5177  0.6472  0.0090
 6659SOL    HW231611   4.083   2.489   7.906  1.0591  0.3070 -1.5026
 6660SOL     OW31612   0.794   1.054   1.290 -0.1369 -0.4610  0.6487
 6660SOL    HW131613   0.828   1.059   1.379  0.6531  0.1122  0.3171
 6660SOL    HW231614   0.700   1.044   1.300 -0.4920  0.6394 -1.5633
 6661SOL     OW31615   1.885   0.830   8.535  0.2061  0.7910 -0.2394
 6661SOL    HW131616   1.819   0.776   8.577 -1.4375  2.6117 -0.4414
 6661SOL    HW231617   1.835   0.842   8.454 -1.9206 -0.9356  0.8320
 6662SOL     OW31618   0.365   2.559   3.615 -0.0458  0.3840 -0.6284
 6662SOL    HW131619   0.323   2.611   3.546 -1.4969 -0.6748 -0.5330
 6662SOL    HW231620   0.439   2.618   3.634 -1.4654  1.9745 -0.0634
 6663SOL     OW31621   3.265   4.698   4.708  0.2721  0.4717  0.6300
 6663SOL    HW131622   3.294   4.720   4.619  1.1506 -2.0132  0.2818
 6663SOL    HW231623   3.299   0.037   4.759 -0.6662  0.5020  1.1952
 6664SOL     OW31624   0.495   1.547   3.172 -1.0078 -0.2770 -0.0775
 6664SOL    HW131625   0.520   1.491   3.245  1.3964 -0.9861 -1.4756
 6664SOL    HW231626   0.408   1.508   3.161 -0.7942 -0.8371  0.2545
 6665SOL     OW31627   1.911   0.925   3.697 -0.2584  0.3485 -0.3129
 6665SOL    HW131628   1.863   0.925   3.780 -1.7588 -1.0086 -1.1922
 6665SOL    HW231629   1.878   0.848   3.651  1.5378  0.1078 -1.2271
 6666SOL     OW31630   4.572   3.956  14.576 -0.4900  0.2565 -0.1683
 6666SOL    HW131631   4.602   4.047  14.577  1.6373 -0.4442 -0.4428
 6666SOL    HW231632   4.490   3.964  14.626 -1.1380  0.0975 -1.2090
 6667SOL     OW31633   1.510   1.475  12.763  0.8344 -0.3205  0.2305
 6667SOL    HW131634   1.596   1.471  12.804  2.0322  2.4226 -2.0739
 6667SOL    HW231635   1.461   1.398  12.794  2.0880 -1.0971  0.2812
 6668SOL     OW31636   0.055   2.599   5.937  0.3731 -0.4070  0.0105
 6668SOL    HW131637   0.066   2.507   5.963  0.4186 -0.4622 -0.1996
 6668SOL    HW231638   4.730   2.592   5.862 -0.2279  0.6310  0.3909
 6669SOL     OW31639   2.151   4.601   5.030  0.4522 -0.3563 -0.5391
 6669SOL    HW131640   2.227   4.563   5.074 -0.2991 -0.4893  0.6640
 6669SOL    HW231641   2.148   4.541   4.956  1.6137 -0.3263 -0.6106
 6670SOL     OW31642   3.173   0.492   5.223  0.1938 -0.3927 -0.1440
 6670SOL    HW131643   3.199   0.534   5.306 -1.1047  0.1493 -0.0202
 6670SOL    HW231644   3.204   0.405   5.249 -1.9743 -1.4329 -1.0888
 6671SOL     OW31645   3.378   0.236   4.372 -0.2998  0.4663 -0.5685
 6671SOL    HW131646   3.456   0.279   4.407  0.9892 -1.6087 -0.9087
 6671SOL    HW231647   3.336   0.315   4.338  0.9988  1.4769  0.1835
 6672SOL     OW31648   2.259   0.947   7.182  0.0817  0.3751 -0.1662
 6672SOL    HW131649   2.270   0.997   7.262 -1.2525 -0.4856  0.5641
 6672SOL    HW231650   2.343   0.903   7.170 -0.3752 -0.5528  0.0291
 6673SOL     OW31651   2.737   4.507   3.223 -0.8704  0.8296  0.7921
 6673SOL    HW131652   2.700   4.540   3.305 -3.0633 -0.3335  0.2626
 6673SOL    HW231653   2.828   4.520   3.249 -0.3900  1.5467 -1.2363
 6674SOL     OW31654   1.822   0.759   5.182  0.3680 -0.1605 -0.4778
 6674SOL    HW131655   1.790   0.668   5.183 -1.8232  0.5990 -1.4956
 6674SOL    HW231656   1.770   0.801   5.251  0.3806  1.5581 -1.5423
 6675SOL     OW31657   3.663   1.812   1.400 -0.0644 -0.0838 -0.2605
 6675SOL    HW131658   3.698   1.734   1.356 -1.2297 -0.9174  0.3132
 6675SOL    HW231659   3.700   1.885   1.349 -1.0207  0.6363  0.0817
 6676SOL     OW31660   0.150   1.170   5.963 -0.2866  0.0058 -0.3954
 6676SOL    HW131661   0.196   1.180   5.879 -0.7477  0.5249 -0.5828
 6676SOL    HW231662   0.232   1.142   6.004 -0.1771 -0.5144 -0.9777
 6677SOL     OW31663   0.882   2.196   0.735 -0.4264 -0.2079 -0.1065
 6677SOL    HW131664   0.911   2.253   0.663 -0.0720  0.0655  0.2509
 6677SOL    HW231665   0.902   2.114   0.691 -4.2071 -0.2578 -1.7328
 6678SOL     OW31666   0.195   1.499   3.124  0.2573 -0.7017 -0.1364
 6678SOL    HW131667   0.209   1.587   3.159 -0.1283  0.5724 -3.1227
 6678SOL    HW231668   0.146   1.529   3.047  2.1559  0.7340 -0.7847
 6679SOL     OW31669   3.772   3.231  12.393 -0.2926 -0.2167 -0.3395
 6679SOL    HW131670   3.773   3.200  12.303 -1.1642 -1.2775  0.0110
 6679SOL    HW231671   3.788   3.325  12.390 -0.6905 -0.0610  2.4440
 6680SOL     OW31672   1.147   1.772   8.108  0.2379 -0.0991 -0.3312
 6680SOL    HW131673   1.198   1.699   8.075 -1.0439 -0.2692 -1.9355
 6680SOL    HW231674   1.103   1.745   8.189  1.7218 -0.1702  0.4410
 6681SOL     OW31675   0.937   4.599  16.274 -0.6436  0.1272 -0.6460
 6681SOL    HW131676   0.874   4.535  16.242 -2.8156  1.6780  0.5446
 6681SOL    HW231677   0.931   4.595  16.370 -1.9893 -0.3256 -0.7459
 6682SOL     OW31678   3.731   0.269   5.406 -0.4328  0.2386 -0.5426
 6682SOL    HW131679   3.745   0.230   5.493 -0.9741  1.9710  0.3209
 6682SOL    HW231680   3.767   0.357   5.409 -0.1367  0.1275 -0.7878
 6683SOL     OW31681   2.208   2.967   2.543 -0.1170 -0.2237 -0.0275
 6683SOL    HW131682   2.252   2.988   2.625 -1.7349 -1.1293  1.0544
 6683SOL    HW231683   2.159   3.049   2.536 -0.3195 -0.4099 -0.7884
 6684SOL     OW31684   4.552   4.719  15.472  0.1422  0.3202 -1.2696
 6684SOL    HW131685   4.583   4.659  15.404 -2.0584  0.0115 -1.9976
 6684SOL    HW231686   4.519   4.647  15.526 -1.1307  0.8694 -1.3120
 6685SOL     OW31687   1.162   0.998   2.367  0.3737 -0.0062 -0.0643
 6685SOL    HW131688   1.109   1.006   2.446 -1.7731  1.3229 -1.6229
 6685SOL    HW231689   1.095   1.022   2.302 -1.2346 -0.8476  1.2814
 6686SOL     OW31690   2.976   0.817   3.577 -0.3353  0.1942  0.0860
 6686SOL    HW131691   2.969   0.761   3.655  0.0055 -0.6806 -0.5164
 6686SOL    HW231692   3.037   0.767   3.524 -0.6821  1.7066 -1.7517
 6687SOL     OW31693   2.368   2.629   2.665  0.2081 -0.2215 -0.4684
 6687SOL    HW131694   2.276   2.620   2.640  0.1698  0.8193 -0.6687
 6687SOL    HW231695   2.386   2.713   2.706  2.3365 -0.4865 -0.8760
 6688SOL     OW31696   4.423   0.185   6.296  0.8448 -0.0610 -0.3365
 6688SOL    HW131697   4.509   0.224   6.280 -0.0274  2.6266  1.5650
 6688SOL    HW231698   4.444   0.092   6.299 -1.3028 -0.6123 -2.3867
 6689SOL     OW31699   0.555   4.539   5.795  0.1313  0.1882  0.0582
 6689SOL    HW131700   0.594   4.504   5.875  0.8013  0.7861 -0.0127
 6689SOL    HW231701   0.561   4.632   5.818 -2.3765 -0.0096  1.5872
 6690SOL     OW31702   2.708   1.925   0.461  0.1574 -0.4707 -0.1341
 6690SOL    HW131703   2.763   1.848   0.474  1.1808  0.4474  0.9631
 6690SOL    HW231704   2.728   1.940   0.369  1.4805 -0.7652  0.1080
 6691SOL     OW31705   0.549   3.923   4.088  0.1053 -0.0779  0.2343
 6691SOL    HW131706   0.482   3.909   4.155 -0.7694 -2.7630 -1.1946
 6691SOL    HW231707   0.506   3.992   4.038  0.5826 -1.5484 -2.2207
 6692SOL     OW31708   1.868   1.025  14.755 -0.4440  0.0215 -0.0661
 6692SOL    HW131709   1.775   1.025  14.733 -0.7809  3.7249  1.4889
 6692SOL    HW231710   1.873   0.948  14.812 -0.4303 -0.7245 -1.0688
 6693SOL     OW31711   3.753   3.430   9.858 -0.3961  0.1032  0.3086
 6693SOL    HW131712   3.810   3.505   9.840 -2.0338  0.7728 -2.0419
 6693SOL    HW231713   3.799   3.355   9.821  1.7661  1.5008  0.2117
 6694SOL     OW31714   1.970   0.811   7.552 -0.2964 -0.3735 -0.1157
 6694SOL    HW131715   1.988   0.835   7.643 -1.2245  1.1797 -0.3333
 6694SOL    HW231716   1.919   0.731   7.567 -3.7432  2.0446  1.1025
 6695SOL     OW31717   3.668   2.038   3.162 -0.2198  0.3282  0.2121
 6695SOL    HW131718   3.736   2.012   3.224  0.6979  1.5115 -0.2937
 6695SOL    HW231719   3.585   2.021   3.205 -0.2383  0.1528  0.1091
 6696SOL     OW31720   2.592   3.818  11.575  0.1740  0.1332 -0.1036
 6696SOL    HW131721   2.644   3.784  11.647  0.9337  0.2004 -0.6203
 6696SOL    HW231722   2.655   3.874  11.530  0.0213 -0.5314 -1.1453
 6697SOL     OW31723   4.564   4.656   7.802 -0.4252  0.3586  0.0942
 6697SOL    HW131724   4.548   4.594   7.731  0.6935 -1.1963  1.2046
 6697SOL    HW231725   4.612   4.732   7.767 -4.9266  2.6271 -1.1248
 6698SOL     OW31726   0.832   1.118   5.553  0.4065 -0.0805  0.3872
 6698SOL    HW131727   0.783   1.101   5.473  0.5017 -0.5860  0.4352
 6698SOL    HW231728   0.889   1.041   5.552  1.9234  1.0582 -0.7000
 6699SOL     OW31729   0.531   3.040   2.490  0.3164  0.3408  0.0382
 6699SOL    HW131730   0.556   2.974   2.554  1.7134  1.8813  1.0740
 6699SOL    HW231731   0.441   3.010   2.478 -0.0128  1.0190  0.7753
 6700SOL     OW31732   4.521   3.310  13.015  0.4428 -0.3787  0.7494
 6700SOL    HW131733   4.559   3.232  12.975  4.2490  1.1465  1.4076
 6700SOL    HW231734   4.542   3.303  13.108  1.6880 -1.3263  0.3901
 6701SOL     OW31735   1.422   1.266   8.955  0.1438 -0.8387 -0.7662
 6701SOL    HW131736   1.428   1.267   8.860  1.2485  2.1309 -0.6812
 6701SOL    HW231737   1.512   1.297   8.967 -0.8006  1.6842 -0.0963
 6702SOL     OW31738   0.034   3.784  16.244 -0.7915  0.1030 -0.6549
 6702SOL    HW131739   4.694   3.836  16.215  0.9867  1.9164 -1.9448
 6702SOL    HW231740   0.022   3.711  16.183  2.2106 -2.4288  1.7551
 6703SOL     OW31741   0.789   0.909  17.457  0.0391  0.1086 -0.1313
 6703SOL    HW131742   0.696   0.930  17.459  0.3198  1.1909  1.2378
 6703SOL    HW231743   0.790   0.845  17.386 -0.3394 -0.5727  0.4811
 6704SOL     OW31744   0.924   1.850   5.645 -0.3416 -0.0687  0.2196
 6704SOL    HW131745   0.964   1.816   5.725 -1.5241 -0.6429  0.5646
 6704SOL    HW231746   0.910   1.942   5.667 -2.0092 -0.4266  0.6707
 6705SOL     OW31747   2.642   4.604   8.834  0.1043  0.1419 -0.7267
 6705SOL    HW131748   2.610   4.514   8.836 -0.6567  0.4310  0.6698
 6705SOL    HW231749   2.572   4.643   8.888  0.8087 -0.8965  0.9571
 6706SOL     OW31750   2.392   2.000   6.761  0.1976 -0.2449 -0.4622
 6706SOL    HW131751   2.299   1.982   6.773 -0.1248  1.1400 -0.9384
 6706SOL    HW231752   2.414   1.963   6.676 -0.3181  0.5670 -0.9390
 6707SOL     OW31753   2.087   4.042   5.978 -0.1999 -0.2430 -0.1563
 6707SOL    HW131754   2.019   4.054   6.044 -2.7489  2.8804 -3.3190
 6707SOL    HW231755   2.152   3.997   6.030 -0.0212  3.1034  2.5170
 6708SOL     OW31756   1.974   4.263   4.843 -0.1029 -0.3042 -0.5732
 6708SOL    HW131757   1.959   4.299   4.756  2.0011  1.7681 -0.0878
 6708SOL    HW231758   2.045   4.318   4.877 -0.7949 -1.6550  3.0244
 6709SOL     OW31759   2.729   4.498  13.576  0.4495  0.4306  0.0316
 6709SOL    HW131760   2.702   4.504  13.484 -1.0756  0.8599  0.4991
 6709SOL    HW231761   2.645   4.489  13.623  1.1397 -1.7808  0.8463
 6710SOL     OW31762   1.549   1.458   3.891  0.1413 -0.2824 -0.2684
 6710SOL    HW131763   1.491   1.521   3.847 -0.4916 -2.0294 -1.9310
 6710SOL    HW231764   1.617   1.452   3.824 -1.3502 -0.4230 -1.7619
 6711SOL     OW31765   0.027   3.801   2.614  0.3074 -0.7594  0.2090
 6711SOL    HW131766   0.004   3.821   2.704  0.2075 -1.3570  0.3144
 6711SOL    HW231767   0.098   3.863   2.598  0.5547 -1.0831  0.0399
 6712SOL     OW31768   1.141   2.567   5.255 -0.1890  0.1465  0.0913
 6712SOL    HW131769   1.142   2.647   5.307 -1.6853  1.8092 -2.4244
 6712SOL    HW231770   1.228   2.563   5.217 -0.1836  2.3783 -0.1340
 6713SOL     OW31771   2.766   4.507   7.375  0.3760  0.4780 -0.3724
 6713SOL    HW131772   2.680   4.475   7.401  0.7348 -0.5551 -0.4633
 6713SOL    HW231773   2.830   4.440   7.398 -0.2621  0.5621  1.6134
 6714SOL     OW31774   1.502   4.103   7.008 -0.3395 -0.1491 -0.1259
 6714SOL    HW131775   1.458   4.025   7.041  1.0751 -0.9906 -0.2193
 6714SOL    HW231776   1.592   4.071   7.021 -0.4955 -0.3069  0.5564
 6715SOL     OW31777   1.506   1.912  10.062  0.2344  0.3233 -0.3602
 6715SOL    HW131778   1.429   1.896  10.007  1.6869  0.1657 -2.3625
 6715SOL    HW231779   1.468   1.977  10.121  0.7211  1.0085 -0.8113
 6716SOL     OW31780   3.650   3.359   8.892  0.1730  0.2249  0.1913
 6716SOL    HW131781   3.697   3.442   8.895  1.3669 -0.4537  0.0423
 6716SOL    HW231782   3.620   3.354   8.983 -0.6967  0.2835 -0.0887
 6717SOL     OW31783   3.141   2.024  15.526  0.5403  0.1930  0.0332
 6717SOL    HW131784   3.174   2.111  15.548  1.6784 -0.8999  2.7156
 6717SOL    HW231785   3.216   1.966  15.541  1.3501  1.4301  0.7180
 6718SOL     OW31786   3.497   1.727   2.262  0.4278 -0.5724 -0.3569
 6718SOL    HW131787   3.462   1.782   2.332  0.0926 -2.6935  1.1585
 6718SOL    HW231788   3.443   1.759   2.190  1.1704  1.4685  0.0028
 6719SOL     OW31789   0.503   3.053  14.000  0.1042 -0.3691  0.6631
 6719SOL    HW131790   0.409   3.068  14.004  0.2625  0.6303  0.7238
 6719SOL    HW231791   0.507   2.966  13.960  1.2771  0.7325 -1.6525
 6720SOL     OW31792   4.224   4.233  11.073 -0.2943  0.0297  0.0559
 6720SOL    HW131793   4.295   4.243  11.137  0.5035 -0.7421 -0.7049
 6720SOL    HW231794   4.267   4.178  11.007 -1.2187 -2.9109  1.9400
 6721SOL     OW31795   1.634   0.662   4.406  0.6103 -0.0120 -0.1624
 6721SOL    HW131796   1.570   0.602   4.369 -1.2854  2.3294 -0.6711
 6721SOL    HW231797   1.594   0.736   4.360  1.4940 -0.0498 -0.9872
 6722SOL     OW31798   3.232   1.017   6.812  0.4594  0.1248 -1.1030
 6722SOL    HW131799   3.290   1.022   6.736  2.2163  3.1277  0.4358
 6722SOL    HW231800   3.160   0.964   6.778  0.4079 -1.4178  1.3848
 6723SOL     OW31801   2.923   3.367  15.368  0.6565  0.3411  0.1609
 6723SOL    HW131802   2.940   3.461  15.365 -0.5530  0.6195  2.0965
 6723SOL    HW231803   2.849   3.367  15.306  0.2030 -0.7214  0.6962
 6724SOL     OW31804   0.235   3.661   2.256 -0.2870  0.1025  0.0701
 6724SOL    HW131805   0.208   3.746   2.222 -1.9715 -1.1506 -1.6947
 6724SOL    HW231806   0.324   3.650   2.222 -0.7559  1.9365 -1.8001
 6725SOL     OW31807   4.044   2.480  12.228  0.0126  0.4234 -0.1794
 6725SOL    HW131808   4.088   2.395  12.226 -2.1157 -0.7064  2.0756
 6725SOL    HW231809   4.084   2.525  12.302  0.3441  0.1603 -0.1955
 6726SOL     OW31810   1.511   1.588   5.637 -0.2479  0.3069  0.5802
 6726SOL    HW131811   1.525   1.646   5.712  2.0957 -0.8268  0.9974
 6726SOL    HW231812   1.597   1.579   5.598 -0.9166  0.6756 -0.9911
 6727SOL     OW31813   1.401   3.624  12.948  0.0276  0.3497 -0.1346
 6727SOL    HW131814   1.487   3.664  12.961 -0.2284  0.8790 -0.0770
 6727SOL    HW231815   1.364   3.618  13.036 -4.1072 -0.8562 -1.9436
 6728SOL     OW31816   2.345   1.167   8.141 -0.6404  0.7768 -0.5541
 6728SOL    HW131817   2.264   1.122   8.167  1.1691 -2.1476  0.0316
 6728SOL    HW231818   2.343   1.148   8.047  0.5763 -1.5960 -0.1096
 6729SOL     OW31819   1.757   1.731   6.072  0.1439 -0.0969  0.0296
 6729SOL    HW131820   1.777   1.816   6.112  0.0228  0.3239 -0.8102
 6729SOL    HW231821   1.773   1.667   6.142  1.2553 -0.5356 -0.6345
 6730SOL     OW31822   2.591   1.509   4.082 -0.0817 -0.2359 -0.2357
 6730SOL    HW131823   2.539   1.548   4.153  1.1792 -0.5465  0.8586
 6730SOL    HW231824   2.521   1.461   4.037  0.6326 -1.1212 -0.4051
 6731SOL     OW31825   1.283   2.542   3.091 -0.1083  0.2655  0.5381
 6731SOL    HW131826   1.224   2.536   3.166 -2.5068  3.2330 -1.0732
 6731SOL    HW231827   1.366   2.531   3.136  0.1467  1.9993  0.5169
 6732SOL     OW31828   2.073   3.130   6.925 -0.9609  0.3114  0.2279
 6732SOL    HW131829   1.995   3.150   6.873 -2.1743 -1.5184  1.3659
 6732SOL    HW231830   2.040   3.052   6.969  0.4937 -0.6568 -0.3791
 6733SOL     OW31831   4.370   0.331   5.286 -0.4341  0.1341  0.3067
 6733SOL    HW131832   4.464   0.341   5.300 -0.6861  2.1470  0.5376
 6733SOL    HW231833   4.368   0.235   5.277  1.2462  0.2489 -1.1666
 6734SOL     OW31834   2.457   2.306  10.038  0.1513  0.2242  0.0123
 6734SOL    HW131835   2.441   2.351  10.121 -0.2067 -1.1744  0.7044
 6734SOL    HW231836   2.455   2.213  10.059 -3.0682  0.7393  2.0307
 6735SOL     OW31837   1.700   1.132   3.555  0.2963 -0.4003  0.0438
 6735SOL    HW131838   1.684   1.146   3.462 -1.7472  0.2278  0.4921
 6735SOL    HW231839   1.795   1.129   3.551  0.2314  0.1137 -1.7439
 6736SOL     OW31840   4.112   3.811   6.097  0.2319  0.5634 -0.0738
 6736SOL    HW131841   4.075   3.760   6.026 -0.2978 -1.4051  1.6357
 6736SOL    HW231842   4.159   3.877   6.045  0.5811  0.5535  0.2247
 6737SOL     OW31843   4.650   0.123  10.978 -0.6666 -0.3028  0.3943
 6737SOL    HW131844   4.579   0.113  10.915  0.9392 -3.0898 -1.0072
 6737SOL    HW231845   4.638   0.068  11.056 -2.0744  0.2262  0.5482
 6738SOL     OW31846   2.166   1.351   4.378 -0.2319 -0.1447  0.0262
 6738SOL    HW131847   2.172   1.279   4.441 -2.9843 -0.4633 -0.0550
 6738SOL    HW231848   2.074   1.371   4.394 -0.6752 -0.5756 -1.9962
 6739SOL     OW31849   2.005   3.713   5.565  0.6035  0.2622 -0.1567
 6739SOL    HW131850   2.086   3.762   5.553  0.7049  0.1858  0.2212
 6739SOL    HW231851   1.975   3.727   5.655  0.9751 -1.8555  0.2971
 6740SOL     OW31852   1.593   2.089   8.940  0.4046  0.4479 -0.3341
 6740SOL    HW131853   1.656   2.151   8.977 -0.7001  1.8338 -0.7811
 6740SOL    HW231854   1.541   2.145   8.882  0.1833 -0.0169 -0.5827
 6741SOL     OW31855   0.352   4.350  11.002 -0.2338  0.6481  0.1969
 6741SOL    HW131856   0.291   4.276  10.995 -0.8070  0.9844  1.7153
 6741SOL    HW231857   0.339   4.385  10.913  1.2944 -0.9582 -0.6526
 6742SOL     OW31858   3.791   0.751   6.164 -0.4587 -0.3873  0.0447
 6742SOL    HW131859   3.757   0.750   6.253 -1.9756  0.7460 -0.5270
 6742SOL    HW231860   3.878   0.792   6.172 -1.2019  0.7534  2.3478
 6743SOL     OW31861   3.813   4.596   2.657 -0.4447 -0.1893 -0.3761
 6743SOL    HW131862   3.818   4.551   2.572 -0.3433  1.3446 -1.1724
 6743SOL    HW231863   3.843   4.525   2.714 -0.6620  0.3269  0.3831
 6744SOL     OW31864   3.508   3.984  12.112 -0.0914  0.4990 -0.5279
 6744SOL    HW131865   3.493   3.978  12.018 -0.3231  1.4750 -0.5544
 6744SOL    HW231866   3.448   3.914  12.138 -0.6478  1.5926  1.1475
 6745SOL     OW31867   4.051   3.325   3.458 -0.1134 -0.1260  0.3536
 6745SOL    HW131868   3.960   3.295   3.457 -0.3710  0.7039 -1.3063
 6745SOL    HW231869   4.101   3.249   3.427 -1.8017 -0.5842 -1.2694
 6746SOL     OW31870   3.281   1.769  14.099 -0.7747 -0.1818 -0.3596
 6746SOL    HW131871   3.245   1.690  14.140 -0.8368  0.4097  0.7336
 6746SOL    HW231872   3.315   1.739  14.014  2.2137 -0.7919  1.0598
 6747SOL     OW31873   0.587   3.792   2.931 -0.1900 -0.2715 -0.3047
 6747SOL    HW131874   0.570   3.751   3.016  1.0707 -1.9509 -0.8765
 6747SOL    HW231875   0.653   3.738   2.888  1.3493  1.4867 -0.1517
 6748SOL     OW31876   0.661   4.608  12.241  0.2441 -0.5309 -0.5299
 6748SOL    HW131877   0.739   4.663  12.239 -0.7100  0.8007 -1.1224
 6748SOL    HW231878   0.698   4.534  12.193 -0.5193 -0.9592 -0.4642
 6749SOL     OW31879   2.594   4.716  15.550  0.3763 -0.2647 -0.4354
 6749SOL    HW131880   2.544   0.028  15.483  0.3064  0.8567  0.3837
 6749SOL    HW231881   2.670   0.035  15.573  0.9382 -0.7486 -1.2201
 6750SOL     OW31882   2.274   4.490   8.117 -0.0205  0.5431  0.2895
 6750SOL    HW131883   2.209   4.527   8.177 -1.5338 -1.4046 -0.1500
 6750SOL    HW231884   2.215   4.451   8.053 -0.1880  1.8110 -0.3338
 6751SOL     OW31885   1.811   0.421  15.617 -0.1910  0.0577 -0.2974
 6751SOL    HW131886   1.798   0.508  15.655 -1.7980  0.3636 -1.5385
 6751SOL    HW231887   1.757   0.367  15.675 -0.2266 -0.9606 -1.2764
 6752SOL     OW31888   3.910   1.831   4.456 -0.4803 -0.3061 -0.1737
 6752SOL    HW131889   3.930   1.809   4.366  1.3381 -0.4340  0.2631
 6752SOL    HW231890   3.828   1.787   4.480  0.1398 -1.2611  0.1889
 6753SOL     OW31891   2.266   4.358   3.998 -0.6106 -0.5242 -0.0915
 6753SOL    HW131892   2.319   4.437   4.009 -0.6641 -0.1816 -2.2311
 6753SOL    HW231893   2.317   4.290   3.955  0.0056  0.0286 -0.2458
 6754SOL     OW31894   3.564   4.195   9.257  0.1626 -0.5136 -0.3615
 6754SOL    HW131895   3.589   4.284   9.283  0.2895 -0.5257 -0.4421
 6754SOL    HW231896   3.508   4.158   9.325 -1.1519  1.8919 -0.1451
 6755SOL     OW31897   1.283   4.440  15.558 -0.2517 -0.7658 -0.0997
 6755SOL    HW131898   1.251   4.378  15.492 -2.6193  0.3904 -0.0459
 6755SOL    HW231899   1.246   4.403  15.638 -0.8519 -0.2965 -0.1643
 6756SOL     OW31900   0.737   3.541   3.221  0.2227  0.3092 -0.1334
 6756SOL    HW131901   0.738   3.588   3.304  0.0644 -0.1762  0.1460
 6756SOL    HW231902   0.736   3.450   3.252 -0.4963  0.6310  0.7583
 6757SOL     OW31903   2.769   0.396   4.746 -0.0865  0.0539 -0.0260
 6757SOL    HW131904   2.794   0.333   4.678 -0.6708  0.1127 -0.2915
 6757SOL    HW231905   2.859   0.417   4.769  0.8668 -2.4672 -1.5237
 6758SOL     OW31906   1.658   0.975  12.209  0.1629 -0.4953 -0.0412
 6758SOL    HW131907   1.683   1.009  12.295 -0.9975 -1.3410  0.6233
 6758SOL    HW231908   1.608   0.897  12.232  1.1733 -0.5140  2.0772
 6759SOL     OW31909   3.513   2.294   5.713 -0.2208 -0.6595  0.6258
 6759SOL    HW131910   3.546   2.375   5.752  1.2043 -0.9058 -0.0890
 6759SOL    HW231911   3.441   2.279   5.774 -0.9669  1.9761  0.4015
 6760SOL     OW31912   3.384   1.914   2.988  0.5312  0.3327  0.0010
 6760SOL    HW131913   3.289   1.923   2.985  0.4358 -0.0906  1.4573
 6760SOL    HW231914   3.398   2.008   2.985 -1.8564  0.7116  0.6135
 6761SOL     OW31915   2.955   4.308  15.424  0.5681 -0.0568 -0.0088
 6761SOL    HW131916   2.961   4.401  15.401 -2.5284  0.4573  1.2507
 6761SOL    HW231917   2.984   4.267  15.343  0.6873  0.1051 -0.0487
 6762SOL     OW31918   2.295   3.174  14.532  0.5184 -0.5303 -0.4591
 6762SOL    HW131919   2.261   3.197  14.445 -0.0485  1.3571  0.2490
 6762SOL    HW231920   2.258   3.088  14.548 -1.7253  0.5269  0.0538
 6763SOL     OW31921   2.073   1.461  13.375  0.0307  0.1837 -0.2378
 6763SOL    HW131922   2.048   1.456  13.468  2.0071  1.4482  0.3597
 6763SOL    HW231923   2.036   1.546  13.351  0.5436  1.0796  2.1168
 6764SOL     OW31924   0.589   0.175   4.859 -0.3515  0.0017 -0.2445
 6764SOL    HW131925   0.512   0.180   4.915 -0.1911 -2.7445  0.2235
 6764SOL    HW231926   0.649   0.230   4.909 -1.3583  1.8899 -1.1216
 6765SOL     OW31927   3.113   1.100   8.839 -0.5987  0.3268  0.3556
 6765SOL    HW131928   3.071   1.086   8.924 -0.0368 -0.0486  0.5749
 6765SOL    HW231929   3.206   1.102   8.863 -0.4482  1.8293 -0.3939
 6766SOL     OW31930   1.361   0.088  17.311  0.2498  0.2732  0.1829
 6766SOL    HW131931   1.353   0.077  17.216  3.3896  1.1268 -0.1955
 6766SOL    HW231932   1.271   0.109  17.333 -0.6034 -1.5216 -1.6059
 6767SOL     OW31933   2.293   4.287   2.096  0.5711 -0.3716 -0.2338
 6767SOL    HW131934   2.382   4.252   2.104  0.9637  0.8339  0.5639
 6767SOL    HW231935   2.285   4.285   2.001  0.9056 -1.3107 -0.2428
 6768SOL     OW31936   4.279   4.283   9.243 -0.6967  0.8117  0.0137
 6768SOL    HW131937   4.279   4.369   9.201  0.9544  1.4350  1.2947
 6768SOL    HW231938   4.198   4.257   9.198 -1.6631  1.3977  1.4063
 6769SOL     OW31939   3.777   1.211  15.652 -0.0171  0.1642  0.1571
 6769SOL    HW131940   3.722   1.200  15.574 -0.3512  0.7340  0.3169
 6769SOL    HW231941   3.735   1.154  15.716  0.7821  0.3225  0.8067
 6770SOL     OW31942   0.498   3.193   7.746  0.2550 -0.2373 -0.2467
 6770SOL    HW131943   0.544   3.148   7.676 -2.9028 -2.9754 -0.5896
 6770SOL    HW231944   0.533   3.282   7.739  2.2677 -0.8576  1.7450
 6771SOL     OW31945   0.456   4.141   0.910 -0.2278  0.4123  0.0636
 6771SOL    HW131946   0.433   4.216   0.965  0.4718  1.4249 -1.0406
 6771SOL    HW231947   0.548   4.127   0.929 -0.1755 -0.2313 -0.6591
 6772SOL     OW31948   3.789   0.479   4.155 -0.1732  0.5053  0.1194
 6772SOL    HW131949   3.786   0.574   4.165 -0.6288  0.3921  1.1783
 6772SOL    HW231950   3.856   0.445   4.096 -1.2060 -1.5011  0.0979
 6773SOL     OW31951   3.359   4.347  13.951  0.3203 -0.3845 -0.1507
 6773SOL    HW131952   3.375   4.341  13.857 -0.3932  2.3162 -0.4360
 6773SOL    HW231953   3.396   4.431  13.978  2.2345 -1.7407  1.4705
 6774SOL     OW31954   4.093   3.861   9.662 -0.1883  0.4462 -0.5795
 6774SOL    HW131955   4.019   3.891   9.714  0.4360  1.5373 -0.3350
 6774SOL    HW231956   4.090   3.922   9.588 -1.6201  0.7959 -0.2356
 6775SOL     OW31957   3.618   2.533   1.250  0.1399  0.0461 -0.0178
 6775SOL    HW131958   3.589   2.623   1.239 -0.3474 -0.2970 -1.5139
 6775SOL    HW231959   3.638   2.494   1.165  1.1502  1.6367 -0.5079
 6776SOL     OW31960   3.328   1.002   2.334 -0.2326  0.2418  0.1690
 6776SOL    HW131961   3.246   0.987   2.288  0.1176 -0.2876 -0.2859
 6776SOL    HW231962   3.332   1.097   2.322 -0.2581  0.2357  0.1141
 6777SOL     OW31963   4.144   3.432   9.660  0.1384  0.3304  0.0429
 6777SOL    HW131964   4.212   3.372   9.629  1.3995  1.3976  0.7479
 6777SOL    HW231965   4.163   3.510   9.607  1.0463  1.6667  2.3117
 6778SOL     OW31966   1.092   4.159   8.197 -0.5582  0.4592  0.3856
 6778SOL    HW131967   1.137   4.243   8.191  1.4369 -0.7781 -1.6839
 6778SOL    HW231968   1.160   4.097   8.222  0.1078  0.6360 -0.9636
 6779SOL     OW31969   1.055   3.819   5.059 -0.2743 -0.1335  0.0886
 6779SOL    HW131970   1.035   3.729   5.084 -1.7505  0.0585 -0.4458
 6779SOL    HW231971   1.123   3.811   4.992 -0.3151 -1.3380  0.1797
 6780SOL     OW31972   0.359   4.216   2.112 -0.0301 -0.2413 -1.0747
 6780SOL    HW131973   0.271   4.213   2.074 -0.2167  0.8314 -0.7225
 6780SOL    HW231974   0.344   4.277   2.184 -2.0691 -0.8919 -0.9562
 6781SOL     OW31975   3.863   2.683   5.205 -0.3754  0.2910 -0.1850
 6781SOL    HW131976   3.830   2.661   5.292 -2.6920  0.9372 -0.8881
 6781SOL    HW231977   3.839   2.604   5.157 -1.5554 -0.2944  1.3517
 6782SOL     OW31978   0.945   0.174  10.452  0.7021 -0.1047 -0.2072
 6782SOL    HW131979   0.885   0.151  10.380 -1.2389 -0.2963  1.4667
 6782SOL    HW231980   0.884   0.217  10.511 -0.7713  0.0097 -1.7906
 6783SOL     OW31981   3.664   1.015  11.675 -0.5832  0.4687  0.1365
 6783SOL    HW131982   3.574   1.035  11.648 -0.1074  1.0879 -1.0009
 6783SOL    HW231983   3.720   1.054  11.609 -0.7437  0.0292 -0.2633
 6784SOL     OW31984   1.119   1.960   5.995  0.3553  0.0342  0.4729
 6784SOL    HW131985   1.191   2.019   6.021  0.1858  0.2213  0.5197
 6784SOL    HW231986   1.104   2.005   5.912  0.2573 -1.2360 -0.1947
 6785SOL     OW31987   1.944   3.079  14.353 -0.2205 -0.0142 -0.7771
 6785SOL    HW131988   2.039   3.083  14.342 -0.3216  1.7368 -1.1744
 6785SOL    HW231989   1.911   3.144  14.290 -0.0899  1.4775  0.6835
 6786SOL     OW31990   2.607   0.274  16.557  0.1439 -0.0026  0.2823
 6786SOL    HW131991   2.634   0.186  16.532 -1.1195  0.0412 -1.2475
 6786SOL    HW231992   2.615   0.273  16.652 -1.4191 -0.5001  0.4032
 6787SOL     OW31993   1.384   2.480   6.801  0.1066 -0.2571 -0.0465
 6787SOL    HW131994   1.380   2.567   6.762 -1.3534 -0.7959 -1.0627
 6787SOL    HW231995   1.385   2.510   6.892  0.4653  1.2011 -0.5309
 6788SOL     OW31996   2.480   1.459  17.516  0.3798 -0.2200  0.3736
 6788SOL    HW131997   2.543   1.413  17.460  1.1364  0.2446  0.8485
 6788SOL    HW231998   2.446   1.403  17.585 -2.8016  1.5722  0.2363
 6789SOL     OW31999   0.710   1.587   5.118 -0.1274 -0.0330  0.2440
 6789SOL    HW132000   0.662   1.516   5.161 -0.9481  1.0713  1.1417
 6789SOL    HW232001   0.746   1.527   5.052 -0.0001 -0.6554  0.8727
 6790SOL     OW32002   4.482   3.875  17.126 -0.2525 -0.0346 -0.2410
 6790SOL    HW132003   4.485   3.909  17.037  0.8080  0.2570 -0.0882
 6790SOL    HW232004   4.561   3.820  17.123 -0.1172 -0.0069  2.2533
 6791SOL     OW32005   1.719   2.276  15.006 -0.0995 -0.2216  0.3120
 6791SOL    HW132006   1.743   2.199  14.954  3.5996  0.0994  1.4759
 6791SOL    HW232007   1.630   2.247  15.026  1.0109 -0.8862  4.3539
 6792SOL     OW32008   1.462   1.631   8.094  0.6548 -0.3730  0.0763
 6792SOL    HW132009   1.401   1.588   8.152 -0.8769 -0.3810 -1.5418
 6792SOL    HW232010   1.422   1.606   8.011  0.7523  0.5039 -0.2434
 6793SOL     OW32011   0.647   1.259   6.998  0.3645  0.0490 -0.1467
 6793SOL    HW132012   0.618   1.345   7.029  1.3462 -0.1152  1.2571
 6793SOL    HW232013   0.736   1.287   6.973  0.8883 -0.0598  1.5927
 6794SOL     OW32014   1.735   1.820   4.376 -0.1416  0.3129 -0.3037
 6794SOL    HW132015   1.673   1.827   4.448  1.9341  0.6494  1.4860
 6794SOL    HW232016   1.713   1.729   4.357 -1.0733  0.3795  0.4821
 6795SOL     OW32017   1.185   3.578   4.622  0.0230 -0.1887  0.3512
 6795SOL    HW132018   1.270   3.615   4.643 -0.8181  1.6911  0.4622
 6795SOL    HW232019   1.130   3.653   4.598  1.0119  0.5026  0.2579
 6796SOL     OW32020   2.594   0.392   6.128  0.7860 -0.4475 -0.2914
 6796SOL    HW132021   2.575   0.350   6.043  0.2375  1.0654 -0.9110
 6796SOL    HW232022   2.602   0.485   6.105 -2.6578  0.3642  1.8768
 6797SOL     OW32023   0.803   4.212  13.619  0.5899  0.0557 -0.0952
 6797SOL    HW132024   0.836   4.269  13.688  0.7873  0.3171 -0.4046
 6797SOL    HW232025   0.835   4.127  13.650  0.5454 -0.2332 -0.8294
 6798SOL     OW32026   0.047   2.991  12.378 -0.0226 -0.3483  0.1595
 6798SOL    HW132027   0.003   2.942  12.447 -0.1519 -2.0710 -1.1418
 6798SOL    HW232028   4.730   2.979  12.298  1.3129 -1.2273 -0.5512
 6799SOL     OW32029   0.904   0.699   1.150  0.2845  0.4618 -0.2415
 6799SOL    HW132030   0.860   0.772   1.194 -0.0363  0.6041 -0.8068
 6799SOL    HW232031   0.854   0.678   1.072 -0.9092  2.9143 -0.1536
 6800SOL     OW32032   4.092   4.158   0.901  0.0573 -0.2556  0.3771
 6800SOL    HW132033   4.117   4.068   0.879  1.6224  0.1865  0.3084
 6800SOL    HW232034   3.997   4.158   0.914  0.4242 -2.9329  3.1504
 6801SOL     OW32035   3.775   1.539  17.164 -0.1705  0.4862 -0.2165
 6801SOL    HW132036   3.823   1.541  17.081  1.4815  0.1074  0.7367
 6801SOL    HW232037   3.830   1.488  17.224 -1.4059 -0.4817  0.0832
 6802SOL     OW32038   3.406   1.864   3.734 -0.3366 -0.1416 -0.0261
 6802SOL    HW132039   3.432   1.844   3.644 -2.3763 -0.7508 -0.4974
 6802SOL    HW232040   3.414   1.958   3.719  0.1938 -0.4219 -1.5002
 6803SOL     OW32041   3.921   3.785  14.597 -0.2489 -0.4674  0.4262
 6803SOL    HW132042   3.935   3.730  14.520 -1.1163  0.0884 -0.1204
 6803SOL    HW232043   3.833   3.813  14.571  0.5955  1.5408 -0.2908
 6804SOL     OW32044   2.918   0.408   8.779 -0.3759 -0.0464 -0.3473
 6804SOL    HW132045   2.860   0.421   8.705  0.0603  0.2091 -0.6466
 6804SOL    HW232046   2.871   0.451   8.851  0.6846  0.8485 -0.1712
 6805SOL     OW32047   1.307   4.666   6.398  0.0966  0.2108 -0.3751
 6805SOL    HW132048   1.307   4.679   6.493 -4.5829 -0.3984 -0.2627
 6805SOL    HW232049   1.400   4.685   6.389  0.1603  0.9247  2.0059
 6806SOL     OW32050   2.042   2.368   8.262  0.2298 -0.0929 -0.1601
 6806SOL    HW132051   2.100   2.355   8.186  0.8338  0.8872  0.1285
 6806SOL    HW232052   1.986   2.291   8.271  1.4319 -0.9325  0.3169
 6807SOL     OW32053   3.232   4.429   6.311 -0.1004  0.0919 -0.3294
 6807SOL    HW132054   3.224   4.443   6.217  0.9101 -1.1168 -0.5962
 6807SOL    HW232055   3.146   4.464   6.333  0.6813  0.9791  1.3117
 6808SOL     OW32056   0.657   1.465   4.417  0.2829 -0.4349  0.2686
 6808SOL    HW132057   0.644   1.558   4.433  0.6752  0.4287 -4.4538
 6808SOL    HW232058   0.575   1.443   4.373  0.7712  0.6834 -1.1885
 6809SOL     OW32059   1.005   1.552   2.189  0.3408  0.2740 -0.1331
 6809SOL    HW132060   0.912   1.530   2.181  0.1766  0.6397  0.7741
 6809SOL    HW232061   1.043   1.479   2.139 -1.6173 -1.3844  0.7936
 6810SOL     OW32062   0.195   2.805   3.392  0.4613  0.1823  0.2621
 6810SOL    HW132063   0.224   2.875   3.450 -0.3283  2.4232 -2.0751
 6810SOL    HW232064   0.284   2.788   3.360 -0.6653  0.1722 -2.8739
 6811SOL     OW32065   4.499   0.937  12.500 -0.2253 -0.6589 -0.2564
 6811SOL    HW132066   4.511   1.000  12.429  0.7545  2.1363  2.3681
 6811SOL    HW232067   4.417   0.958  12.546  1.0014  0.7018  1.3394
 6812SOL     OW32068   1.826   2.759  16.959  0.1509 -0.7737  0.4825
 6812SOL    HW132069   1.858   2.811  17.032  1.6321 -0.1979 -0.5855
 6812SOL    HW232070   1.779   2.692  17.009  2.1085 -0.7017  2.4076
 6813SOL     OW32071   3.366   2.613   2.003 -0.5308  0.2255  0.1879
 6813SOL    HW132072   3.392   2.524   1.982  2.0929  0.9768  0.3203
 6813SOL    HW232073   3.271   2.609   1.989 -0.1847 -4.3567 -0.6075
 6814SOL     OW32074   2.636   3.369   4.135  0.6086 -0.2474  0.0111
 6814SOL    HW132075   2.729   3.390   4.143  0.8338 -1.7861  1.5660
 6814SOL    HW232076   2.635   3.274   4.127 -0.8622 -0.2060 -0.2788
 6815SOL     OW32077   0.087   4.057   7.130 -0.4324 -0.5612 -0.4510
 6815SOL    HW132078   0.110   4.133   7.183  0.2766 -0.8921 -0.2807
 6815SOL    HW232079   0.140   3.994   7.178 -1.0922  0.0052  1.0233
 6816SOL     OW32080   0.063   3.896  12.634  0.1854 -0.3880  0.1928
 6816SOL    HW132081   4.725   3.850  12.591  1.5098 -3.3658  1.1723
 6816SOL    HW232082   0.090   3.952  12.561  0.9304 -1.3867 -0.2967
 6817SOL     OW32083   2.585   2.499   2.539  0.0773  0.3536  0.1128
 6817SOL    HW132084   2.616   2.542   2.459 -0.0354  1.9321  0.9076
 6817SOL    HW232085   2.516   2.558   2.570 -0.0691 -1.0612  2.5056
 6818SOL     OW32086   1.056   3.671  12.343 -0.1244 -0.6104 -0.2838
 6818SOL    HW132087   1.053   3.588  12.295  0.2369 -0.0190 -1.3164
 6818SOL    HW232088   1.117   3.639  12.409 -1.0702 -0.1286  0.8265
 6819SOL     OW32089   0.292   0.184   1.544  0.1963  0.4089  0.6294
 6819SOL    HW132090   0.352   0.258   1.541 -0.1845  0.6957  0.0054
 6819SOL    HW232091   0.212   0.216   1.585  1.7225  1.7193  2.5565
 6820SOL     OW32092   2.652   4.528   2.978 -0.3262  0.2142 -0.2749
 6820SOL    HW132093   2.682   4.522   3.069  0.5643  0.5942 -0.5421
 6820SOL    HW232094   2.733   4.566   2.942  0.1839 -0.8645 -0.2697
 6821SOL     OW32095   3.998   0.073   9.441 -0.6067 -0.2859  0.5510
 6821SOL    HW132096   4.082   0.064   9.397 -1.5836  1.2601 -1.6220
 6821SOL    HW232097   4.000   0.168   9.442 -2.7332 -0.2498  2.3343
 6822SOL     OW32098   1.446   4.138   4.861  0.1996  0.2022 -0.3153
 6822SOL    HW132099   1.482   4.050   4.853  0.8778  0.2392  2.5035
 6822SOL    HW232100   1.510   4.192   4.813  0.1025 -0.4484 -1.1822
 6823SOL     OW32101   1.541   2.556  16.565 -0.3042 -0.3557 -0.2916
 6823SOL    HW132102   1.551   2.647  16.594  0.2953  0.0244 -1.7372
 6823SOL    HW232103   1.519   2.520  16.652  0.8356 -2.5740 -0.9114
 6824SOL     OW32104   3.159   3.274   8.468 -0.2769  0.2848 -0.3827
 6824SOL    HW132105   3.224   3.291   8.535  1.6966 -2.3193 -1.6558
 6824SOL    HW232106   3.121   3.361   8.459 -0.3965  0.3256  0.5635
 6825SOL     OW32107   3.159   3.153   5.425  0.4649  0.3240  0.0964
 6825SOL    HW132108   3.176   3.089   5.494  0.0239 -0.1120 -0.1988
 6825SOL    HW232109   3.064   3.144   5.425  0.4208  0.7240 -0.6989
 6826SOL     OW32110   1.386   4.090   0.107  0.0119 -0.5656 -0.1562
 6826SOL    HW132111   1.447   4.035   0.059 -0.7317 -1.8235  0.3645
 6826SOL    HW232112   1.348   4.142   0.036  0.3719  0.0725  0.1190
 6827SOL     OW32113   3.063   4.688   7.373  0.4307  0.0217  0.1515
 6827SOL    HW132114   3.141   4.638   7.346  0.8694  1.0397 -0.4565
 6827SOL    HW232115   3.056   4.639   7.455 -0.4593  0.9631  0.6214
 6828SOL     OW32116   1.213   4.590   1.915  0.1426  0.3319 -0.4949
 6828SOL    HW132117   1.175   4.534   1.983  0.8610  0.0283 -0.3362
 6828SOL    HW232118   1.147   4.582   1.846  0.6080  2.4596 -1.1714
 6829SOL     OW32119   4.385   0.966  16.545  0.0654  0.1427 -0.0819
 6829SOL    HW132120   4.298   0.985  16.580 -0.5546 -2.4442 -0.2391
 6829SOL    HW232121   4.439   1.038  16.578  1.0223  0.1094 -1.5385
 6830SOL     OW32122   3.697   0.937  10.451  0.1096  0.8029  0.1270
 6830SOL    HW132123   3.711   1.030  10.430 -0.4554  0.8070 -0.2204
 6830SOL    HW232124   3.622   0.920  10.394 -0.2234  0.6515  0.6105
 6831SOL     OW32125   4.069   1.434   1.259 -0.3346 -0.2324  0.3830
 6831SOL    HW132126   4.087   1.459   1.168  1.3313 -0.6802  0.5824
 6831SOL    HW232127   4.089   1.341   1.249  0.8059  0.3567 -2.8749
 6832SOL     OW32128   3.550   1.926   5.769  0.0089  0.2883  0.2188
 6832SOL    HW132129   3.455   1.929   5.764  0.0422  0.4905 -0.3900
 6832SOL    HW232130   3.573   1.838   5.739 -0.3765 -0.2849  1.6393
 6833SOL     OW32131   2.075   4.029   4.749 -0.5140 -0.4037  0.0941
 6833SOL    HW132132   2.161   4.067   4.730 -0.5544 -1.2398 -1.8443
 6833SOL    HW232133   2.034   4.116   4.754 -2.3761 -1.1987 -1.2006
 6834SOL     OW32134   1.441   1.294   8.365  0.3079  0.0857  0.5868
 6834SOL    HW132135   1.366   1.251   8.324  1.2501  0.3528 -1.4506
 6834SOL    HW232136   1.424   1.385   8.341 -0.6179  0.4147  2.4895
 6835SOL     OW32137   3.297   4.294  15.279  0.0872  0.1809  0.1306
 6835SOL    HW132138   3.258   4.342  15.206 -0.3567  2.6196  1.9841
 6835SOL    HW232139   3.340   4.217  15.242 -2.1840 -0.0372 -2.0278
 6836SOL     OW32140   4.001   4.072   4.685  0.5738 -0.2014 -0.8842
 6836SOL    HW132141   3.977   3.994   4.736  0.8510  1.8004  2.3205
 6836SOL    HW232142   3.930   4.134   4.699 -0.0441 -1.3984  1.2664
 6837SOL     OW32143   3.412   0.870   5.598 -0.0708  0.1752 -0.2092
 6837SOL    HW132144   3.436   0.841   5.511 -1.3740  0.6071 -0.7122
 6837SOL    HW232145   3.483   0.934   5.609 -0.6398  0.7151  0.3033
 6838SOL     OW32146   0.979   1.418   2.924  0.0232 -0.1935 -0.3154
 6838SOL    HW132147   0.951   1.478   2.993  0.3578 -0.5903  0.1653
 6838SOL    HW232148   1.061   1.457   2.894  0.9671 -3.5122 -2.0629
 6839SOL     OW32149   2.932   3.637  15.451 -0.0350 -0.7930 -0.4768
 6839SOL    HW132150   2.915   3.719  15.405 -0.6219 -1.8253 -2.0741
 6839SOL    HW232151   2.892   3.656  15.536  0.5423  0.1799 -0.4239
 6840SOL     OW32152   0.078   0.101   7.399 -0.5142 -0.2430  0.0979
 6840SOL    HW132153   0.170   0.093   7.424 -0.9494 -0.8589  1.5049
 6840SOL    HW232154   0.070   0.184   7.351 -0.0266  0.1736  0.7409
 6841SOL     OW32155   3.949   3.004  10.487 -0.2883  0.0614 -0.2390
 6841SOL    HW132156   4.024   2.991  10.429 -0.2765  0.0102 -0.2114
 6841SOL    HW232157   3.947   3.099  10.504 -1.6418 -0.3021  1.7059
 6842SOL     OW32158   4.690   4.651  12.431 -0.4973  0.4606  0.2151
 6842SOL    HW132159   4.712   4.592  12.503 -1.2910 -1.1170 -0.8347
 6842SOL    HW232160   4.628   4.606  12.374 -0.3550  0.8739 -0.2672
 6843SOL     OW32161   3.358   3.043   7.495  0.1640 -0.1313  0.8774
 6843SOL    HW132162   3.439   3.088   7.521  1.6669 -2.4484  0.1447
 6843SOL    HW232163   3.386   2.957   7.526 -0.8934 -0.6853  0.2828
 6844SOL     OW32164   3.112   4.660   1.937 -0.0862 -0.0523  0.4091
 6844SOL    HW132165   3.018   4.648   1.949 -0.2911 -0.2752 -1.4981
 6844SOL    HW232166   3.115   0.015   1.971 -0.1580  0.1987 -0.2438
 6845SOL     OW32167   1.184   4.250   5.649  0.2585  0.1742 -0.2736
 6845SOL    HW132168   1.245   4.206   5.708 -0.9596 -0.7627  0.2967
 6845SOL    HW232169   1.239   4.303   5.593  2.2429 -1.0541  0.5217
 6846SOL     OW32170   1.868   3.247   6.596 -0.0923  0.6228 -0.1756
 6846SOL    HW132171   1.852   3.341   6.587 -2.2674  0.1862 -0.8913
 6846SOL    HW232172   1.794   3.231   6.654 -0.4512 -0.7031 -0.9948
 6847SOL     OW32173   2.576   4.166   7.669  0.2883 -0.0475  0.4972
 6847SOL    HW132174   2.640   4.099   7.692 -1.3442 -1.6959  0.1979
 6847SOL    HW232175   2.502   4.116   7.635  0.0810  0.7048 -0.1607
 6848SOL     OW32176   3.673   2.210   9.262 -0.5007 -0.4407  0.3629
 6848SOL    HW132177   3.665   2.292   9.213 -0.6361 -1.9966 -2.1977
 6848SOL    HW232178   3.722   2.242   9.338  0.5648 -1.9588  0.3310
 6849SOL     OW32179   4.197   3.842  11.475  0.2352 -0.5220  0.0504
 6849SOL    HW132180   4.240   3.873  11.395  1.2028  0.5652  0.9921
 6849SOL    HW232181   4.174   3.928  11.510 -0.8147 -1.1110  0.7932
 6850SOL     OW32182   2.627   2.886   3.365 -0.3888 -0.1688 -0.4769
 6850SOL    HW132183   2.658   2.942   3.436  0.5039 -1.1247 -0.1192
 6850SOL    HW232184   2.702   2.826   3.362  0.3525  0.8254 -1.6504
 6851SOL     OW32185   2.789   3.158   9.297 -0.5843  0.1247 -0.3593
 6851SOL    HW132186   2.827   3.225   9.241 -2.3501  0.3603 -1.2914
 6851SOL    HW232187   2.715   3.210   9.328  0.6334  2.5228 -1.4602
 6852SOL     OW32188   3.102   4.363   2.203  0.5406  0.0797 -0.1334
 6852SOL    HW132189   3.061   4.277   2.215  0.3169  0.3138  0.8081
 6852SOL    HW232190   3.193   4.336   2.196  0.2042 -1.7675  2.4025
 6853SOL     OW32191   0.578   0.328   1.322  0.3777 -0.2315 -0.1025
 6853SOL    HW132192   0.493   0.319   1.279  0.1268  1.5193  0.0239
 6853SOL    HW232193   0.585   0.247   1.373  0.2421 -0.7435 -0.9007
 6854SOL     OW32194   1.013   4.399  15.467 -0.3900  0.0975 -0.2582
 6854SOL    HW132195   1.066   4.334  15.420  0.4409  1.4240 -1.1542
 6854SOL    HW232196   0.994   4.346  15.544  2.0227 -2.6372 -1.5450
 6855SOL     OW32197   1.474   2.224   6.775  0.0820  0.4305 -0.5426
 6855SOL    HW132198   1.556   2.242   6.821  0.3277 -1.3230 -0.2717
 6855SOL    HW232199   1.451   2.317   6.770 -3.2161 -0.1473  3.9249
 6856SOL     OW32200   3.071   1.986   9.363  0.9700 -0.0615 -0.2819
 6856SOL    HW132201   3.124   1.907   9.353  1.1685  0.0930 -0.4520
 6856SOL    HW232202   3.140   2.049   9.382 -0.0925  0.5469  1.6122
 6857SOL     OW32203   4.420   2.054   7.202  0.1401 -0.5293  0.1854
 6857SOL    HW132204   4.344   2.111   7.213 -0.1722 -1.2717  1.8578
 6857SOL    HW232205   4.383   2.002   7.130  0.4729 -0.4432 -0.0445
 6858SOL     OW32206   3.143   3.687   9.029 -0.3615 -0.3279 -0.4772
 6858SOL    HW132207   3.057   3.655   9.002 -0.8532  0.5688  0.0218
 6858SOL    HW232208   3.146   3.761   8.969  1.0476  0.1284  0.1501
 6859SOL     OW32209   1.287   0.480   4.497  0.1795 -0.1516  0.4568
 6859SOL    HW132210   1.272   0.572   4.517  0.6729 -0.2616  1.3401
 6859SOL    HW232211   1.201   0.438   4.495  0.2815 -0.2745 -1.9093
 6860SOL     OW32212   2.720   1.350   4.301  0.1341  0.3822  0.2625
 6860SOL    HW132213   2.674   1.389   4.227  1.1097  1.1854  0.0823
 6860SOL    HW232214   2.809   1.383   4.291  0.0272  0.0711 -1.6553
 6861SOL     OW32215   1.354   3.328  16.031 -0.1179  0.4449  0.0101
 6861SOL    HW132216   1.412   3.303  15.960  0.0909  2.0621 -0.3848
 6861SOL    HW232217   1.398   3.410  16.054 -0.3164  0.5997 -0.1613
 6862SOL     OW32218   1.008   1.476   8.573 -0.3052 -0.0778  0.4031
 6862SOL    HW132219   1.050   1.524   8.644 -1.2315  2.2480 -0.6130
 6862SOL    HW232220   0.987   1.396   8.622 -2.2856  0.4375  0.3746
 6863SOL     OW32221   0.124   3.941  11.564 -0.2732  0.0054 -0.1141
 6863SOL    HW132222   0.072   3.863  11.581 -2.2154  1.2431 -0.3407
 6863SOL    HW232223   0.059   4.011  11.557 -0.4049 -0.1019  0.0326
 6864SOL     OW32224   0.496   1.027   2.613 -0.0982  0.3565 -0.2744
 6864SOL    HW132225   0.572   0.969   2.609  0.1804  0.8478 -2.4898
 6864SOL    HW232226   0.449   1.007   2.532  0.0019 -2.8568  0.4769
 6865SOL     OW32227   4.397   0.161   8.890 -0.1716  0.2149  0.5611
 6865SOL    HW132228   4.432   0.150   8.802 -2.5982  2.7425 -0.7133
 6865SOL    HW232229   4.459   0.126   8.954  1.9267  1.0529 -1.0119
 6866SOL     OW32230   3.806   2.087  14.858  0.5008 -0.1582 -0.3055
 6866SOL    HW132231   3.815   2.051  14.946  0.3593 -0.5595 -0.4546
 6866SOL    HW232232   3.763   2.169  14.881  1.6665  0.9695 -2.1825
 6867SOL     OW32233   4.492   2.054   0.416  0.1744  0.5652  0.0297
 6867SOL    HW132234   4.532   2.090   0.495 -1.4709  0.3816  0.9482
 6867SOL    HW232235   4.447   1.978   0.454  1.1812  0.2354  0.5537
 6868SOL     OW32236   0.569   0.955   5.804 -0.2491 -0.0725 -0.0655
 6868SOL    HW132237   0.631   0.887   5.778 -0.2126  1.4399 -3.8721
 6868SOL    HW232238   0.541   0.991   5.720  0.0979  0.6358  0.1315
 6869SOL     OW32239   1.036   3.417   4.788  0.2242  0.1404 -0.0307
 6869SOL    HW132240   1.098   3.476   4.745  1.2708 -0.5463  0.5088
 6869SOL    HW232241   0.975   3.388   4.721 -0.4600 -1.0159  1.0831
 6870SOL     OW32242   0.060   2.422   3.357  0.1883  0.7676  0.0514
 6870SOL    HW132243   0.044   2.441   3.265  3.5731 -2.6838 -1.2348
 6870SOL    HW232244   0.149   2.388   3.349  0.3139  1.2996 -0.8170
 6871SOL     OW32245   1.731   3.312   5.867  0.0075  0.0990 -0.7978
 6871SOL    HW132246   1.703   3.391   5.913 -0.6117 -1.2476  1.1377
 6871SOL    HW232247   1.650   3.280   5.829 -0.1567  1.2681 -1.4270
 6872SOL     OW32248   3.000   1.847   7.587 -0.0217 -0.9272 -0.4253
 6872SOL    HW132249   3.039   1.817   7.505  2.3329  0.2745  0.2647
 6872SOL    HW232250   2.949   1.767   7.601  0.9055 -1.5395 -0.6045
 6873SOL     OW32251   1.339   3.746   3.593  0.5420  0.2879 -0.0187
 6873SOL    HW132252   1.286   3.784   3.523  0.3166 -0.8597 -0.4629
 6873SOL    HW232253   1.299   3.791   3.668  1.9390 -1.1390  1.5657
 6874SOL     OW32254   0.692   2.645   4.723 -0.3144 -0.8257 -0.0282
 6874SOL    HW132255   0.749   2.610   4.654  0.4048  1.7122 -0.7027
 6874SOL    HW232256   0.619   2.584   4.715 -0.0225 -1.1821  0.0125
 6875SOL     OW32257   2.506   1.086   7.629 -0.5542  0.1285  0.4994
 6875SOL    HW132258   2.584   1.141   7.630  0.7235 -1.6752 -1.6012
 6875SOL    HW232259   2.542   0.999   7.646  0.2951  0.5452  0.8212
 6876SOL     OW32260   0.653   2.124   7.866 -0.1785  0.3512  0.0128
 6876SOL    HW132261   0.616   2.045   7.907  0.1059 -1.2135 -2.7150
 6876SOL    HW232262   0.577   2.176   7.840 -1.8601 -1.4494  1.3136
 6877SOL     OW32263   4.182   2.454   9.418  0.1380 -0.7054 -0.0751
 6877SOL    HW132264   4.150   2.448   9.328  0.6344 -2.1919 -0.1671
 6877SOL    HW232265   4.192   2.547   9.434 -1.6919 -0.5252  0.0351
 6878SOL     OW32266   3.913   0.036   2.379 -0.3641  0.2345  0.7834
 6878SOL    HW132267   3.909   0.013   2.286 -1.7092  4.7650 -0.2899
 6878SOL    HW232268   3.824   0.072   2.383 -0.1757  0.4251  3.5069
 6879SOL     OW32269   2.428   1.030   2.897  0.2858 -0.0512 -0.3691
 6879SOL    HW132270   2.381   0.961   2.943  1.9685 -1.3306 -0.5731
 6879SOL    HW232271   2.418   1.099   2.963  0.2152  0.6956 -1.1557
 6880SOL     OW32272   1.937   3.871   4.374 -0.1365  0.0251 -0.4861
 6880SOL    HW132273   1.854   3.826   4.353 -1.3755  3.2660 -2.5351
 6880SOL    HW232274   1.967   3.821   4.450  0.3447  0.6741 -0.2567
 6881SOL     OW32275   4.665   0.514   8.667  0.2736  0.0234  0.0952
 6881SOL    HW132276   4.692   0.422   8.675  0.0114  0.0708  1.5495
 6881SOL    HW232277   4.617   0.508   8.585  0.0696  2.7088  0.0180
 6882SOL     OW32278   2.933   1.038   6.624 -0.0288 -0.2180 -0.4169
 6882SOL    HW132279   2.937   1.105   6.555  0.8166  2.0271  1.7793
 6882SOL    HW232280   2.909   0.961   6.574 -0.0645 -0.1651 -0.4817
 6883SOL     OW32281   3.598   2.828   4.722  0.3681 -0.6557 -0.3655
 6883SOL    HW132282   3.600   2.747   4.671 -1.3020  0.5708 -2.3814
 6883SOL    HW232283   3.592   2.803   4.814  0.0212 -1.3218 -0.5709
 6884SOL     OW32284   2.613   1.339  12.562  0.3788  0.4549 -0.0942
 6884SOL    HW132285   2.582   1.400  12.629 -0.0783  1.0906 -0.8981
 6884SOL    HW232286   2.611   1.259  12.614  1.1571  0.3008 -0.2958
 6885SOL     OW32287   1.333   2.937   8.291 -0.2551 -0.3723 -0.2339
 6885SOL    HW132288   1.368   2.973   8.372 -1.3702 -0.5252  0.3206
 6885SOL    HW232289   1.416   2.901   8.258 -0.5702  1.1932 -2.7057
 6886SOL     OW32290   2.983   2.399   3.078 -0.0051 -0.0585  0.8404
 6886SOL    HW132291   2.907   2.406   3.020  1.4111  0.0132 -1.0046
 6886SOL    HW232292   3.006   2.306   3.077  0.2601  0.0054  1.1619
 6887SOL     OW32293   2.732   0.415   8.563  0.0662 -0.2709 -0.2503
 6887SOL    HW132294   2.711   0.362   8.486  0.2366  1.7728 -1.7123
 6887SOL    HW232295   2.653   0.387   8.609  0.1571  0.2801  0.2392
 6888SOL     OW32296   2.202   2.981   5.952  0.4044 -0.2952 -0.2721
 6888SOL    HW132297   2.188   2.889   5.930 -0.5085 -0.4477  0.8931
 6888SOL    HW232298   2.283   2.981   6.003 -0.0112  2.2940  0.3855
 6889SOL     OW32299   2.003   2.519   7.971 -0.1542  0.1645  0.8710
 6889SOL    HW132300   1.935   2.569   7.926  2.5844  0.3741 -2.9598
 6889SOL    HW232301   2.084   2.546   7.928  1.3492 -0.0098  3.5229
 6890SOL     OW32302   1.611   2.400   6.163 -0.3948 -0.1003 -0.0256
 6890SOL    HW132303   1.641   2.320   6.207  3.3206  0.7218 -1.0288
 6890SOL    HW232304   1.680   2.464   6.182 -1.5219  1.1247 -0.0961
 6891SOL     OW32305   2.559   0.791   0.692  0.1219 -0.2863  0.1125
 6891SOL    HW132306   2.530   0.881   0.674 -0.8357 -0.2270  2.0218
 6891SOL    HW232307   2.610   0.810   0.771 -0.9739 -0.5627  0.8868
 6892SOL     OW32308   1.840   4.303   9.679 -0.8418 -0.5632 -0.4015
 6892SOL    HW132309   1.746   4.316   9.668 -0.9156  1.1642  2.1883
 6892SOL    HW232310   1.857   4.350   9.761 -1.1614  1.0552 -1.2578
 6893SOL     OW32311   1.608   4.232  13.330  0.2148  0.4201 -0.2896
 6893SOL    HW132312   1.512   4.235  13.330  0.1990  0.0989 -2.7802
 6893SOL    HW232313   1.626   4.324  13.346  2.0158 -0.5304  3.0296
 6894SOL     OW32314   2.905   1.741   2.324  0.4976  0.1839 -0.4686
 6894SOL    HW132315   2.833   1.747   2.261  0.1269  0.2075 -0.0442
 6894SOL    HW232316   2.961   1.666   2.306  0.0443  0.0645 -1.3893
 6895SOL     OW32317   0.151   0.447  17.199 -0.6093 -0.0366  0.4939
 6895SOL    HW132318   0.193   0.432  17.283 -1.8901  0.5901  1.2403
 6895SOL    HW232319   0.060   0.465  17.221 -0.8812  1.6761 -1.9939
 6896SOL     OW32320   2.534   3.991   3.707 -0.3249 -0.1558  0.1653
 6896SOL    HW132321   2.588   3.952   3.637 -1.2929 -1.4554  0.1471
 6896SOL    HW232322   2.520   3.913   3.760  1.3346  0.1214  1.0229
 6897SOL     OW32323   2.287   2.603   4.724 -0.0414 -0.1103 -0.2490
 6897SOL    HW132324   2.261   2.542   4.793 -0.3993  1.3082  0.8895
 6897SOL    HW232325   2.209   2.653   4.700  1.3494  3.4810  2.6462
 6898SOL     OW32326   0.100   3.106   3.913 -0.2665  0.1428 -0.5332
 6898SOL    HW132327   0.074   3.084   4.002 -0.8483 -0.7606 -0.9300
 6898SOL    HW232328   0.184   3.060   3.914  0.8201  2.1301  0.0079
 6899SOL     OW32329   3.595   4.656  13.527  0.3046  0.4425 -0.4783
 6899SOL    HW132330   3.688   4.649  13.508 -0.0242  0.6213 -2.2098
 6899SOL    HW232331   3.583   4.625  13.617  0.7838 -0.6395 -0.7804
 6900SOL     OW32332   3.693   0.178   4.909 -0.2883 -0.7967 -0.0903
 6900SOL    HW132333   3.625   0.110   4.905 -1.1542  0.0382  0.4697
 6900SOL    HW232334   3.677   0.202   5.000  2.2184 -0.4969  0.2702
 6901SOL     OW32335   2.881   2.534   8.089 -0.1413  0.1556 -0.2203
 6901SOL    HW132336   2.971   2.501   8.097  0.8393  2.0498 -3.4691
 6901SOL    HW232337   2.895   2.621   8.051  1.0832  0.2376  0.3954
 6902SOL     OW32338   4.708   3.555   4.184  0.3628  0.1395  0.3147
 6902SOL    HW132339   4.668   3.473   4.155  1.2936 -0.4017  0.5430
 6902SOL    HW232340   0.023   3.577   4.105  0.0844  1.3048  0.4754
 6903SOL     OW32341   2.844   0.382   2.501 -0.2033  0.0149 -0.0659
 6903SOL    HW132342   2.848   0.475   2.523 -1.9942 -0.3194  1.6955
 6903SOL    HW232343   2.759   0.356   2.536 -0.2621 -0.2407 -0.4032
 6904SOL     OW32344   2.842   2.972   7.492  0.2855 -0.5306  0.1202
 6904SOL    HW132345   2.902   3.044   7.474 -2.5475  1.8947  0.3666
 6904SOL    HW232346   2.881   2.931   7.569  1.5810 -1.1973 -0.9016
 6905SOL     OW32347   2.571   0.078  16.133 -0.8701  0.5557  0.1807
 6905SOL    HW132348   2.480   0.109  16.131 -0.3432  2.0099 -1.2477
 6905SOL    HW232349   2.568   0.024  16.212 -2.9706  0.3460 -0.0298
 6906SOL     OW32350   1.895   3.836   5.336  0.0023 -0.4037 -0.0806
 6906SOL    HW132351   1.912   3.907   5.398 -0.2013  1.1747 -1.8221
 6906SOL    HW232352   1.892   3.767   5.403  2.5165  0.6350  1.1017
 6907SOL     OW32353   0.919   0.405   6.611  0.3287 -0.1411  0.2017
 6907SOL    HW132354   0.886   0.461   6.681 -2.2819  0.5201 -1.5535
 6907SOL    HW232355   0.982   0.345   6.651 -1.4861  0.5377  4.0684
 6908SOL     OW32356   1.237   3.207   1.991  0.4191  0.8528  0.7539
 6908SOL    HW132357   1.261   3.116   2.009 -1.5118  0.3725  0.9176
 6908SOL    HW232358   1.252   3.204   1.897  0.6254  0.5679  0.7942
 6909SOL     OW32359   0.545   4.689   8.921  0.2637 -0.3928  0.1464
 6909SOL    HW132360   0.470   4.658   8.870  0.6778 -0.1049 -0.6300
 6909SOL    HW232361   0.557   4.615   8.981 -1.5846 -1.8027 -1.2223
 6910SOL     OW32362   4.287   1.404   0.231 -0.2259  0.1062 -0.5279
 6910SOL    HW132363   4.363   1.461   0.244 -1.7795  2.2605 -0.7648
 6910SOL    HW232364   4.278   1.413   0.137  0.9187 -2.1203 -0.8435
 6911SOL     OW32365   2.319   2.246   1.089 -0.3234  0.3660  0.8641
 6911SOL    HW132366   2.318   2.164   1.040  0.5595  0.9622 -0.1600
 6911SOL    HW232367   2.246   2.296   1.051 -0.2307  0.3107  0.6157
 6912SOL     OW32368   4.387   0.642   5.528  0.3747  0.3834  0.1163
 6912SOL    HW132369   4.393   0.662   5.621 -0.2083  0.9236  0.0416
 6912SOL    HW232370   4.312   0.583   5.533  1.3664 -0.8283  0.8073
 6913SOL     OW32371   3.999   1.122   6.020 -0.4889  0.3669 -0.2867
 6913SOL    HW132372   3.980   1.041   5.973 -0.7875  0.8453 -0.9861
 6913SOL    HW232373   4.067   1.094   6.082 -0.4758 -0.6589 -0.7618
 6914SOL     OW32374   1.097   4.276   9.845 -0.2637  0.0528  0.1141
 6914SOL    HW132375   1.129   4.193   9.882  0.4832 -0.2803 -1.2920
 6914SOL    HW232376   1.113   4.256   9.753 -2.6711  1.2684 -0.5703
 6915SOL     OW32377   2.944   0.854   2.782  0.0344  0.0983  0.3356
 6915SOL    HW132378   2.866   0.907   2.799 -1.0601 -1.7056  0.9566
 6915SOL    HW232379   2.930   0.793   2.855  0.3846  2.1323  2.0873
 6916SOL     OW32380   1.192   1.142   3.048  0.2230  0.2818  0.0459
 6916SOL    HW132381   1.245   1.222   3.053  0.4770  0.1650 -0.7828
 6916SOL    HW232382   1.265   1.084   3.028  0.6920  0.9935 -0.3210
 6917SOL     OW32383   0.639   1.423  15.896 -0.1185 -0.1009 -0.3802
 6917SOL    HW132384   0.703   1.355  15.917  0.6513  0.7909  0.2224
 6917SOL    HW232385   0.647   1.485  15.969  1.4152  0.0606 -0.6745
 6918SOL     OW32386   1.232   0.474   6.122 -0.0418  0.2879 -0.1778
 6918SOL    HW132387   1.189   0.491   6.206  0.8762  0.8708  0.1809
 6918SOL    HW232388   1.187   0.537   6.066  0.8954  1.9570  0.9328
 6919SOL     OW32389   0.525   0.956  17.513  0.3978 -0.2329 -0.0370
 6919SOL    HW132390   0.433   0.931  17.510  0.9618 -2.2470 -0.4399
 6919SOL    HW232391   0.545   0.930  17.603  2.1870 -2.0918 -0.9579
 6920SOL     OW32392   0.362   3.354   4.854  0.5980 -0.3632 -0.2389
 6920SOL    HW132393   0.413   3.297   4.912  0.7174  0.3548  0.3715
 6920SOL    HW232394   0.426   3.425   4.846 -0.0700  0.2208 -0.3706
 6921SOL     OW32395   1.323   4.509   3.637 -0.2569 -0.3890 -0.5667
 6921SOL    HW132396   1.321   4.544   3.548  0.2726  2.3790  0.5137
 6921SOL    HW232397   1.419   4.500   3.637 -0.1601  0.6333 -0.2596
 6922SOL     OW32398   4.000   0.235   5.820  0.1100 -0.1573 -0.0939
 6922SOL    HW132399   4.020   0.305   5.882  2.1315  0.3906 -1.3875
 6922SOL    HW232400   4.036   0.159   5.866  0.1794  1.2221  2.1513
 6923SOL     OW32401   4.619   1.296   4.109 -0.1598 -0.4668 -0.0639
 6923SOL    HW132402   4.686   1.297   4.041 -0.7412  4.5517 -0.5404
 6923SOL    HW232403   4.544   1.270   4.055 -0.2672  0.2440 -0.2545
 6924SOL     OW32404   0.243   0.041   8.395 -0.1411  0.0234  0.0967
 6924SOL    HW132405   0.149   0.040   8.377  0.0829  2.3515 -1.2194
 6924SOL    HW232406   0.268   4.708   8.331  0.7438  2.4925 -2.1669
 6925SOL     OW32407   4.720   4.043   3.149 -0.0811 -0.2470 -0.9420
 6925SOL    HW132408   0.067   4.073   3.109  1.2930 -1.8599  0.6488
 6925SOL    HW232409   4.674   4.126   3.140  0.6012  0.1412 -0.7762
 6926SOL     OW32410   0.969   3.726   8.181 -0.1249  0.1628 -0.3284
 6926SOL    HW132411   0.885   3.766   8.157  0.3611 -0.9610 -3.9204
 6926SOL    HW232412   0.992   3.783   8.255  0.5435 -2.0708  1.1852
 6927SOL     OW32413   3.293   4.144   7.678 -0.2891  0.2066 -0.1632
 6927SOL    HW132414   3.308   4.226   7.725  2.2494  0.8064 -2.0130
 6927SOL    HW232415   3.228   4.103   7.735  0.6724 -0.7587  0.2420
 6928SOL     OW32416   3.449   4.403   2.906  0.3484 -0.3607  0.1784
 6928SOL    HW132417   3.471   4.387   2.997 -0.8181 -2.8627  0.0156
 6928SOL    HW232418   3.361   4.366   2.900 -0.7437  2.2053  0.0523
 6929SOL     OW32419   1.674   0.857   6.398 -0.5585  0.4783  0.0433
 6929SOL    HW132420   1.600   0.806   6.431 -1.5447  0.6996 -1.8783
 6929SOL    HW232421   1.677   0.827   6.308  1.1264 -1.2952  0.6781
 6930SOL     OW32422   4.731   1.585   8.596 -0.1753  0.0725 -0.1159
 6930SOL    HW132423   0.023   1.605   8.506  2.6587 -0.0454  0.6813
 6930SOL    HW232424   4.640   1.555   8.593 -0.8603  2.2360 -1.2789
 6931SOL     OW32425   1.656   1.779   0.447  0.4347  0.8449  0.2599
 6931SOL    HW132426   1.620   1.813   0.530 -1.6760 -0.5243 -0.0979
 6931SOL    HW232427   1.645   1.686   0.468 -1.2278  1.0625  0.3526
 6932SOL     OW32428   2.333   1.090   8.473  0.7209  0.2678 -0.2484
 6932SOL    HW132429   2.256   1.099   8.416  1.0660  2.7550 -0.3237
 6932SOL    HW232430   2.356   1.000   8.451 -0.1821  0.0408 -0.2506
 6933SOL     OW32431   0.236   4.328   6.982  0.2882 -0.0355 -0.3156
 6933SOL    HW132432   0.285   4.292   7.056  0.3346  0.9149  0.1127
 6933SOL    HW232433   0.179   4.390   7.026  1.3500  1.0623 -0.4917
 6934SOL     OW32434   4.117   1.177   7.729 -0.1741  0.0648  0.4990
 6934SOL    HW132435   4.162   1.255   7.762 -0.4848  0.7677 -0.7172
 6934SOL    HW232436   4.160   1.167   7.645 -0.2080 -0.1640  0.5081
 6935SOL     OW32437   4.049   4.208   9.126 -0.0499 -0.6995  0.5698
 6935SOL    HW132438   4.046   4.169   9.039 -0.6168  1.2184 -0.2748
 6935SOL    HW232439   3.959   4.241   9.125  0.6412  1.1672 -1.0931
 6936SOL     OW32440   4.689   3.111   0.415  0.3617 -0.0360 -0.5028
 6936SOL    HW132441   4.690   3.168   0.492  0.9025  0.4315 -0.8512
 6936SOL    HW232442   0.038   3.065   0.431  1.2620  1.3119 -1.3149
 6937SOL     OW32443   1.896   3.224   4.238 -0.0057 -0.1765 -0.3356
 6937SOL    HW132444   1.898   3.154   4.172 -1.2601  1.6883 -2.3596
 6937SOL    HW232445   1.818   3.267   4.202  0.3941  1.9677  1.4155
 6938SOL     OW32446   2.303   1.203   5.631  0.1531  0.5589 -0.2471
 6938SOL    HW132447   2.339   1.115   5.617 -2.9519 -0.7970  0.2849
 6938SOL    HW232448   2.327   1.234   5.544  2.7065  0.4876  0.4461
 6939SOL     OW32449   3.919   4.515   6.759  0.3055  0.1256  0.4825
 6939SOL    HW132450   4.002   4.494   6.802 -0.4374 -1.1910  1.3078
 6939SOL    HW232451   3.862   4.528   6.835 -0.1260  0.6719  0.0596
 6940SOL     OW32452   0.355   4.597   1.438 -0.0261  0.2790 -0.1753
 6940SOL    HW132453   0.261   4.617   1.445 -0.1254 -0.9225  1.8362
 6940SOL    HW232454   0.357   4.520   1.495 -0.6812 -1.4824 -2.5063
 6941SOL     OW32455   4.113   0.210   7.478  0.2569 -0.1362 -0.4532
 6941SOL    HW132456   4.177   0.199   7.408  1.1974  2.1682  0.0373
 6941SOL    HW232457   4.175   0.227   7.549 -0.6145  1.5559 -0.0853
 6942SOL     OW32458   2.041   0.454   3.850 -0.4559  0.3049 -0.0574
 6942SOL    HW132459   2.024   0.424   3.940  2.4042 -2.6493 -0.5023
 6942SOL    HW232460   2.041   0.549   3.861  0.9461  0.3663 -0.6311
 6943SOL     OW32461   4.684   0.121   8.442  0.0380  0.1117 -0.1112
 6943SOL    HW132462   4.619   0.104   8.510  1.8080  1.7620  1.9614
 6943SOL    HW232463   4.714   0.209   8.465  2.8261 -0.3659 -1.9220
 6944SOL     OW32464   2.134   3.549   3.519 -0.1043  0.2966 -0.5947
 6944SOL    HW132465   2.159   3.619   3.459  1.5966 -1.0238 -1.3987
 6944SOL    HW232466   2.040   3.563   3.535 -0.2943  0.6628 -2.0318
 6945SOL     OW32467   0.855   1.455  16.132 -0.2940  0.1448 -0.5355
 6945SOL    HW132468   0.886   1.499  16.212  0.1333 -1.0391 -0.0585
 6945SOL    HW232469   0.761   1.445  16.141 -0.5510  1.3056 -1.8504
 6946SOL     OW32470   0.916   3.247   7.790 -0.1265 -0.4193 -0.0131
 6946SOL    HW132471   0.861   3.234   7.867  1.4382 -2.4013  0.7689
 6946SOL    HW232472   1.004   3.252   7.829  0.5308 -1.0927 -1.4275
 6947SOL     OW32473   3.227   1.535   4.357 -0.3843 -0.0305  0.2328
 6947SOL    HW132474   3.250   1.585   4.435  0.7743 -0.3859  0.1213
 6947SOL    HW232475   3.302   1.476   4.345 -0.6494  0.1007 -2.1143
 6948SOL     OW32476   4.481   4.504   0.556  0.4995 -0.2367  0.3663
 6948SOL    HW132477   4.566   4.539   0.583  0.0646 -0.2134  1.7351
 6948SOL    HW232478   4.459   4.446   0.629 -0.2916 -1.1968 -0.6523
 6949SOL     OW32479   2.972   0.322   3.275  0.0764 -0.5075 -0.0848
 6949SOL    HW132480   2.966   0.343   3.182  1.7263  0.7183  0.0846
 6949SOL    HW232481   3.042   0.257   3.277 -1.7233 -2.5695 -4.2575
 6950SOL     OW32482   3.018   3.560   9.593 -0.3660 -0.2490  0.4787
 6950SOL    HW132483   3.068   3.486   9.628  0.3936  0.3553  0.6839
 6950SOL    HW232484   2.929   3.537   9.617 -0.4619 -1.2730 -0.8334
 6951SOL     OW32485   3.591   2.670   4.358 -0.3266  0.7329  0.1800
 6951SOL    HW132486   3.666   2.673   4.417 -1.4688 -1.1909  1.7144
 6951SOL    HW232487   3.520   2.644   4.417 -0.9327  1.2704 -0.3047
 6952SOL     OW32488   0.628   0.547   1.476  0.4078 -0.1621  0.0473
 6952SOL    HW132489   0.565   0.507   1.536 -0.3217 -0.5997 -0.9970
 6952SOL    HW232490   0.660   0.469   1.430 -1.9215 -1.3455  0.4451
 6953SOL     OW32491   1.275   0.275   3.781  0.4760 -0.6330 -0.2641
 6953SOL    HW132492   1.285   0.193   3.830 -0.0139 -1.2887 -1.2671
 6953SOL    HW232493   1.328   0.271   3.701  2.4463 -0.5782  1.0336
 6954SOL     OW32494   0.326   0.009   7.475  0.3628  0.3014  0.0387
 6954SOL    HW132495   0.303   4.657   7.510 -0.4596 -0.5989 -2.7595
 6954SOL    HW232496   0.403   4.725   7.422  0.0521 -0.5766 -0.1159
 6955SOL     OW32497   3.739   3.054  11.406 -0.2960  0.1283  0.0971
 6955SOL    HW132498   3.733   2.959  11.406 -1.6979  0.2171  1.3016
 6955SOL    HW232499   3.829   3.067  11.436  0.5367 -1.4834 -1.7041
 6956SOL     OW32500   2.503   2.575  14.479  0.5496  0.0256  0.2725
 6956SOL    HW132501   2.543   2.591  14.564  2.3819 -4.0749  0.1487
 6956SOL    HW232502   2.413   2.566  14.512  0.3702  1.1815  0.1024
 6957SOL     OW32503   2.103   0.056   7.457  0.4239 -0.0557  1.2509
 6957SOL    HW132504   2.135   0.145   7.448 -2.5150  0.7097 -1.3915
 6957SOL    HW232505   2.040   0.052   7.386  2.0264  0.8358 -0.2148
 6958SOL     OW32506   1.849   2.586  14.054 -0.6128 -0.1966 -0.3598
 6958SOL    HW132507   1.889   2.652  14.110 -2.7391 -0.8265  1.9530
 6958SOL    HW232508   1.922   2.527  14.033  1.0887  1.5994  0.5039
 6959SOL     OW32509   3.011   2.330   6.747  0.1824 -0.1077  0.1544
 6959SOL    HW132510   3.028   2.319   6.841 -1.2654 -0.4958  0.3800
 6959SOL    HW232511   3.039   2.246   6.710 -1.5563 -0.6901  0.1290
 6960SOL     OW32512   2.307   4.548   1.180 -0.0615  0.6311 -0.0455
 6960SOL    HW132513   2.295   4.573   1.272  0.2940 -0.4383  0.2988
 6960SOL    HW232514   2.394   4.509   1.191  0.2334  0.4383 -3.0449
 6961SOL     OW32515   3.370   2.449   2.713 -0.3113  0.0665  0.0297
 6961SOL    HW132516   3.414   2.501   2.780 -0.1481 -1.6844  1.2817
 6961SOL    HW232517   3.279   2.478   2.724 -0.5410 -0.9150  0.6483
 6962SOL     OW32518   4.061   1.606  14.772  0.1791 -0.5164  0.3258
 6962SOL    HW132519   4.110   1.534  14.733  0.4238 -1.0788  1.6792
 6962SOL    HW232520   4.068   1.576  14.863  1.8961  0.2550  0.4489
 6963SOL     OW32521   2.629   0.961   1.864 -0.1315  0.1293 -0.7590
 6963SOL    HW132522   2.665   0.927   1.783  0.5020 -0.3343 -0.2852
 6963SOL    HW232523   2.570   0.886   1.876  1.5073 -0.9472  0.5766
 6964SOL     OW32524   2.324   3.371   4.977 -0.3055  0.3863  0.5050
 6964SOL    HW132525   2.413   3.339   4.959 -0.4695  1.0230 -1.5501
 6964SOL    HW232526   2.323   3.452   4.925  2.8474 -0.2091 -0.5381
 6965SOL     OW32527   1.477   3.627   4.695 -0.1473 -0.0111  0.7113
 6965SOL    HW132528   1.527   3.707   4.682  0.7798 -0.4401  1.6519
 6965SOL    HW232529   1.549   3.564   4.701 -1.1351 -1.1484  0.7917
 6966SOL     OW32530   4.203   2.585   8.736  0.2071  0.3437 -0.0883
 6966SOL    HW132531   4.272   2.646   8.710 -0.5548  0.1043 -2.6698
 6966SOL    HW232532   4.221   2.504   8.687  1.9849 -0.4325  1.8046
 6967SOL     OW32533   4.461   3.580   7.237  0.5734  0.2760  0.0746
 6967SOL    HW132534   4.390   3.640   7.217  1.1665  0.8011 -0.4750
 6967SOL    HW232535   4.414   3.498   7.248 -0.5543  0.9760  0.4150
 6968SOL     OW32536   2.728   1.812  15.023 -0.3395  0.1993  0.1918
 6968SOL    HW132537   2.683   1.732  14.993 -1.0939  0.2809  1.1252
 6968SOL    HW232538   2.684   1.890  14.989  1.9569  1.4156  0.0210
 6969SOL     OW32539   2.185   0.120   4.468 -0.0921 -0.0736  0.1234
 6969SOL    HW132540   2.257   0.184   4.465  1.2726 -1.5492  1.9934
 6969SOL    HW232541   2.110   0.180   4.468 -0.9321 -1.1166 -2.4211
 6970SOL     OW32542   1.919   2.978   7.385 -0.5014 -0.3437 -0.1032
 6970SOL    HW132543   1.979   3.027   7.328 -1.2641  1.0727  0.3179
 6970SOL    HW232544   1.954   2.889   7.379  1.9313  0.5500  0.8310
 6971SOL     OW32545   2.515   0.993  17.702 -0.5714  0.2004  0.5769
 6971SOL    HW132546   2.476   0.934   0.032  0.8954  0.3538  1.5890
 6971SOL    HW232547   2.579   0.935  17.662 -0.3173 -0.1436  1.4829
 6972SOL     OW32548   3.376   3.647   2.581  0.4522 -0.0156 -0.1343
 6972SOL    HW132549   3.286   3.679   2.574  0.3667  0.2983  2.2674
 6972SOL    HW232550   3.381   3.592   2.659  2.0507 -1.2274 -1.1001
 6973SOL     OW32551   1.513   3.965   9.771 -0.4875 -0.1798  0.1336
 6973SOL    HW132552   1.575   3.953   9.699 -0.3388  0.3084  0.1759
 6973SOL    HW232553   1.481   4.056   9.767  0.8821  0.3817  2.2263
 6974SOL     OW32554   1.565   2.913   9.064  0.1702 -0.3316 -0.3381
 6974SOL    HW132555   1.531   2.843   9.120 -0.9545  0.4931  0.0063
 6974SOL    HW232556   1.631   2.861   9.018  1.7682  0.4632  1.0746
 6975SOL     OW32557   1.003   3.249   3.677 -0.2430  0.0994 -0.3419
 6975SOL    HW132558   0.950   3.321   3.645  0.5228  0.4062 -0.9283
 6975SOL    HW232559   0.945   3.207   3.740  0.0097  1.0413  0.5077
 6976SOL     OW32560   3.112   3.512  10.833  0.3469 -0.5035 -0.2170
 6976SOL    HW132561   3.121   3.546  10.922 -2.0508  1.9754 -0.9304
 6976SOL    HW232562   3.019   3.523  10.815  0.4586 -0.7521 -0.9524
 6977SOL     OW32563   2.422   0.252  17.438 -0.6492  0.6688 -0.7281
 6977SOL    HW132564   2.415   0.305  17.517  0.7669  0.6857 -0.6159
 6977SOL    HW232565   2.417   0.161  17.465  1.8956  0.9779  0.7548
 6978SOL     OW32566   4.011   1.064   7.953  0.1667  0.5315  0.0422
 6978SOL    HW132567   4.097   1.024   7.966 -0.2354 -0.3997 -0.1114
 6978SOL    HW232568   4.034   1.125   7.883  0.8015  0.0204 -0.1942
 6979SOL     OW32569   2.006   2.074   1.688  0.3950 -0.2850 -0.2894
 6979SOL    HW132570   2.058   2.012   1.740  0.0008 -0.9395 -0.6780
 6979SOL    HW232571   2.056   2.075   1.606 -0.2946  0.3725 -0.6944
 6980SOL     OW32572   3.621   1.736  17.363 -0.0114  0.3911  0.9333
 6980SOL    HW132573   3.681   1.746  17.437 -0.6210  2.9216  1.0674
 6980SOL    HW232574   3.635   1.643  17.345  0.8698  0.3395  1.9461
 6981SOL     OW32575   0.846   2.927   8.109  0.8976 -0.1136 -0.3930
 6981SOL    HW132576   0.932   2.954   8.079  1.6491 -2.0026  0.0455
 6981SOL    HW232577   0.867   2.854   8.168  1.5168  2.2682  2.3055
 6982SOL     OW32578   1.296   2.775  13.734  0.3350  0.5172  0.3045
 6982SOL    HW132579   1.358   2.839  13.770  1.2821 -0.0642 -0.2736
 6982SOL    HW232580   1.216   2.826  13.741  0.6998  0.6000  3.9806
 6983SOL     OW32581   0.168   2.350   5.980 -0.2553 -0.0940 -0.5596
 6983SOL    HW132582   0.206   2.387   6.060  2.0665 -0.7975 -1.3244
 6983SOL    HW232583   0.244   2.300   5.949  0.3992  1.2998 -1.2317
 6984SOL     OW32584   3.383   3.045  16.502 -0.1835  0.3175 -0.2337
 6984SOL    HW132585   3.291   3.030  16.521  0.1104 -0.1931  0.7738
 6984SOL    HW232586   3.384   3.140  16.495  2.9383  0.5075  2.8737
 6985SOL     OW32587   4.619   2.596   7.926  0.1886  0.2966 -0.6030
 6985SOL    HW132588   4.678   2.660   7.886 -0.3472  0.4330 -1.1593
 6985SOL    HW232589   4.538   2.645   7.932  1.4887  2.3267  0.2465
 6986SOL     OW32590   3.178   0.711   4.371 -0.5980 -0.3543 -0.3889
 6986SOL    HW132591   3.257   0.756   4.340 -1.2881  0.3251 -1.1676
 6986SOL    HW232592   3.115   0.783   4.376  0.3460  0.5480 -1.5078
 6987SOL     OW32593   3.140   2.768   0.672 -0.1763  0.2458 -0.0000
 6987SOL    HW132594   3.169   2.856   0.695  1.9354  0.3008 -2.8075
 6987SOL    HW232595   3.062   2.769   0.726  0.3035  0.9652  0.6843
 6988SOL     OW32596   2.810   0.098   0.391  0.0658  0.6316 -0.1637
 6988SOL    HW132597   2.817   0.186   0.429  1.7540 -0.2809  1.6494
 6988SOL    HW232598   2.715   0.089   0.391 -0.0471  1.8312 -1.0966
 6989SOL     OW32599   2.287   4.712   4.710  0.2375  0.2711 -0.7381
 6989SOL    HW132600   2.251   0.010   4.793 -0.0454 -0.6086 -0.5095
 6989SOL    HW232601   2.251   0.035   4.643  0.2782 -1.0076 -1.8516
 6990SOL     OW32602   0.070   2.914  12.758  0.9331 -0.1976  0.1421
 6990SOL    HW132603   0.092   2.827  12.789  2.2409 -0.3394 -1.2171
 6990SOL    HW232604   0.148   2.939  12.708 -0.4763  0.7198 -1.6302
 6991SOL     OW32605   3.814   3.679   5.317 -0.3137 -0.2103  0.1068
 6991SOL    HW132606   3.721   3.658   5.331 -0.0570 -0.9067  0.7576
 6991SOL    HW232607   3.821   3.774   5.307  0.4929 -0.2329  0.5334
 6992SOL     OW32608   1.927   4.565   9.434 -0.0786 -0.3342 -0.1338
 6992SOL    HW132609   2.013   4.573   9.391 -0.4317  0.1673 -0.7566
 6992SOL    HW232610   1.895   4.477   9.415  0.7044 -1.5661  4.3165
 6993SOL     OW32611   0.997   3.591   9.884 -0.6177  0.8458 -0.0234
 6993SOL    HW132612   0.931   3.534   9.847  0.1464  0.7561 -1.2393
 6993SOL    HW232613   1.043   3.525   9.937 -3.2893 -0.5597  0.5045
 6994SOL     OW32614   4.562   1.407   8.064  0.2427  0.2717 -0.0181
 6994SOL    HW132615   4.575   1.312   8.058  0.0336  0.2891 -0.8584
 6994SOL    HW232616   4.555   1.438   8.154  3.4116 -0.4832  0.4877
 6995SOL     OW32617   3.445   0.250   6.782 -0.1726  0.2261 -0.1191
 6995SOL    HW132618   3.514   0.289   6.835  0.9606 -0.5911 -0.9992
 6995SOL    HW232619   3.488   0.246   6.697 -1.3132 -2.1211 -0.5945
 6996SOL     OW32620   3.289   0.189   7.420 -0.2473  0.0589  0.0988
 6996SOL    HW132621   3.303   0.095   7.429 -1.8284 -0.2641 -0.7050
 6996SOL    HW232622   3.282   0.217   7.511  0.8404 -1.3815  0.6131
 6997SOL     OW32623   2.271   3.662   2.066  0.7999  0.3286  0.3841
 6997SOL    HW132624   2.200   3.599   2.076  0.3144  0.8330  0.0951
 6997SOL    HW232625   2.248   3.723   1.996 -0.1859  0.8867  1.1902
 6998SOL     OW32626   1.009   2.911   1.835  0.6142 -0.4091  0.2753
 6998SOL    HW132627   0.990   2.953   1.751  0.4496 -1.7464 -0.3428
 6998SOL    HW232628   1.087   2.856   1.826 -0.2099 -1.7596  1.5712
 6999SOL     OW32629   0.965   0.304   3.171 -0.7703  0.0698 -0.7463
 6999SOL    HW132630   1.031   0.360   3.128  0.9742 -0.7967  0.8078
 6999SOL    HW232631   0.924   0.363   3.234  1.0908 -0.0811  0.6045
 7000SOL     OW32632   3.956   3.818   3.522  0.3827  0.0588 -0.1084
 7000SOL    HW132633   3.979   3.757   3.591  0.0775  0.5689  0.4469
 7000SOL    HW232634   3.893   3.873   3.569 -0.2087 -0.2141 -0.5695
 7001SOL     OW32635   4.087   0.943   2.413  0.3661 -0.5028  0.1580
 7001SOL    HW132636   4.103   0.946   2.507  1.0399  3.4460 -0.1024
 7001SOL    HW232637   4.021   1.011   2.398 -0.2186 -0.8089  1.4171
 7002SOL     OW32638   2.735   0.305   7.253  0.3746 -0.4675 -0.1460
 7002SOL    HW132639   2.731   0.350   7.337  0.1361 -1.5547  0.4148
 7002SOL    HW232640   2.761   0.216   7.276 -2.2887 -0.9975  0.7787
 7003SOL     OW32641   1.169   3.206   7.380 -0.0448  0.0134  0.2822
 7003SOL    HW132642   1.251   3.241   7.416  0.6879 -0.5254 -0.8953
 7003SOL    HW232643   1.159   3.130   7.438  0.1619  1.1739  1.8439
 7004SOL     OW32644   0.025   1.448   5.340 -0.6951  0.0163  0.3545
 7004SOL    HW132645   4.729   1.427   5.252 -1.4574  0.6684  0.4626
 7004SOL    HW232646   4.682   1.417   5.387 -0.2090 -3.2224 -1.0108
 7005SOL     OW32647   0.437   0.944  14.896 -0.2156 -0.4561 -0.3769
 7005SOL    HW132648   0.461   0.987  14.814 -1.9323 -1.8469 -1.5713
 7005SOL    HW232649   0.512   0.889  14.920  0.0414 -0.1528 -0.4794
 7006SOL     OW32650   4.381   0.624  11.759 -0.4280 -0.2339  0.2480
 7006SOL    HW132651   4.442   0.611  11.686 -1.1502 -1.7095 -0.1039
 7006SOL    HW232652   4.439   0.656  11.828 -1.8474  0.9053  0.9219
 7007SOL     OW32653   1.971   2.313  13.851 -0.9265  0.1163  0.2181
 7007SOL    HW132654   1.952   2.295  13.943 -1.7253 -1.3269 -0.2406
 7007SOL    HW232655   2.020   2.395  13.853 -0.8180  0.0438  0.5306
 7008SOL     OW32656   2.902   3.176   2.738  0.6772  0.0207 -0.3859
 7008SOL    HW132657   2.882   3.104   2.678 -0.4554 -2.2110  2.7100
 7008SOL    HW232658   2.864   3.252   2.694 -0.9069 -2.8716 -4.0366
 7009SOL     OW32659   0.273   1.212   2.905  0.2321 -0.2000  0.9987
 7009SOL    HW132660   0.362   1.239   2.880 -0.1479 -0.3829 -0.5442
 7009SOL    HW232661   0.261   1.249   2.993  1.6612  1.0475  0.6732
 7010SOL     OW32662   4.670   3.299   8.184 -0.2277 -0.0675  0.2288
 7010SOL    HW132663   4.731   3.371   8.202  0.3177 -0.2432 -0.9240
 7010SOL    HW232664   4.586   3.345   8.181  0.7782  1.8176  0.9422
 7011SOL     OW32665   0.094   0.983   1.186 -0.0616 -0.1810 -0.2825
 7011SOL    HW132666   0.036   0.924   1.137 -0.2945 -1.8160  1.9498
 7011SOL    HW232667   0.164   0.923   1.212  0.8835  0.6077 -1.0367
 7012SOL     OW32668   2.090   0.497   4.587 -0.2726  0.6552  0.4314
 7012SOL    HW132669   2.144   0.418   4.579  0.0913  0.9346  0.1224
 7012SOL    HW232670   2.041   0.478   4.667 -2.1180  1.1358 -0.5967
 7013SOL     OW32671   2.734   4.661   6.291  0.1529 -0.1742 -0.1716
 7013SOL    HW132672   2.748   4.672   6.385  0.3269  2.1209 -0.4826
 7013SOL    HW232673   2.640   4.677   6.282  0.0995  0.1163  0.9505
 7014SOL     OW32674   4.531   1.247  17.093 -0.5254  0.4533 -0.1226
 7014SOL    HW132675   4.529   1.311  17.021 -0.5319 -2.2553 -2.5273
 7014SOL    HW232676   4.564   1.298  17.167 -0.2873  0.9164 -0.5405
 7015SOL     OW32677   0.227   4.406  12.519  0.0628  0.3930 -0.4649
 7015SOL    HW132678   0.150   4.399  12.575 -0.2029 -0.7040 -0.9769
 7015SOL    HW232679   0.295   4.369  12.576 -2.2084 -1.3040  1.1047
 7016SOL     OW32680   1.114   3.030   8.168 -0.3806  0.8447 -0.4402
 7016SOL    HW132681   1.194   2.998   8.209 -1.3099 -0.3361  0.4263
 7016SOL    HW232682   1.064   3.054   8.246 -0.5836  1.2393 -0.6855
 7017SOL     OW32683   3.554   3.379   9.149  0.3193 -0.1675  0.0304
 7017SOL    HW132684   3.588   3.298   9.188  0.0699 -1.4506 -2.4144
 7017SOL    HW232685   3.616   3.442   9.187 -0.0746 -0.2712  0.8442
 7018SOL     OW32686   2.132   0.828   9.437  0.1191 -0.5982 -0.1881
 7018SOL    HW132687   2.131   0.786   9.523 -0.8531 -0.8276 -0.3187
 7018SOL    HW232688   2.131   0.923   9.451 -0.2376 -0.7236  0.6225
 7019SOL     OW32689   2.890   3.993  12.416 -0.3202 -0.0270  0.3709
 7019SOL    HW132690   2.947   4.058  12.456 -2.1591  0.9685  1.3636
 7019SOL    HW232691   2.903   4.016  12.324 -1.2487  0.9443  0.4829
 7020SOL     OW32692   0.710   4.299  11.523  0.4316  0.0515 -0.4491
 7020SOL    HW132693   0.679   4.388  11.539 -0.1227  0.0300 -1.4513
 7020SOL    HW232694   0.697   4.255  11.607  0.2952  1.5248  0.2942
 7021SOL     OW32695   2.258   3.608   6.103  0.3021 -0.2305 -0.4568
 7021SOL    HW132696   2.187   3.627   6.165  0.8088 -1.5081  0.5225
 7021SOL    HW232697   2.225   3.520   6.083 -0.7934  0.1744 -0.4149
 7022SOL     OW32698   4.151   0.162  13.468 -0.0915 -0.4576  0.1896
 7022SOL    HW132699   4.108   0.244  13.494  0.3864 -0.0295 -0.3485
 7022SOL    HW232700   4.230   0.157  13.523  0.1208 -0.3916 -0.1063
 7023SOL     OW32701   0.230   2.400   4.515  0.1072 -0.1229  0.6458
 7023SOL    HW132702   0.229   2.389   4.420  0.8801  1.5099  0.4482
 7023SOL    HW232703   0.136   2.401   4.529 -0.0936  0.5792 -0.7609
 7024SOL     OW32704   1.822   0.248  11.210 -0.7452  0.1412 -0.2941
 7024SOL    HW132705   1.910   0.249  11.171 -0.5199  1.2845  0.2291
 7024SOL    HW232706   1.850   0.179  11.270  0.0794 -1.5120 -2.5737
 7025SOL     OW32707   1.761   4.342   4.434 -0.1143 -0.1744  0.0783
 7025SOL    HW132708   1.679   4.360   4.388 -0.3968 -0.5269  0.4491
 7025SOL    HW232709   1.732   4.279   4.499 -0.8240  1.1643  1.0591
 7026SOL     OW32710   2.452   3.383   2.912  0.7231  0.5719 -0.7481
 7026SOL    HW132711   2.429   3.353   3.000 -1.9599 -0.0146 -1.6619
 7026SOL    HW232712   2.428   3.310   2.855  0.4030  0.3946 -0.3842
 7027SOL     OW32713   1.557   1.706   5.889 -0.3046 -0.5302  0.3699
 7027SOL    HW132714   1.631   1.728   5.946 -1.2233  4.5504 -0.4197
 7027SOL    HW232715   1.521   1.794   5.878 -2.5246 -1.2855  1.7101
 7028SOL     OW32716   3.793   1.990  10.981 -0.0350 -0.4675  0.6984
 7028SOL    HW132717   3.728   2.032  10.925  2.2421  0.2240 -1.4165
 7028SOL    HW232718   3.743   1.918  11.020  2.7427 -2.7159  0.1102
 7029SOL     OW32719   1.381   3.678  17.196 -0.6956  0.4087 -0.4726
 7029SOL    HW132720   1.336   3.593  17.205  3.4799 -1.7532 -0.2162
 7029SOL    HW232721   1.456   3.662  17.252 -0.5006 -0.9807 -1.1285
 7030SOL     OW32722   1.305   2.207  16.002 -0.1023 -0.0627 -0.4338
 7030SOL    HW132723   1.353   2.224  15.921  1.3468 -0.4895  0.3502
 7030SOL    HW232724   1.304   2.113  16.019 -0.6883 -0.2730 -1.6126
 7031SOL     OW32725   1.146   3.071  11.919  0.2014 -0.0847 -0.5003
 7031SOL    HW132726   1.192   3.018  11.854  0.8426  0.2111 -0.2808
 7031SOL    HW232727   1.127   3.149  11.867 -0.1236  1.7412  2.3910
 7032SOL     OW32728   1.154   0.471  14.901 -0.0751  0.4904 -0.2276
 7032SOL    HW132729   1.065   0.446  14.928 -0.2629  0.4028 -0.9291
 7032SOL    HW232730   1.180   0.521  14.978 -0.0612 -1.3188  0.9533
 7033SOL     OW32731   4.404   3.235   1.326  0.4973 -0.3901  0.2863
 7033SOL    HW132732   4.419   3.142   1.309 -0.4557 -0.3134 -0.9530
 7033SOL    HW232733   4.496   3.262   1.326  0.7986 -1.4243 -0.5141
 7034SOL     OW32734   3.309   2.723   5.614 -0.2604  0.3126 -0.0662
 7034SOL    HW132735   3.401   2.728   5.641 -0.1208  0.0825 -0.4904
 7034SOL    HW232736   3.308   2.693   5.523 -2.2001 -0.2984  0.1590
 7035SOL     OW32737   2.517   1.670   2.542 -0.4456  0.2448 -0.0723
 7035SOL    HW132738   2.431   1.628   2.548 -0.4021  0.0758 -0.6505
 7035SOL    HW232739   2.532   1.678   2.448 -1.4285 -0.0490 -0.2580
 7036SOL     OW32740   0.216   0.587  14.616  0.0109 -0.2702 -0.8121
 7036SOL    HW132741   0.294   0.588  14.671 -0.1934 -0.1670 -0.5203
 7036SOL    HW232742   0.215   0.493  14.599 -2.0575 -0.5605  0.8730
 7037SOL     OW32743   0.121   3.474   4.965 -0.1916  0.3900  0.3132
 7037SOL    HW132744   0.203   3.490   4.917 -0.5655  0.0273 -0.4403
 7037SOL    HW232745   0.138   3.384   4.993 -0.2213  0.5740  0.9240
 7038SOL     OW32746   3.318   1.103   2.980 -0.2022  0.0902 -0.5560
 7038SOL    HW132747   3.357   1.182   2.943  2.1432  1.1333  4.0885
 7038SOL    HW232748   3.286   1.057   2.903 -0.3251 -1.8898  0.6817
 7039SOL     OW32749   4.171   0.914  12.431  0.2470  0.1642  0.4017
 7039SOL    HW132750   4.147   0.983  12.493  0.1503  1.7324 -1.3900
 7039SOL    HW232751   4.250   0.958  12.400 -1.3354  1.0768 -2.2740
 7040SOL     OW32752   1.410   2.933   7.351 -0.1835  0.2583  0.1263
 7040SOL    HW132753   1.342   2.998   7.369  0.2171  0.6142  0.3614
 7040SOL    HW232754   1.351   2.857   7.351  2.2742 -1.6615  1.3505
 7041SOL     OW32755   4.700   4.269   0.768  0.8014 -0.6253 -0.0225
 7041SOL    HW132756   4.606   4.267   0.783  0.5989  3.6657 -0.6968
 7041SOL    HW232757   4.701   4.194   0.709  0.3118 -0.2752 -0.4746
 7042SOL     OW32758   3.344   2.664  11.560 -0.0507  0.1796  0.2433
 7042SOL    HW132759   3.364   2.576  11.529 -2.3981  0.3669 -1.7733
 7042SOL    HW232760   3.259   2.677  11.518 -1.0340  0.4077  2.3077
 7043SOL     OW32761   4.027   2.160   8.799 -0.0957  0.1066  0.4160
 7043SOL    HW132762   3.976   2.241   8.810 -1.7980 -1.0257  0.8035
 7043SOL    HW232763   4.010   2.110   8.878 -0.1816 -1.5413 -0.6557
 7044SOL     OW32764   2.077   0.347   5.418  0.2457  0.3064 -0.1177
 7044SOL    HW132765   1.992   0.334   5.461  0.8072  0.6608  1.0806
 7044SOL    HW232766   2.138   0.364   5.489 -0.6549  0.3535  0.6557
 7045SOL     OW32767   0.208   0.547   7.238  0.6163 -0.0423  0.1606
 7045SOL    HW132768   0.289   0.512   7.202  0.5868  2.1229 -2.0414
 7045SOL    HW232769   0.200   0.627   7.185  1.4146  1.2250  1.9224
 7046SOL     OW32770   2.337   1.124   2.655 -0.0838  0.2731 -0.4368
 7046SOL    HW132771   2.351   1.087   2.742 -3.0782  1.0563  0.3695
 7046SOL    HW232772   2.293   1.208   2.665  0.2602  0.5137 -0.9239
 7047SOL     OW32773   4.392   1.089   0.545 -0.0997 -0.1780  0.2030
 7047SOL    HW132774   4.366   0.997   0.539  0.8025 -0.4684  0.9275
 7047SOL    HW232775   4.323   1.119   0.486  0.3515  0.2445 -0.1072
 7048SOL     OW32776   0.283   3.553   4.510  0.1420 -0.0087  0.0570
 7048SOL    HW132777   0.283   3.459   4.525  2.8944 -0.0262  0.0972
 7048SOL    HW232778   0.241   3.583   4.590 -2.0697 -0.5940 -0.8781
 7049SOL     OW32779   4.066   0.737  13.127  0.5199 -0.7101 -0.2151
 7049SOL    HW132780   4.097   0.664  13.073 -2.1313 -1.5239 -0.6489
 7049SOL    HW232781   4.119   0.811  13.099 -1.7741  0.6705 -0.8334
 7050SOL     OW32782   1.634   1.516  15.230  0.5054 -0.5551  0.0764
 7050SOL    HW132783   1.574   1.443  15.240  0.4689 -0.1046  3.1073
 7050SOL    HW232784   1.723   1.482  15.244  0.9433  1.2532  1.6739
 7051SOL     OW32785   0.511   1.511  17.493 -0.2864 -0.0765  0.2226
 7051SOL    HW132786   0.520   1.518  17.588  4.1282 -0.1159 -0.1730
 7051SOL    HW232787   0.497   1.417  17.482  0.9967 -0.2404 -0.0733
 7052SOL     OW32788   3.602   0.635   8.645 -0.2333 -0.3107 -0.2365
 7052SOL    HW132789   3.690   0.673   8.644 -0.5864  0.5075  0.6391
 7052SOL    HW232790   3.563   0.653   8.560  0.8648  1.4492 -0.3559
 7053SOL     OW32791   3.844   3.630   4.360  0.3317  0.0556 -0.5763
 7053SOL    HW132792   3.779   3.663   4.299 -0.6413  0.8627  0.8972
 7053SOL    HW232793   3.867   3.702   4.419  0.3301  0.0914 -0.6200
 7054SOL     OW32794   2.370   0.102   8.480  0.1914  0.4120 -0.1892
 7054SOL    HW132795   2.380   0.021   8.530  1.2724  0.0876 -0.9240
 7054SOL    HW232796   2.464   0.114   8.465  0.1932 -0.5125 -0.8906
 7055SOL     OW32797   1.790   0.251   5.517  0.2002 -0.3295 -0.5650
 7055SOL    HW132798   1.706   0.286   5.487  1.3391  1.4319 -1.7007
 7055SOL    HW232799   1.822   0.201   5.442 -1.5319 -0.1787 -1.4222
 7056SOL     OW32800   3.940   0.026   3.342 -0.4803 -0.3319 -0.8329
 7056SOL    HW132801   4.003   0.089   3.376 -1.6620  0.1640  0.4174
 7056SOL    HW232802   3.991   4.720   3.272 -2.5016 -0.1316 -2.4294
 7057SOL     OW32803   0.936   3.732  15.464  0.2240  0.6833 -0.1457
 7057SOL    HW132804   1.004   3.681  15.419  0.5049 -0.2225  1.3292
 7057SOL    HW232805   0.915   3.798  15.398 -0.9491  0.2538 -0.2045
 7058SOL     OW32806   1.699   3.929   5.196  0.0958 -0.1044 -0.0725
 7058SOL    HW132807   1.747   3.980   5.131 -0.8736  0.7787 -0.0983
 7058SOL    HW232808   1.773   3.890   5.243 -0.8194 -1.4606  0.2232
 7059SOL     OW32809   4.151   2.306   7.522 -0.0186  0.4736 -0.0131
 7059SOL    HW132810   4.115   2.239   7.464  0.3749  0.0073  0.2769
 7059SOL    HW232811   4.238   2.268   7.532  0.7746  2.0651 -0.9493
 7060SOL     OW32812   0.393   4.696   5.269  0.2269  0.0709 -0.1773
 7060SOL    HW132813   0.366   0.034   5.212 -1.9003 -1.1767 -0.7272
 7060SOL    HW232814   0.342   4.711   5.348  0.8374  0.5391  0.1267
 7061SOL     OW32815   3.339   3.214   9.351 -0.6466  0.3125 -0.8509
 7061SOL    HW132816   3.349   3.282   9.285 -0.3334  0.6764 -0.4310
 7061SOL    HW232817   3.262   3.241   9.400 -0.2069  1.8973 -1.0384
 7062SOL     OW32818   2.342   2.251   0.055 -0.0288 -0.0030  0.4919
 7062SOL    HW132819   2.278   2.297   0.109 -3.4618 -1.2532 -2.4775
 7062SOL    HW232820   2.285   2.225  17.718  0.9007 -1.1976  0.1748
 7063SOL     OW32821   2.160   0.096   2.710  0.1701 -0.5858 -0.5795
 7063SOL    HW132822   2.172   0.082   2.616 -1.7247  0.6653 -1.0220
 7063SOL    HW232823   2.127   0.186   2.715  0.0359 -0.6817  0.2701
 7064SOL     OW32824   1.891   4.536   7.165  0.0871  0.4126  0.1268
 7064SOL    HW132825   1.853   4.560   7.250 -0.6906 -0.0682 -0.0943
 7064SOL    HW232826   1.964   4.484   7.199  0.0407  1.1670  1.4091
 7065SOL     OW32827   1.161   4.472   4.715 -0.0452  0.7054  0.3000
 7065SOL    HW132828   1.110   4.401   4.675 -2.3260  0.9224  2.8325
 7065SOL    HW232829   1.147   4.459   4.808 -0.0116 -0.5207  0.1336
 7066SOL     OW32830   3.071   0.740   8.560 -0.0955 -0.4940 -0.0552
 7066SOL    HW132831   3.083   0.834   8.550  0.1711 -0.4652  0.5070
 7066SOL    HW232832   2.981   0.735   8.527 -0.8466 -0.3274  1.9294
 7067SOL     OW32833   1.538   3.344   8.935 -0.1889 -0.2344 -0.0379
 7067SOL    HW132834   1.631   3.324   8.950 -0.1298 -0.5091 -0.7728
 7067SOL    HW232835   1.517   3.259   8.898 -0.2580 -0.3441  0.2518
 7068SOL     OW32836   2.585   0.923   4.056  0.2419  0.4790 -0.4918
 7068SOL    HW132837   2.600   0.988   4.126 -2.4588  1.6627 -1.0008
 7068SOL    HW232838   2.567   0.973   3.976  1.2487  0.4190 -0.7526
 7069SOL     OW32839   0.490   0.374   0.124 -0.5255  0.2177  0.2569
 7069SOL    HW132840   0.416   0.370   0.064 -0.5691 -0.6945  0.3814
 7069SOL    HW232841   0.434   0.393   0.199 -1.1995  0.2104 -0.2384
 7070SOL     OW32842   2.749   1.802   7.969  0.1802  0.2983 -0.1180
 7070SOL    HW132843   2.680   1.849   8.017  0.6775  1.1481 -0.2430
 7070SOL    HW232844   2.824   1.831   8.021  0.7877 -2.7234  0.7174
 7071SOL     OW32845   2.430   3.728   3.326  0.0807  0.0087 -0.8272
 7071SOL    HW132846   2.345   3.746   3.367  1.6154  0.2589  2.2548
 7071SOL    HW232847   2.464   3.817   3.312 -1.1093  0.6264  0.1810
 7072SOL     OW32848   0.708   0.817  15.278  0.1414  0.1528  0.2161
 7072SOL    HW132849   0.735   0.794  15.189 -2.7745 -1.0098 -0.3642
 7072SOL    HW232850   0.621   0.853  15.266  0.4479  0.7576 -0.1569
 7073SOL     OW32851   0.039   0.730  12.453  0.6312 -0.1028  0.4830
 7073SOL    HW132852   0.076   0.682  12.379  1.2238  4.1442 -1.9182
 7073SOL    HW232853   4.679   0.722  12.434  0.5562 -0.0353  0.8243
 7074SOL     OW32854   2.418   0.805   1.776 -0.4449 -0.0323  0.0473
 7074SOL    HW132855   2.332   0.791   1.736 -0.8087  0.5514  0.6162
 7074SOL    HW232856   2.392   0.811   1.868 -2.1503  1.1714 -0.4984
 7075SOL     OW32857   3.573   2.705   5.713  0.2380 -0.2508  0.4818
 7075SOL    HW132858   3.632   2.647   5.762  0.9410 -0.2812 -0.4079
 7075SOL    HW232859   3.574   2.788   5.760  0.9356 -0.4966  0.8980
 7076SOL     OW32860   4.067   0.407   6.019  0.0269 -0.1333 -0.3210
 7076SOL    HW132861   4.135   0.460   5.976  0.0451 -0.6233 -0.8919
 7076SOL    HW232862   4.114   0.358   6.087 -0.7456 -0.0295  0.2853
 7077SOL     OW32863   2.702   0.510   3.664 -0.1973 -0.2381  0.0600
 7077SOL    HW132864   2.760   0.493   3.590  1.2593  2.4502  0.5566
 7077SOL    HW232865   2.680   0.421   3.690  1.2445  0.0874  2.4651
 7078SOL     OW32866   4.332   0.241  10.234 -0.2151 -0.2677 -0.0846
 7078SOL    HW132867   4.241   0.261  10.256 -0.5922 -0.1600 -1.7054
 7078SOL    HW232868   4.324   0.169  10.171  3.1201  0.2028 -1.0662
 7079SOL     OW32869   0.666   1.178   7.937 -0.1599 -0.3767  0.7655
 7079SOL    HW132870   0.577   1.205   7.958 -0.4248 -0.8413  0.2674
 7079SOL    HW232871   0.714   1.198   8.017  0.1633 -0.8560  0.6943
 7080SOL     OW32872   2.449   3.011   4.625 -0.1211 -0.1469 -0.0171
 7080SOL    HW132873   2.485   2.975   4.544 -2.0603 -2.8091  0.2992
 7080SOL    HW232874   2.506   3.086   4.642 -1.9334  0.6921  2.2571
 7081SOL     OW32875   4.182   2.269  12.685 -0.0776  0.2580 -0.3395
 7081SOL    HW132876   4.141   2.330  12.747  1.0434  0.7299 -0.0647
 7081SOL    HW232877   4.135   2.187  12.698  0.6891 -0.2073 -0.4908
 7082SOL     OW32878   4.064   0.371   4.291 -0.1068  0.5114  0.3402
 7082SOL    HW132879   4.077   0.366   4.386  0.6402  0.3227  0.2200
 7082SOL    HW232880   4.004   0.297   4.277  1.3816 -0.7391  0.6280
 7083SOL     OW32881   2.537   0.096   2.288  0.7602  0.3066  0.6428
 7083SOL    HW132882   2.524   0.157   2.215  0.5615  0.9576  1.2268
 7083SOL    HW232883   2.632   0.087   2.294  0.4864 -1.6174  1.9305
 7084SOL     OW32884   0.589   1.620   4.148  0.3527  0.8429 -0.1135
 7084SOL    HW132885   0.578   1.709   4.114 -0.9291 -0.0237 -1.9648
 7084SOL    HW232886   0.683   1.601   4.146  0.7131  2.6886 -0.4199
 7085SOL     OW32887   1.974   3.538   4.924  0.0381  0.2143 -0.7305
 7085SOL    HW132888   2.032   3.483   4.871  0.0083 -0.7219  0.2000
 7085SOL    HW232889   1.976   3.618   4.872  1.3891 -1.2074 -2.8469
 7086SOL     OW32890   1.380   3.619   8.828  0.0304 -0.1021  0.1240
 7086SOL    HW132891   1.323   3.671   8.886 -0.2074 -2.7639  2.3059
 7086SOL    HW232892   1.460   3.670   8.827  0.1422 -0.3185 -0.9799
 7087SOL     OW32893   3.232   0.679   2.882 -0.1374 -0.1437  0.0292
 7087SOL    HW132894   3.192   0.730   2.953  1.3503 -0.7064  1.2619
 7087SOL    HW232895   3.276   0.744   2.826 -1.7749  1.9357  1.1484
 7088SOL     OW32896   0.859   1.499   4.101  0.0000 -0.6203  0.4144
 7088SOL    HW132897   0.938   1.551   4.092  1.1322 -2.5094 -0.5170
 7088SOL    HW232898   0.889   1.422   4.151 -0.4160 -3.0694 -3.1235
 7089SOL     OW32899   3.896   3.736  17.457 -0.2201 -0.5453 -0.5512
 7089SOL    HW132900   3.972   3.793  17.464  0.6389 -1.9724  1.8085
 7089SOL    HW232901   3.826   3.774  17.510 -1.2435 -1.2934 -1.3571
 7090SOL     OW32902   3.595   1.763   4.286  0.0592  0.2550  0.5126
 7090SOL    HW132903   3.653   1.735   4.215 -1.1326 -0.0511 -0.3347
 7090SOL    HW232904   3.624   1.698   4.350 -2.4309 -1.6539 -0.2787
 7091SOL     OW32905   2.556   2.751   6.199 -0.0305 -0.4849  0.0820
 7091SOL    HW132906   2.512   2.700   6.267 -1.6746  2.6800  1.3777
 7091SOL    HW232907   2.515   2.701   6.129 -0.7237  2.2603 -1.4752
 7092SOL     OW32908   1.626   1.486   6.605  0.1871 -0.3258  0.4818
 7092SOL    HW132909   1.630   1.518   6.696 -0.9526 -1.1954  0.8321
 7092SOL    HW232910   1.670   1.402   6.611 -0.1275 -0.3426  2.8462
 7093SOL     OW32911   4.448   2.916  14.795  0.7608  0.3223  1.0969
 7093SOL    HW132912   4.400   2.998  14.805 -2.4207 -1.1685 -2.0358
 7093SOL    HW232913   4.537   2.951  14.808  1.6928 -1.1291 -1.4616
 7094SOL     OW32914   0.508   2.968   3.044 -0.3278 -0.2939 -0.0169
 7094SOL    HW132915   0.435   3.021   3.012  1.3105  0.9558 -1.6187
 7094SOL    HW232916   0.550   2.940   2.963 -0.3614  0.5337 -0.3224
 7095SOL     OW32917   0.304   3.861  11.893 -0.7308 -0.0630 -0.1916
 7095SOL    HW132918   0.340   3.774  11.871 -0.4272  0.9738 -3.8034
 7095SOL    HW232919   0.211   3.842  11.883 -0.7833  1.2128 -2.1851
 7096SOL     OW32920   1.540   0.259   6.265 -0.0412  0.3413 -0.0033
 7096SOL    HW132921   1.595   0.182   6.280  2.7114  2.5957  1.4901
 7096SOL    HW232922   1.594   0.302   6.199  0.3519 -1.4972 -0.8722
 7097SOL     OW32923   3.620   0.699  16.168  0.6731  0.2099 -0.1526
 7097SOL    HW132924   3.663   0.735  16.245 -1.6398  0.7584  0.9012
 7097SOL    HW232925   3.528   0.691  16.195  1.2708  2.2014  2.5053
 7098SOL     OW32926   1.840   0.688  12.592 -0.2566  0.5199 -0.3644
 7098SOL    HW132927   1.876   0.607  12.629 -0.1634 -0.3053 -2.2668
 7098SOL    HW232928   1.786   0.660  12.518  2.2331 -2.7553 -0.9135
 7099SOL     OW32929   0.446   0.778  13.112  0.1428 -0.4572  0.5261
 7099SOL    HW132930   0.450   0.788  13.207  2.5364  0.8617  0.3104
 7099SOL    HW232931   0.538   0.771  13.085 -0.0863 -0.5895 -0.2186
 7100SOL     OW32932   3.161   2.352   4.308  0.7191  0.7923  0.2752
 7100SOL    HW132933   3.233   2.410   4.282 -0.2431  2.1348  0.5519
 7100SOL    HW232934   3.148   2.303   4.227 -1.3100 -0.1044  1.1293
 7101SOL     OW32935   2.410   0.982   2.270 -0.3577  0.2053  0.4465
 7101SOL    HW132936   2.449   1.056   2.223  1.5723 -0.9997  0.1627
 7101SOL    HW232937   2.317   1.004   2.276 -0.8152 -1.3448 -0.9181
 7102SOL     OW32938   2.565   4.436   1.207  0.3010  0.6750 -0.5451
 7102SOL    HW132939   2.600   4.480   1.285  0.4661  1.2849 -0.9593
 7102SOL    HW232940   2.619   4.360   1.188  3.5159  2.1473  2.6827
 7103SOL     OW32941   0.072   0.675   1.575 -0.1179  0.2779  0.0182
 7103SOL    HW132942   0.006   0.736   1.606  0.8606  2.3195 -1.8846
 7103SOL    HW232943   0.046   0.601   1.630 -0.1353 -0.9183 -1.6114
 7104SOL     OW32944   0.380   1.515   4.272  0.5457  0.0686 -0.1904
 7104SOL    HW132945   0.464   1.531   4.229  0.5585  0.5283  0.0084
 7104SOL    HW232946   0.365   1.427   4.238  0.1291  0.7889 -1.8545
 7105SOL     OW32947   0.066   4.167  13.966  0.5080  0.7729 -0.0665
 7105SOL    HW132948   0.056   4.148  14.059  0.6015 -1.2507 -0.4744
 7105SOL    HW232949   0.105   4.254  13.956  1.2179  0.5041  0.3714
 7106SOL     OW32950   3.513   0.486   6.073 -0.1209  0.1187 -0.3893
 7106SOL    HW132951   3.520   0.521   6.162 -1.6810  3.9415 -1.7838
 7106SOL    HW232952   3.589   0.427   6.073 -1.5483 -1.7399  1.4807
 7107SOL     OW32953   3.261   2.663   3.274 -0.4023 -0.0634 -0.7731
 7107SOL    HW132954   3.339   2.717   3.262  0.0823 -1.1171 -2.4103
 7107SOL    HW232955   3.303   2.604   3.337  0.9454 -1.2215 -2.7744
 7108SOL     OW32956   4.118   0.894  10.103  0.7242 -0.2439  0.1962
 7108SOL    HW132957   4.106   0.869  10.011  0.1419  2.0072 -0.3428
 7108SOL    HW232958   4.139   0.985  10.080 -0.0114 -0.1954 -0.2849
 7109SOL     OW32959   3.587   1.975   8.276 -0.1449  0.1887  0.3644
 7109SOL    HW132960   3.565   2.057   8.232  0.4988  0.4334  0.5018
 7109SOL    HW232961   3.646   1.940   8.209 -1.8141  1.0268 -1.5654
 7110SOL     OW32962   3.522   1.838   7.229  0.0353  0.1553  0.3709
 7110SOL    HW132963   3.571   1.883   7.161  1.2824 -1.1704  0.3929
 7110SOL    HW232964   3.436   1.881   7.236  1.3945  2.8212  0.4654
 7111SOL     OW32965   2.123   1.521   5.147  0.5099  0.3791 -0.3547
 7111SOL    HW132966   2.153   1.436   5.116 -0.1366  0.2339 -0.5882
 7111SOL    HW232967   2.140   1.578   5.072  2.7389  0.5488  0.2756
 7112SOL     OW32968   0.506   4.021  12.367  0.7173  0.0722 -1.0199
 7112SOL    HW132969   0.591   4.061  12.385 -1.1078  2.9688  1.2679
 7112SOL    HW232970   0.524   3.935  12.405 -3.1131  0.2358  1.1707
 7113SOL     OW32971   1.835   3.879   4.744  0.4857 -0.0528 -0.6295
 7113SOL    HW132972   1.910   3.937   4.748  1.0914 -0.9203  0.7063
 7113SOL    HW232973   1.866   3.800   4.699 -2.6576 -0.4127 -2.2007
 7114SOL     OW32974   3.149   4.263   1.661  0.1694  0.2425 -0.0528
 7114SOL    HW132975   3.219   4.328   1.651 -0.7854  0.8027 -2.9265
 7114SOL    HW232976   3.122   4.285   1.750 -1.0113  0.8633 -0.5722
 7115SOL     OW32977   0.527   3.929   5.683  0.1617 -0.2272 -0.1332
 7115SOL    HW132978   0.499   3.843   5.653 -0.8304  0.4644 -1.1781
 7115SOL    HW232979   0.503   3.983   5.608  1.1506  2.8491  1.7723
 7116SOL     OW32980   1.242   3.666   2.939  0.1290 -0.6308  0.3448
 7116SOL    HW132981   1.177   3.694   3.004  1.3888  2.3821  0.3233
 7116SOL    HW232982   1.179   3.674   2.867 -1.7592 -1.3662  1.9329
 7117SOL     OW32983   3.234   1.994   3.329  0.2831 -0.4069  0.3984
 7117SOL    HW132984   3.283   1.929   3.279  0.2834 -1.5518  1.9206
 7117SOL    HW232985   3.310   2.040   3.364 -0.8434  1.6273  0.2222
 7118SOL     OW32986   3.575   3.855   9.758 -0.0475  0.2470  0.0758
 7118SOL    HW132987   3.515   3.893   9.822  1.1535  0.3121  1.1876
 7118SOL    HW232988   3.641   3.818   9.817  0.1604 -1.2099 -1.0742
 7119SOL     OW32989   0.928   4.125   2.078  0.3583 -0.2445  0.4290
 7119SOL    HW132990   0.883   4.053   2.123  1.6261 -0.0277  2.0606
 7119SOL    HW232991   0.998   4.133   2.142 -1.5251 -0.0451  2.4646
 7120SOL     OW32992   3.475   2.828   7.578 -0.0387  0.0005  0.4252
 7120SOL    HW132993   3.469   2.738   7.545  1.6880 -0.8096  2.3103
 7120SOL    HW232994   3.560   2.823   7.621 -0.0415  2.4069  0.7270
 7121SOL     OW32995   2.463   2.341   7.001  0.3860 -0.0773 -0.1407
 7121SOL    HW132996   2.465   2.436   7.003  1.9424 -0.1613  2.1317
 7121SOL    HW232997   2.402   2.332   6.928 -0.2776  1.0829  0.2778
 7122SOL     OW32998   2.599   4.611  17.247 -0.0753  0.3080  0.1033
 7122SOL    HW132999   2.532   4.622  17.315 -1.7005 -3.7342 -0.8218
 7122SOL    HW233000   2.591   4.698  17.208 -0.7166 -0.7678 -2.1373
 7123SOL     OW33001   3.309   1.326  16.548  0.1427  0.9691 -0.0531
 7123SOL    HW133002   3.323   1.411  16.507 -1.7905 -0.1345 -3.0107
 7123SOL    HW233003   3.257   1.346  16.625  0.8211 -1.2209  0.9728
 7124SOL     OW33004   2.092   1.878   8.960  0.1943  0.1825  0.0129
 7124SOL    HW133005   2.185   1.878   8.980  0.2278  0.5773 -0.1412
 7124SOL    HW233006   2.098   1.886   8.865 -0.0172 -0.4052 -0.0529
 7125SOL     OW33007   1.745   4.427   3.352 -0.0396  0.2045 -0.6092
 7125SOL    HW133008   1.829   4.416   3.396 -0.4273 -2.3413 -0.4636
 7125SOL    HW233009   1.778   4.421   3.262 -1.5231 -1.1176 -1.0732
 7126SOL     OW33010   0.831   3.066   9.496  0.2112  0.3240 -0.4098
 7126SOL    HW133011   0.857   2.975   9.482 -1.1870 -0.0585 -0.5721
 7126SOL    HW233012   0.908   3.102   9.540  0.2384 -0.1174 -0.1030
 7127SOL     OW33013   1.458   0.486   4.278 -0.4848 -1.0520 -0.3599
 7127SOL    HW133014   1.412   0.469   4.360 -0.0538 -3.5747 -0.6448
 7127SOL    HW233015   1.380   0.502   4.225  0.6454  0.0036 -1.7160
 7128SOL     OW33016   4.309   0.014   4.001  0.2533  0.1647  0.0858
 7128SOL    HW133017   4.394   4.711   3.980  1.2795  0.3584  3.8953
 7128SOL    HW233018   4.328   0.079   4.069 -0.3118  2.0533 -1.5782
 7129SOL     OW33019   1.079   2.508   5.757  0.1077  0.1345  0.4333
 7129SOL    HW133020   1.039   2.585   5.715 -1.3796 -0.5199  0.6232
 7129SOL    HW233021   1.168   2.517   5.723 -0.6484 -0.1077 -1.6122
 7130SOL     OW33022   1.173   4.551   5.339  0.0512  1.0636  0.0077
 7130SOL    HW133023   1.086   4.512   5.336  1.2002 -1.6221  1.7044
 7130SOL    HW233024   1.226   4.484   5.382 -0.9345 -0.4175 -1.0753
 7131SOL     OW33025   0.428   2.128   1.980 -0.0827  0.2490 -0.0560
 7131SOL    HW133026   0.396   2.215   2.007  2.5763  1.6853 -1.5771
 7131SOL    HW233027   0.515   2.155   1.950 -0.8410 -0.5203 -2.8704
 7132SOL     OW33028   1.724   2.251  14.339  0.0390 -0.1737 -0.5462
 7132SOL    HW133029   1.706   2.306  14.262  0.9752 -1.1249 -1.4445
 7132SOL    HW233030   1.694   2.167  14.305  0.6913 -0.7531  0.3044
 7133SOL     OW33031   0.068   0.883  16.242 -0.0534  0.4153  0.3666
 7133SOL    HW133032   0.128   0.933  16.298  0.0363 -0.2105  0.8219
 7133SOL    HW233033   0.003   0.951  16.224 -0.2693  0.6184  1.9722
 7134SOL     OW33034   0.280   0.658   7.497 -0.0677  0.4446  0.4451
 7134SOL    HW133035   0.248   0.593   7.434  1.9942  0.0347 -0.1764
 7134SOL    HW233036   0.296   0.596   7.569  0.2618 -0.3483 -0.3209
 7135SOL     OW33037   4.345   0.617   8.284  0.1112  0.4478  0.1123
 7135SOL    HW133038   4.363   0.702   8.324 -0.3163  0.2078  0.8235
 7135SOL    HW233039   4.284   0.645   8.215 -1.4506 -1.5580  0.6543
 7136SOL     OW33040   2.250   4.143   5.780  0.0308 -0.0992 -0.2851
 7136SOL    HW133041   2.170   4.137   5.831 -0.0101  1.4863 -0.1620
 7136SOL    HW233042   2.295   4.061   5.800  1.0249  0.5880  0.3441
 7137SOL     OW33043   1.986   0.151   9.098  0.1515  0.3706 -0.0781
 7137SOL    HW133044   2.052   0.190   9.155  3.5083  0.2663 -3.9108
 7137SOL    HW233045   1.906   0.174   9.144 -0.4382 -1.4211 -0.1802
 7138SOL     OW33046   0.439   4.199   7.208  0.4269 -0.4282 -0.1244
 7138SOL    HW133047   0.464   4.169   7.296  2.6383  1.1737 -0.2266
 7138SOL    HW233048   0.518   4.197   7.154 -0.9677  1.7374 -2.2181
 7139SOL     OW33049   0.695   1.961  12.649  0.3870  0.0766 -0.3978
 7139SOL    HW133050   0.656   1.943  12.734  0.8787  2.5289  0.3307
 7139SOL    HW233051   0.790   1.953  12.661  0.3112 -1.1497 -0.5427
 7140SOL     OW33052   0.752   1.411   2.803  0.1987  0.0455  0.2698
 7140SOL    HW133053   0.734   1.503   2.821  2.6582  0.3955  0.9694
 7140SOL    HW233054   0.830   1.407   2.859  0.6196 -0.7706 -0.3872
 7141SOL     OW33055   0.332   3.922   9.557  0.1794 -0.0266 -0.0453
 7141SOL    HW133056   0.403   3.942   9.619  0.1668  1.6797 -0.6077
 7141SOL    HW233057   0.287   4.006   9.553  1.6269  0.6528 -1.9294
 7142SOL     OW33058   1.167   1.787  11.613  0.3652  0.2173 -0.7334
 7142SOL    HW133059   1.218   1.812  11.690 -0.2392  1.8149 -0.8562
 7142SOL    HW233060   1.211   1.704  11.593  2.0607  1.1277 -0.8139
 7143SOL     OW33061   1.901   4.463   9.899  0.5707  0.1541 -0.0071
 7143SOL    HW133062   1.866   4.542   9.857  0.6745  0.0136 -0.3539
 7143SOL    HW233063   1.995   4.465   9.887  0.5833 -0.9294 -0.0284
 7144SOL     OW33064   1.570   0.317   0.549 -0.3460  0.4305  0.5983
 7144SOL    HW133065   1.622   0.241   0.576 -1.8056 -0.4706  0.8959
 7144SOL    HW233066   1.480   0.285   0.558 -0.6602  1.2931  0.4916
 7145SOL     OW33067   1.708   2.594   0.404  0.3547 -0.3941  0.6039
 7145SOL    HW133068   1.698   2.567   0.312 -1.2057 -2.1938  1.3250
 7145SOL    HW233069   1.617   2.609   0.427  0.0967  0.7931 -1.1665
 7146SOL     OW33070   3.699   2.339  14.658 -0.1616 -0.0598 -0.6276
 7146SOL    HW133071   3.617   2.333  14.706 -0.0201  1.7499 -0.1938
 7146SOL    HW233072   3.706   2.255  14.611  1.4903 -2.1150  3.2844
 7147SOL     OW33073   2.434   3.905   9.346 -0.8448 -0.3051 -0.0710
 7147SOL    HW133074   2.394   3.963   9.411 -0.9160 -0.1249 -0.2764
 7147SOL    HW233075   2.356   3.870   9.305  0.5884 -2.2150 -1.1838
 7148SOL     OW33076   1.249   2.796   4.564 -0.2277  0.3860  0.3343
 7148SOL    HW133077   1.273   2.713   4.524  1.2417  0.5766  0.8187
 7148SOL    HW233078   1.313   2.862   4.539 -1.4037  2.2251  2.1713
 7149SOL     OW33079   1.229   4.519   5.029 -0.4198 -0.3461 -0.1907
 7149SOL    HW133080   1.254   4.427   5.022  0.0334 -0.3583  1.5187
 7149SOL    HW233081   1.138   4.505   5.055 -0.0691  1.0507  1.7333
 7150SOL     OW33082   2.825   1.968  17.604 -0.4299  0.3082 -0.3792
 7150SOL    HW133083   2.907   1.935  17.641 -0.2802 -0.7986 -1.6985
 7150SOL    HW233084   2.854   2.048  17.561 -2.5796  0.3954 -1.6510
 7151SOL     OW33085   1.197   2.943   2.199 -0.8605 -0.2517 -0.4794
 7151SOL    HW133086   1.231   2.925   2.112  3.4537  0.7746  1.0126
 7151SOL    HW233087   1.235   2.866   2.242 -0.1336  0.5589  0.3374
 7152SOL     OW33088   0.073   0.281   8.134 -0.5363 -0.4317  0.0814
 7152SOL    HW133089   0.077   0.310   8.225 -0.1246  0.4362 -0.2168
 7152SOL    HW233090   0.159   0.307   8.102 -0.4054  1.9183  2.4000
 7153SOL     OW33091   3.940   3.083   1.744  0.1490 -0.2268 -0.7196
 7153SOL    HW133092   3.949   3.100   1.837  1.5833 -1.2022 -0.6747
 7153SOL    HW233093   3.880   3.152   1.716 -0.7705 -0.6495  0.2015
 7154SOL     OW33094   2.471   4.093   8.856 -0.5435 -0.0453  0.4182
 7154SOL    HW133095   2.509   4.122   8.773 -1.0744 -1.3268 -0.2841
 7154SOL    HW233096   2.509   4.161   8.911  1.2745 -1.0655  0.4287
 7155SOL     OW33097   0.040   2.591  16.090  0.1517  0.1163 -0.7734
 7155SOL    HW133098   0.099   2.528  16.130  0.0817 -1.1126 -2.5843
 7155SOL    HW233099   4.732   2.623  16.170  0.7706  2.5552 -1.4198
 7156SOL     OW33100   3.182   3.911  15.601 -0.5139 -0.2373 -0.2921
 7156SOL    HW133101   3.179   3.817  15.618 -2.7080 -0.2729 -0.8470
 7156SOL    HW233102   3.158   3.927  15.510  0.2824 -0.0636 -0.4747
 7157SOL     OW33103   2.089   1.997   4.322 -0.5702 -0.7837 -0.4676
 7157SOL    HW133104   2.079   1.995   4.227 -1.1195  2.0869 -0.4575
 7157SOL    HW233105   2.184   1.982   4.327 -0.2105  1.5080 -0.2943
 7158SOL     OW33106   3.080   3.104   7.517 -0.2667 -0.5729  0.0736
 7158SOL    HW133107   3.105   3.178   7.572  0.4332  0.0868 -1.1361
 7158SOL    HW233108   3.165   3.066   7.496  0.5779  1.5809 -0.3500
 7159SOL     OW33109   0.782   0.516   2.917  0.3272 -0.6080 -0.6784
 7159SOL    HW133110   0.703   0.559   2.884  0.8224 -0.0031 -1.0951
 7159SOL    HW233111   0.756   0.426   2.901 -0.1319 -0.5703 -0.1611
 7160SOL     OW33112   0.787   3.838   7.052  0.0690  0.2166 -0.0837
 7160SOL    HW133113   0.802   3.744   7.059 -0.9395 -0.2065 -3.5639
 7160SOL    HW233114   0.719   3.844   6.985  1.6806 -1.3525 -1.8429
 7161SOL     OW33115   3.948   2.660   8.129  0.0339  0.2121  0.1921
 7161SOL    HW133116   3.994   2.603   8.067 -0.4608  0.2739 -0.2290
 7161SOL    HW233117   3.890   2.716   8.078  0.4251  0.6592  0.2323
 7162SOL     OW33118   1.063   1.650   8.375 -0.2324 -0.3208  0.0292
 7162SOL    HW133119   1.046   1.582   8.440  0.7463 -0.6515 -0.0647
 7162SOL    HW233120   0.987   1.708   8.372 -3.6103 -4.8943 -2.1088
 7163SOL     OW33121   0.821   2.425   7.673 -0.4690  0.2230 -0.1757
 7163SOL    HW133122   0.859   2.386   7.594  1.8331 -0.2254  1.1744
 7163SOL    HW233123   0.747   2.474   7.636  0.0880  2.4749  1.6653
 7164SOL     OW33124   2.048   3.715   8.035 -0.1193  0.5597  0.2942
 7164SOL    HW133125   2.109   3.659   8.083 -0.7227 -0.4068 -0.0822
 7164SOL    HW233126   2.051   3.677   7.947 -0.5392  0.5405  0.2902
 7165SOL     OW33127   3.373   0.991   2.015  0.2880  0.3452 -0.0439
 7165SOL    HW133128   3.317   1.052   1.967  0.8506  0.6859 -0.2531
 7165SOL    HW233129   3.459   1.016   1.983  0.1393 -0.7641 -1.2904
 7166SOL     OW33130   4.665   2.888   9.157 -0.0361  0.1909  0.2305
 7166SOL    HW133131   4.630   2.873   9.245 -1.1392  1.0605 -0.0567
 7166SOL    HW233132   4.682   2.796   9.135  0.7404  0.4156 -0.1120
 7167SOL     OW33133   1.393   3.060   8.515  0.1882 -0.1890 -0.3583
 7167SOL    HW133134   1.403   2.993   8.582  0.7807 -0.3970 -0.6584
 7167SOL    HW233135   1.302   3.084   8.534 -0.0110 -1.0069 -0.3154
 7168SOL     OW33136   3.967   3.475   3.082 -0.3114 -0.8658 -0.3904
 7168SOL    HW133137   3.933   3.488   3.171 -2.0620  0.2461 -1.2274
 7168SOL    HW233138   4.062   3.490   3.087 -0.5499  0.0551  1.4308
 7169SOL     OW33139   2.214   0.279   8.825  0.0765 -0.4377  0.0589
 7169SOL    HW133140   2.220   0.321   8.911  0.1232 -1.5067  0.5673
 7169SOL    HW233141   2.191   0.191   8.852 -0.5097 -0.6522 -1.1346
 7170SOL     OW33142   0.189   4.294   4.813 -0.2759  0.0672  0.4186
 7170SOL    HW133143   0.175   4.201   4.799 -3.6095  0.5248  0.6565
 7170SOL    HW233144   0.123   4.335   4.757  0.4325  2.9639  1.7132
 7171SOL     OW33145   1.244   3.125   5.468  0.0109 -0.1806 -0.0676
 7171SOL    HW133146   1.293   3.187   5.414  0.7329 -1.6001 -1.0450
 7171SOL    HW233147   1.204   3.075   5.397  1.1798 -0.6238 -0.4111
 7172SOL     OW33148   1.067   1.057   6.343 -0.9514 -0.4750  0.0690
 7172SOL    HW133149   1.129   1.076   6.413 -1.0011  1.2034 -0.3347
 7172SOL    HW233150   0.988   1.093   6.382 -0.1129 -0.3166  1.5984
 7173SOL     OW33151   1.469   3.226   6.108  0.4630 -0.0695 -0.0918
 7173SOL    HW133152   1.564   3.215   6.119  0.6891 -0.1484 -2.1127
 7173SOL    HW233153   1.431   3.220   6.195 -2.2829 -0.8508 -1.3383
 7174SOL     OW33154   2.388   2.225   2.157 -0.4011 -0.2630 -0.1706
 7174SOL    HW133155   2.303   2.187   2.178 -0.7327  1.3007  1.3615
 7174SOL    HW233156   2.406   2.180   2.075 -1.2345  0.9145 -1.0046
 7175SOL     OW33157   0.197   2.003  14.373  0.0642  0.6444  0.1813
 7175SOL    HW133158   0.143   2.017  14.450  0.2086  1.7152  0.0980
 7175SOL    HW233159   0.255   1.934  14.405  0.7074  0.4336 -1.4202
 7176SOL     OW33160   0.168   2.842   9.831  0.4860  0.0547 -0.5525
 7176SOL    HW133161   0.081   2.849   9.792 -0.0533 -0.8601  0.4813
 7176SOL    HW233162   0.218   2.918   9.801 -0.2963 -0.0395 -2.0488
 7177SOL     OW33163   4.726   0.851   3.007  0.1550 -0.2769 -0.3411
 7177SOL    HW133164   4.687   0.820   3.089  1.3608  1.8955  1.0479
 7177SOL    HW233165   4.650   0.883   2.958  0.0097  0.7214  0.5388
 7178SOL     OW33166   0.682   1.286   5.869 -0.3501  0.2355  0.0033
 7178SOL    HW133167   0.701   1.220   5.935  0.6164 -1.2287 -1.7588
 7178SOL    HW233168   0.704   1.240   5.788  0.6075 -1.8295  1.4610
 7179SOL     OW33169   4.189   1.973   8.700 -0.3595  0.1797  0.4590
 7179SOL    HW133170   4.134   2.048   8.720 -0.6739 -0.0247  0.3493
 7179SOL    HW233171   4.173   1.944   8.610  1.0299 -0.6429  0.4741
 7180SOL     OW33172   1.283   4.360   2.596  0.3026  0.4023  0.1586
 7180SOL    HW133173   1.321   4.344   2.509 -1.2758 -0.0085 -0.4392
 7180SOL    HW233174   1.253   4.271   2.611 -0.7736  1.2338  2.8225
 7181SOL     OW33175   1.334   3.543   4.911 -0.2088 -0.5088 -0.0473
 7181SOL    HW133176   1.393   3.558   4.838  0.7903 -3.1264  0.2279
 7181SOL    HW233177   1.291   3.627   4.924  1.6102  0.3193  0.5328
 7182SOL     OW33178   0.477   4.067  15.422  0.4522 -0.0263 -0.1649
 7182SOL    HW133179   0.518   3.989  15.385 -0.4046 -0.1891 -0.7760
 7182SOL    HW233180   0.538   4.138  15.400 -1.2142  2.1582  2.2789
 7183SOL     OW33181   0.882   4.075   6.067  0.4032 -0.2182 -0.1017
 7183SOL    HW133182   0.894   4.081   6.162  2.0497  2.7075 -0.4831
 7183SOL    HW233183   0.805   4.131   6.060  1.4222  0.9795 -1.7913
 7184SOL     OW33184   3.260   3.181   3.749  0.1610 -0.4928 -0.0517
 7184SOL    HW133185   3.224   3.093   3.734  2.4584 -1.0730 -2.0692
 7184SOL    HW233186   3.304   3.196   3.666  0.0232 -1.4067 -0.2881
 7185SOL     OW33187   2.864   0.195   8.145 -0.0302  0.6309 -0.5512
 7185SOL    HW133188   2.882   0.102   8.160 -1.9201  0.4820  0.9448
 7185SOL    HW233189   2.957   0.216   8.148  0.4428 -1.6534  1.2306
 7186SOL     OW33190   4.019   0.713   5.025 -0.1115 -0.3670 -0.2019
 7186SOL    HW133191   3.994   0.785   5.083 -4.3164 -2.0299  0.0154
 7186SOL    HW233192   4.037   0.645   5.090 -1.3500 -0.3670  0.1353
 7187SOL     OW33193   1.027   4.221   7.600 -0.2598 -0.0952  0.0366
 7187SOL    HW133194   1.082   4.167   7.657  0.1007  1.2661  0.9641
 7187SOL    HW233195   0.981   4.290   7.647 -0.0770 -1.5018  2.2802
 7188SOL     OW33196   2.652   0.827  12.314 -0.4140  0.4213 -0.6693
 7188SOL    HW133197   2.617   0.761  12.254 -0.1135 -0.0423 -0.3419
 7188SOL    HW233198   2.594   0.899  12.291 -0.7334  0.3953  0.0592
 7189SOL     OW33199   4.515   3.447   2.386  0.1855  0.2628  0.0954
 7189SOL    HW133200   4.504   3.537   2.353 -2.1984 -0.8841 -2.2360
 7189SOL    HW233201   4.463   3.447   2.466 -2.2182 -1.3703 -1.4771
 7190SOL     OW33202   4.430   4.469  11.639  0.2153  0.3196 -0.2965
 7190SOL    HW133203   4.508   4.419  11.614  1.2148  2.1450 -0.8391
 7190SOL    HW233204   4.433   4.550  11.587 -1.9762  1.2336  1.0157
 7191SOL     OW33205   3.970   2.756  10.374  0.2270 -0.1769  0.1539
 7191SOL    HW133206   3.921   2.718  10.447  1.9548 -2.2074  0.2616
 7191SOL    HW233207   4.032   2.814  10.417  0.6658 -1.1567  0.8257
 7192SOL     OW33208   4.076   4.435  10.916 -0.7993 -0.0451  0.0843
 7192SOL    HW133209   4.147   4.474  10.865 -0.5743 -2.2617 -1.3000
 7192SOL    HW233210   4.126   4.372  10.967 -0.8826  0.7817  1.1966
 7193SOL     OW33211   0.912   2.274  14.270  0.0266 -0.1030 -0.2109
 7193SOL    HW133212   1.002   2.285  14.238  0.0944 -1.1032 -0.3607
 7193SOL    HW233213   0.937   2.221  14.345  0.7955 -0.4661 -0.7215
 7194SOL     OW33214   2.267   4.389   1.538 -0.3551  0.0926 -0.0654
 7194SOL    HW133215   2.281   4.475   1.497  1.0368 -0.6947 -1.2293
 7194SOL    HW233216   2.351   4.346   1.521  0.0423  0.4544  0.9712
 7195SOL     OW33217   3.662   3.751  17.684 -0.0215 -0.3298 -0.1676
 7195SOL    HW133218   3.628   3.838  17.665 -0.1285 -0.8152 -2.2364
 7195SOL    HW233219   3.599   3.722   0.014 -0.2802  0.2831 -0.1459
 7196SOL     OW33220   4.266   1.980  16.728  0.6931 -0.2346  0.2991
 7196SOL    HW133221   4.215   2.035  16.668 -1.1011 -0.9830  1.1255
 7196SOL    HW233222   4.250   2.035  16.805  2.9829  1.6199 -0.5391
 7197SOL     OW33223   3.495   1.632  12.827 -0.3911  0.1777  0.1887
 7197SOL    HW133224   3.475   1.721  12.857  0.4258  0.6289 -0.5930
 7197SOL    HW233225   3.438   1.628  12.750 -0.5964  1.3889  0.2738
 7198SOL     OW33226   2.662   0.374   5.563  0.0944  0.3421 -0.2453
 7198SOL    HW133227   2.607   0.452   5.556 -0.4863 -0.2074 -1.8113
 7198SOL    HW233228   2.734   0.412   5.512 -2.7620  1.6778 -3.2844
 7199SOL     OW33229   1.079   0.284   6.784  0.0924 -0.0138 -0.0217
 7199SOL    HW133230   1.142   0.308   6.852 -0.6318  1.9082 -0.0295
 7199SOL    HW233231   1.114   0.195   6.777 -2.5710 -1.2812  2.8493
 7200SOL     OW33232   1.460   4.726  14.451  0.3282 -0.0726 -0.3165
 7200SOL    HW133233   1.523   0.054  14.414 -1.9357  2.4207 -0.0154
 7200SOL    HW233234   1.397   4.706  14.381 -1.4089  2.0466  0.6283
 7201SOL     OW33235   0.610   3.122   7.510 -0.4773  0.1684 -0.1298
 7201SOL    HW133236   0.586   3.035   7.477 -0.4044 -0.7424  2.1566
 7201SOL    HW233237   0.642   3.152   7.425 -3.1575 -1.6276 -1.7836
 7202SOL     OW33238   4.190   3.877   7.554  0.2566  0.2615 -0.0070
 7202SOL    HW133239   4.098   3.873   7.580  0.6925  2.9402  1.9484
 7202SOL    HW233240   4.187   3.814   7.481  2.0775  1.0889 -0.7763
 7203SOL     OW33241   2.585   3.598   3.034  0.7367 -0.3036  0.0705
 7203SOL    HW133242   2.537   3.516   3.026  1.7157 -0.7279 -1.4944
 7203SOL    HW233243   2.603   3.616   2.941  0.1310  0.0037  0.0139
 7204SOL     OW33244   2.785   2.572  16.045 -0.2960 -0.3484 -0.4137
 7204SOL    HW133245   2.774   2.618  15.961 -0.6693  0.1630 -0.0838
 7204SOL    HW233246   2.878   2.551  16.048 -0.2512 -0.0006  0.7115
 7205SOL     OW33247   1.672   0.404   2.897 -0.5143  0.3757 -0.3474
 7205SOL    HW133248   1.759   0.442   2.881 -0.4456  1.7006  3.1061
 7205SOL    HW233249   1.622   0.477   2.862 -3.4588 -0.6367  1.7654
 7206SOL     OW33250   0.479   4.063   5.437  0.0734  0.5259 -0.9010
 7206SOL    HW133251   0.526   3.999   5.384  2.7566  1.0910  0.7456
 7206SOL    HW233252   0.514   4.137   5.388 -1.9764  2.7237  0.9930
 7207SOL     OW33253   2.806   1.646   4.341  0.5104 -0.6383  0.3167
 7207SOL    HW133254   2.795   1.719   4.279  2.3657 -1.2185 -0.6995
 7207SOL    HW233255   2.814   1.702   4.418 -1.0894  2.2289 -1.5848
 7208SOL     OW33256   2.189   1.864   8.661 -0.6814 -0.5995  0.3051
 7208SOL    HW133257   2.269   1.838   8.616 -1.4914 -1.4850 -0.6166
 7208SOL    HW233258   2.115   1.853   8.601 -0.3891 -1.2129  0.0562
 7209SOL     OW33259   2.269   3.854   5.630  0.0175 -0.2838  0.2084
 7209SOL    HW133260   2.293   3.872   5.720  0.9472  0.8888 -0.2744
 7209SOL    HW233261   2.329   3.785   5.604  2.6910  1.4538  1.7578
 7210SOL     OW33262   2.833   3.941   3.975  0.2063 -0.1182 -0.3820
 7210SOL    HW133263   2.800   3.992   4.049  0.6823  0.1462 -0.3525
 7210SOL    HW233264   2.746   3.912   3.947 -1.1503  0.9410  2.7879
 7211SOL     OW33265   1.878   1.088  15.251 -0.4881  0.7250 -0.6046
 7211SOL    HW133266   1.845   1.113  15.165 -2.1895  1.4980  0.2760
 7211SOL    HW233267   1.828   1.009  15.274  1.9465 -0.6484 -0.0444
 7212SOL     OW33268   0.103   1.243   3.252  0.3546  0.0427  0.6998
 7212SOL    HW133269   0.115   1.277   3.340  0.3705 -1.8946  1.4457
 7212SOL    HW233270   0.116   1.323   3.201 -0.9984 -0.4903 -0.4729
 7213SOL     OW33271   3.805   4.284  13.023  0.5601 -0.5346  0.2970
 7213SOL    HW133272   3.878   4.343  13.002  0.2347 -0.2473 -0.0206
 7213SOL    HW233273   3.729   4.339  13.007 -0.1706 -1.8422 -0.6478
 7214SOL     OW33274   1.889   1.632   9.429 -0.2193 -0.6299 -0.3196
 7214SOL    HW133275   1.957   1.574   9.465  1.1560  1.6831  0.7929
 7214SOL    HW233276   1.842   1.663   9.506  0.6515  0.4102 -0.2108
 7215SOL     OW33277   3.604   2.537   6.694  0.0761  0.1191  0.5228
 7215SOL    HW133278   3.652   2.619   6.696  0.1059  0.0738  1.3690
 7215SOL    HW233279   3.520   2.576   6.719 -1.5114 -1.0993 -2.8169
 7216SOL     OW33280   0.253   3.982   8.718 -0.1749 -0.3175 -0.1077
 7216SOL    HW133281   0.255   4.020   8.806 -0.5259  2.2965 -1.2232
 7216SOL    HW233282   0.321   3.915   8.713 -1.8581 -2.1889  2.3330
 7217SOL     OW33283   2.672   1.660   6.191  0.0628  0.3027  0.3066
 7217SOL    HW133284   2.690   1.568   6.173 -1.4107  0.2171 -0.7280
 7217SOL    HW233285   2.719   1.666   6.274  1.5628  1.2388 -0.6134
 7218SOL     OW33286   2.610   1.102   2.540 -0.3472 -0.3663  0.0003
 7218SOL    HW133287   2.646   1.174   2.593  1.0422  0.8811 -2.6280
 7218SOL    HW233288   2.521   1.100   2.576  0.4844 -0.5644  2.0560
 7219SOL     OW33289   1.065   0.904   3.169 -0.0075 -0.3136 -0.6151
 7219SOL    HW133290   0.989   0.853   3.142 -1.4005  1.4280  0.0176
 7219SOL    HW233291   1.072   0.959   3.091 -2.2125  0.4517 -0.2881
 7220SOL     OW33292   0.777   3.928   4.459  0.0896  0.3504  0.0908
 7220SOL    HW133293   0.754   3.950   4.549  2.8436  2.8297  0.2063
 7220SOL    HW233294   0.708   3.866   4.436 -0.2330  0.9983 -0.6860
 7221SOL     OW33295   3.837   3.118   0.686 -0.3700  0.4058  0.2061
 7221SOL    HW133296   3.838   3.075   0.600 -0.2272  1.4740 -0.3225
 7221SOL    HW233297   3.798   3.199   0.653 -0.3403 -0.0663 -0.9896
 7222SOL     OW33298   2.787   1.718   4.047  0.1236 -0.4576  0.1314
 7222SOL    HW133299   2.725   1.650   4.074 -1.2208 -0.0936 -2.0754
 7222SOL    HW233300   2.848   1.666   3.995 -0.8962 -0.5370 -0.9938
 7223SOL     OW33301   0.134   3.248   1.323 -0.6340 -0.2123  0.5877
 7223SOL    HW133302   0.156   3.233   1.232 -1.5251 -0.2130  0.3669
 7223SOL    HW233303   0.081   3.328   1.319 -0.7763 -0.3843 -1.0065
 7224SOL     OW33304   3.001   4.635   4.740 -0.4960  0.1344  0.3233
 7224SOL    HW133305   3.090   4.627   4.706  0.1510 -0.4484  2.1875
 7224SOL    HW233306   2.969   4.679   4.661 -0.8143 -1.4420 -0.4228
 7225SOL     OW33307   0.618   1.463   8.614 -0.0264 -0.2911  0.2839
 7225SOL    HW133308   0.544   1.517   8.587  0.4287  0.5538  0.7031
 7225SOL    HW233309   0.681   1.522   8.655 -0.3581  0.1187  0.2010
 7226SOL     OW33310   1.640   2.102   2.583  0.5272  0.1393 -0.4118
 7226SOL    HW133311   1.607   2.192   2.578  1.1433  0.3419 -0.7556
 7226SOL    HW233312   1.603   2.067   2.664  0.1658 -0.7521 -0.9575
 7227SOL     OW33313   3.931   3.237   6.017  0.3663 -0.1352  0.0812
 7227SOL    HW133314   3.930   3.330   6.043  2.6023 -0.1656  0.3079
 7227SOL    HW233315   3.893   3.192   6.092  1.3428 -2.4243 -0.8209
 7228SOL     OW33316   4.677   4.142  12.269  0.0471 -0.7028 -0.2583
 7228SOL    HW133317   4.609   4.105  12.325  1.0454 -0.2812  1.2400
 7228SOL    HW233318   4.704   4.067  12.216 -0.0223 -0.5183 -0.5549
 7229SOL     OW33319   1.906   4.096   5.540  0.1695 -0.1898  0.0391
 7229SOL    HW133320   1.906   4.068   5.631  0.4942 -0.6342 -0.0935
 7229SOL    HW233321   1.811   4.105   5.532  0.1658  0.3581  0.7300
 7230SOL     OW33322   4.614   1.218   7.338  0.1315  0.3777 -0.9180
 7230SOL    HW133323   4.609   1.123   7.330 -0.9261  0.2203  1.4933
 7230SOL    HW233324   4.705   1.235   7.366 -0.2950 -0.7787  1.1619
 7231SOL     OW33325   3.974   0.132   4.543 -0.3425  0.0796 -0.7433
 7231SOL    HW133326   4.013   0.073   4.607 -1.3205  0.4612  0.2133
 7231SOL    HW233327   4.004   0.216   4.580 -0.4171 -0.6411  0.9645
 7232SOL     OW33328   1.974   4.371   5.589  0.0872  0.0501 -0.0276
 7232SOL    HW133329   1.893   4.352   5.542  0.5848  0.4152 -1.0377
 7232SOL    HW233330   2.005   4.282   5.604  1.7683  0.6188 -0.1306
 7233SOL     OW33331   1.007   1.047   2.122  0.4856 -0.8797 -0.1599
 7233SOL    HW133332   0.934   1.102   2.094 -1.5412 -2.4766  1.9478
 7233SOL    HW233333   0.974   0.957   2.116  1.0424 -1.0055 -1.3906
 7234SOL     OW33334   3.902   0.758   4.400  0.4942  0.3635  0.1054
 7234SOL    HW133335   3.875   0.844   4.367 -0.0649  0.2455  0.2530
 7234SOL    HW233336   3.860   0.696   4.341 -1.6320  0.3185  1.6534
 7235SOL     OW33337   3.231   3.332  14.875 -0.0134  0.0059 -0.2214
 7235SOL    HW133338   3.203   3.341  14.784 -5.6399 -0.4096  1.4376
 7235SOL    HW233339   3.300   3.267  14.863  0.8679  0.9570 -0.2113
 7236SOL     OW33340   4.054   0.729   5.329  0.2244 -0.1658  0.5668
 7236SOL    HW133341   4.058   0.817   5.294 -1.8604 -0.8337 -1.3678
 7236SOL    HW233342   4.070   0.755   5.420  0.0968  0.7090  0.3382
 7237SOL     OW33343   3.846   4.234   6.962  0.1264 -0.2560  0.4881
 7237SOL    HW133344   3.804   4.310   7.002  0.3721  0.6764 -1.0125
 7237SOL    HW233345   3.848   4.174   7.036  0.4002 -0.2199  0.5076
 7238SOL     OW33346   4.013   4.696   0.015  0.3409  0.5067 -0.1031
 7238SOL    HW133347   4.024   0.024   0.087  1.9156 -0.6112  0.6382
 7238SOL    HW233348   4.101   4.700  17.714  1.5784 -2.8684  2.5040
 7239SOL     OW33349   4.602   1.971   8.829  0.3302  0.1080  0.7755
 7239SOL    HW133350   4.626   1.933   8.913  0.2689 -0.2213  0.6430
 7239SOL    HW233351   4.525   2.024   8.852  0.5681  0.7363  0.1324
 7240SOL     OW33352   4.357   0.352   8.204 -0.1399 -0.3891 -0.2829
 7240SOL    HW133353   4.372   0.443   8.231 -1.1978 -0.8849  1.9899
 7240SOL    HW233354   4.383   0.342   8.113  2.1150  1.5148  0.1316
 7241SOL     OW33355   0.829   1.032   0.494  0.2230 -0.2580 -0.6391
 7241SOL    HW133356   0.894   1.056   0.560  0.0963  0.7732 -0.8951
 7241SOL    HW233357   0.756   1.075   0.537 -1.1984 -2.2987 -1.0135
 7242SOL     OW33358   4.720   0.437   2.053 -0.4025  0.2835  0.3303
 7242SOL    HW133359   4.704   0.436   2.147 -2.6476 -1.0630 -0.0588
 7242SOL    HW233360   4.632   0.417   2.022  0.1229  0.3208 -1.1741
 7243SOL     OW33361   1.977   4.603   3.498  0.4526 -0.0988 -0.6324
 7243SOL    HW133362   2.030   4.536   3.543 -0.3231 -0.6295 -0.5046
 7243SOL    HW233363   2.042   4.672   3.488  0.4984 -0.0900 -0.2857
 7244SOL     OW33364   1.320   3.624  15.099 -0.5954 -0.6994 -0.5481
 7244SOL    HW133365   1.237   3.626  15.051 -0.8381  0.2412 -0.0942
 7244SOL    HW233366   1.311   3.532  15.123 -0.3267 -0.6446 -0.2456
 7245SOL     OW33367   1.929   0.569   1.004  0.5023 -0.1771 -0.5785
 7245SOL    HW133368   1.951   0.630   1.074  0.6271 -0.4154 -0.4086
 7245SOL    HW233369   1.849   0.530   1.040  0.8240 -0.5134 -0.2286
 7246SOL     OW33370   3.772   2.424   7.056  0.7043  0.4345  0.3390
 7246SOL    HW133371   3.686   2.387   7.078  1.2125  0.8007  2.8629
 7246SOL    HW233372   3.798   2.462   7.140 -1.3787  1.3336  0.5854
 7247SOL     OW33373   1.339   4.282   7.637 -0.0458  0.4027 -0.2327
 7247SOL    HW133374   1.322   4.192   7.610  1.6401  0.1593 -0.4870
 7247SOL    HW233375   1.271   4.292   7.705  0.2152  1.1775 -0.0875
 7248SOL     OW33376   0.614   1.787  17.500  0.0911 -0.3451  0.4536
 7248SOL    HW133377   0.545   1.851  17.483 -0.7150 -1.3516 -0.0481
 7248SOL    HW233378   0.563   1.706  17.495 -0.4751  0.0883 -0.7912
 7249SOL     OW33379   1.427   0.253  16.923  0.0241  0.4094  0.0454
 7249SOL    HW133380   1.437   0.266  16.829 -0.3451 -0.4814 -0.1144
 7249SOL    HW233381   1.481   0.326  16.954  0.7962  0.3034 -1.0662
 7250SOL     OW33382   1.371   0.800   7.496 -0.6510  0.2162  0.1065
 7250SOL    HW133383   1.423   0.741   7.441 -2.7446 -0.7588 -0.8353
 7250SOL    HW233384   1.414   0.885   7.486  0.5543 -0.2461  1.2803
 7251SOL     OW33385   0.525   3.848   4.465 -0.1065  0.1711  0.5706
 7251SOL    HW133386   0.453   3.858   4.403  0.5795  1.4898 -0.0021
 7251SOL    HW233387   0.511   3.907   4.539 -0.5728  2.0903 -1.0476
 7252SOL     OW33388   3.002   2.139  16.854  0.7804  0.1771 -0.0993
 7252SOL    HW133389   2.950   2.219  16.867  0.6222  0.2776 -1.4165
 7252SOL    HW233390   3.023   2.124  16.946 -3.5343 -0.3690  0.8223
 7253SOL     OW33391   3.227   2.988   8.945  0.8304 -0.4422  0.3803
 7253SOL    HW133392   3.248   3.079   8.967  0.6332 -0.2599 -0.1997
 7253SOL    HW233393   3.194   2.970   9.033 -2.3317  0.5510 -0.6001
 7254SOL     OW33394   3.254   2.288  15.504 -0.1157  0.5544  0.3530
 7254SOL    HW133395   3.329   2.263  15.558 -0.2967 -0.6406  0.0652
 7254SOL    HW233396   3.250   2.382  15.522  1.9582  0.7684 -0.2510
 7255SOL     OW33397   4.050   4.689   6.567  0.1863  0.8309 -0.1823
 7255SOL    HW133398   4.027   4.621   6.631 -1.0651  2.0602  0.6725
 7255SOL    HW233399   4.030   0.034   6.618 -0.2383 -0.1879  1.2309
 7256SOL     OW33400   4.519   1.225   0.757  0.5538 -0.0275 -0.1510
 7256SOL    HW133401   4.560   1.150   0.800  0.4276  0.7035  1.2340
 7256SOL    HW233402   4.456   1.184   0.697  0.6565  0.4801 -0.5989
 7257SOL     OW33403   4.026   0.009  10.434  0.1023  0.3187  0.4075
 7257SOL    HW133404   3.988   4.656  10.443 -0.8981  0.6345 -0.7437
 7257SOL    HW233405   4.102   4.722  10.489  0.8858  0.5081 -0.5988
 7258SOL     OW33406   1.319   2.444   6.154  0.5112 -0.1670 -0.0926
 7258SOL    HW133407   1.413   2.438   6.169  0.6918  1.1572 -0.7193
 7258SOL    HW233408   1.295   2.460   6.245 -0.2019  0.9527 -0.4843
 7259SOL     OW33409   2.445   4.207   4.203 -0.0881 -0.1558 -0.6310
 7259SOL    HW133410   2.432   4.276   4.137  0.8086  0.2046 -0.4317
 7259SOL    HW233411   2.359   4.188   4.239 -0.0753 -0.2929 -0.6710
 7260SOL     OW33412   4.299   1.169  14.430  0.1478  0.1902 -0.2292
 7260SOL    HW133413   4.376   1.132  14.473  0.3789  1.7927  0.7593
 7260SOL    HW233414   4.252   1.092  14.399  1.1087  0.9786 -3.6402
 7261SOL     OW33415   4.167   4.640  11.112  0.2296  0.0622  0.2468
 7261SOL    HW133416   4.082   4.659  11.153  1.2815 -1.2411  3.0171
 7261SOL    HW233417   4.160   4.696  11.034  0.1316 -0.6923 -0.2811
 7262SOL     OW33418   4.325   4.290   7.498  0.7865 -0.1534 -0.4552
 7262SOL    HW133419   4.304   4.219   7.437  0.4188  0.4618 -1.0495
 7262SOL    HW233420   4.318   4.362   7.435  0.7243  0.7905  0.6354
 7263SOL     OW33421   3.393   2.357  15.921  0.0746  0.4343 -0.5135
 7263SOL    HW133422   3.345   2.291  15.970 -0.2228  1.2050  0.2382
 7263SOL    HW233423   3.364   2.436  15.968 -1.9370 -1.7762  1.9803
 7264SOL     OW33424   4.573   1.651   6.991 -0.0897 -0.4220  0.1488
 7264SOL    HW133425   4.622   1.573   6.964 -0.1310 -0.3261 -0.1943
 7264SOL    HW233426   4.575   1.630   7.085 -0.8291  1.0608  0.4897
 7265SOL     OW33427   1.184   3.179   6.912  0.4200  0.1927  0.4089
 7265SOL    HW133428   1.247   3.250   6.930 -0.3166  1.3664 -1.5875
 7265SOL    HW233429   1.245   3.110   6.886  0.0849 -0.6146  1.8105
 7266SOL     OW33430   1.638   3.998   2.080 -0.6258 -0.5145  0.4093
 7266SOL    HW133431   1.568   4.051   2.042  1.1024  1.8488  0.5357
 7266SOL    HW233432   1.635   4.015   2.174 -0.3750 -0.6256  0.4387
 7267SOL     OW33433   2.707   1.093   3.120 -0.0483  0.2056  0.0448
 7267SOL    HW133434   2.749   1.141   3.191 -0.1828  0.9278 -0.3669
 7267SOL    HW233435   2.635   1.153   3.101 -0.7135 -1.0510 -1.4443
 7268SOL     OW33436   0.510   1.955   2.859  0.0302 -0.2657  0.4487
 7268SOL    HW133437   0.483   2.012   2.931  2.6008  1.4115  0.0900
 7268SOL    HW233438   0.591   1.994   2.825 -1.0219  0.6083 -1.0291
 7269SOL     OW33439   0.415   0.930   2.861  0.3800 -0.7499  0.0511
 7269SOL    HW133440   0.358   1.007   2.863  0.5449 -0.6239 -0.1001
 7269SOL    HW233441   0.454   0.940   2.774 -0.6274 -0.4844 -0.3748
 7270SOL     OW33442   4.208   2.900  11.534  0.2478  0.2359 -0.2886
 7270SOL    HW133443   4.284   2.950  11.561  0.5680 -0.3904 -0.0370
 7270SOL    HW233444   4.176   2.872  11.619 -0.9686  0.4591 -0.6679
 7271SOL     OW33445   3.604   1.859   5.414 -0.4328  0.2799  0.2202
 7271SOL    HW133446   3.609   1.863   5.318 -0.5751  0.6547  0.2290
 7271SOL    HW233447   3.528   1.913   5.434 -1.2818 -1.4347  1.5973
 7272SOL     OW33448   0.287   0.053  17.623 -0.4364  0.6163 -0.1504
 7272SOL    HW133449   0.379   0.050  17.649 -0.0498  2.5374 -1.3161
 7272SOL    HW233450   0.278   4.699  17.586 -0.6418 -0.1086  1.6030
 7273SOL     OW33451   4.533   3.505   6.998  0.4385  1.1380  0.1084
 7273SOL    HW133452   4.563   3.428   7.047 -1.7181 -1.8012 -3.1985
 7273SOL    HW233453   4.509   3.550   7.079  0.1190  1.6130 -0.2523
 7274SOL     OW33454   1.734   0.001   9.465  0.0575 -0.0636  0.3967
 7274SOL    HW133455   1.655   4.683   9.456 -0.2416  0.7193 -1.6638
 7274SOL    HW233456   1.799   4.670   9.440 -0.4379 -0.4746  0.1854
 7275SOL     OW33457   4.585   3.870  10.642  0.1057 -0.1994  0.1997
 7275SOL    HW133458   4.602   3.789  10.691 -0.8680 -0.4244  0.1543
 7275SOL    HW233459   4.543   3.820  10.572 -0.6495  0.2546  0.3355
 7276SOL     OW33460   3.890   2.074   2.136 -0.4904  0.4286  0.0748
 7276SOL    HW133461   3.827   2.103   2.070 -1.5546 -0.3717  0.7340
 7276SOL    HW233462   3.828   2.008   2.168  0.8261 -0.9609 -0.2529
 7277SOL     OW33463   3.881   0.752  17.546 -0.1888  0.7724  0.0979
 7277SOL    HW133464   3.853   0.687  17.611 -1.6197  0.9938 -0.3080
 7277SOL    HW233465   3.872   0.826  17.605 -1.5067 -1.2276  2.4154
 7278SOL     OW33466   1.916   3.386  15.835 -0.2187  0.8358  0.8899
 7278SOL    HW133467   1.849   3.338  15.884 -0.2333 -0.0386  0.0210
 7278SOL    HW233468   1.872   3.403  15.751 -0.4598 -0.5288  0.7255
 7279SOL     OW33469   3.048   4.209   0.567 -0.0144  0.0568 -0.3811
 7279SOL    HW133470   3.140   4.186   0.570  0.4102  1.9394  0.6179
 7279SOL    HW233471   3.013   4.135   0.518 -1.7450 -0.1567  1.1706
 7280SOL     OW33472   1.967   2.398  14.828 -0.5391  0.8488  0.7894
 7280SOL    HW133473   1.884   2.401  14.877 -1.6815  1.1208 -1.1818
 7280SOL    HW233474   2.030   2.353  14.885 -1.6905  0.2619  1.5996
 7281SOL     OW33475   3.532   4.162   7.062 -0.2129  0.0344 -0.3790
 7281SOL    HW133476   3.533   4.085   7.120 -0.7850  0.1260 -0.2438
 7281SOL    HW233477   3.579   4.225   7.116 -0.6458  0.4610 -0.5023
 7282SOL     OW33478   0.009   3.737   5.209  0.3919  0.0445 -0.5381
 7282SOL    HW133479   0.039   3.658   5.255  1.8918  1.3566  0.7404
 7282SOL    HW233480   0.094   3.772   5.181  0.3542  0.1149 -0.5638
 7283SOL     OW33481   0.825   0.059  13.592  0.3809 -0.6159  0.3749
 7283SOL    HW133482   0.798   0.145  13.560  0.1463 -0.5030  0.8811
 7283SOL    HW233483   0.743   0.011  13.604  0.4395 -0.5745  0.9559
 7284SOL     OW33484   4.591   1.947   3.966 -0.3167  0.7522 -0.1510
 7284SOL    HW133485   4.516   1.983   4.013  1.2411  0.3258  2.6491
 7284SOL    HW233486   4.611   1.880   4.031 -2.8804 -1.1898 -1.3528
 7285SOL     OW33487   4.312   2.044   8.922 -0.2304 -0.9444 -0.2916
 7285SOL    HW133488   4.300   2.003   8.837  0.8329  0.4678 -1.1152
 7285SOL    HW233489   4.257   2.002   8.988  0.3601  1.1925  1.5686
 7286SOL     OW33490   0.227   2.697  17.092  0.8118  0.9358  0.5284
 7286SOL    HW133491   0.155   2.741  17.138  1.9211  1.9673  1.2714
 7286SOL    HW233492   0.277   2.776  17.073  1.1837  0.6078  0.1407
 7287SOL     OW33493   3.302   1.675   2.548  0.1123 -0.6956  0.2786
 7287SOL    HW133494   3.247   1.752   2.535  1.5239  0.3935  0.7930
 7287SOL    HW233495   3.265   1.647   2.632  0.1807  1.9640  1.1916
 7288SOL     OW33496   4.593   3.757   2.092  0.2207 -0.1303 -0.8120
 7288SOL    HW133497   4.643   3.781   2.014  2.2378 -0.8999  0.2187
 7288SOL    HW233498   4.530   3.692   2.063 -1.2371  1.5292 -1.3393
 7289SOL     OW33499   2.985   4.344   3.597 -0.1446 -0.2091 -0.2761
 7289SOL    HW133500   2.981   4.280   3.668  1.3157  0.9651  0.8834
 7289SOL    HW233501   2.917   4.321   3.534  0.2181  0.9163 -1.0672
 7290SOL     OW33502   1.212   0.589   7.276  0.0868 -0.4321  0.3399
 7290SOL    HW133503   1.145   0.631   7.329 -1.0485 -1.0032 -0.6521
 7290SOL    HW233504   1.272   0.662   7.263 -0.0410 -0.4999 -0.6542
 7291SOL     OW33505   3.069   4.338  15.729 -0.1572  0.4852  0.1669
 7291SOL    HW133506   3.083   4.255  15.684 -1.1323  0.3426  0.1185
 7291SOL    HW233507   3.109   4.403  15.671 -0.4448 -0.1976 -0.7928
 7292SOL     OW33508   3.485   0.770   9.778  0.5183 -0.4909  0.3658
 7292SOL    HW133509   3.571   0.806   9.797  0.3753 -0.3069  0.6683
 7292SOL    HW233510   3.509   0.693   9.727 -1.0575 -0.5228 -0.3484
 7293SOL     OW33511   0.356   2.177   5.834  0.4788  0.0286  0.0444
 7293SOL    HW133512   0.275   2.131   5.814  0.9063 -0.2595 -1.0170
 7293SOL    HW233513   0.412   2.133   5.770  0.0277  0.2934 -0.5328
 7294SOL     OW33514   2.575   3.863   3.959 -1.2411 -0.7643 -0.5844
 7294SOL    HW133515   2.479   3.856   3.959 -0.9851 -4.1454 -0.7755
 7294SOL    HW233516   2.592   3.769   3.956  0.3399 -0.4246 -1.6240
 7295SOL     OW33517   2.604   1.261   4.751  0.3327 -0.3697  0.0936
 7295SOL    HW133518   2.676   1.198   4.754  0.6176 -0.0438 -0.0599
 7295SOL    HW233519   2.629   1.314   4.675  0.3991 -0.7755 -0.1685
 7296SOL     OW33520   1.004   1.715  16.879 -0.3786 -0.1606  0.5083
 7296SOL    HW133521   0.943   1.747  16.813  1.0527 -0.8858 -1.1654
 7296SOL    HW233522   0.999   1.783  16.947  1.4107  1.5798 -1.0714
 7297SOL     OW33523   0.090   3.768   4.834 -0.2414 -0.0672 -0.4172
 7297SOL    HW133524   0.101   3.700   4.901  0.4445  0.0687 -0.3837
 7297SOL    HW233525   0.071   3.721   4.753  2.4171  0.9520 -1.6605
 7298SOL     OW33526   4.532   1.018   0.933 -0.0478 -0.0255  0.3942
 7298SOL    HW133527   4.545   0.934   0.978  0.6944 -0.3386 -0.4043
 7298SOL    HW233528   4.486   1.068   1.001 -1.2244 -0.0281 -0.4075
 7299SOL     OW33529   3.306   0.362   7.671  0.0048  0.0596 -0.7862
 7299SOL    HW133530   3.213   0.375   7.687  0.0592  0.5222 -0.8582
 7299SOL    HW233531   3.329   0.450   7.642  0.1811  0.9682  2.0843
 7300SOL     OW33532   0.070   0.287   4.054  0.5240 -0.0997 -0.0160
 7300SOL    HW133533   0.105   0.317   4.137  0.1691 -0.9361  0.4317
 7300SOL    HW233534   0.074   0.192   4.064 -1.6848 -0.1335  0.5985
 7301SOL     OW33535   1.193   3.356  13.419  0.0619 -0.3068 -0.0198
 7301SOL    HW133536   1.106   3.319  13.433 -1.7246  2.8890 -2.6188
 7301SOL    HW233537   1.242   3.275  13.406 -1.1111 -1.1732  0.9896
 7302SOL     OW33538   2.031   3.701   5.914 -0.0039 -0.5487  0.0835
 7302SOL    HW133539   1.981   3.727   5.992  2.0541  0.0788  1.1884
 7302SOL    HW233540   2.122   3.683   5.937  0.1184  1.6672  1.3269
 7303SOL     OW33541   3.376   1.060  11.717  0.2042 -0.1687  0.2153
 7303SOL    HW133542   3.358   0.987  11.777 -0.0830 -0.3285 -0.0654
 7303SOL    HW233543   3.331   1.029  11.638 -0.5594 -1.2721  1.0817
 7304SOL     OW33544   3.762   1.340   8.505  0.1913  0.3005  0.0448
 7304SOL    HW133545   3.839   1.397   8.514 -1.0749  1.8523  1.0632
 7304SOL    HW233546   3.706   1.402   8.552 -2.1818 -0.2826 -2.0042
 7305SOL     OW33547   1.830   0.203   8.858 -0.5474  0.3913 -0.2694
 7305SOL    HW133548   1.881   0.196   8.939 -0.7558 -2.3134 -0.3703
 7305SOL    HW233549   1.740   0.209   8.890 -0.9467  1.5961 -1.6414
 7306SOL     OW33550   2.504   1.937   0.846 -0.4763  0.2950 -0.0474
 7306SOL    HW133551   2.587   1.981   0.825  0.5421 -0.4694  2.3665
 7306SOL    HW233552   2.508   1.874   0.775  1.1509  0.1092  0.2050
 7307SOL     OW33553   3.379   4.298   9.070  0.2718 -0.3651  0.2901
 7307SOL    HW133554   3.468   4.270   9.092  0.8186  0.7591 -0.5117
 7307SOL    HW233555   3.345   4.341   9.149 -2.0693  2.0176 -2.0531
 7308SOL     OW33556   2.844   4.101   2.936 -0.3753 -0.4090 -0.8677
 7308SOL    HW133557   2.772   4.112   2.874 -0.7929 -2.5067 -0.7451
 7308SOL    HW233558   2.909   4.075   2.871 -0.4071 -2.6719 -0.0038
 7309SOL     OW33559   2.871   1.476  15.062 -0.5785  0.3483  0.7400
 7309SOL    HW133560   2.849   1.422  15.137  0.1773 -2.0224 -0.7584
 7309SOL    HW233561   2.966   1.469  15.060 -0.7188 -1.2960  0.0173
 7310SOL     OW33562   3.009   0.491   4.000  0.1671  0.4067  0.2055
 7310SOL    HW133563   3.060   0.519   4.076 -3.0321 -1.8287  3.1827
 7310SOL    HW233564   3.012   0.396   4.009  2.8515  0.3528 -1.5038
 7311SOL     OW33565   0.756   0.725   5.685  0.0216  0.5013 -0.0451
 7311SOL    HW133566   0.821   0.763   5.744 -0.7377  0.3344  0.8995
 7311SOL    HW233567   0.743   0.637   5.719 -0.9107  1.2241  1.4712
 7312SOL     OW33568   0.925   2.524   0.925  0.6719 -0.5533  0.2593
 7312SOL    HW133569   0.905   2.485   1.010  0.1298  1.8220  1.2428
 7312SOL    HW233570   0.836   2.541   0.892  1.3498  0.3336 -1.1604
 7313SOL     OW33571   2.462   3.475   4.471  0.3269 -0.1222  0.2426
 7313SOL    HW133572   2.455   3.562   4.431  1.2008  0.3318  1.0674
 7313SOL    HW233573   2.379   3.464   4.517  1.1402  1.5221  2.0923
 7314SOL     OW33574   2.383   0.440   3.976 -0.3019  0.0413 -0.4588
 7314SOL    HW133575   2.375   0.359   4.026  1.5249  0.2571  0.2155
 7314SOL    HW233576   2.359   0.411   3.888  0.6003  0.2291 -0.7740
 7315SOL     OW33577   4.079   1.170   1.802 -0.0596 -0.4454  0.0618
 7315SOL    HW133578   4.167   1.162   1.765  1.7795  1.2306  4.1127
 7315SOL    HW233579   4.087   1.176   1.897  1.9329 -0.7204 -0.0890
 7316SOL     OW33580   1.317   4.448   4.297  0.3810 -0.7432 -0.2208
 7316SOL    HW133581   1.263   4.493   4.362 -1.8573 -4.1175  0.2657
 7316SOL    HW233582   1.320   4.361   4.338  1.5481  0.0834  1.4471
 7317SOL     OW33583   4.159   3.565  16.421 -0.1887 -0.2204 -0.1305
 7317SOL    HW133584   4.082   3.602  16.379 -0.4695 -1.2068 -0.4844
 7317SOL    HW233585   4.226   3.584  16.355  0.4861  1.4733  1.0569
 7318SOL     OW33586   2.990   4.041   6.621  0.8046  0.1998  0.7196
 7318SOL    HW133587   3.033   4.122   6.593 -2.3473  0.6408 -2.9247
 7318SOL    HW233588   2.999   3.991   6.539 -0.4011  1.6695 -0.3101
 7319SOL     OW33589   2.856   0.652   2.553  0.3676 -0.3017  0.4580
 7319SOL    HW133590   2.947   0.658   2.582  0.4264  2.2966 -0.2866
 7319SOL    HW233591   2.819   0.727   2.599 -1.3218 -0.7022 -0.2689
 7320SOL     OW33592   0.927   3.364   5.367  0.1513 -0.0748 -0.1304
 7320SOL    HW133593   0.947   3.347   5.459  0.4291  2.3216  0.2340
 7320SOL    HW233594   0.888   3.278   5.347 -2.3048  0.5783  1.9329
 7321SOL     OW33595   4.311   2.019  15.738 -0.0813 -0.9123  0.0378
 7321SOL    HW133596   4.250   1.950  15.712 -1.8736  0.6633  0.0587
 7321SOL    HW233597   4.238   2.075  15.766  1.4456  0.5551  1.1011
 7322SOL     OW33598   4.210   1.875   5.763 -0.5594  0.2989  0.4635
 7322SOL    HW133599   4.222   1.862   5.857  1.0751 -0.9299  0.0943
 7322SOL    HW233600   4.136   1.935   5.764  0.0246  1.0283 -1.2622
 7323SOL     OW33601   1.388   1.513  14.908  0.8564 -0.8011  0.3467
 7323SOL    HW133602   1.431   1.590  14.945 -0.1914 -0.2104  0.3426
 7323SOL    HW233603   1.306   1.503  14.956 -0.7578  1.5010 -1.9337
 7324SOL     OW33604   1.696   2.612   2.521  0.2864 -0.0365 -0.0189
 7324SOL    HW133605   1.709   2.650   2.435  2.3617  1.5104  0.9730
 7324SOL    HW233606   1.640   2.678   2.561  1.3977  0.1857  1.1947
 7325SOL     OW33607   1.564   4.520   2.955 -0.2267 -0.3910 -0.2818
 7325SOL    HW133608   1.492   4.524   2.892  0.3423  1.4025 -0.7995
 7325SOL    HW233609   1.620   4.580   2.906  1.0040  0.2327  1.8830
 7326SOL     OW33610   1.562   3.891   4.777  0.3287  0.4106 -0.7154
 7326SOL    HW133611   1.560   3.899   4.682 -0.7384 -2.4487 -0.9470
 7326SOL    HW233612   1.654   3.896   4.805 -0.7237  0.8562  2.6413
 7327SOL     OW33613   3.885   4.629  16.021 -0.0105 -0.6352  0.1282
 7327SOL    HW133614   3.859   4.609  15.932  0.7950  2.2559 -0.7629
 7327SOL    HW233615   3.906   4.721  16.006 -1.2862 -0.7705 -2.4803
 7328SOL     OW33616   1.668   1.086   6.137 -0.1064 -0.0233 -0.0156
 7328SOL    HW133617   1.695   1.012   6.190 -1.4203 -0.7509 -0.3547
 7328SOL    HW233618   1.685   1.163   6.191  0.8959  0.2501 -0.7383
 7329SOL     OW33619   3.844   1.046   6.728 -0.5289  0.6131 -0.3950
 7329SOL    HW133620   3.869   1.138   6.735 -1.5648  1.0862 -2.9594
 7329SOL    HW233621   3.792   1.032   6.807 -0.1205 -0.6719 -0.3493
 7330SOL     OW33622   0.579   4.561   0.865 -0.2213  0.4738 -0.1100
 7330SOL    HW133623   0.616   4.496   0.924 -1.0721  1.1530  1.1910
 7330SOL    HW233624   0.653   4.613   0.836 -1.0041  1.6602  0.0112
 7331SOL     OW33625   4.654   0.270  17.288 -0.1647  0.4342  0.2667
 7331SOL    HW133626   4.680   0.195  17.236  2.0061  0.5885  1.1312
 7331SOL    HW233627   4.705   0.260  17.368  0.5551  1.6767 -0.0356
 7332SOL     OW33628   3.364   1.223   3.366 -0.3276  0.7322 -0.7135
 7332SOL    HW133629   3.421   1.296   3.389  2.4693 -1.1435 -1.6785
 7332SOL    HW233630   3.284   1.267   3.339 -0.2530  0.0244 -2.1168
 7333SOL     OW33631   3.280   1.690   4.559  0.0400 -0.2026 -0.1531
 7333SOL    HW133632   3.214   1.749   4.596 -0.3222  0.1062 -1.2818
 7333SOL    HW233633   3.346   1.707   4.626 -1.3171 -1.2263  1.4613
 7334SOL     OW33634   4.203   3.673   3.277  0.0369 -0.2597 -0.2442
 7334SOL    HW133635   4.121   3.627   3.294 -1.5100  2.1424 -1.3112
 7334SOL    HW233636   4.246   3.668   3.363 -2.7180 -0.4797  1.0977
 7335SOL     OW33637   1.840   1.197   0.186  0.5195  0.2857  0.2969
 7335SOL    HW133638   1.760   1.227   0.143  0.6878  1.5521  0.8648
 7335SOL    HW233639   1.808   1.152   0.264  0.6870  3.0393  1.9605
 7336SOL     OW33640   2.529   2.260   0.743  0.2299 -0.0296  0.5763
 7336SOL    HW133641   2.588   2.192   0.712  0.3275  0.4267 -0.2406
 7336SOL    HW233642   2.500   2.295   0.659  1.8215 -0.6082 -0.2196
 7337SOL     OW33643   1.626   2.194   5.919  0.5047 -0.4473 -0.1101
 7337SOL    HW133644   1.640   2.159   6.006 -1.5238 -0.7005  0.1156
 7337SOL    HW233645   1.531   2.182   5.911  0.4896  1.9043 -3.4830
 7338SOL     OW33646   2.871   1.111   8.001 -0.6706 -0.3651  0.1882
 7338SOL    HW133647   2.898   1.085   8.089 -1.4769 -1.8847 -0.0177
 7338SOL    HW233648   2.776   1.115   8.009 -0.8753  1.1053 -3.1454
 7339SOL     OW33649   2.361   0.861   2.546 -0.2836 -0.0679 -0.2188
 7339SOL    HW133650   2.354   0.952   2.574 -0.3792 -0.2711  0.4140
 7339SOL    HW233651   2.340   0.859   2.453  2.0848 -2.5944 -0.6915
 7340SOL     OW33652   4.066   0.409   8.334 -0.5505 -0.0279 -0.1002
 7340SOL    HW133653   4.074   0.472   8.263 -0.4262  0.1915  0.1088
 7340SOL    HW233654   4.161   0.399   8.344 -0.8648 -2.9213  0.0635
 7341SOL     OW33655   4.723   3.946   8.842 -0.1657 -0.3270  0.2749
 7341SOL    HW133656   0.042   3.965   8.764 -0.7456  1.3200  0.2898
 7341SOL    HW233657   0.046   3.956   8.918  0.5874 -2.0665 -0.0540
 7342SOL     OW33658   1.172   1.773   9.961  0.1836 -0.3013 -0.7051
 7342SOL    HW133659   1.214   1.833   9.899  0.3596 -1.1613 -1.4100
 7342SOL    HW233660   1.216   1.785  10.045 -1.9615  0.1707  0.3519
 7343SOL     OW33661   0.049   3.566   4.647  0.2335  0.0601 -0.4478
 7343SOL    HW133662   0.017   3.487   4.690  0.6690 -0.0180 -0.2687
 7343SOL    HW233663   0.037   3.533   4.558 -0.2223  1.2598 -0.8282
 7344SOL     OW33664   0.600   2.207   4.436  0.4399  0.3673  0.3072
 7344SOL    HW133665   0.527   2.222   4.497 -1.4723  0.9105 -2.0716
 7344SOL    HW233666   0.556   2.153   4.370  2.1258 -0.6740  0.0515
 7345SOL     OW33667   4.297   2.215   3.561  0.0803 -0.3113  0.1902
 7345SOL    HW133668   4.359   2.212   3.488  2.2045 -2.2645  2.0604
 7345SOL    HW233669   4.349   2.261   3.628 -0.5308 -1.9356  1.7728
 7346SOL     OW33670   4.384   2.355   2.453 -0.0073 -0.2199 -0.2257
 7346SOL    HW133671   4.343   2.269   2.445  1.9194 -1.3787  2.4751
 7346SOL    HW233672   4.394   2.374   2.546 -1.3365 -1.1227  0.1085
 7347SOL     OW33673   4.357   1.175   4.441 -0.2670  0.3893 -0.2173
 7347SOL    HW133674   4.385   1.258   4.478 -1.3573  1.6744 -2.2716
 7347SOL    HW233675   4.384   1.171   4.349 -0.5183 -2.8701 -0.1592
 7348SOL     OW33676   4.681   4.703   7.187  0.1811  0.1146  0.2395
 7348SOL    HW133677   4.649   4.664   7.268 -1.3185 -0.2012 -0.5056
 7348SOL    HW233678   0.003   0.039   7.219 -0.3985  1.2212 -1.1657
 7349SOL     OW33679   0.931   4.424  16.512  0.1372  0.2034  0.1530
 7349SOL    HW133680   0.900   4.413  16.602 -0.2231 -0.9111 -0.1123
 7349SOL    HW233681   0.897   4.346  16.470  0.0481  1.0356 -1.2974
 7350SOL     OW33682   2.241   2.374  11.535 -0.6974  0.6926 -0.1792
 7350SOL    HW133683   2.224   2.297  11.482  1.5983  1.5232 -2.1133
 7350SOL    HW233684   2.159   2.420  11.520 -0.8328  0.0423 -1.3768
 7351SOL     OW33685   0.764   4.483  11.324 -0.3478 -0.2383 -0.3146
 7351SOL    HW133686   0.799   4.412  11.270 -0.2145  0.3833 -1.0417
 7351SOL    HW233687   0.672   4.466  11.305 -0.4635  1.5353 -1.2755
 7352SOL     OW33688   1.315   2.761   0.178  0.7290  0.0719 -0.1673
 7352SOL    HW133689   1.315   2.818   0.255 -0.0908  0.9927 -0.8536
 7352SOL    HW233690   1.340   2.674   0.210  1.2926  0.0088 -0.7813
 7353SOL     OW33691   4.173   3.230   7.578 -0.0189  0.1354  0.0474
 7353SOL    HW133692   4.090   3.244   7.623 -1.1211  0.3231 -2.0274
 7353SOL    HW233693   4.234   3.205   7.647  0.5765  3.4387  0.6797
 7354SOL     OW33694   2.895   1.674   5.162  0.3296 -0.3282 -0.3848
 7354SOL    HW133695   2.979   1.650   5.201  1.1496  2.3361 -0.4633
 7354SOL    HW233696   2.841   1.603   5.195 -0.7138 -0.2494 -1.9431
 7355SOL     OW33697   3.028   3.068   5.085  0.2801 -0.2993 -0.8443
 7355SOL    HW133698   3.066   3.033   5.005  1.8099  1.6986 -0.9676
 7355SOL    HW233699   2.984   2.990   5.119 -1.6033  0.3981 -1.6401
 7356SOL     OW33700   3.526   1.138   2.661  0.2872  0.5242 -0.0208
 7356SOL    HW133701   3.622   1.143   2.657  0.3575  0.2722  1.5871
 7356SOL    HW233702   3.518   1.063   2.719  2.5895 -0.0834 -0.4691
 7357SOL     OW33703   2.595   0.866   6.291  0.3502  0.0339  0.8126
 7357SOL    HW133704   2.614   0.853   6.198 -1.4760  1.7474  0.1927
 7357SOL    HW233705   2.600   0.776   6.324  0.0076  0.1096  1.0725
 7358SOL     OW33706   4.170   0.574  10.627 -0.1261  0.0010 -0.6035
 7358SOL    HW133707   4.089   0.538  10.590  0.6393  0.3482 -2.5958
 7358SOL    HW233708   4.136   0.660  10.650  2.2021  0.5318  0.8333
 7359SOL     OW33709   1.824   4.396   5.148 -0.0361  0.6399 -0.0381
 7359SOL    HW133710   1.779   4.439   5.221  0.0951  0.7112  0.0013
 7359SOL    HW233711   1.764   4.412   5.075  0.1065  1.5552  0.0439
 7360SOL     OW33712   3.836   3.357  13.508 -0.4328  0.8692  0.0657
 7360SOL    HW133713   3.828   3.447  13.475  0.3501  0.9393  0.0752
 7360SOL    HW233714   3.870   3.313  13.430  0.3937 -0.5540  1.2473
 7361SOL     OW33715   1.539   1.565  17.581  0.2384 -0.1559  0.0402
 7361SOL    HW133716   1.629   1.589  17.559  0.9864 -4.6967 -2.0055
 7361SOL    HW233717   1.504   1.652  17.600 -2.0313 -0.9375 -0.5746
 7362SOL     OW33718   1.091   4.495  15.123 -0.2393 -0.4735  0.0538
 7362SOL    HW133719   1.085   4.575  15.174 -2.4795 -1.8053  1.8858
 7362SOL    HW233720   1.069   4.523  15.035  1.2871 -0.1352 -0.2181
 7363SOL     OW33721   1.811   0.812   2.349 -0.2586 -0.6586 -0.5095
 7363SOL    HW133722   1.849   0.774   2.269 -0.1598 -0.2968 -0.6364
 7363SOL    HW233723   1.892   0.815   2.400 -0.3623 -0.3976 -0.3575
 7364SOL     OW33724   0.945   2.038   8.081  0.1601  0.1732 -0.3004
 7364SOL    HW133725   0.992   1.991   8.012  0.5836  0.6515 -0.3352
 7364SOL    HW233726   0.919   2.113   8.028 -1.2111  1.1376  1.7749
 7365SOL     OW33727   0.859   4.024   3.821  0.0707 -0.1107  0.3921
 7365SOL    HW133728   0.885   4.103   3.868 -0.8140 -0.0410  0.7575
 7365SOL    HW233729   0.768   4.037   3.794  0.3676 -3.1298 -2.0623
 7366SOL     OW33730   2.776   2.346   8.898 -0.0253 -0.0457 -0.8594
 7366SOL    HW133731   2.681   2.361   8.903 -0.4274 -2.6569 -0.8105
 7366SOL    HW233732   2.803   2.408   8.830 -0.2045  2.3623  1.2736
 7367SOL     OW33733   2.553   4.547   9.486  0.8928  0.6408  0.4658
 7367SOL    HW133734   2.607   4.608   9.436  1.7844  0.3496  1.0605
 7367SOL    HW233735   2.537   4.605   9.560 -1.9957 -1.0395  1.1672
 7368SOL     OW33736   1.954   2.403   7.033 -0.1666 -0.4210  0.2680
 7368SOL    HW133737   1.987   2.327   7.080  2.8540 -0.0220 -1.2283
 7368SOL    HW233738   2.030   2.435   6.984 -0.0246 -0.1624  0.6566
 7369SOL     OW33739   4.335   1.226  10.408  0.0060 -0.0399 -0.0137
 7369SOL    HW133740   4.363   1.158  10.346  2.0198  0.2593  0.5593
 7369SOL    HW233741   4.400   1.296  10.406  1.0290 -1.0648 -2.0350
 7370SOL     OW33742   0.310   4.171  12.260  0.0070  0.1067 -0.3976
 7370SOL    HW133743   0.245   4.111  12.223  0.8144 -0.1314 -1.4368
 7370SOL    HW233744   0.373   4.107  12.293 -0.7655 -0.5016 -0.0996
 7371SOL     OW33745   3.286   0.160  15.262  0.1162  0.9947 -0.0776
 7371SOL    HW133746   3.334   0.122  15.336 -2.7825  0.0069  1.2681
 7371SOL    HW233747   3.344   0.234  15.245  0.8980  0.5123  0.4830
 7372SOL     OW33748   2.503   2.731   3.152  0.3634 -0.1874 -0.7432
 7372SOL    HW133749   2.590   2.711   3.117  0.8422  0.6555 -0.0451
 7372SOL    HW233750   2.520   2.790   3.226 -1.0959 -0.7731  0.0698
 7373SOL     OW33751   1.435   1.412  10.303  0.4807 -0.0981 -0.3671
 7373SOL    HW133752   1.492   1.430  10.228  1.2169 -1.0419 -0.0385
 7373SOL    HW233753   1.487   1.383  10.378 -0.6991 -2.0882 -0.3296
 7374SOL     OW33754   4.529   0.357   0.441  0.1917  0.3735  0.3512
 7374SOL    HW133755   4.507   0.269   0.409 -0.9786  0.9122 -0.3289
 7374SOL    HW233756   4.620   0.369   0.412  0.6784 -0.1054  1.6872
 7375SOL     OW33757   0.620   0.199   9.457  0.0715 -0.7835  0.0447
 7375SOL    HW133758   0.595   0.171   9.369 -1.7060  1.6397 -0.2366
 7375SOL    HW233759   0.534   0.189   9.498 -1.7779  4.7398 -2.4332
 7376SOL     OW33760   3.775   1.196   8.062  0.0838  0.2396 -0.6477
 7376SOL    HW133761   3.827   1.123   8.028 -0.6594  0.0473 -1.3393
 7376SOL    HW233762   3.845   1.257   8.086 -0.3729  0.6106 -0.2782
 7377SOL     OW33763   3.182   4.385   4.953  0.0222  0.4691 -0.6795
 7377SOL    HW133764   3.271   4.366   4.983 -0.4791  0.4784  0.7835
 7377SOL    HW233765   3.186   4.341   4.868 -1.8990  0.4463 -0.7456
 7378SOL     OW33766   1.491   0.379   8.149 -0.5274  0.0295  0.5166
 7378SOL    HW133767   1.577   0.421   8.151 -1.0659  1.2627 -1.8955
 7378SOL    HW233768   1.490   0.313   8.080  1.9810  1.4511 -0.8951
 7379SOL     OW33769   1.142   2.961  15.001 -0.1022 -0.1941 -0.0319
 7379SOL    HW133770   1.162   2.868  14.989 -0.9585 -0.0867 -2.2162
 7379SOL    HW233771   1.149   2.988  14.910 -0.0743  1.1068  0.3507
 7380SOL     OW33772   4.352   3.681  16.211 -0.2615 -0.4132  0.5532
 7380SOL    HW133773   4.433   3.639  16.182 -0.6254 -0.5181 -0.2874
 7380SOL    HW233774   4.329   3.738  16.137 -0.2578  1.2477  1.8203
 7381SOL     OW33775   2.286   2.456  15.258  0.0553  0.4823 -0.8092
 7381SOL    HW133776   2.319   2.368  15.243 -1.6025 -0.2133 -0.4171
 7381SOL    HW233777   2.361   2.501  15.295 -0.9049 -0.9273  2.8163
 7382SOL     OW33778   0.782   1.174   9.201  0.1010  0.0861 -0.2063
 7382SOL    HW133779   0.711   1.111   9.212 -0.3414  1.0442  2.4280
 7382SOL    HW233780   0.857   1.129   9.241  0.3583  0.6601 -0.0483
 7383SOL     OW33781   2.054   2.661  14.738 -0.6092  0.2837  0.2364
 7383SOL    HW133782   1.982   2.677  14.677 -1.3039 -0.9749  0.7194
 7383SOL    HW233783   2.031   2.577  14.779  1.1126 -0.8446 -1.0680
 7384SOL     OW33784   0.739   0.959   0.253 -0.2978  0.2074 -0.1863
 7384SOL    HW133785   0.771   0.980   0.341 -0.1881 -0.0697 -0.1599
 7384SOL    HW233786   0.816   0.984   0.202  0.8922 -0.8622  1.0512
 7385SOL     OW33787   0.235   2.185   2.958  0.2302  0.0413 -0.1116
 7385SOL    HW133788   0.280   2.115   3.005  0.6531  0.1819 -0.3121
 7385SOL    HW233789   0.228   2.150   2.869  0.2122  1.6261 -0.7431
 7386SOL     OW33790   3.162   0.041   5.990  0.2908  0.2541 -0.4667
 7386SOL    HW133791   3.121   0.035   5.903  4.0985 -3.9314 -1.9869
 7386SOL    HW233792   3.090   0.010   6.045 -0.8371 -0.9115 -2.5925
 7387SOL     OW33793   2.262   4.152   0.984  0.1045  0.0469  0.3206
 7387SOL    HW133794   2.295   4.242   0.978 -1.6255  0.8217  2.5424
 7387SOL    HW233795   2.335   4.102   1.021 -1.0525 -0.2231  2.2562
 7388SOL     OW33796   2.926   3.300   5.887  0.2712  0.2303 -0.0388
 7388SOL    HW133797   2.898   3.261   5.969 -0.2628 -2.0573 -1.3121
 7388SOL    HW233798   3.017   3.325   5.907 -0.0969  0.6826  1.0662
 7389SOL     OW33799   2.819   0.994   9.119 -0.0630  0.6813 -0.0048
 7389SOL    HW133800   2.808   1.061   9.051  1.7551 -0.5241 -1.4891
 7389SOL    HW233801   2.733   0.987   9.159 -0.0737 -3.6867 -0.6872
 7390SOL     OW33802   2.601   3.361   1.498 -0.0089 -0.4059 -0.0902
 7390SOL    HW133803   2.681   3.402   1.463 -1.3845  0.5898 -2.0663
 7390SOL    HW233804   2.629   3.328   1.584 -0.3922  2.1575  1.0036
 7391SOL     OW33805   0.930   3.972  13.746  0.4329 -0.1066  0.1372
 7391SOL    HW133806   1.010   3.978  13.799  0.3800  2.2273 -0.0117
 7391SOL    HW233807   0.871   3.952  13.819  1.1197 -1.0357  0.4278
 7392SOL     OW33808   1.117   0.790   8.463  0.5589 -0.1118 -0.0057
 7392SOL    HW133809   1.100   0.744   8.545 -0.3674  2.4836  1.2503
 7392SOL    HW233810   1.025   0.789   8.435  0.7304 -0.6264 -0.5612
 7393SOL     OW33811   3.850   4.516   5.136 -0.0510  0.1183  0.7158
 7393SOL    HW133812   3.825   4.427   5.163 -0.8583  0.3357  0.6818
 7393SOL    HW233813   3.875   4.494   5.046 -1.3156 -0.1531  0.4222
 7394SOL     OW33814   4.155   2.975  16.967 -0.1515  0.1439 -0.2698
 7394SOL    HW133815   4.172   2.884  16.994  1.4425  0.6034  0.3018
 7394SOL    HW233816   4.071   2.992  17.009  0.2139  0.7833  0.1973
 7395SOL     OW33817   3.340   4.261   0.498 -0.1134  0.3047 -0.0589
 7395SOL    HW133818   3.371   4.305   0.577 -1.7884  2.3321 -0.5368
 7395SOL    HW233819   3.356   4.330   0.433 -0.7615  0.0783 -0.4501
 7396SOL     OW33820   3.488   1.521   8.171  0.6539 -0.3770  0.2496
 7396SOL    HW133821   3.412   1.541   8.116  1.4109  0.0362 -0.6479
 7396SOL    HW233822   3.452   1.459   8.235  0.8039 -0.9220 -0.1910
 7397SOL     OW33823   4.652   2.827   5.752 -0.3164 -0.0390 -0.0183
 7397SOL    HW133824   4.608   2.817   5.837 -0.7990 -1.6981 -0.4800
 7397SOL    HW233825   4.586   2.844   5.686  1.1885 -1.7337 -1.9374
 7398SOL     OW33826   1.637   2.280   4.114 -0.0736 -0.2335  0.0197
 7398SOL    HW133827   1.673   2.277   4.026 -2.6762 -0.5586 -1.0404
 7398SOL    HW233828   1.598   2.193   4.123 -0.5417 -0.0087  0.1775
 7399SOL     OW33829   3.476   2.046   7.522 -0.0576 -0.0529  0.0591
 7399SOL    HW133830   3.566   2.033   7.493 -0.8611 -2.4180 -1.3319
 7399SOL    HW233831   3.497   2.024   7.613 -0.2834  1.6432  0.5231
 7400SOL     OW33832   3.055   0.563   7.405  0.1963 -0.6402  0.4707
 7400SOL    HW133833   3.049   0.482   7.457 -0.8218 -0.3201  0.8572
 7400SOL    HW233834   3.014   0.545   7.321 -0.5785 -0.9262  0.9145
 7401SOL     OW33835   1.196   0.088   8.861 -0.6391 -0.5428 -0.1012
 7401SOL    HW133836   1.191   0.164   8.919  3.4660 -0.3216 -0.0900
 7401SOL    HW233837   1.284   0.062   8.888 -1.0112 -0.1499  1.4708
 7402SOL     OW33838   3.105   0.354  15.331  0.5574 -0.1372  0.3012
 7402SOL    HW133839   3.142   0.268  15.311  0.0413  0.0446 -1.5023
 7402SOL    HW233840   3.166   0.411  15.285  0.0536 -0.4269 -0.7274
 7403SOL     OW33841   4.176   2.827   6.810  0.3808 -0.1286  0.3859
 7403SOL    HW133842   4.204   2.895   6.872  2.1563 -1.4219  1.0147
 7403SOL    HW233843   4.208   2.871   6.732 -2.7713 -1.7136 -1.7812
 7404SOL     OW33844   4.465   0.750  10.214  0.3676  0.3777  0.0128
 7404SOL    HW133845   4.477   0.678  10.276  0.7430 -0.0191 -0.5200
 7404SOL    HW233846   4.522   0.723  10.142  0.0743 -0.7575  0.2037
 7405SOL     OW33847   4.193   0.379   4.543 -0.1656 -0.1885  0.7451
 7405SOL    HW133848   4.242   0.460   4.532 -0.1663 -0.4624 -1.4298
 7405SOL    HW233849   4.158   0.384   4.632 -1.4562  4.7525 -0.0432
 7406SOL     OW33850   4.579   0.972  14.572 -0.3951  0.1652 -0.4751
 7406SOL    HW133851   4.641   0.904  14.598  0.2831  1.0132  0.1631
 7406SOL    HW233852   4.608   0.982  14.481  2.1032 -1.1655  0.1539
 7407SOL     OW33853   2.617   2.732   7.371  0.4343  0.1268 -0.1373
 7407SOL    HW133854   2.537   2.773   7.339  1.0377 -0.9554 -3.0456
 7407SOL    HW233855   2.688   2.774   7.323  0.4912 -0.1411 -0.2914
 7408SOL     OW33856   1.921   0.968   9.606  0.2130  0.0751 -0.0116
 7408SOL    HW133857   1.977   1.013   9.543 -1.9674  2.1220 -0.4823
 7408SOL    HW233858   1.858   1.036   9.627 -0.5669 -0.9009  0.8113
 7409SOL     OW33859   2.803   1.612   7.635 -0.3820 -0.2502 -0.0044
 7409SOL    HW133860   2.754   1.682   7.679  0.1333  1.4437 -2.1025
 7409SOL    HW233861   2.745   1.603   7.559 -2.2379  2.0408  1.1177
 7410SOL     OW33862   2.563   4.147   2.097  0.0184 -0.0429 -0.0729
 7410SOL    HW133863   2.613   4.101   2.165 -0.4104 -0.3671  0.0266
 7410SOL    HW233864   2.500   4.083   2.064  1.9908 -1.6932 -0.6783
 7411SOL     OW33865   0.467   4.364  12.078  0.2246  0.1269 -0.1704
 7411SOL    HW133866   0.473   4.279  12.034 -0.4328  0.8464 -1.6495
 7411SOL    HW233867   0.558   4.391  12.073  0.5523 -0.7784  0.8454
 7412SOL     OW33868   0.508   0.999   1.345  0.0811  0.2554 -0.2530
 7412SOL    HW133869   0.456   0.920   1.328 -1.0337  0.5268  1.8380
 7412SOL    HW233870   0.438   1.065   1.345 -1.2745 -1.1718  2.3747
 7413SOL     OW33871   0.661   2.310   2.611 -0.5728  0.4719 -0.2225
 7413SOL    HW133872   0.622   2.321   2.698  0.2344  0.8016  0.0984
 7413SOL    HW233873   0.613   2.376   2.563 -1.0082 -1.2194 -2.1290
 7414SOL     OW33874   2.102   3.775   5.147 -0.4732  0.0219  0.4404
 7414SOL    HW133875   2.086   3.683   5.165 -1.0983  0.1319  0.4569
 7414SOL    HW233876   2.035   3.813   5.205 -0.5025  1.0144 -0.2379
 7415SOL     OW33877   0.868   3.518   7.829 -0.4960  0.0744  0.2474
 7415SOL    HW133878   0.874   3.423   7.826  1.2659  0.1558  1.4070
 7415SOL    HW233879   0.941   3.534   7.889 -1.0088 -0.5915  1.0543
 7416SOL     OW33880   2.157   0.012   8.865  0.7087  0.2775  0.3199
 7416SOL    HW133881   2.114   4.701   8.937 -0.0129 -0.5655 -0.6411
 7416SOL    HW233882   2.099   0.014   8.789  0.4394 -0.6079  0.5007
 7417SOL     OW33883   2.039   0.555   6.345 -0.3158 -0.4588 -0.6902
 7417SOL    HW133884   1.960   0.502   6.354 -0.2625 -0.5752 -0.9138
 7417SOL    HW233885   2.043   0.554   6.250 -0.8021  3.7694 -0.7236
 7418SOL     OW33886   3.231   0.808   6.440  0.3338 -0.4373 -0.0150
 7418SOL    HW133887   3.220   0.723   6.397  3.7658 -1.7025  1.6006
 7418SOL    HW233888   3.201   0.870   6.374 -1.1575 -1.2146 -0.0670
 7419SOL     OW33889   2.367   2.503   4.458 -0.3147  0.2049  0.8317
 7419SOL    HW133890   2.435   2.540   4.402 -0.3443 -2.8281 -1.1978
 7419SOL    HW233891   2.397   2.533   4.544  1.5638  2.3852 -0.5849
 7420SOL     OW33892   1.378   0.516   8.677 -0.2042  0.2700 -0.0460
 7420SOL    HW133893   1.379   0.606   8.710  1.1077  1.2560 -2.7233
 7420SOL    HW233894   1.286   0.489   8.685 -0.0370 -0.2585  0.0915
 7421SOL     OW33895   2.441   2.671   5.964  0.2742 -0.3705  0.3222
 7421SOL    HW133896   2.352   2.708   5.965 -0.1181 -1.3313  0.8449
 7421SOL    HW233897   2.420   2.593   5.913 -0.6598  0.3949 -0.4789
 7422SOL     OW33898   1.329   4.378  14.349 -0.0483  0.3741 -0.3556
 7422SOL    HW133899   1.393   4.401  14.416 -1.3215 -1.3704  1.4501
 7422SOL    HW233900   1.290   4.311  14.405 -1.1654  0.3016 -1.2176
 7423SOL     OW33901   4.416   4.056   8.361  0.4757 -0.8239  0.0598
 7423SOL    HW133902   4.412   3.972   8.405 -0.6382 -0.3522  0.8322
 7423SOL    HW233903   4.360   4.040   8.285  0.3899  2.1324 -0.5292
 7424SOL     OW33904   0.138   1.677   0.359  0.4065  0.7817  0.3679
 7424SOL    HW133905   0.116   1.628   0.279  2.6569 -0.2775  0.4067
 7424SOL    HW233906   0.102   1.762   0.337  1.2683  1.2021  0.5879
 7425SOL     OW33907   3.838   0.035   7.527 -0.4528  0.5435 -0.1321
 7425SOL    HW133908   3.911   0.088   7.494  0.7470  0.5571  2.5832
 7425SOL    HW233909   3.765   0.096   7.536  0.0972  1.2825 -0.6120
 7426SOL     OW33910   0.666   2.875  15.105  0.9885  0.3820  0.2323
 7426SOL    HW133911   0.644   2.836  15.021 -1.7636 -1.0701  1.6426
 7426SOL    HW233912   0.718   2.951  15.079 -0.6733  0.4264 -2.8485
 7427SOL     OW33913   0.003   2.617   5.207 -0.2907 -0.3264 -0.5764
 7427SOL    HW133914   4.683   2.688   5.172 -0.0038 -0.6516 -1.6840
 7427SOL    HW233915   0.090   2.626   5.166  0.5900  2.4029  1.8818
 7428SOL     OW33916   0.487   2.730   1.934 -1.0951  0.1736 -0.3243
 7428SOL    HW133917   0.461   2.709   1.845 -0.0782 -1.6254 -0.1991
 7428SOL    HW233918   0.525   2.815   1.912 -0.1781 -0.1315  0.0999
 7429SOL     OW33919   2.810   1.152   1.159  0.2524 -0.3054  0.1892
 7429SOL    HW133920   2.730   1.106   1.186  0.1168  0.8775  1.8103
 7429SOL    HW233921   2.857   1.145   1.242  0.3246 -0.0775  0.1670
 7430SOL     OW33922   2.109   3.937   8.964  0.0036  0.3977 -0.5425
 7430SOL    HW133923   2.132   4.005   9.028 -0.7702 -0.6418  0.8254
 7430SOL    HW233924   2.072   3.868   9.019  2.0323  1.3411  2.0136
 7431SOL     OW33925   1.004   2.602   2.380  0.6035  0.0695  0.3005
 7431SOL    HW133926   0.982   2.514   2.412  0.6588 -0.4562 -1.1411
 7431SOL    HW233927   0.956   2.661   2.439  0.4408  0.4843 -0.2503
 7432SOL     OW33928   4.629   0.702  16.092  0.2165 -0.0040  0.2184
 7432SOL    HW133929   4.685   0.628  16.117  0.9948 -0.4472 -2.9097
 7432SOL    HW233930   4.647   0.758  16.168 -2.2485  1.7160 -0.4829
 7433SOL     OW33931   0.956   3.071   6.998 -0.4010 -0.0475 -0.4130
 7433SOL    HW133932   0.981   2.981   7.017 -0.4952  0.1032  0.3946
 7433SOL    HW233933   1.032   3.104   6.950 -2.4465  0.8300 -3.0399
 7434SOL     OW33934   4.055   3.971   6.829 -0.2743 -0.0536  0.0853
 7434SOL    HW133935   3.964   3.950   6.851 -0.0644  0.6537  1.6468
 7434SOL    HW233936   4.046   4.026   6.751 -0.7761 -1.9797 -1.2139
 7435SOL     OW33937   2.710   4.314   5.341  0.0035 -0.0187 -0.4540
 7435SOL    HW133938   2.714   4.287   5.433  1.8108  0.4318 -0.3915
 7435SOL    HW233939   2.621   4.287   5.321 -0.7474  2.9749 -1.1314
 7436SOL     OW33940   2.397   3.509   8.680 -0.2810  0.6262  0.0504
 7436SOL    HW133941   2.325   3.446   8.672 -0.1711  0.6117 -0.8464
 7436SOL    HW233942   2.439   3.468   8.755  1.3496 -0.6342 -1.5495
 7437SOL     OW33943   2.139   0.726   7.352 -0.5549  0.5692  0.1262
 7437SOL    HW133944   2.174   0.783   7.284 -2.7541  0.4742 -1.0869
 7437SOL    HW233945   2.085   0.779   7.410  0.1146  0.5551  0.7598
 7438SOL     OW33946   3.923   4.446   4.533 -0.1507  0.5351  0.0313
 7438SOL    HW133947   3.856   4.379   4.548 -0.4149  0.6985 -0.4186
 7438SOL    HW233948   3.977   4.400   4.469 -0.0226  0.4616  0.1953
 7439SOL     OW33949   1.127   0.161  10.259 -0.0405  0.5591 -0.0356
 7439SOL    HW133950   1.142   0.255  10.246 -0.0905  0.5083 -0.4508
 7439SOL    HW233951   1.080   0.157  10.342 -0.0905 -1.6654 -0.1747
 7440SOL     OW33952   3.165   4.511   3.719  0.2058  0.0385  0.2664
 7440SOL    HW133953   3.215   4.532   3.640 -0.7319  1.8609  0.1664
 7440SOL    HW233954   3.092   4.462   3.681 -0.6382  1.6170 -0.1810
 7441SOL     OW33955   2.211   1.509   4.711  0.2153  0.1238 -0.3645
 7441SOL    HW133956   2.286   1.537   4.660  0.5810  0.2865  0.2703
 7441SOL    HW233957   2.217   1.572   4.782  0.6499  0.3952 -0.6464
 7442SOL     OW33958   3.548   4.502   3.632  0.4974  0.2201  0.2236
 7442SOL    HW133959   3.620   4.440   3.622 -0.5871 -0.8991 -0.7156
 7442SOL    HW233960   3.511   4.470   3.714  0.2818 -3.1580 -1.2182
 7443SOL     OW33961   0.752   1.054   5.307 -0.7720  0.4508  0.4014
 7443SOL    HW133962   0.737   1.003   5.227  4.7322 -0.1739 -0.2593
 7443SOL    HW233963   0.840   1.089   5.289 -0.0980 -1.1216  0.6457
 7444SOL     OW33964   0.565   0.493   0.673 -0.0003 -0.0183  1.0568
 7444SOL    HW133965   0.475   0.519   0.692 -0.9414 -2.7081  0.3107
 7444SOL    HW233966   0.603   0.579   0.660 -1.0444  0.4317  0.9781
 7445SOL     OW33967   2.802   0.949   2.057 -0.3280  0.4856 -0.3847
 7445SOL    HW133968   2.769   0.862   2.035 -0.1297  0.4057 -0.3736
 7445SOL    HW233969   2.744   0.992   1.995 -0.9741 -1.8512 -1.4015
 7446SOL     OW33970   2.495   0.566   5.530 -0.8099  0.8549  0.0863
 7446SOL    HW133971   2.567   0.629   5.531 -1.1393  1.2176  1.2989
 7446SOL    HW233972   2.431   0.603   5.470  0.4208  0.4475 -1.4588
 7447SOL     OW33973   2.540   1.760   5.337 -0.0162 -0.3966 -0.0940
 7447SOL    HW133974   2.596   1.724   5.405  1.2901  1.9403  0.0699
 7447SOL    HW233975   2.582   1.717   5.262 -0.9031 -0.8185 -0.3474
 7448SOL     OW33976   1.960   1.082   1.091  0.3868  0.8253 -0.3497
 7448SOL    HW133977   1.900   1.037   1.032  0.6657  0.9765 -0.7540
 7448SOL    HW233978   1.898   1.116   1.155  1.0532  0.4128  0.5185
 7449SOL     OW33979   0.476   0.830   8.266 -0.2464  0.4674 -1.2284
 7449SOL    HW133980   0.568   0.851   8.281 -0.1773  0.2115 -1.2945
 7449SOL    HW233981   0.490   0.737   8.281  0.4361  0.9129  1.0072
 7450SOL     OW33982   0.933   1.811  14.294  0.2798  0.5222 -0.2804
 7450SOL    HW133983   0.908   1.855  14.213  0.1781 -1.2657 -1.2197
 7450SOL    HW233984   0.931   1.886  14.355  1.4717 -0.2697  0.7304
 7451SOL     OW33985   0.609   1.831  10.162 -0.1007  0.1312 -0.0412
 7451SOL    HW133986   0.640   1.814  10.251 -1.8149 -0.2771  0.4932
 7451SOL    HW233987   0.608   1.745  10.120  2.4512  0.7224 -1.3249
 7452SOL     OW33988   3.235   0.503  13.382  0.4719 -0.4628 -0.4316
 7452SOL    HW133989   3.316   0.458  13.406  1.1253 -0.6413 -2.9103
 7452SOL    HW233990   3.266   0.593  13.386 -0.6623 -0.0246 -1.4841
 7453SOL     OW33991   0.240   0.362   1.974 -0.0341  0.1177 -0.1940
 7453SOL    HW133992   0.302   0.435   1.968  0.3117 -0.1252  0.4598
 7453SOL    HW233993   0.156   0.400   1.999 -0.3313 -0.4495 -0.3172
 7454SOL     OW33994   1.226   0.934   4.153 -0.2915 -0.1155  0.0272
 7454SOL    HW133995   1.250   0.921   4.061  1.6914  2.6223  0.1503
 7454SOL    HW233996   1.131   0.945   4.147  0.0086  1.4076 -1.9936
 7455SOL     OW33997   3.617   4.496   5.971 -0.1020  0.6408  0.0654
 7455SOL    HW133998   3.542   4.552   5.990 -0.3753 -0.3695  2.0048
 7455SOL    HW233999   3.576   4.409   5.975 -0.7507  0.8809 -1.6175
 7456SOL     OW34000   1.568   1.326   3.069 -0.6064 -0.3856  0.3562
 7456SOL    HW134001   1.530   1.321   2.982 -2.5141 -1.5749  1.2572
 7456SOL    HW234002   1.600   1.416   3.063 -2.1387 -0.0234 -2.1836
 7457SOL     OW34003   3.638   0.325   7.901  0.2598  0.2219  0.1601
 7457SOL    HW134004   3.567   0.370   7.947 -1.3838 -0.6856 -1.4923
 7457SOL    HW234005   3.710   0.364   7.950  0.8069 -1.2925  0.5352
 7458SOL     OW34006   0.734   2.790   7.538  0.0412  0.1152  0.2980
 7458SOL    HW134007   0.766   2.865   7.589 -0.4369  0.8147 -0.4323
 7458SOL    HW234008   0.669   2.824   7.476  0.5856  0.7245  0.0510
 7459SOL     OW34009   4.495   0.284   1.818 -0.2351 -0.0537 -0.3354
 7459SOL    HW134010   4.466   0.311   1.905 -0.3749 -1.2229 -0.0193
 7459SOL    HW234011   4.507   0.371   1.779  1.4770 -0.6184 -1.0680
 7460SOL     OW34012   3.120   2.119  17.433  0.6091 -0.3389 -0.2680
 7460SOL    HW134013   3.035   2.160  17.420  1.0188 -0.7458 -4.2370
 7460SOL    HW234014   3.139   2.109  17.527  0.6777  1.1993 -0.1289
 7461SOL     OW34015   3.484   4.626   2.566 -0.2464  0.1840 -0.4290
 7461SOL    HW134016   3.520   4.711   2.541 -0.0533 -0.0168 -0.8352
 7461SOL    HW234017   3.553   4.570   2.601 -0.7843  0.1981  0.6370
 7462SOL     OW34018   4.407   1.842   9.834  0.3161 -0.4465  0.7544
 7462SOL    HW134019   4.468   1.907   9.867  1.1691  0.1909 -2.0260
 7462SOL    HW234020   4.326   1.883   9.864  1.0909  1.0954  0.7595
 7463SOL     OW34021   2.095   0.206   4.159  0.2904  0.3317 -0.0887
 7463SOL    HW134022   2.106   0.200   4.254  0.0378 -2.1364 -0.2026
 7463SOL    HW234023   2.047   0.289   4.158 -2.8602 -1.4724  1.3372
 7464SOL     OW34024   0.297   1.055   9.745  0.1124 -0.2999 -0.3709
 7464SOL    HW134025   0.343   1.117   9.802 -1.8323  1.7676 -1.0403
 7464SOL    HW234026   0.288   1.110   9.667  0.5877 -0.5212 -0.5784
 7465SOL     OW34027   3.166   4.071   9.443  0.3364  0.3083  0.2660
 7465SOL    HW134028   3.162   4.089   9.537  2.3067  0.0466  0.3863
 7465SOL    HW234029   3.107   3.996   9.436 -0.4556  1.0256 -0.7620
 7466SOL     OW34030   2.429   0.151   7.615 -0.2135  0.3055  0.1226
 7466SOL    HW134031   2.491   0.211   7.657 -1.4878  0.8901  1.1603
 7466SOL    HW234032   2.411   0.203   7.536  1.7497 -0.0095 -0.5488
 7467SOL     OW34033   2.607   1.561   0.406  0.0929  0.5427 -0.0933
 7467SOL    HW134034   2.543   1.618   0.447  1.5734  0.5585  2.2104
 7467SOL    HW234035   2.641   1.515   0.483 -2.2017  0.7966  1.0710
 7468SOL     OW34036   1.158   0.326  14.473 -0.1786 -0.2921  0.2392
 7468SOL    HW134037   1.097   0.398  14.482 -0.7540 -0.6799 -0.5544
 7468SOL    HW234038   1.231   0.373  14.432 -1.1628 -0.0959 -1.2948
 7469SOL     OW34039   1.301   2.438   7.202 -0.2042  0.9090  0.1318
 7469SOL    HW134040   1.273   2.352   7.170  0.5168  0.6932  0.0694
 7469SOL    HW234041   1.323   2.410   7.291 -1.9123 -0.3125  0.1529
 7470SOL     OW34042   0.392   0.369   4.026 -0.0574  0.4007  0.5745
 7470SOL    HW134043   0.483   0.363   4.056  0.7319  0.1952 -1.8605
 7470SOL    HW234044   0.351   0.310   4.089  0.4045  0.2873  0.7678
 7471SOL     OW34045   3.006   2.823  11.869 -0.1338  0.3216 -0.0234
 7471SOL    HW134046   2.941   2.892  11.878 -1.2642 -1.0538  2.3916
 7471SOL    HW234047   2.991   2.818  11.775 -1.6690  2.7604  0.0976
 7472SOL     OW34048   2.296   2.198   5.134  0.0344  0.3490 -0.0836
 7472SOL    HW134049   2.361   2.131   5.155  0.7208  0.8035 -0.7772
 7472SOL    HW234050   2.237   2.146   5.080  1.0839 -1.7262  0.7761
 7473SOL     OW34051   2.798   3.419   9.646  0.1632  0.2126 -0.4536
 7473SOL    HW134052   2.806   3.347   9.709 -2.0996  0.6956  0.3635
 7473SOL    HW234053   2.736   3.378   9.586  1.7835  0.4363 -2.2715
 7474SOL     OW34054   0.815   1.215   2.038  1.1986  0.2603  0.3021
 7474SOL    HW134055   0.846   1.241   1.952 -0.7838  0.2399 -0.4228
 7474SOL    HW234056   0.734   1.266   2.040  1.9469  1.4744 -0.4506
 7475SOL     OW34057   3.598   0.826  17.648  0.4875 -0.5869 -0.3417
 7475SOL    HW134058   3.604   0.910  17.603 -1.6571 -1.0038 -1.4148
 7475SOL    HW234059   3.571   0.771  17.575 -0.5841  0.9222 -1.0803
 7476SOL     OW34060   3.667   2.058  10.560 -0.0461 -0.0370 -0.4295
 7476SOL    HW134061   3.691   2.104  10.480  1.5394  0.6657  0.4634
 7476SOL    HW234062   3.603   2.117  10.599  1.3916  2.2600 -1.5840
 7477SOL     OW34063   2.643   2.811  14.467 -0.9403  0.0675  0.1726
 7477SOL    HW134064   2.589   2.732  14.474  1.2528 -1.4516 -0.2328
 7477SOL    HW234065   2.593   2.842  14.392 -0.6483  2.8715  1.1367
 7478SOL     OW34066   4.182   2.405   6.954  0.3260 -0.1719 -0.3210
 7478SOL    HW134067   4.144   2.491   6.972  1.6551  0.4604 -0.6106
 7478SOL    HW234068   4.102   2.374   6.911  0.9132  3.2504 -3.9287
 7479SOL     OW34069   3.871   0.678   7.597  0.4011  0.4280 -0.5953
 7479SOL    HW134070   3.838   0.628   7.523 -3.1487  1.2356  0.4200
 7479SOL    HW234071   3.900   0.612   7.660 -2.6029 -1.0289 -0.7401
 7480SOL     OW34072   3.212   0.490   4.195 -0.4447  0.3184  0.1031
 7480SOL    HW134073   3.302   0.506   4.166 -0.4125  1.1208  0.6693
 7480SOL    HW234074   3.201   0.566   4.251 -3.0038  0.4605 -0.5897
 7481SOL     OW34075   2.781   0.686   2.994 -0.4046  0.7060  0.0238
 7481SOL    HW134076   2.825   0.646   3.068 -1.3895 -1.6490 -0.6483
 7481SOL    HW234077   2.727   0.751   3.040 -0.3112  1.0937 -0.4066
 7482SOL     OW34078   1.569   4.543   4.639 -0.6769 -0.4100  0.2612
 7482SOL    HW134079   1.522   4.559   4.557 -0.9268 -0.8530  0.3160
 7482SOL    HW234080   1.509   4.575   4.707 -1.6872 -0.3069 -0.6716
 7483SOL     OW34081   0.592   4.300  13.444 -0.3019 -0.1344  0.2866
 7483SOL    HW134082   0.516   4.352  13.472 -0.6483 -0.9110  0.7698
 7483SOL    HW234083   0.631   4.275  13.528  1.1190 -2.0219 -0.9347
 7484SOL     OW34084   1.313   0.026   5.549 -0.9640 -0.6316 -0.5399
 7484SOL    HW134085   1.222   0.002   5.562 -0.7068 -1.5565 -0.4382
 7484SOL    HW234086   1.339   0.017   5.641 -2.2473  0.3365 -0.0844
 7485SOL     OW34087   1.906   1.508   5.743 -0.5430  0.1624  0.0336
 7485SOL    HW134088   1.905   1.526   5.837  0.6317 -0.6647  0.1991
 7485SOL    HW234089   1.955   1.587   5.719 -0.6226 -0.1215 -1.0776
 7486SOL     OW34090   4.386   3.311   5.639  0.0573  0.1114  0.4450
 7486SOL    HW134091   4.393   3.260   5.558 -0.7211 -0.0257  0.4620
 7486SOL    HW234092   4.377   3.395   5.594  0.4915 -0.9274 -1.6080
 7487SOL     OW34093   0.812   3.804   6.076 -0.3537 -0.2313  0.2204
 7487SOL    HW134094   0.834   3.892   6.045  1.3621 -1.5102 -2.1964
 7487SOL    HW234095   0.858   3.808   6.160 -0.9643 -2.1197  0.6345
 7488SOL     OW34096   2.977   1.696   1.993 -0.3593 -0.2961  0.2527
 7488SOL    HW134097   2.947   1.702   2.083 -1.9721  1.1550 -0.3756
 7488SOL    HW234098   3.072   1.708   2.003 -1.0018  3.1187  2.2371
 7489SOL     OW34099   0.272   2.909   2.441  0.3475 -0.2726  0.7015
 7489SOL    HW134100   0.188   2.907   2.487  0.8897  1.4049  1.7260
 7489SOL    HW234101   0.249   2.878   2.353  0.4950  1.4633  0.0674
 7490SOL     OW34102   2.294   0.932   6.225 -0.4009  0.1045  0.4468
 7490SOL    HW134103   2.263   0.933   6.134 -1.4047  0.8044  0.8035
 7490SOL    HW234104   2.292   1.026   6.243  0.8010 -0.2058  2.1561
 7491SOL     OW34105   3.917   1.243   8.898 -0.1207  0.1750 -0.0938
 7491SOL    HW134106   3.863   1.320   8.915 -1.4979 -0.5992 -1.0305
 7491SOL    HW234107   3.863   1.166   8.882 -0.0410  0.6559 -2.6644
 7492SOL     OW34108   0.532   0.627  17.404  0.1342  0.6990 -0.1594
 7492SOL    HW134109   0.592   0.689  17.364 -1.5064  2.5971  0.3411
 7492SOL    HW234110   0.466   0.632  17.335 -0.2259 -0.1977  0.1142
 7493SOL     OW34111   2.432   2.388  13.409 -0.2127  0.5252  0.2641
 7493SOL    HW134112   2.371   2.321  13.378 -0.4440  1.4652 -1.2596
 7493SOL    HW234113   2.422   2.374  13.504  0.7035  0.8567  0.4135
 7494SOL     OW34114   4.623   1.442   4.327  0.1108 -0.3428 -0.1714
 7494SOL    HW134115   4.613   1.380   4.255  0.9500  0.0312 -0.6128
 7494SOL    HW234116   4.657   1.523   4.288  0.2362 -0.5980 -0.5894
 7495SOL     OW34117   2.998   1.171   6.869 -0.0652  0.5629 -1.0840
 7495SOL    HW134118   2.970   1.133   6.786  1.9392  0.6185 -1.7953
 7495SOL    HW234119   3.083   1.129   6.880 -1.0970 -0.9194  1.2695
 7496SOL     OW34120   3.674   4.076   3.882  0.1339 -0.0134 -0.1525
 7496SOL    HW134121   3.753   4.041   3.922 -0.7319 -3.0012 -1.0716
 7496SOL    HW234122   3.650   4.149   3.940 -0.3340 -0.5393  0.3134
 7497SOL     OW34123   0.117   0.758   5.634  0.0604 -0.3073  0.3332
 7497SOL    HW134124   0.048   0.699   5.605  1.4181 -1.8961  0.3275
 7497SOL    HW234125   0.145   0.720   5.717  1.8456 -0.0050 -0.1351
 7498SOL     OW34126   0.260   0.513  17.449  0.3055 -0.2310 -0.4853
 7498SOL    HW134127   0.190   0.579  17.453 -1.1560 -1.7108 -1.4752
 7498SOL    HW234128   0.337   0.567  17.432  1.4109 -1.1342  1.6226
 7499SOL     OW34129   0.898   4.349  11.833  1.2393 -0.2128  0.2595
 7499SOL    HW134130   0.892   4.383  11.744 -1.0072 -2.2784 -0.3865
 7499SOL    HW234131   0.905   4.256  11.809  2.1630  0.0385 -0.4427
 7500SOL     OW34132   2.512   4.582  12.582  0.6102  0.0405  0.5237
 7500SOL    HW134133   2.432   4.566  12.531 -0.5652 -0.4593  2.4941
 7500SOL    HW234134   2.487   4.652  12.642  1.8877 -0.9243  2.1817
 7501SOL     OW34135   4.184   0.598   7.503  0.0982 -0.4941  0.3226
 7501SOL    HW134136   4.119   0.528   7.515  0.8194 -1.2154  0.0369
 7501SOL    HW234137   4.162   0.665   7.567  1.1836 -0.9921  1.2197
 7502SOL     OW34138   2.052   2.198  16.292  0.0929  0.2408  0.5451
 7502SOL    HW134139   2.096   2.192  16.377  1.3177  0.3425 -0.0892
 7502SOL    HW234140   2.112   2.263  16.256  0.4133  0.8181  2.1068
 7503SOL     OW34141   3.616   1.457   7.834 -0.6244 -0.1224  0.0789
 7503SOL    HW134142   3.691   1.400   7.817  0.9814  1.2157  2.6902
 7503SOL    HW234143   3.592   1.415   7.916  0.4544 -1.0563 -0.0880
 7504SOL     OW34144   0.789   2.510   2.793  0.0300 -0.1973  0.3023
 7504SOL    HW134145   0.734   2.522   2.715 -1.1352 -1.3229  0.9637
 7504SOL    HW234146   0.877   2.518   2.755 -0.0002  0.3948  0.3555
 7505SOL     OW34147   4.658   1.833   2.385  0.2229 -0.1091  0.1000
 7505SOL    HW134148   4.597   1.842   2.458  2.3859  0.1188  1.8874
 7505SOL    HW234149   4.729   1.888   2.419 -0.5877 -0.3652  2.2411
 7506SOL     OW34150   3.485   3.724  12.600 -0.2063 -0.3290 -0.0983
 7506SOL    HW134151   3.501   3.731  12.506 -2.8204 -0.6414 -0.5716
 7506SOL    HW234152   3.467   3.631  12.610 -0.6745 -0.1060  1.2166
 7507SOL     OW34153   2.056   3.050   6.580  0.2997 -0.4763  0.3400
 7507SOL    HW134154   1.999   3.123   6.558  1.9089  0.3350 -1.1468
 7507SOL    HW234155   1.986   2.988   6.603  0.0294  0.4095  1.8947
 7508SOL     OW34156   3.089   1.765  16.626 -0.2370  0.5165 -0.2799
 7508SOL    HW134157   3.146   1.831  16.588 -0.6666  1.2261  0.2968
 7508SOL    HW234158   3.012   1.822  16.632  0.1563  0.9256  0.8900
 7509SOL     OW34159   2.355   3.039   9.439  0.1078 -0.3203  0.0271
 7509SOL    HW134160   2.423   3.019   9.375 -0.0688  1.1383 -0.6244
 7509SOL    HW234161   2.335   2.951   9.471  0.6329  0.2866  1.9881
 7510SOL     OW34162   3.393   4.484   2.345 -0.6970 -0.0170  0.1712
 7510SOL    HW134163   3.440   4.504   2.265  1.6152 -3.7399  0.6156
 7510SOL    HW234164   3.447   4.519   2.416 -1.3706  1.5578 -0.0831
 7511SOL     OW34165   2.517   2.032   3.976 -0.2472 -0.2720 -0.2060
 7511SOL    HW134166   2.560   2.020   4.061  0.5697 -2.6495 -0.9593
 7511SOL    HW234167   2.478   2.117   3.998  1.2260  0.0421  1.2228
 7512SOL     OW34168   3.087   2.584   7.760 -0.6055  0.1532 -0.1966
 7512SOL    HW134169   3.007   2.595   7.812 -1.1719 -0.1867 -0.9986
 7512SOL    HW234170   3.104   2.676   7.775 -0.9176  0.1646  0.0914
 7513SOL     OW34171   3.966   3.689  11.385  0.0803 -0.5578  0.0306
 7513SOL    HW134172   4.038   3.719  11.441 -0.0784 -0.3894  0.1435
 7513SOL    HW234173   4.014   3.625  11.332  1.2288  0.7740 -0.5384
 7514SOL     OW34174   0.665   2.123   7.321  0.4360  0.4414 -0.8898
 7514SOL    HW134175   0.676   2.070   7.400 -1.3762 -0.7062 -1.4167
 7514SOL    HW234176   0.638   2.212   7.345  1.1607  0.4535 -0.1058
 7515SOL     OW34177   1.524   1.808   3.248  0.1863 -0.0425  0.0061
 7515SOL    HW134178   1.489   1.875   3.306  2.4872  0.0828  1.2639
 7515SOL    HW234179   1.530   1.725   3.295  1.6635 -0.2184 -0.4720
 7516SOL     OW34180   2.472   2.728   3.871 -0.3733 -0.2353  0.0234
 7516SOL    HW134181   2.401   2.668   3.850 -0.5376  0.4122 -1.2590
 7516SOL    HW234182   2.544   2.688   3.821  0.4782  3.0552 -1.3904
 7517SOL     OW34183   1.102   3.277   3.918 -0.6459 -0.3600  0.4100
 7517SOL    HW134184   1.111   3.255   3.825  1.5072  1.8407  0.0762
 7517SOL    HW234185   1.058   3.361   3.911 -1.8537 -1.0220  0.1932
 7518SOL     OW34186   1.326   0.941   8.436 -0.2830  0.1270 -0.3726
 7518SOL    HW134187   1.252   0.879   8.434  0.2585 -0.6356  3.3723
 7518SOL    HW234188   1.272   1.019   8.448 -0.6915 -0.2090 -0.0178
 7519SOL     OW34189   3.990   3.332   5.028 -0.1730 -0.4889  0.0510
 7519SOL    HW134190   4.026   3.397   5.088 -1.0379 -0.1833  0.2347
 7519SOL    HW234191   3.897   3.352   5.031  0.2566  1.1583  2.6970
 7520SOL     OW34192   2.393   1.485  16.809 -0.6169  0.1621  0.0761
 7520SOL    HW134193   2.326   1.546  16.841 -0.8793  0.4061 -0.9569
 7520SOL    HW234194   2.421   1.523  16.726 -0.1074 -1.9061 -0.6785
 7521SOL     OW34195   3.327   4.122   3.932  0.1772 -0.2020 -0.5247
 7521SOL    HW134196   3.316   4.082   3.846 -1.5040  0.7551 -0.7611
 7521SOL    HW234197   3.386   4.056   3.968  0.1010  0.2163  0.3613
 7522SOL     OW34198   0.636   0.146   7.282  0.0191 -0.2687  0.0115
 7522SOL    HW134199   0.594   0.060   7.292 -3.4404  1.8263  3.3985
 7522SOL    HW234200   0.686   0.161   7.362 -0.3112  1.4910 -0.1244
 7523SOL     OW34201   0.814   0.844   8.580 -0.0686 -0.0037  0.3723
 7523SOL    HW134202   0.836   0.775   8.518  0.1902  0.5067 -0.1039
 7523SOL    HW234203   0.734   0.808   8.617 -0.4959 -0.5722 -1.1136
 7524SOL     OW34204   0.529   3.950   9.733 -0.1816  0.0047  0.1945
 7524SOL    HW134205   0.454   3.928   9.789  1.4704 -1.4551  1.8213
 7524SOL    HW234206   0.601   3.979   9.788 -1.3313 -1.0421  2.2616
 7525SOL     OW34207   1.541   0.543  13.892  0.1380 -0.1398  0.4793
 7525SOL    HW134208   1.490   0.474  13.935  0.7023 -0.4874  0.5857
 7525SOL    HW234209   1.633   0.520  13.886 -0.2418 -2.2739  2.6851
 7526SOL     OW34210   1.778   3.826   7.156  0.6830 -0.3018 -0.3157
 7526SOL    HW134211   1.721   3.795   7.085 -2.4537  2.0512  1.1520
 7526SOL    HW234212   1.835   3.875   7.096 -0.4126  1.9566  0.4776
 7527SOL     OW34213   4.096   4.222   1.582  0.0454 -0.1251 -0.0715
 7527SOL    HW134214   4.008   4.191   1.602  0.4968 -1.8213 -0.7215
 7527SOL    HW234215   4.121   4.148   1.527 -0.9386 -0.2939 -0.2939
 7528SOL     OW34216   3.098   3.968   8.345  0.0302  0.0721 -0.0669
 7528SOL    HW134217   3.139   3.982   8.430 -1.3519 -2.5938  1.0205
 7528SOL    HW234218   3.160   3.907   8.306  1.7755  1.2574  0.8460
 7529SOL     OW34219   1.304   2.246   3.839  0.1279  0.1226  0.0842
 7529SOL    HW134220   1.317   2.341   3.845  0.5043  0.0776 -0.0018
 7529SOL    HW234221   1.332   2.223   3.928 -2.9603  0.1483  1.0558
 7530SOL     OW34222   2.153   1.964   8.359 -0.1757  0.0710  0.7747
 7530SOL    HW134223   2.215   1.913   8.307 -1.7742 -1.3962  0.2848
 7530SOL    HW234224   2.068   1.925   8.337  0.8675 -1.8985  0.1969
 7531SOL     OW34225   1.213   0.708   6.696  0.3684 -0.3990  0.3759
 7531SOL    HW134226   1.248   0.794   6.721  0.0647 -0.2436  0.2731
 7531SOL    HW234227   1.220   0.704   6.601 -2.7666 -1.6457  0.1842
 7532SOL     OW34228   1.642   0.246   1.350  0.5330  0.1658 -0.2530
 7532SOL    HW134229   1.649   0.151   1.338 -2.5752 -0.0483 -0.3230
 7532SOL    HW234230   1.627   0.248   1.445 -0.6770 -2.3196 -0.3843
 7533SOL     OW34231   1.481   3.474   1.495  0.7395  0.1632  0.0287
 7533SOL    HW134232   1.456   3.531   1.568 -0.6267  1.4270 -1.4259
 7533SOL    HW234233   1.517   3.396   1.537  0.6461  0.5351  0.7970
 7534SOL     OW34234   2.621   0.041   8.326 -0.4769 -0.7098  0.5850
 7534SOL    HW134235   2.581   4.705   8.275 -0.4369  0.8975 -1.6388
 7534SOL    HW234236   2.703   0.032   8.278  0.1616 -2.0043  1.9363
 7535SOL     OW34237   0.566   1.816   5.151  0.0703 -0.3448 -0.3454
 7535SOL    HW134238   0.583   1.788   5.241  0.2565  3.3911  0.7981
 7535SOL    HW234239   0.625   1.749   5.116  2.1158  0.6198  1.1794
 7536SOL     OW34240   1.367   3.317   8.366  0.3200  0.3168 -0.2076
 7536SOL    HW134241   1.441   3.340   8.421 -2.4026  1.5356  2.9005
 7536SOL    HW234242   1.333   3.236   8.403  2.5777 -0.9836 -0.9997
 7537SOL     OW34243   1.543   2.079   2.088  0.1215  0.0932 -0.0467
 7537SOL    HW134244   1.460   2.033   2.072  0.6739 -0.8215 -0.3182
 7537SOL    HW234245   1.551   2.063   2.182 -1.4891  0.6957  0.1951
 7538SOL     OW34246   2.903   3.229   9.034  0.0482 -0.5739  0.2365
 7538SOL    HW134247   2.862   3.249   8.950  0.6716 -1.0784 -0.1894
 7538SOL    HW234248   2.997   3.241   9.022  0.0198 -2.2801 -1.8224
 7539SOL     OW34249   0.310   2.042   2.718 -0.4725 -0.0315 -0.4194
 7539SOL    HW134250   0.343   2.121   2.676 -2.3008 -0.5488 -2.8071
 7539SOL    HW234251   0.393   2.012   2.754 -0.2819  1.8313  0.6756
 7540SOL     OW34252   1.176   3.042   2.469  0.2656  0.5959 -0.1236
 7540SOL    HW134253   1.192   3.026   2.376  0.7097  0.6957 -0.0665
 7540SOL    HW234254   1.261   3.070   2.502  1.3416  0.5507 -2.8180
 7541SOL     OW34255   3.169   1.764   0.226  0.1853  0.2702 -0.1744
 7541SOL    HW134256   3.221   1.686   0.242 -1.0849  0.0544  2.8533
 7541SOL    HW234257   3.139   1.798   0.310  0.5750 -3.3705  1.4337
 7542SOL     OW34258   2.434   3.103  14.101  0.5295 -0.1044 -0.1543
 7542SOL    HW134259   2.433   3.198  14.113  2.0024 -0.1686  0.4604
 7542SOL    HW234260   2.351   3.086  14.056  0.3661  1.6699 -0.5553
 7543SOL     OW34261   1.001   0.248  17.711 -0.6825 -0.6060  0.0571
 7543SOL    HW134262   0.907   0.256  17.698 -0.0817  2.1408 -2.4022
 7543SOL    HW234263   1.000   0.292   0.060  2.3794  2.3458 -1.4470
 7544SOL     OW34264   0.984   1.047   8.113  0.3627  0.0443  0.6171
 7544SOL    HW134265   1.023   1.067   8.028  1.2446 -0.8220  0.8271
 7544SOL    HW234266   0.985   0.952   8.123 -0.2875 -0.2885 -2.3836
 7545SOL     OW34267   3.663   4.620  12.024 -0.4209  0.1052  0.4852
 7545SOL    HW134268   3.667   4.707  12.064  3.9328  0.9172 -1.8048
 7545SOL    HW234269   3.568   4.607  12.013 -0.1152 -1.0624 -0.8743
 7546SOL     OW34270   0.141   4.227   9.191 -0.1543 -0.4109 -0.3992
 7546SOL    HW134271   0.108   4.255   9.277  0.7164  0.6346 -0.3969
 7546SOL    HW234272   0.075   4.163   9.163 -1.6422  0.6599  0.6561
 7547SOL     OW34273   0.709   4.455   5.352 -0.7141  0.3460  0.3488
 7547SOL    HW134274   0.658   4.420   5.278 -0.4080  0.6254  0.0096
 7547SOL    HW234275   0.782   4.500   5.311 -1.1344 -0.8904 -1.7983
 7548SOL     OW34276   3.479   3.418   5.247  0.3142  0.3033 -0.1660
 7548SOL    HW134277   3.511   3.503   5.278  0.8540 -0.1952  0.6536
 7548SOL    HW234278   3.389   3.443   5.229  0.4881 -0.9000 -2.6258
 7549SOL     OW34279   1.536   4.085   4.166 -0.6908 -0.2208 -0.1009
 7549SOL    HW134280   1.603   4.153   4.174 -0.6133 -0.2711 -0.3376
 7549SOL    HW234281   1.500   4.104   4.080 -1.2445 -0.9991 -0.0375
 7550SOL     OW34282   0.216   1.367   9.681  1.0387  0.2029  0.4021
 7550SOL    HW134283   0.141   1.337   9.629  0.5621 -0.6489  1.5877
 7550SOL    HW234284   0.289   1.380   9.621 -0.4396  0.8095 -1.2595
 7551SOL     OW34285   4.139   1.327   6.356 -0.3641 -0.4566  0.4685
 7551SOL    HW134286   4.228   1.293   6.361  0.2828  0.9517 -1.7520
 7551SOL    HW234287   4.097   1.244   6.379 -1.2952  0.1967  1.0966
 7552SOL     OW34288   1.852   0.202   7.232  0.6405 -0.2087  0.1650
 7552SOL    HW134289   1.909   0.278   7.232 -0.2764  0.4723 -0.2843
 7552SOL    HW234290   1.906   0.144   7.178 -0.2823 -0.9343  0.0273
 7553SOL     OW34291   0.715   4.615  14.424 -0.7706  0.1716  0.3114
 7553SOL    HW134292   0.683   4.628  14.335  0.9365 -2.1677 -0.6379
 7553SOL    HW234293   0.736   4.523  14.415  1.0525  1.0263 -3.9751
 7554SOL     OW34294   0.544   2.731  17.155 -0.2988 -0.1768 -0.2405
 7554SOL    HW134295   0.638   2.719  17.170 -0.4131 -0.3249  0.3639
 7554SOL    HW234296   0.506   2.712  17.241  1.8208  1.5223  1.0447
 7555SOL     OW34297   3.062   3.842   1.276  0.3198 -0.2850 -0.4268
 7555SOL    HW134298   3.076   3.915   1.335 -0.5484  0.8975 -1.6777
 7555SOL    HW234299   2.968   3.833   1.288  0.1734  0.8423 -0.7557
 7556SOL     OW34300   0.310   1.816   6.974 -0.1964 -0.5930  0.3489
 7556SOL    HW134301   0.246   1.778   7.034  0.0050  0.3471  1.1641
 7556SOL    HW234302   0.383   1.755   6.986 -0.4425 -1.1737 -1.1181
 7557SOL     OW34303   1.493   4.254   3.945  0.4560 -0.1476  0.2819
 7557SOL    HW134304   1.442   4.334   3.960  0.5601 -0.4755  2.3824
 7557SOL    HW234305   1.566   4.287   3.892 -0.0455 -1.2988 -1.1422
 7558SOL     OW34306   4.224   4.680   8.866  0.5004  1.0777  0.3451
 7558SOL    HW134307   4.276   0.026   8.865 -1.0459  2.0327 -2.2569
 7558SOL    HW234308   4.190   4.680   8.777 -0.5095  0.7489  0.7344
 7559SOL     OW34309   1.625   3.208   9.234  0.5146  0.4301 -0.5083
 7559SOL    HW134310   1.632   3.124   9.188  0.5219  0.8749 -1.3090
 7559SOL    HW234311   1.711   3.215   9.275  1.2491  1.6329 -2.2835
 7560SOL     OW34312   0.203   4.476   4.405 -0.0618 -0.0569  0.3802
 7560SOL    HW134313   0.149   4.505   4.479  0.9632  1.8500  0.3831
 7560SOL    HW234314   0.260   4.552   4.404 -1.2939  0.8819  0.9569
 7561SOL     OW34315   2.014   2.868   8.163  0.3087  0.0101 -0.2096
 7561SOL    HW134316   1.939   2.906   8.209  1.4995  1.5932  0.3926
 7561SOL    HW234317   2.084   2.926   8.191 -1.1655  1.7876 -0.1623
 7562SOL     OW34318   1.908   1.536   7.721 -0.2833  0.1279 -0.2261
 7562SOL    HW134319   1.959   1.581   7.654 -0.9173  0.5219 -0.4417
 7562SOL    HW234320   1.900   1.450   7.680 -1.8138 -0.3466  1.0648
 7563SOL     OW34321   1.777   0.749   3.252  0.2963  0.0916  0.9047
 7563SOL    HW134322   1.867   0.748   3.218  0.7204  0.6350  1.9929
 7563SOL    HW234323   1.757   0.838   3.225  3.6879  0.8399  0.7847
 7564SOL     OW34324   2.081   2.886   6.241 -0.1876  0.4568 -0.8076
 7564SOL    HW134325   2.062   2.975   6.210  0.7610  1.0123  0.1691
 7564SOL    HW234326   2.065   2.832   6.164 -1.8929 -0.2897  0.0853
 7565SOL     OW34327   2.881   2.917  14.138  0.3733 -0.0042 -0.0787
 7565SOL    HW134328   2.792   2.888  14.121  0.0242  1.2266 -0.3439
 7565SOL    HW234329   2.861   3.007  14.163 -0.8006 -0.6340  1.2288
 7566SOL     OW34330   4.474   2.489  15.262 -0.1435  0.0868  0.1809
 7566SOL    HW134331   4.484   2.442  15.345 -0.3253  1.5900  1.0678
 7566SOL    HW234332   4.539   2.557  15.281  0.0956  0.6523 -2.7732
 7567SOL     OW34333   3.944   1.653   2.255  0.4537  0.2893 -0.2300
 7567SOL    HW134334   3.867   1.710   2.246  1.0809  1.1224 -0.2535
 7567SOL    HW234335   3.940   1.602   2.174  0.1678 -0.4729  0.2612
 7568SOL     OW34336   3.902   1.203  11.967 -0.3938  0.1072  0.3635
 7568SOL    HW134337   3.819   1.231  11.929  1.2961  1.1399 -2.5952
 7568SOL    HW234338   3.927   1.261  12.039  0.7595  0.8759 -0.6499
 7569SOL     OW34339   3.449   3.470   1.928  0.6601  0.4105 -0.1886
 7569SOL    HW134340   3.441   3.565   1.918  2.0301  0.3965 -1.4482
 7569SOL    HW234341   3.398   3.462   2.009 -0.5012 -0.6579 -1.0482
 7570SOL     OW34342   1.574   3.002   5.193 -0.1159 -0.0906 -0.1493
 7570SOL    HW134343   1.607   2.948   5.121 -0.3985 -0.4639 -0.0008
 7570SOL    HW234344   1.514   3.066   5.156  1.4743  1.1772 -0.5051
 7571SOL     OW34345   3.911   2.980   9.187  0.4073  0.3983 -0.6826
 7571SOL    HW134346   3.990   3.035   9.188  0.9910 -0.4503 -0.2073
 7571SOL    HW234347   3.874   3.010   9.104  0.7105  1.2895 -0.4895
 7572SOL     OW34348   0.609   0.210   8.864  0.5584  0.4436 -0.4595
 7572SOL    HW134349   0.604   0.115   8.874  1.9740  0.2577 -1.5989
 7572SOL    HW234350   0.596   0.225   8.771 -0.2118 -0.6600 -0.5223
 7573SOL     OW34351   0.485   2.715   2.385 -0.0726 -0.3504 -0.0444
 7573SOL    HW134352   0.542   2.761   2.324 -0.9269 -0.2366 -0.7438
 7573SOL    HW234353   0.432   2.782   2.429 -0.0247 -0.2639 -0.1198
 7574SOL     OW34354   1.185   2.941  16.238 -0.3153  0.2375  0.4434
 7574SOL    HW134355   1.126   2.872  16.209  1.0680 -0.8884  0.2868
 7574SOL    HW234356   1.231   2.901  16.312 -1.8919 -1.3413  0.5678
 7575SOL     OW34357   4.158   0.666   3.506 -0.0555  0.0191 -0.7437
 7575SOL    HW134358   4.109   0.742   3.537  0.1962  0.2077 -0.8090
 7575SOL    HW234359   4.142   0.606   3.579  0.6233 -0.1358 -0.7218
 7576SOL     OW34360   0.288   2.435  17.165 -0.1437 -0.7654  0.2095
 7576SOL    HW134361   0.358   2.426  17.100  0.7107 -0.7104  1.1252
 7576SOL    HW234362   0.256   2.521  17.139  0.1570 -0.8503 -0.4650
 7577SOL     OW34363   0.621   2.414   1.086  0.3532  0.2123  0.0824
 7577SOL    HW134364   0.608   2.348   1.018  2.1019  1.7557 -1.7510
 7577SOL    HW234365   0.533   2.444   1.108 -0.0639 -0.3234 -0.8460
 7578SOL     OW34366   2.190   3.519   9.115  0.3174  0.6410 -0.2713
 7578SOL    HW134367   2.098   3.543   9.124  0.9929  3.2492 -0.3507
 7578SOL    HW234368   2.224   3.535   9.203  1.7958 -2.2942 -0.2876
 7579SOL     OW34369   0.580   4.671   8.557 -0.1105 -0.1544 -0.2411
 7579SOL    HW134370   0.657   4.614   8.562  0.1801  0.4997  2.2570
 7579SOL    HW234371   0.554   4.643   8.469 -1.9046  2.0445 -0.3820
 7580SOL     OW34372   3.820   4.599   4.297 -0.5369 -0.3699 -0.2022
 7580SOL    HW134373   3.850   4.553   4.375 -1.4656 -0.6840 -0.0369
 7580SOL    HW234374   3.767   4.659   4.348 -1.8500  0.3866 -2.4543
 7581SOL     OW34375   4.322   0.969  10.273 -0.1816 -0.0775 -0.2987
 7581SOL    HW134376   4.243   0.977  10.220  0.2242 -2.0169 -1.1655
 7581SOL    HW234377   4.355   0.882  10.249 -1.8116 -1.5954  2.9744
 7582SOL     OW34378   0.410   3.215   4.070 -0.1400  0.5380  0.2951
 7582SOL    HW134379   0.427   3.185   3.981 -1.1649  1.6653 -0.2851
 7582SOL    HW234380   0.333   3.271   4.056 -0.6171 -0.1626  0.1483
 7583SOL     OW34381   3.735   1.645  15.573  0.6722  0.4432 -0.3408
 7583SOL    HW134382   3.766   1.625  15.662 -1.3445  0.6356  0.3873
 7583SOL    HW234383   3.765   1.566  15.528  2.1687 -0.2994  1.9707
 7584SOL     OW34384   3.910   3.853   4.492  0.6109 -0.0713 -0.2433
 7584SOL    HW134385   3.940   3.927   4.545 -1.1502 -0.5277  1.3583
 7584SOL    HW234386   3.928   3.897   4.408  0.7396 -0.3118 -0.3424
 7585SOL     OW34387   3.537   2.977   8.501  0.0776 -0.4731  0.0910
 7585SOL    HW134388   3.475   2.983   8.574  0.5751  0.8553  0.3993
 7585SOL    HW234389   3.562   3.067   8.478 -2.2408 -0.2992 -1.7570
 7586SOL     OW34390   3.688   4.436   4.051 -0.1467 -0.3561  0.3231
 7586SOL    HW134391   3.655   4.352   4.085 -0.9785 -0.2836 -0.3101
 7586SOL    HW234392   3.708   4.486   4.130  1.7933  1.1381 -1.1391
 7587SOL     OW34393   2.339   3.694   7.455  0.3436  0.0389  0.0263
 7587SOL    HW134394   2.397   3.624   7.485 -0.2391 -0.4583  0.0045
 7587SOL    HW234395   2.383   3.772   7.488  1.1023 -0.7703  0.9500
 7588SOL     OW34396   1.701   3.742   6.605  0.8771  0.1986  0.0885
 7588SOL    HW134397   1.608   3.717   6.601  0.9476 -0.0400 -0.0730
 7588SOL    HW234398   1.689   3.837   6.606 -1.7604 -0.1764  4.1496
 7589SOL     OW34399   0.490   3.413  11.262  0.0929  0.1397  0.0320
 7589SOL    HW134400   0.431   3.488  11.251 -1.0740 -0.6122  1.0335
 7589SOL    HW234401   0.556   3.434  11.328 -0.1760 -0.8391  0.6235
 7590SOL     OW34402   2.976   4.549  16.976 -0.0166  0.0199 -0.4513
 7590SOL    HW134403   2.888   4.574  16.950 -0.0584 -1.2481 -1.4920
 7590SOL    HW234404   3.010   4.635  17.002  1.2039  0.5450 -3.8458
 7591SOL     OW34405   3.687   4.329   7.233  0.3067 -0.1779 -0.0516
 7591SOL    HW134406   3.777   4.302   7.249 -0.4150 -1.7922  1.2562
 7591SOL    HW234407   3.670   4.392   7.303 -1.0352  0.4842 -0.9498
 7592SOL     OW34408   3.980   1.608   8.342  0.6405 -0.0844  0.2059
 7592SOL    HW134409   3.994   1.593   8.435 -0.4265  2.5452  0.7736
 7592SOL    HW234410   3.887   1.623   8.327  0.6779 -2.0017 -2.1136
 7593SOL     OW34411   2.150   0.779   6.431  0.6077 -0.2135 -0.7334
 7593SOL    HW134412   2.185   0.813   6.349  2.9800  0.7977  0.7035
 7593SOL    HW234413   2.092   0.710   6.398 -0.8906 -0.0759  1.5867
 7594SOL     OW34414   4.671   3.225   3.008 -0.7972  0.7197 -0.1771
 7594SOL    HW134415   0.005   3.283   2.973  1.5159 -3.4180 -2.4945
 7594SOL    HW234416   4.699   3.222   3.099  0.0065  1.1080 -0.4109
 7595SOL     OW34417   4.129   0.093   8.405 -0.3992  0.6361 -0.2650
 7595SOL    HW134418   4.057   0.139   8.447 -1.5796 -1.3819 -0.0782
 7595SOL    HW234419   4.114   0.005   8.440 -3.2183  0.1696 -2.6473
 7596SOL     OW34420   0.294   0.469   6.533 -0.6892  0.0359 -0.1547
 7596SOL    HW134421   0.235   0.421   6.591  2.3414 -3.7091 -0.1516
 7596SOL    HW234422   0.254   0.556   6.540  1.0351  0.9832 -1.8581
 7597SOL     OW34423   0.625   1.475   7.757  0.3301  0.3875  0.1242
 7597SOL    HW134424   0.560   1.524   7.706 -0.4516 -0.4199  0.3490
 7597SOL    HW234425   0.698   1.474   7.695  0.0440 -0.4397 -0.1906
 7598SOL     OW34426   1.964   1.263   3.511  0.4844  0.0711  0.0615
 7598SOL    HW134427   1.964   1.284   3.418 -2.1312  0.2227  0.1186
 7598SOL    HW234428   1.984   1.352   3.539 -0.3869  0.9127 -2.0119
 7599SOL     OW34429   2.003   0.775   7.016 -0.3848  0.1479  0.4071
 7599SOL    HW134430   1.947   0.846   7.048 -1.0625  0.4269 -1.4088
 7599SOL    HW234431   2.020   0.795   6.924  0.6703 -3.2186 -0.1219
 7600SOL     OW34432   1.281   3.953   8.246  0.3236  0.0695 -0.1696
 7600SOL    HW134433   1.316   3.872   8.282  0.8489  0.4537  0.1835
 7600SOL    HW234434   1.271   3.921   8.156  3.0134  1.7158 -1.0696
 7601SOL     OW34435   3.788   2.238   8.658  0.3818  0.6578 -0.4777
 7601SOL    HW134436   3.838   2.166   8.696  0.2054  0.1493 -1.2026
 7601SOL    HW234437   3.721   2.267   8.719 -1.6208 -0.3441 -2.2024
 7602SOL     OW34438   2.728   4.104   2.301  0.3005  0.4435 -0.1004
 7602SOL    HW134439   2.761   4.194   2.303  0.0390  0.5916 -2.3898
 7602SOL    HW234440   2.694   4.101   2.390  0.2325 -3.4468 -0.2625
 7603SOL     OW34441   0.457   2.242   9.776  0.0228  0.4438  0.1023
 7603SOL    HW134442   0.430   2.325   9.738  0.2326 -0.1022 -1.2689
 7603SOL    HW234443   0.520   2.262   9.845  1.6313  1.3938 -1.6229
 7604SOL     OW34444   2.513   0.637   6.614  0.0390 -0.4634  0.4335
 7604SOL    HW134445   2.493   0.731   6.616 -0.7030 -0.5837 -0.8086
 7604SOL    HW234446   2.545   0.630   6.524 -0.9548  0.9868 -0.0359
 7605SOL     OW34447   0.360   3.951   4.286 -0.3678 -0.2587  0.2107
 7605SOL    HW134448   0.273   3.930   4.253 -0.5191 -0.5783  0.8109
 7605SOL    HW234449   0.356   4.045   4.307  0.9167  0.2419 -1.7742
 7606SOL     OW34450   1.842   2.191   2.273 -0.4419 -0.1185 -0.0055
 7606SOL    HW134451   1.865   2.237   2.192 -2.1393 -0.1316 -0.4964
 7606SOL    HW234452   1.751   2.222   2.264 -0.1326  0.7090 -0.3028
 7607SOL     OW34453   4.587   1.056   6.229 -0.1468 -0.2972  0.0345
 7607SOL    HW134454   4.602   0.963   6.212 -0.6355 -0.1568 -1.1748
 7607SOL    HW234455   4.625   1.102   6.153  0.9624 -1.6075 -0.1948
 7608SOL     OW34456   1.167   4.081   4.159  0.0167 -0.2955 -0.1110
 7608SOL    HW134457   1.204   4.075   4.071 -0.8554  1.3920 -0.5918
 7608SOL    HW234458   1.078   4.047   4.163 -0.3939  0.8943  0.8960
 7609SOL     OW34459   1.242   2.902   5.013  0.2105 -0.2310  0.3497
 7609SOL    HW134460   1.218   2.857   4.932 -0.4159  1.7548 -0.5780
 7609SOL    HW234461   1.336   2.883   5.017  0.4609  0.8234 -0.5485
 7610SOL     OW34462   0.194   1.372   0.033  0.0526 -0.3530  0.3574
 7610SOL    HW134463   0.189   1.359  17.674 -0.5463 -1.0136  0.4786
 7610SOL    HW234464   0.152   1.458   0.037 -0.6978 -0.7317  0.6874
 7611SOL     OW34465   0.045   1.199   2.407  0.1229  0.3102 -0.2185
 7611SOL    HW134466   0.123   1.218   2.460 -0.5516  2.6681 -0.0718
 7611SOL    HW234467   0.077   1.167   2.323  0.0959 -1.0667  0.3072
 7612SOL     OW34468   1.175   2.364   2.894 -0.4450 -0.3679  0.2076
 7612SOL    HW134469   1.166   2.284   2.946 -0.3386  0.1373  1.0104
 7612SOL    HW234470   1.220   2.428   2.950  0.4499 -1.0613  0.2828
 7613SOL     OW34471   3.728   4.489   7.448  0.3827  0.3851 -0.1398
 7613SOL    HW134472   3.818   4.471   7.423  0.1922 -0.6066 -0.1089
 7613SOL    HW234473   3.700   4.556   7.385 -1.3154  0.2433  0.4580
 7614SOL     OW34474   1.298   3.102  13.403 -0.1557 -0.0839  0.3716
 7614SOL    HW134475   1.284   3.009  13.387  0.7329 -0.4308  1.6110
 7614SOL    HW234476   1.357   3.105  13.478 -1.0728 -0.5476  1.1114
 7615SOL     OW34477   4.237   4.112   3.626  0.3410  0.3799  0.6709
 7615SOL    HW134478   4.280   4.114   3.540  1.1928 -3.1799  1.0512
 7615SOL    HW234479   4.152   4.147   3.599  0.5315 -0.5383 -1.1594
 7616SOL     OW34480   1.214   2.894   5.829  0.5710  0.5131 -0.4290
 7616SOL    HW134481   1.207   2.920   5.921 -1.3396  2.9359 -1.2469
 7616SOL    HW234482   1.305   2.865   5.827  0.7378  1.0495 -0.7553
 7617SOL     OW34483   0.113   4.353  11.391 -0.5467 -0.0753  0.3487
 7617SOL    HW134484   0.086   4.300  11.316  0.6535  0.5697 -0.5456
 7617SOL    HW234485   0.207   4.337  11.397 -0.5221  0.5062  1.5863
 7618SOL     OW34486   1.531   4.643  13.762  0.3697 -0.3993  0.4522
 7618SOL    HW134487   1.446   4.603  13.742  0.2454  0.7672 -1.3828
 7618SOL    HW234488   1.516   4.660  13.855 -1.5847  0.2765  0.0245
 7619SOL     OW34489   0.701   0.648   4.160  0.0480 -0.2527 -0.5939
 7619SOL    HW134490   0.738   0.645   4.248  1.7331 -1.5292 -1.3493
 7619SOL    HW234491   0.626   0.705   4.179 -0.7150 -0.7593 -2.0725
 7620SOL     OW34492   4.694   3.880  11.238  0.0940 -0.1775 -0.1793
 7620SOL    HW134493   4.659   3.810  11.182 -0.4572 -1.6797  2.0756
 7620SOL    HW234494   0.013   3.829  11.299  0.6521 -2.0471 -2.1873
 7621SOL     OW34495   0.718   2.687   3.006 -0.2217 -0.4806 -0.1132
 7621SOL    HW134496   0.748   2.637   2.929  2.1817 -0.0964  0.5931
 7621SOL    HW234497   0.795   2.734   3.038 -0.4377 -0.1782 -0.0386
 7622SOL     OW34498   0.070   1.875   4.138 -0.2057 -0.3049 -0.1623
 7622SOL    HW134499   0.123   1.952   4.157  1.9981 -1.3683 -2.0238
 7622SOL    HW234500   0.118   1.823   4.073 -0.2099 -1.9070  1.1017
 7623SOL     OW34501   4.385   1.622   2.369 -0.2595 -0.6364  0.8453
 7623SOL    HW134502   4.387   1.601   2.276  1.4537  0.0986  0.7216
 7623SOL    HW234503   4.417   1.712   2.366  1.7548 -1.4816 -2.1490
 7624SOL     OW34504   4.354   3.686  12.495 -0.2769  0.1333 -0.2609
 7624SOL    HW134505   4.259   3.691  12.501 -0.0108  2.7343  1.6273
 7624SOL    HW234506   4.387   3.668  12.583  1.2619  1.7598 -0.4964
 7625SOL     OW34507   2.296   1.531  13.683 -0.2317  0.3314 -0.0728
 7625SOL    HW134508   2.314   1.552  13.591 -1.9338  1.0326 -0.2507
 7625SOL    HW234509   2.205   1.500  13.681  0.4574 -1.5793 -1.5664
 7626SOL     OW34510   4.240   3.290   2.827 -0.0132  0.7463 -0.1907
 7626SOL    HW134511   4.222   3.355   2.895  1.9003  0.4559  0.5698
 7626SOL    HW234512   4.300   3.238   2.881 -1.5081  1.0219  1.7707
 7627SOL     OW34513   4.582   2.445   8.200  0.4470 -0.2294 -0.4948
 7627SOL    HW134514   4.586   2.523   8.256 -0.0382  0.7560 -1.8287
 7627SOL    HW234515   4.622   2.482   8.121 -0.4654 -1.8029 -1.6693
 7628SOL     OW34516   0.948   1.854   2.005  0.2419 -0.4036  0.0404
 7628SOL    HW134517   1.004   1.840   2.082 -0.3535  0.3539  0.6156
 7628SOL    HW234518   1.003   1.903   1.944 -0.2203  0.2788  0.1664
 7629SOL     OW34519   3.025   3.341  16.920 -0.1906  0.4483 -0.2935
 7629SOL    HW134520   2.950   3.302  16.874  1.3211 -1.0792 -1.4626
 7629SOL    HW234521   3.087   3.268  16.926 -1.0325 -0.4134 -1.9571
 7630SOL     OW34522   3.099   4.540   8.075 -0.5620  0.3682 -0.0210
 7630SOL    HW134523   3.136   4.528   8.163  0.6883  0.7632 -0.4873
 7630SOL    HW234524   3.156   4.613   8.050 -2.3574  1.7213 -0.2071
 7631SOL     OW34525   2.429   2.341  11.990 -0.1685 -0.5026  0.6347
 7631SOL    HW134526   2.445   2.434  12.002 -1.3016 -0.1827 -0.3322
 7631SOL    HW234527   2.433   2.341  11.895  1.2889 -1.2601  0.6958
 7632SOL     OW34528   3.356   2.226  14.961  0.1678  0.0349  0.0462
 7632SOL    HW134529   3.304   2.208  15.039 -1.0737 -2.8054 -1.4651
 7632SOL    HW234530   3.356   2.138  14.925 -1.0172  1.1315 -2.7081
 7633SOL     OW34531   3.963   1.278  10.922 -0.0236  0.0818 -0.3784
 7633SOL    HW134532   3.926   1.363  10.896 -0.8649  0.0434  0.7147
 7633SOL    HW234533   4.049   1.315  10.942  0.8984 -1.5929 -1.2276
 7634SOL     OW34534   0.552   3.541   4.832 -0.4540 -0.0083 -0.7932
 7634SOL    HW134535   0.487   3.611   4.844 -0.4248  0.3948 -2.8954
 7634SOL    HW234536   0.636   3.587   4.837 -0.6772  0.4265 -0.9992
 7635SOL     OW34537   3.086   0.985   8.195  0.4052 -0.2953 -0.1109
 7635SOL    HW134538   3.177   0.980   8.223  0.8633  0.8459 -1.4170
 7635SOL    HW234539   3.045   1.027   8.270  2.5900 -0.0282  0.9216
 7636SOL     OW34540   0.266   3.326   0.815 -0.9367  0.2483  0.4459
 7636SOL    HW134541   0.360   3.340   0.798 -0.2553 -3.7237  0.9175
 7636SOL    HW234542   0.246   3.405   0.865  1.0771  0.9203  0.2053
 7637SOL     OW34543   3.616   4.536  13.791  0.7024 -0.4437 -0.2482
 7637SOL    HW134544   3.574   4.544  13.877  3.3046  1.2870  0.8316
 7637SOL    HW234545   3.593   4.446  13.768 -0.0799 -0.0220 -1.1111
 7638SOL     OW34546   1.789   4.266   8.204  0.0505  0.4691  0.0320
 7638SOL    HW134547   1.780   4.362   8.201  0.3957  0.4943 -0.2166
 7638SOL    HW234548   1.768   4.258   8.297  0.7114 -0.5602  0.0844
 7639SOL     OW34549   0.608   0.772   5.443 -0.1471  0.1837 -0.4006
 7639SOL    HW134550   0.662   0.775   5.522  1.0155  0.5618 -1.2073
 7639SOL    HW234551   0.577   0.863   5.434  0.2004  0.2650 -0.7785
 7640SOL     OW34552   2.162   0.547   8.208 -0.2582 -0.1982  0.8456
 7640SOL    HW134553   2.210   0.480   8.256  1.2759  0.6986  0.5693
 7640SOL    HW234554   2.165   0.508   8.121 -3.2268  0.1066  0.6043
 7641SOL     OW34555   4.337   1.081   5.226  0.2949 -0.0232  0.3358
 7641SOL    HW134556   4.397   1.010   5.206 -0.0667 -0.2222 -0.0543
 7641SOL    HW234557   4.254   1.033   5.233 -1.9889  3.7911 -0.5983
 7642SOL     OW34558   2.921   1.671   8.499  0.0276 -0.2482 -0.1073
 7642SOL    HW134559   3.002   1.720   8.515  0.5891 -1.2279  0.1163
 7642SOL    HW234560   2.964   1.593   8.462 -2.7302 -1.4842 -0.7117
 7643SOL     OW34561   4.660   2.478  13.252  0.2492  0.2289  0.2817
 7643SOL    HW134562   4.616   2.449  13.172 -0.4839  1.3260  0.2901
 7643SOL    HW234563   4.706   2.398  13.279  0.4176  0.3664  0.4030
 7644SOL     OW34564   0.189   2.811   2.196 -0.6243 -0.2867 -0.2900
 7644SOL    HW134565   0.210   2.762   2.116 -0.8685 -2.7110  1.1260
 7644SOL    HW234566   0.098   2.783   2.209 -0.8368 -0.1522 -1.4853
 7645SOL     OW34567   2.567   2.724   8.775 -0.6581 -0.3826 -0.0939
 7645SOL    HW134568   2.480   2.759   8.791  0.2436  2.8380 -2.1638
 7645SOL    HW234569   2.585   2.661   8.844 -1.5990 -0.5733 -0.0306
 7646SOL     OW34570   2.066   1.262  16.250  0.6519  0.2765 -0.5518
 7646SOL    HW134571   1.982   1.285  16.289 -0.1465  0.4657 -2.3473
 7646SOL    HW234572   2.112   1.229  16.327 -1.0629 -0.9315 -0.0322
 7647SOL     OW34573   2.865   2.411  16.909  0.0314  0.7868  0.4105
 7647SOL    HW134574   2.785   2.461  16.925  0.7591  1.9332  0.4806
 7647SOL    HW234575   2.927   2.471  16.950 -0.2147  1.0636  0.3794
 7648SOL     OW34576   0.703   3.238   6.373  0.1095  0.5017 -0.0730
 7648SOL    HW134577   0.689   3.180   6.448  3.8415 -1.7107 -1.0702
 7648SOL    HW234578   0.797   3.240   6.353 -0.9663  0.9118 -5.0310
 7649SOL     OW34579   2.825   4.473  14.654 -0.1897  0.2289 -0.8358
 7649SOL    HW134580   2.837   4.527  14.732 -2.9428 -0.7381  0.2707
 7649SOL    HW234581   2.879   4.398  14.679 -0.5221  0.6476  1.1434
 7650SOL     OW34582   4.473   4.543   4.445 -0.0053 -0.0614 -0.2843
 7650SOL    HW134583   4.417   4.588   4.382  0.1241 -0.3506 -0.6045
 7650SOL    HW234584   4.507   4.618   4.494  0.6756  1.4111 -3.0259
 7651SOL     OW34585   1.253   1.732   5.117  0.0885 -0.4478  0.0745
 7651SOL    HW134586   1.208   1.689   5.190  0.4655  0.7927  1.0414
 7651SOL    HW234587   1.319   1.786   5.161 -0.8364  0.2661  0.5674
 7652SOL     OW34588   3.047   1.259   5.395  0.6582  0.7354 -0.0831
 7652SOL    HW134589   3.066   1.236   5.304  1.1318 -0.5020  0.3292
 7652SOL    HW234590   2.954   1.234   5.399  2.2124 -5.0013  0.6767
 7653SOL     OW34591   0.562   3.218  12.068  0.0790  0.5718 -0.5689
 7653SOL    HW134592   0.541   3.154  12.136  0.8180  1.5856  0.6057
 7653SOL    HW234593   0.658   3.218  12.074  0.0461 -2.7676 -0.2004
 7654SOL     OW34594   1.706   2.946   9.328 -0.0039  0.1019  0.4021
 7654SOL    HW134595   1.760   2.882   9.282 -0.7033 -0.1766 -0.0176
 7654SOL    HW234596   1.622   2.902   9.322  0.4814 -0.8131  0.3939
 7655SOL     OW34597   0.033   0.207  17.559 -0.5478  0.3318  0.3993
 7655SOL    HW134598   0.107   0.171  17.608  0.4753 -0.8673 -2.0227
 7655SOL    HW234599   0.044   0.297  17.589  0.7269  0.2188  0.2590
 7656SOL     OW34600   1.837   1.540  10.296  1.1230  0.0171  0.4330
 7656SOL    HW134601   1.778   1.615  10.300  1.7300  0.4550  1.3862
 7656SOL    HW234602   1.819   1.497  10.380  2.4635  1.0969  1.2677
 7657SOL     OW34603   0.138   0.485  10.478 -0.1075  0.1283  0.0321
 7657SOL    HW134604   0.100   0.551  10.420  1.4127 -1.5687 -2.8620
 7657SOL    HW234605   0.170   0.546  10.545 -3.3986  0.9479  0.8683
 7658SOL     OW34606   2.477   2.993   6.090 -0.3353  0.1829 -0.0294
 7658SOL    HW134607   2.505   2.911   6.132 -3.3594 -0.3003  1.0192
 7658SOL    HW234608   2.469   3.038   6.174  0.4662  2.3371 -1.1189
 7659SOL     OW34609   0.831   0.028   8.169 -0.6396  0.3608 -0.1169
 7659SOL    HW134610   0.838   4.676   8.210 -1.2547  0.3163 -0.1144
 7659SOL    HW234611   0.913   0.074   8.190  0.9190 -2.0454 -0.8812
 7660SOL     OW34612   1.382   2.327   5.344  0.2664  0.6876  0.8048
 7660SOL    HW134613   1.433   2.253   5.375  1.2646  0.8558 -0.4162
 7660SOL    HW234614   1.297   2.316   5.387  0.0567  1.9287  0.7169
 7661SOL     OW34615   2.033   0.977   2.800 -0.0846  0.7932 -0.6412
 7661SOL    HW134616   2.031   0.944   2.710  1.2840  1.5630 -0.9384
 7661SOL    HW234617   2.024   1.072   2.799 -2.5594  0.5791  0.0574
 7662SOL     OW34618   2.594   1.838   8.888 -0.1853  0.0294 -0.2133
 7662SOL    HW134619   2.625   1.763   8.837 -1.8847 -0.7010 -0.1705
 7662SOL    HW234620   2.625   1.816   8.976  1.1713 -0.4588 -0.8075
 7663SOL     OW34621   1.197   4.446   8.912  0.2297 -0.8865  0.0827
 7663SOL    HW134622   1.261   4.516   8.900 -0.4103 -0.2190  0.5437
 7663SOL    HW234623   1.235   4.406   8.990  0.8980  1.0890  0.7494
 7664SOL     OW34624   0.184   3.809   6.224  0.4299  0.3893  0.7776
 7664SOL    HW134625   0.193   3.850   6.138  0.1452  1.7307  1.3864
 7664SOL    HW234626   0.219   3.720   6.221  0.3816  0.4813 -1.9403
 7665SOL     OW34627   1.059   3.878   2.404  0.0593  0.1800  0.0200
 7665SOL    HW134628   1.008   3.836   2.335 -0.3033 -0.6723  0.8074
 7665SOL    HW234629   1.110   3.941   2.353  1.0747 -0.2343  0.5133
 7666SOL     OW34630   2.409   3.573   5.474  0.0550 -0.2700  0.2857
 7666SOL    HW134631   2.380   3.535   5.391 -2.0969 -0.5113  1.1501
 7666SOL    HW234632   2.496   3.597   5.443  0.0784  1.2860  1.6032
 7667SOL     OW34633   3.419   2.942  17.629  0.3611  0.1360 -0.6118
 7667SOL    HW134634   3.403   3.017  17.571 -1.6114  1.2895  1.4623
 7667SOL    HW234635   3.420   2.990  17.712  2.2436  1.6581 -1.4987
 7668SOL     OW34636   0.974   1.812   4.913  0.2837 -0.5832  0.3033
 7668SOL    HW134637   1.044   1.870   4.882 -1.5341  1.5896  0.2745
 7668SOL    HW234638   0.984   1.821   5.007  0.0235  1.7389  0.1137
 7669SOL     OW34639   2.802   1.553  11.975  0.0526 -0.4986  0.0771
 7669SOL    HW134640   2.891   1.526  11.954  0.2670  1.2297 -1.1770
 7669SOL    HW234641   2.817   1.577  12.067  1.4181  2.5916 -0.9873
 7670SOL     OW34642   0.951   0.337  12.579  0.5928  0.1041 -0.5587
 7670SOL    HW134643   0.856   0.332  12.569  0.6075  0.4901 -0.8848
 7670SOL    HW234644   0.949   0.379  12.665  1.3329 -1.7553  0.3563
 7671SOL     OW34645   3.101   0.531   2.690  0.1159  0.3987  0.2059
 7671SOL    HW134646   3.148   0.553   2.770 -0.6137 -0.4096  0.8675
 7671SOL    HW234647   3.160   0.570   2.627  0.2492 -1.6610 -0.9628
 7672SOL     OW34648   3.575   3.256  15.159  0.1958  0.2608  0.3254
 7672SOL    HW134649   3.533   3.260  15.073 -1.0201  2.0694  1.0171
 7672SOL    HW234650   3.589   3.349  15.174  0.4902  0.3676 -0.6144
 7673SOL     OW34651   4.239   0.090   9.289 -0.7450 -0.7912  0.2926
 7673SOL    HW134652   4.296   0.165   9.302 -1.6191 -0.0747 -0.0006
 7673SOL    HW234653   4.193   0.110   9.207  0.8764  0.2527 -0.3527
 7674SOL     OW34654   1.175   1.785   6.451 -0.3958 -0.2325 -0.0082
 7674SOL    HW134655   1.134   1.761   6.368 -0.2472  2.3976 -0.8264
 7674SOL    HW234656   1.161   1.711   6.510  0.0638 -0.1275  0.2305
 7675SOL     OW34657   3.884   2.973   3.767 -0.0406 -0.0967  0.2183
 7675SOL    HW134658   3.792   2.975   3.741  0.2188  0.3816 -0.6922
 7675SOL    HW234659   3.889   3.047   3.828  1.4627 -0.4235  0.4927
 7676SOL     OW34660   1.543   2.876   0.824  0.0534 -0.4769 -0.2301
 7676SOL    HW134661   1.456   2.871   0.865  1.1222 -2.2852  1.8551
 7676SOL    HW234662   1.601   2.907   0.894  0.4394  2.0578 -1.6783
 7677SOL     OW34663   1.898   3.765   7.702  0.1808 -0.2565 -0.3284
 7677SOL    HW134664   1.863   3.803   7.783  1.0087  1.1083 -0.6175
 7677SOL    HW234665   1.955   3.832   7.664  0.1653 -0.9496 -1.5740
 7678SOL     OW34666   0.069   4.330  15.843 -0.0518 -0.0710  0.1755
 7678SOL    HW134667   0.069   4.357  15.751 -2.0238  1.9135  0.7771
 7678SOL    HW234668   0.017   4.395  15.890  1.4383  1.9764 -0.9790
 7679SOL     OW34669   1.674   1.434  12.317  0.1869 -0.0750 -0.1386
 7679SOL    HW134670   1.710   1.393  12.238  2.4429 -0.9097  1.3218
 7679SOL    HW234671   1.739   1.505  12.324 -1.2300  1.4724 -2.6288
 7680SOL     OW34672   2.443   3.765   5.157 -1.1984  0.2060 -0.2564
 7680SOL    HW134673   2.414   3.826   5.224  0.2477 -2.2749  2.6639
 7680SOL    HW234674   2.364   3.733   5.114 -1.5969  0.7235  0.1051
 7681SOL     OW34675   0.165   1.097   6.436 -0.0374 -0.3482 -0.4269
 7681SOL    HW134676   0.224   1.170   6.415 -0.3473 -0.4739 -1.7356
 7681SOL    HW234677   0.219   1.056   6.504 -0.3159  0.5802  0.3540
 7682SOL     OW34678   0.064   4.018  10.596  0.0489  0.8370 -0.3403
 7682SOL    HW134679   0.126   3.958  10.638  0.5106  0.4213 -1.6189
 7682SOL    HW234680   4.719   3.963  10.596  0.8052 -0.2326  2.0650
 7683SOL     OW34681   1.433   2.245   8.780 -0.3554 -0.1295 -0.5780
 7683SOL    HW134682   1.346   2.206   8.769  1.2550 -3.7711 -0.5758
 7683SOL    HW234683   1.432   2.317   8.717  1.5509 -1.6270 -2.3506
 7684SOL     OW34684   2.742   2.908   8.317 -0.1139 -0.0810 -0.6032
 7684SOL    HW134685   2.820   2.961   8.304 -0.2999 -0.1086 -1.7781
 7684SOL    HW234686   2.751   2.885   8.410 -0.7534  1.6641 -0.1121
 7685SOL     OW34687   0.389   4.155   1.366  0.6260  0.0655 -0.0345
 7685SOL    HW134688   0.377   4.223   1.299 -1.7106 -1.9325 -1.6538
 7685SOL    HW234689   0.306   4.108   1.359 -0.1239  1.3905 -0.0458
 7686SOL     OW34690   2.229   0.746  14.146 -0.0719 -0.0783 -0.0429
 7686SOL    HW134691   2.253   0.658  14.118 -1.2658 -0.8953  1.4960
 7686SOL    HW234692   2.171   0.786  14.082 -1.0843 -0.5412  0.5778
 7687SOL     OW34693   3.328   2.702   9.398  0.2900  0.1629  0.7128
 7687SOL    HW134694   3.392   2.638   9.366 -0.9835 -1.1056  0.7142
 7687SOL    HW234695   3.320   2.760   9.322 -0.9243  0.2209  0.8805
 7688SOL     OW34696   1.635   3.183   8.523 -0.1053  0.4620 -0.5295
 7688SOL    HW134697   1.592   3.264   8.549  0.1765  0.0075  1.3301
 7688SOL    HW234698   1.564   3.118   8.518  1.0998 -0.7539 -1.7449
 7689SOL     OW34699   0.823   0.961   4.248  0.0168  0.1663 -0.1437
 7689SOL    HW134700   0.837   0.872   4.278 -2.8886 -0.3446 -0.3477
 7689SOL    HW234701   0.864   0.963   4.161  0.6021 -1.9907  0.0952
 7690SOL     OW34702   4.349   1.108  11.494  0.2444  0.1592  0.5486
 7690SOL    HW134703   4.418   1.131  11.431  1.1384 -1.3460  0.9733
 7690SOL    HW234704   4.406   1.078  11.565  1.7264 -0.5443 -0.9311
 7691SOL     OW34705   4.343   4.388   8.285 -0.3207 -0.2969  0.2183
 7691SOL    HW134706   4.412   4.366   8.348  0.6294  0.7711 -0.4512
 7691SOL    HW234707   4.388   4.465   8.252 -1.5783  1.1398  1.8541
 7692SOL     OW34708   1.612   4.692   1.290 -0.5175 -0.4902 -0.4590
 7692SOL    HW134709   1.578   4.604   1.307 -1.5907  0.3726  2.0001
 7692SOL    HW234710   1.607   4.699   1.195 -0.0931  3.7254 -0.1553
 7693SOL     OW34711   3.446   2.458   5.966  0.4533 -0.9810  0.2537
 7693SOL    HW134712   3.380   2.523   5.943  1.3859  0.2585  1.0706
 7693SOL    HW234713   3.483   2.485   6.050  0.9712 -1.4125  0.1698
 7694SOL     OW34714   3.179   0.772   7.150 -0.1437 -0.2631 -0.1782
 7694SOL    HW134715   3.131   0.761   7.232 -0.2755  0.1850 -0.1920
 7694SOL    HW234716   3.116   0.752   7.080  0.3137 -0.9923 -0.3713
 7695SOL     OW34717   3.915   0.887   5.882 -0.2773  0.3562  0.2811
 7695SOL    HW134718   3.835   0.853   5.842  1.1361 -1.5364 -0.9138
 7695SOL    HW234719   3.982   0.827   5.850  0.3193  1.8811 -1.3280
 7696SOL     OW34720   3.603   3.618   5.898 -0.4992 -0.0102 -0.5114
 7696SOL    HW134721   3.542   3.667   5.953 -1.3456 -2.0401  0.3506
 7696SOL    HW234722   3.595   3.535   5.945  2.0423 -0.3975 -0.7651
 7697SOL     OW34723   0.114   2.043  11.838  0.5124  0.1673  0.0350
 7697SOL    HW134724   0.106   1.956  11.799 -2.4753 -0.3369  1.7847
 7697SOL    HW234725   0.207   2.064  11.830 -0.0427  2.9735  0.8343
 7698SOL     OW34726   1.806   3.922   6.844  0.1627 -0.2961 -0.4746
 7698SOL    HW134727   1.806   3.996   6.784  0.4912  1.0570  1.1971
 7698SOL    HW234728   1.869   3.940   6.914  1.3904 -0.3539 -1.5567
 7699SOL     OW34729   4.340   0.590  17.328  0.0033 -0.3063  0.3053
 7699SOL    HW134730   4.255   0.581  17.285  0.4942 -1.3617 -0.4496
 7699SOL    HW234731   4.342   0.680  17.360  1.1350  0.1926 -1.1973
 7700SOL     OW34732   2.633   0.300   8.283  0.1908  0.5961  0.6774
 7700SOL    HW134733   2.607   0.215   8.318 -1.9408  1.4717  1.1677
 7700SOL    HW234734   2.716   0.283   8.238  0.7387  1.0908  1.5070
 7701SOL     OW34735   1.382   0.828  12.315 -0.2547  0.0999  0.5685
 7701SOL    HW134736   1.322   0.898  12.292 -0.4062  0.2366  1.3780
 7701SOL    HW234737   1.320   0.754  12.316  0.6250 -0.5711  4.0224
 7702SOL     OW34738   0.055   3.850   1.866  0.4213 -0.0208 -0.0073
 7702SOL    HW134739   0.084   3.769   1.825  0.8293  1.1048 -1.9308
 7702SOL    HW234740   0.061   3.900   1.785 -1.8208 -0.3450 -0.3586
 7703SOL     OW34741   0.375   1.589   6.451 -0.0820 -0.0060  0.3086
 7703SOL    HW134742   0.332   1.635   6.380  0.1961 -0.8296 -0.3960
 7703SOL    HW234743   0.328   1.614   6.531 -1.3824  0.3395 -0.5709
 7704SOL     OW34744   0.277   0.992   7.654  0.1551  0.0828 -0.7961
 7704SOL    HW134745   0.345   0.960   7.713 -1.1530 -1.4700 -0.1478
 7704SOL    HW234746   0.276   1.083   7.683 -2.0909  0.2085 -1.2653
 7705SOL     OW34747   2.113   1.067   1.520  0.0409  0.5781 -0.3910
 7705SOL    HW134748   2.174   1.026   1.581  0.7251  0.0226 -1.4494
 7705SOL    HW234749   2.151   1.155   1.520 -4.0408  2.3577  1.8169
 7706SOL     OW34750   2.946   3.008   7.982 -0.4135 -0.8008  0.2362
 7706SOL    HW134751   3.005   3.080   8.001  1.1681 -1.4735 -2.2111
 7706SOL    HW234752   2.999   2.937   8.018 -0.9732 -1.3742 -0.0602
 7707SOL     OW34753   0.117   4.110  14.222  0.8492 -0.2535 -0.5815
 7707SOL    HW134754   0.190   4.144  14.274  0.4323 -1.6895  0.9379
 7707SOL    HW234755   0.094   4.043  14.285  0.6707 -0.1593 -0.5480
 7708SOL     OW34756   2.748   2.612  15.096  0.1368  0.2530 -0.0066
 7708SOL    HW134757   2.792   2.531  15.124 -1.5583 -0.5265  0.3889
 7708SOL    HW234758   2.654   2.596  15.103 -0.0523  0.5157 -1.9152
 7709SOL     OW34759   3.658   3.572   1.587 -0.1753 -0.0810 -0.3935
 7709SOL    HW134760   3.644   3.533   1.500  2.6607 -0.4657 -0.6866
 7709SOL    HW234761   3.601   3.648   1.573  0.1473  0.4667  1.3147
 7710SOL     OW34762   0.852   2.753  17.708 -0.0321  0.2621  0.0038
 7710SOL    HW134763   0.943   2.723  17.700  0.0740  0.3603  0.8665
 7710SOL    HW234764   0.828   2.711   0.055  2.2520 -0.8944  0.0802
 7711SOL     OW34765   3.971   4.649   8.673 -0.1557 -0.1044 -0.2353
 7711SOL    HW134766   3.982   4.587   8.601 -2.3165  0.4859 -1.0908
 7711SOL    HW234767   3.973   4.592   8.749  0.3528  1.4046  0.8793
 7712SOL     OW34768   3.437   4.252  13.176 -0.4447 -0.1104  0.3423
 7712SOL    HW134769   3.389   4.214  13.103 -0.7458 -0.4997  0.7441
 7712SOL    HW234770   3.497   4.310  13.128 -2.8288  0.9510 -1.3746
 7713SOL     OW34771   1.852   2.211   1.507  0.2087  0.6312  0.0681
 7713SOL    HW134772   1.892   2.295   1.529 -2.8070  2.4308 -1.2401
 7713SOL    HW234773   1.891   2.156   1.575 -0.2890 -0.9854 -0.9626
 7714SOL     OW34774   2.645   0.174  16.821  0.7430 -0.2583 -0.4130
 7714SOL    HW134775   2.556   0.141  16.817  0.1266  1.2888  0.5462
 7714SOL    HW234776   2.662   0.173  16.915 -2.6037 -2.8626  0.1247
 7715SOL     OW34777   2.814   2.070   5.971  0.1795  0.0350 -0.5648
 7715SOL    HW134778   2.897   2.033   6.002 -0.1706 -2.1726 -2.2549
 7715SOL    HW234779   2.835   2.142   5.912 -2.7489 -0.4107 -2.1763
 7716SOL     OW34780   3.401   2.980   6.279  0.3324  0.8498  0.0484
 7716SOL    HW134781   3.466   2.945   6.339  0.0292 -0.0915 -0.1634
 7716SOL    HW234782   3.319   2.952   6.320  1.3395 -1.2096  0.6718
 7717SOL     OW34783   2.849   1.878   3.769 -0.0131  0.3889  0.3422
 7717SOL    HW134784   2.850   1.796   3.818 -1.3843 -0.7028 -1.4418
 7717SOL    HW234785   2.917   1.846   3.710 -0.0208  0.9431  0.0254
 7718SOL     OW34786   3.713   2.677  16.362  0.4293  0.1016  0.6304
 7718SOL    HW134787   3.756   2.746  16.312  0.1301 -0.9271 -1.0389
 7718SOL    HW234788   3.627   2.720  16.362  0.0455 -0.6913 -0.3045
 7719SOL     OW34789   3.942   1.036   0.268 -0.6640 -0.6078 -0.6421
 7719SOL    HW134790   4.036   1.018   0.265  0.2275  3.8051 -0.0603
 7719SOL    HW234791   3.941   1.129   0.292 -1.9385 -0.1617 -2.3616
 7720SOL     OW34792   0.131   2.605  15.803  0.7382  0.1259  0.5369
 7720SOL    HW134793   0.089   2.573  15.883  2.0467 -0.2727  1.0594
 7720SOL    HW234794   0.062   2.656  15.759  0.2025 -2.0329 -1.1431
 7721SOL     OW34795   3.627   2.801   5.021 -0.4698 -0.6426 -0.0822
 7721SOL    HW134796   3.717   2.780   5.046 -0.4361  0.8515  1.0784
 7721SOL    HW234797   3.640   2.892   4.994  1.9299 -0.9276  0.1068
 7722SOL     OW34798   3.968   2.803  16.500  0.6734  0.0276 -0.1127
 7722SOL    HW134799   3.900   2.810  16.432 -0.3377  1.3593  1.0338
 7722SOL    HW234800   3.912   2.801  16.577 -1.3732  1.8314 -1.5359
 7723SOL     OW34801   3.044   0.783   5.097 -0.2037  0.2880  0.1329
 7723SOL    HW134802   3.122   0.740   5.062  0.5078  0.0248  2.0601
 7723SOL    HW234803   3.010   0.845   5.033  1.4410  1.0330 -0.0204
 7724SOL     OW34804   2.161   0.010   8.336  0.2431  0.1190  0.3766
 7724SOL    HW134805   2.079   0.056   8.351  0.0167 -0.9332  2.3158
 7724SOL    HW234806   2.227   0.057   8.387 -0.5508  1.4567  0.1706
 7725SOL     OW34807   1.458   3.815   2.542 -0.5969  0.1242 -0.0594
 7725SOL    HW134808   1.512   3.785   2.615 -3.5814  1.8211  2.8711
 7725SOL    HW234809   1.369   3.826   2.576 -0.3421 -1.9667  1.2394
 7726SOL     OW34810   1.352   1.002   8.744  0.0097 -0.5047 -0.0576
 7726SOL    HW134811   1.306   1.012   8.661  0.8950 -2.9958 -0.8336
 7726SOL    HW234812   1.277   1.015   8.803  0.2355  0.4631  0.0212
 7727SOL     OW34813   1.999   2.144   5.587 -0.2753 -0.5719  0.4486
 7727SOL    HW134814   1.907   2.170   5.597 -0.0347  0.2657  0.5003
 7727SOL    HW234815   2.025   2.150   5.495  2.4843  1.4701  1.3712
 7728SOL     OW34816   1.074   0.029   3.229 -0.1772 -0.2377  0.3001
 7728SOL    HW134817   1.067   0.008   3.135  2.7565 -2.6539  0.6495
 7728SOL    HW234818   1.030   0.114   3.233  1.8724  0.7451  1.4463
 7729SOL     OW34819   1.493   4.024   3.046 -0.0433 -0.2185  0.2235
 7729SOL    HW134820   1.532   3.942   3.075 -0.6970 -2.4156 -5.0561
 7729SOL    HW234821   1.522   4.073   3.123  0.6186  1.8762 -1.3335
 7730SOL     OW34822   4.518   2.435  15.535 -0.2578  0.1668  0.4416
 7730SOL    HW134823   4.572   2.508  15.564  0.4255 -0.5702  1.0358
 7730SOL    HW234824   4.443   2.455  15.591 -2.6019  0.5257 -2.8028
 7731SOL     OW34825   4.548   4.263   8.435 -0.4764 -0.8706  0.3656
 7731SOL    HW134826   4.538   4.223   8.521 -1.3048 -3.3785 -0.9260
 7731SOL    HW234827   4.522   4.186   8.385 -2.6286 -0.2009  0.4776
 7732SOL     OW34828   0.916   1.964   0.597  0.4152  0.2130  0.4940
 7732SOL    HW134829   0.897   1.897   0.663 -0.4941  0.5812  0.6038
 7732SOL    HW234830   0.916   1.897   0.529  1.9642  0.2734  0.4258
 7733SOL     OW34831   4.221   0.823  16.016  0.5589  0.2254  0.3194
 7733SOL    HW134832   4.291   0.868  15.968 -0.4321  0.1663 -1.1714
 7733SOL    HW234833   4.274   0.760  16.064 -3.2383 -4.1760 -1.3261
 7734SOL     OW34834   0.408   0.238   8.300 -0.0951 -0.4814  0.1345
 7734SOL    HW134835   0.348   0.175   8.338 -0.8527  1.8330  2.7468
 7734SOL    HW234836   0.421   0.190   8.218 -0.0295 -1.0882  0.4995
 7735SOL     OW34837   2.053   0.139  17.442  0.2432 -0.0961  0.3208
 7735SOL    HW134838   1.975   0.154  17.496  0.2105  1.7580 -0.2281
 7735SOL    HW234839   2.118   0.131  17.513  1.3130 -1.5830 -0.8318
 7736SOL     OW34840   1.158   2.239   3.408  0.7975  0.0665 -0.6580
 7736SOL    HW134841   1.103   2.168   3.374 -2.3277  1.9327  0.5631
 7736SOL    HW234842   1.219   2.248   3.334  2.5476 -1.2769  0.6343
 7737SOL     OW34843   1.135   3.164   8.492  0.6033 -0.0601  0.5415
 7737SOL    HW134844   1.058   3.128   8.447 -0.2347 -0.0600  1.9771
 7737SOL    HW234845   1.088   3.209   8.562  1.3732  0.1544  0.9190
 7738SOL     OW34846   4.696   2.727  11.401  0.7040 -0.1122 -0.1200
 7738SOL    HW134847   4.701   2.675  11.320 -3.8277  0.0502 -0.5170
 7738SOL    HW234848   4.632   2.670  11.443  2.5008  0.2618  3.0798
 7739SOL     OW34849   4.283   2.284   5.091 -0.6369 -0.0058  0.1259
 7739SOL    HW134850   4.292   2.189   5.098  1.9518  0.3339  1.3603
 7739SOL    HW234851   4.283   2.298   4.997  0.0410  0.3090  0.1755
 7740SOL     OW34852   0.596   1.224   3.624  0.0359 -0.0584 -0.4719
 7740SOL    HW134853   0.524   1.182   3.670  0.3823 -0.6357 -0.4642
 7740SOL    HW234854   0.601   1.299   3.683 -1.2714  1.7293 -2.6063
 7741SOL     OW34855   3.106   4.236  14.460  0.1171  0.2740  0.2760
 7741SOL    HW134856   3.096   4.329  14.439 -2.0092 -0.5779 -2.4698
 7741SOL    HW234857   3.017   4.201  14.465 -0.1945  0.7695 -1.7243
 7742SOL     OW34858   0.539   2.906   7.380  0.2391 -0.0076 -0.0013
 7742SOL    HW134859   0.444   2.918   7.371  0.1816  0.0654  0.7136
 7742SOL    HW234860   0.553   2.862   7.296  0.7644 -0.9365  0.5700
 7743SOL     OW34861   2.284   2.315   1.530  0.1715  0.5410  0.0939
 7743SOL    HW134862   2.197   2.347   1.554  1.3826  1.3884  3.2873
 7743SOL    HW234863   2.265   2.221   1.529 -1.4997  0.9025 -2.7710
 7744SOL     OW34864   2.172   0.905   4.815  0.1846  0.0647  0.3580
 7744SOL    HW134865   2.156   0.811   4.811 -2.4546  0.5058  0.4829
 7744SOL    HW234866   2.095   0.926   4.869  2.4621  0.9903  3.2233
 7745SOL     OW34867   2.485   0.330   4.680  0.0938  0.4459 -0.0138
 7745SOL    HW134868   2.495   0.274   4.757  1.3704  1.4956  0.5628
 7745SOL    HW234869   2.571   0.371   4.678 -0.1924  1.0935  1.4980
 7746SOL     OW34870   1.077   0.141   3.559 -0.7477  0.0925 -0.4642
 7746SOL    HW134871   1.076   0.217   3.501  0.0861  1.4669  1.3039
 7746SOL    HW234872   1.104   0.182   3.642  1.1888 -1.0107 -0.5451
 7747SOL     OW34873   0.166   4.551  17.569 -0.3281 -0.0173 -0.8451
 7747SOL    HW134874   0.151   4.480  17.632 -1.0004  2.2690  1.5814
 7747SOL    HW234875   0.080   4.594  17.573 -0.4386 -0.4034  1.0599
 7748SOL     OW34876   4.478   3.953  16.857 -0.4227  0.0241 -0.5861
 7748SOL    HW134877   4.428   3.887  16.810 -1.3038  0.7693 -0.6968
 7748SOL    HW234878   4.424   4.032  16.864  1.2208  1.3084 -2.2276
 7749SOL     OW34879   1.407   2.561   5.853 -0.4605 -0.1361 -0.2193
 7749SOL    HW134880   1.448   2.634   5.807  1.7597 -1.5603 -0.5049
 7749SOL    HW234881   1.473   2.549   5.921 -1.5433  0.7079  0.9835
 7750SOL     OW34882   0.352   1.786   3.688  0.2598 -0.5269  0.1100
 7750SOL    HW134883   0.325   1.717   3.628  0.9998  0.5265 -1.4294
 7750SOL    HW234884   0.287   1.855   3.677  1.8670  0.9550 -0.1529
 7751SOL     OW34885   3.253   1.811   8.176 -0.0668 -0.3418  0.1277
 7751SOL    HW134886   3.265   1.727   8.133 -1.2868 -0.1630 -0.5832
 7751SOL    HW234887   3.317   1.798   8.246  0.6511  0.0005 -0.4632
 7752SOL     OW34888   1.145   4.545   2.790  0.2972  0.0827 -0.1638
 7752SOL    HW134889   1.178   4.458   2.768  1.4291  0.7107 -0.9288
 7752SOL    HW234890   1.055   4.524   2.762  0.4852 -1.5154  0.4122
 7753SOL     OW34891   2.528   4.597  11.453 -1.1681  0.4349  0.1577
 7753SOL    HW134892   2.620   4.608  11.478 -0.7411 -0.0818 -1.2082
 7753SOL    HW234893   2.518   4.686  11.420 -0.5653  0.4071 -0.0858
 7754SOL     OW34894   3.372   1.936   1.851 -0.5031 -0.3887 -0.1767
 7754SOL    HW134895   3.323   2.018   1.849  1.4358  0.7729 -0.4220
 7754SOL    HW234896   3.351   1.902   1.764 -3.9354 -1.4189  1.0482
 7755SOL     OW34897   1.442   4.342   5.197  0.3587 -0.0311 -0.1046
 7755SOL    HW134898   1.491   4.267   5.230  0.8658  0.4056  0.1376
 7755SOL    HW234899   1.352   4.329   5.226  0.2272 -0.1292 -0.5614
 7756SOL     OW34900   1.261   4.067  15.997 -0.9498  0.1955  0.0582
 7756SOL    HW134901   1.201   4.134  16.029 -0.3128  0.1826  1.2801
 7756SOL    HW234902   1.328   4.060  16.065 -0.3002 -1.0280 -0.7114
 7757SOL     OW34903   0.341   3.050   0.919 -0.3959 -0.2576  0.0831
 7757SOL    HW134904   0.274   3.101   0.965  1.0900  2.3656 -0.6631
 7757SOL    HW234905   0.297   3.049   0.834 -0.5983  0.4415  0.1800
 7758SOL     OW34906   4.521   4.191  15.660 -0.1114  0.1342  0.0049
 7758SOL    HW134907   4.589   4.192  15.593  0.0022 -1.0225  0.0935
 7758SOL    HW234908   4.477   4.112  15.628 -0.6247 -0.1515  1.3837
 7759SOL     OW34909   4.373   2.119   4.100 -0.0965 -0.0306 -0.0591
 7759SOL    HW134910   4.331   2.130   4.185 -0.6565 -0.0542 -0.3299
 7759SOL    HW234911   4.354   2.198   4.050 -0.0402 -1.8883 -3.0332
 7760SOL     OW34912   0.592   3.266  13.368  0.1714 -0.2544  0.5791
 7760SOL    HW134913   0.540   3.347  13.374  0.7760  0.2027 -0.3482
 7760SOL    HW234914   0.641   3.261  13.449 -0.8093 -0.7304  1.1480
 7761SOL     OW34915   3.554   1.521  10.990 -0.2492 -0.9171 -0.2649
 7761SOL    HW134916   3.473   1.509  10.939 -0.2597 -1.4155 -0.1354
 7761SOL    HW234917   3.547   1.457  11.061  0.0146 -0.5028  0.1332
 7762SOL     OW34918   4.092   0.691   8.763 -0.0204  0.4634 -0.3014
 7762SOL    HW134919   4.078   0.675   8.857  2.0979 -1.8109 -0.3781
 7762SOL    HW234920   4.179   0.656   8.746 -0.7710 -0.4225 -2.2401
 7763SOL     OW34921   2.073   2.842   4.217 -0.0188 -0.2967 -0.0377
 7763SOL    HW134922   2.125   2.762   4.228  0.2548 -0.2262 -0.8813
 7763SOL    HW234923   2.143   2.906   4.215 -0.3677  0.0782 -0.1378
 7764SOL     OW34924   2.989   4.135   2.533  0.4814 -0.0285  0.7871
 7764SOL    HW134925   2.983   4.053   2.582 -1.9397 -0.0779  0.4207
 7764SOL    HW234926   3.084   4.135   2.523  0.0376 -1.1570 -3.2687
 7765SOL     OW34927   0.981   4.392   6.200  0.2036 -0.5829  0.2689
 7765SOL    HW134928   0.963   4.486   6.197  2.6255 -0.1789 -1.5015
 7765SOL    HW234929   0.897   4.364   6.165 -0.4954  2.1111 -0.1839
 7766SOL     OW34930   4.313   1.929   6.970 -0.0989  0.1134 -0.5076
 7766SOL    HW134931   4.239   1.908   7.028 -1.5326 -1.0769 -2.7603
 7766SOL    HW234932   4.291   1.860   6.907 -0.2158  0.3102 -0.6838
 7767SOL     OW34933   0.402   3.247   0.511  0.2983  0.1116 -0.0744
 7767SOL    HW134934   0.309   3.234   0.529  0.7266 -2.0451  0.5468
 7767SOL    HW234935   0.415   3.178   0.445  0.6273  0.5785 -0.4976
 7768SOL     OW34936   2.713   2.724   8.533  0.4054 -0.1624  0.4839
 7768SOL    HW134937   2.649   2.681   8.477 -1.9055  0.0558  2.9642
 7768SOL    HW234938   2.671   2.739   8.617 -0.6686 -2.0815  0.2952
 7769SOL     OW34939   1.577   0.692   2.201 -0.8310  0.1116 -0.0692
 7769SOL    HW134940   1.531   0.747   2.138 -2.1771 -0.7624  0.1538
 7769SOL    HW234941   1.669   0.715   2.185 -1.3012  1.3333 -0.9782
 7770SOL     OW34942   1.786   1.519   5.503  0.3935 -0.1156 -0.0103
 7770SOL    HW134943   1.811   1.499   5.593  0.2231  2.3730  0.5707
 7770SOL    HW234944   1.850   1.587   5.484  0.3742 -0.1435 -0.1787
 7771SOL     OW34945   0.140   3.011   0.718 -0.0845 -0.0396 -0.4632
 7771SOL    HW134946   0.095   3.095   0.705 -1.5002 -0.1317  3.9415
 7771SOL    HW234947   0.177   3.003   0.630 -1.7297  3.7384 -1.5181
 7772SOL     OW34948   1.304   2.321   9.629  0.1205 -0.0081 -0.4642
 7772SOL    HW134949   1.258   2.402   9.653  1.9415  1.5445 -2.3535
 7772SOL    HW234950   1.275   2.266   9.703  1.2699  0.2753  0.1890
 7773SOL     OW34951   2.210   3.158   5.332  0.0557 -0.2801  0.1253
 7773SOL    HW134952   2.136   3.097   5.334  0.6713 -0.9850  1.1850
 7773SOL    HW234953   2.167   3.225   5.280 -1.3579  0.4964  2.2845
 7774SOL     OW34954   2.427   0.557   1.436  0.0413  0.1234  0.0375
 7774SOL    HW134955   2.428   0.652   1.434  0.6898  0.1000 -1.0801
 7774SOL    HW234956   2.452   0.549   1.344 -1.8217  0.6433 -0.5227
 7775SOL     OW34957   4.406   0.079   0.889 -0.1411  0.0481 -0.3968
 7775SOL    HW134958   4.502   0.083   0.884  0.0429 -1.3243  1.7137
 7775SOL    HW234959   4.394   0.141   0.818 -0.8867  1.6450  1.1175
 7776SOL     OW34960   4.320   2.692   2.947 -0.5334  0.3784  0.1205
 7776SOL    HW134961   4.240   2.655   2.984 -0.4255  0.0462  0.0231
 7776SOL    HW234962   4.276   2.745   2.881 -0.1779  1.2600  0.5905
 7777SOL     OW34963   0.866   3.385   4.571 -0.0024 -0.6924 -0.8681
 7777SOL    HW134964   0.815   3.462   4.546 -0.0890 -0.1977  0.8313
 7777SOL    HW234965   0.844   3.328   4.497 -0.2968 -0.6173 -0.8398
 7778SOL     OW34966   0.347   3.570   9.545  0.0278  0.0439  0.4059
 7778SOL    HW134967   0.341   3.545   9.637 -0.8738 -0.2580  0.2605
 7778SOL    HW234968   0.257   3.601   9.535 -0.9413 -2.9856 -0.2905
 7779SOL     OW34969   2.528   1.071  11.557  0.2353  0.1015  0.3060
 7779SOL    HW134970   2.438   1.068  11.525  0.7828  1.7031 -1.3512
 7779SOL    HW234971   2.523   1.121  11.639 -1.0869  2.1695 -1.0432
 7780SOL     OW34972   2.669   3.360   6.998 -0.3139 -0.2844  0.4458
 7780SOL    HW134973   2.738   3.349   7.063  0.0242  0.5676  0.2407
 7780SOL    HW234974   2.665   3.455   6.984  1.4738 -0.5112 -1.5383
 7781SOL     OW34975   1.879   3.528   6.556  0.3219 -0.5969  0.1612
 7781SOL    HW134976   1.959   3.575   6.579  0.8521 -2.5617  2.2688
 7781SOL    HW234977   1.817   3.601   6.556 -0.0422 -0.9016 -0.6716
 7782SOL     OW34978   3.094   4.507  10.264  0.5345 -0.5990 -0.2545
 7782SOL    HW134979   3.179   4.521  10.222  0.1183 -0.2677 -0.9835
 7782SOL    HW234980   3.096   4.572  10.334  1.9065 -1.5109  0.5477
 7783SOL     OW34981   3.197   2.868   6.460  0.2502 -0.0243 -0.0506
 7783SOL    HW134982   3.179   2.779   6.489  1.0593 -1.1081 -2.8786
 7783SOL    HW234983   3.112   2.909   6.477 -0.1936 -0.5111 -1.0986
 7784SOL     OW34984   0.709   1.927   0.855 -0.3555  0.3286 -0.0419
 7784SOL    HW134985   0.637   1.954   0.912  1.0946  0.4529  1.7326
 7784SOL    HW234986   0.655   1.889   0.785  0.4435  0.8365 -0.9443
 7785SOL     OW34987   3.992   2.866   8.361 -0.9768  0.3858 -0.2287
 7785SOL    HW134988   4.011   2.886   8.453  1.4199 -0.4714 -0.5342
 7785SOL    HW234989   4.028   2.778   8.359  0.4892  0.9427  1.5765
 7786SOL     OW34990   4.544   1.724   8.175  0.3707 -0.1739 -0.0784
 7786SOL    HW134991   4.513   1.656   8.235  2.2419  2.3585  3.7087
 7786SOL    HW234992   4.482   1.793   8.198  1.2725  0.2717  1.0366
 7787SOL     OW34993   4.468   0.472  12.533 -0.1435  0.0839  0.2877
 7787SOL    HW134994   4.456   0.547  12.473  0.6734  0.9912  1.2672
 7787SOL    HW234995   4.398   0.488  12.596  1.2347  0.4591  1.7303
 7788SOL     OW34996   1.605   4.019   7.381  0.9900 -0.1056  0.1447
 7788SOL    HW134997   1.674   3.957   7.356 -0.4124 -1.0483 -1.4202
 7788SOL    HW234998   1.538   3.969   7.428  0.3596 -0.1838 -0.8235
 7789SOL     OW34999   4.411   1.057  12.265  0.3943  0.3029 -0.0413
 7789SOL    HW135000   4.405   1.152  12.254 -0.5763  0.1772 -0.5259
 7789SOL    HW235001   4.383   1.022  12.180 -0.1642 -1.1229  0.7229
 7790SOL     OW35002   1.208   4.265   3.675  0.1734  0.0211 -0.1525
 7790SOL    HW135003   1.259   4.346   3.676 -1.9888  1.3881  0.0331
 7790SOL    HW235004   1.139   4.286   3.612  0.3155 -3.6275 -1.5598
 7791SOL     OW35005   0.052   4.496   2.404  0.3194  0.3051  0.1204
 7791SOL    HW135006   0.005   4.576   2.379  0.5587  0.3747 -0.0968
 7791SOL    HW235007   0.055   4.509   2.499 -2.5019  0.8512  0.1556
 7792SOL     OW35008   3.291   0.247  15.736 -0.2378  0.0028 -0.0830
 7792SOL    HW135009   3.205   0.269  15.701  0.9269  3.6014 -0.8015
 7792SOL    HW235010   3.280   0.262  15.830  0.7707 -1.5598  0.2809
 7793SOL     OW35011   0.825   3.445   7.519  1.2644 -0.2459  0.2487
 7793SOL    HW135012   0.762   3.428   7.450  1.9067  0.0701 -0.4176
 7793SOL    HW235013   0.843   3.358   7.553  0.3213 -0.3557  0.4468
 7794SOL     OW35014   2.045   3.059   8.485 -0.6655 -0.7865 -0.0054
 7794SOL    HW135015   1.967   3.044   8.432 -0.0997 -0.1950 -1.0002
 7794SOL    HW235016   2.098   2.981   8.471 -1.9367 -1.4598 -1.0044
 7795SOL     OW35017   0.926   3.723   7.661  0.1660  0.4147 -0.3382
 7795SOL    HW135018   0.858   3.733   7.594 -0.1771  1.3762  0.1362
 7795SOL    HW235019   0.901   3.646   7.713  2.1726 -0.5082 -0.7774
 7796SOL     OW35020   1.723   4.207   1.465  0.4385  0.0014 -0.4964
 7796SOL    HW135021   1.700   4.181   1.554 -0.3328  1.1340 -0.3679
 7796SOL    HW235022   1.781   4.282   1.480 -0.8028  0.1463  3.5005
 7797SOL     OW35023   2.053   2.212   5.323  0.6560 -0.0531  0.2520
 7797SOL    HW135024   2.099   2.160   5.257 -2.5054 -0.2044 -1.8554
 7797SOL    HW235025   2.112   2.286   5.337 -1.2898  1.6252 -0.3748
 7798SOL     OW35026   4.706   1.935   2.133  0.7319  0.2020  0.2426
 7798SOL    HW135027   4.674   1.898   2.215 -0.4790  0.4323 -0.1248
 7798SOL    HW235028   0.049   1.984   2.162  1.1058  0.1730 -0.7043
 7799SOL     OW35029   1.446   2.938   7.753 -0.1218  0.7073 -0.0149
 7799SOL    HW135030   1.365   2.976   7.788 -1.3749 -1.2752 -0.7761
 7799SOL    HW235031   1.409   2.852   7.735  1.3795  0.3601 -1.3546
 7800SOL     OW35032   2.256   4.419   2.739  0.3471  0.7545 -0.2511
 7800SOL    HW135033   2.252   4.514   2.730 -1.6697  0.7490  0.7251
 7800SOL    HW235034   2.218   4.395   2.655 -0.2848  0.6431  0.0721
 7801SOL     OW35035   3.274   4.714   9.142 -0.0635  0.3527  0.5676
 7801SOL    HW135036   3.226   0.061   9.131  1.0898  0.7168 -1.6935
 7801SOL    HW235037   3.207   4.654   9.109 -1.5750  2.1650  0.3681
 7802SOL     OW35038   2.082   0.861   8.749  0.4683 -0.4416 -0.5021
 7802SOL    HW135039   2.041   0.835   8.667 -0.8545 -0.6445  0.2137
 7802SOL    HW235040   2.027   0.931   8.784  1.4871 -0.1992  0.6253
 7803SOL     OW35041   2.587   1.460   1.873 -0.4098 -0.3466 -0.0246
 7803SOL    HW135042   2.505   1.498   1.905 -1.1866 -1.7598 -0.3457
 7803SOL    HW235043   2.571   1.399   1.801 -2.2088 -0.9962  0.8971
 7804SOL     OW35044   1.740   0.691   9.021  0.7255 -0.0966  0.0525
 7804SOL    HW135045   1.715   0.648   9.102 -3.1067  1.2839 -0.4106
 7804SOL    HW235046   1.678   0.653   8.959  0.2413 -2.6978  2.1707
 7805SOL     OW35047   3.057   1.776  15.874  0.6295  0.2636 -0.3346
 7805SOL    HW135048   3.017   1.808  15.793 -1.9769  0.7211  1.1287
 7805SOL    HW235049   3.000   1.701  15.887 -0.6789  1.2171 -0.5891
 7806SOL     OW35050   2.629   1.437   4.564 -0.5932  0.0776  0.6455
 7806SOL    HW135051   2.658   1.525   4.544  0.2438 -0.6458 -1.3572
 7806SOL    HW235052   2.559   1.434   4.498  0.7807 -0.2891 -0.7970
 7807SOL     OW35053   0.356   3.281   6.240 -0.1606  0.4722  0.2949
 7807SOL    HW135054   0.407   3.205   6.268 -0.6498  0.2997  0.7181
 7807SOL    HW235055   0.363   3.266   6.146  0.5607  1.1481  0.2448
 7808SOL     OW35056   0.576   3.300   9.868 -0.0274  0.2151  0.0428
 7808SOL    HW135057   0.562   3.372   9.807 -0.3366 -0.9341 -1.2215
 7808SOL    HW235058   0.638   3.238   9.831 -2.7349 -2.7606  0.4450
 7809SOL     OW35059   1.512   2.920  10.264  0.1973  0.1937 -0.1959
 7809SOL    HW135060   1.502   3.014  10.249 -1.8840  0.1363  0.7836
 7809SOL    HW235061   1.525   2.925  10.358  2.2359 -0.2035 -0.4534
 7810SOL     OW35062   3.725   1.407  16.550  0.1544 -0.0061 -0.2523
 7810SOL    HW135063   3.663   1.452  16.493  2.3547  0.5446 -2.1836
 7810SOL    HW235064   3.705   1.438  16.639  0.9347  1.5371 -0.6125
 7811SOL     OW35065   2.513   4.006   4.479 -0.2404  0.3920 -0.1578
 7811SOL    HW135066   2.597   3.964   4.461  0.6112  1.3565  1.5646
 7811SOL    HW235067   2.487   4.054   4.401  0.3389  0.9010 -0.0346
 7812SOL     OW35068   4.457   2.658   7.519 -0.3517  0.6850  0.1759
 7812SOL    HW135069   4.470   2.753   7.513 -3.2578  0.9754 -1.4617
 7812SOL    HW235070   4.388   2.646   7.454  1.2690  1.8767 -1.7700
 7813SOL     OW35071   3.687   0.466   3.779  0.1390  0.0795 -0.2096
 7813SOL    HW135072   3.609   0.415   3.756  0.8452 -0.4652 -1.3996
 7813SOL    HW235073   3.741   0.390   3.799  0.9870  0.5705 -0.6631
 7814SOL     OW35074   4.685   3.995   2.233 -0.0606 -0.4364  0.2320
 7814SOL    HW135075   4.661   3.917   2.183 -0.4671 -0.7811  0.9622
 7814SOL    HW235076   4.606   4.048   2.223 -0.7380 -1.3804  0.6034
 7815SOL     OW35077   1.067   0.666   1.490  0.1303 -0.0855  0.3689
 7815SOL    HW135078   1.099   0.647   1.402  1.5784  0.5726  0.7449
 7815SOL    HW235079   1.093   0.757   1.504  0.9072 -0.1167 -0.9174
 7816SOL     OW35080   4.422   4.720  15.023  0.0414 -0.2762 -0.3873
 7816SOL    HW135081   4.349   0.022  15.073 -0.0888  1.1022 -1.5673
 7816SOL    HW235082   4.442   0.059  14.964 -0.9549 -0.2592 -0.7057
 7817SOL     OW35083   4.058   3.287   4.127 -0.2594  0.2383  0.1886
 7817SOL    HW135084   4.025   3.351   4.190 -0.7471  1.3492 -1.1926
 7817SOL    HW235085   4.125   3.340   4.083 -1.0596 -1.7897 -3.5506
 7818SOL     OW35086   1.180   3.940  15.330  0.4188  0.1460 -0.4754
 7818SOL    HW135087   1.131   3.884  15.269 -1.3511  1.2749 -0.0926
 7818SOL    HW235088   1.253   3.958  15.271  0.7858  2.5776  0.7456
 7819SOL     OW35089   1.732   1.251  14.480  0.8487  0.1036 -0.2164
 7819SOL    HW135090   1.687   1.197  14.545  0.0953  0.8069 -0.1470
 7819SOL    HW235091   1.749   1.182  14.417 -2.4481 -1.0504  0.1388
 7820SOL     OW35092   0.897   2.033   6.257 -0.0814 -0.0042  0.6626
 7820SOL    HW135093   0.882   1.992   6.342  0.3428 -1.4077  0.0643
 7820SOL    HW235094   0.832   1.985   6.206 -0.2989 -1.0934  1.9586
 7821SOL     OW35095   2.805   0.266   5.049  0.3617 -0.0110 -0.2008
 7821SOL    HW135096   2.875   0.235   4.991  0.8235  0.3096  0.1906
 7821SOL    HW235097   2.748   0.302   4.981  0.3332 -0.9409 -0.6711
 7822SOL     OW35098   0.174   4.397  14.030  0.6324  0.0543 -0.0427
 7822SOL    HW135099   0.268   4.411  14.042  0.7499 -1.0131  0.2562
 7822SOL    HW235100   0.145   4.395  14.121  1.6388  0.9822  0.3084
 7823SOL     OW35101   4.180   0.615   0.526  0.0628  0.1714 -0.8087
 7823SOL    HW135102   4.101   0.627   0.578  1.2605 -0.3615  1.1310
 7823SOL    HW235103   4.144   0.630   0.439  1.5663 -1.2603 -1.6661
 7824SOL     OW35104   1.020   1.191   0.666  0.1222  0.2362 -0.1869
 7824SOL    HW135105   1.110   1.197   0.698  0.2090 -0.2651 -0.3367
 7824SOL    HW235106   0.973   1.253   0.722 -0.1578  2.0084 -2.3968
 7825SOL     OW35107   0.422   1.448   5.883  0.3723 -0.1420 -0.4583
 7825SOL    HW135108   0.403   1.430   5.975 -2.3571  0.5206 -0.9099
 7825SOL    HW235109   0.494   1.384   5.877 -0.5652 -1.1842 -0.5086
 7826SOL     OW35110   2.639   4.573   7.144  0.3254 -0.0603  0.2725
 7826SOL    HW135111   2.733   4.590   7.149  0.3806 -0.6033  1.1451
 7826SOL    HW235112   2.615   4.574   7.236  0.8115 -3.7427  0.4458
 7827SOL     OW35113   4.429   1.003   3.429  0.1256 -0.2372 -0.1651
 7827SOL    HW135114   4.358   0.965   3.377  0.6817 -0.2923 -0.8911
 7827SOL    HW235115   4.377   1.017   3.507  0.6090 -0.3522  0.1789
 7828SOL     OW35116   0.430   1.387   1.491  0.4429 -0.5330  0.0191
 7828SOL    HW135117   0.366   1.376   1.420  1.7268 -0.8918 -1.0807
 7828SOL    HW235118   0.510   1.361   1.446 -0.3667  1.3193 -2.4830
 7829SOL     OW35119   0.838   3.878  16.346  0.6140 -0.2846 -0.0860
 7829SOL    HW135120   0.912   3.860  16.403  1.5889 -2.1342 -1.9378
 7829SOL    HW235121   0.827   3.798  16.294 -0.6173  0.2699 -0.6926
 7830SOL     OW35122   4.017   3.529   8.269 -0.2821  0.3479  0.6262
 7830SOL    HW135123   3.994   3.501   8.180  0.2209  0.4463  0.4654
 7830SOL    HW235124   3.938   3.496   8.313  0.9765 -2.0166  1.1450
 7831SOL     OW35125   3.650   0.032   7.915  0.7543 -0.0485  0.2282
 7831SOL    HW135126   3.657   0.123   7.888 -1.8479 -0.3311 -1.3849
 7831SOL    HW235127   3.734   4.732   7.884 -0.3599 -0.6725 -2.1098
 7832SOL     OW35128   0.212   0.337  15.427 -0.1925 -0.5235  0.1660
 7832SOL    HW135129   0.267   0.412  15.448  2.3873 -2.2389 -0.5276
 7832SOL    HW235130   0.136   0.358  15.482 -1.0142  0.7911 -1.4652
 7833SOL     OW35131   4.376   3.151   4.867  0.2739 -0.8286  0.4142
 7833SOL    HW135132   4.293   3.105   4.877 -0.6683  0.9958  1.0631
 7833SOL    HW235133   4.343   3.234   4.834 -1.1326 -2.1778 -1.5812
 7834SOL     OW35134   2.295   1.640   5.412 -0.0063 -0.2523  0.4576
 7834SOL    HW135135   2.362   1.708   5.399  1.3123 -1.1988  2.2964
 7834SOL    HW235136   2.334   1.559   5.378 -2.1413 -1.5603  1.1887
 7835SOL     OW35137   0.326   4.663   1.707 -0.1757  0.8180  0.1696
 7835SOL    HW135138   0.363   4.588   1.661  0.5338  0.4275  1.3707
 7835SOL    HW235139   0.296   4.703   1.625  0.2360  0.2855 -0.2476
 7836SOL     OW35140   1.013   4.227   2.929 -0.4591 -0.3955 -0.2260
 7836SOL    HW135141   1.067   4.148   2.925  1.5148  0.9257 -0.2386
 7836SOL    HW235142   1.065   4.281   2.989 -2.8606  0.9334  0.6704
 7837SOL     OW35143   0.841   2.307   7.924 -0.1594  0.2696 -0.4805
 7837SOL    HW135144   0.768   2.246   7.909  3.0601 -3.2326 -1.7930
 7837SOL    HW235145   0.830   2.362   7.846 -2.9259 -0.7329 -0.8255
 7838SOL     OW35146   1.897   3.983   5.774  0.4099 -0.4550 -0.5401
 7838SOL    HW135147   1.959   3.996   5.845 -1.3434 -0.4239  1.0024
 7838SOL    HW235148   1.845   3.907   5.801  0.3884  0.5332  2.1949
 7839SOL     OW35149   4.575   0.141   4.943 -0.0283  0.0612  0.5930
 7839SOL    HW135150   4.638   0.207   4.972 -0.8712  0.9431  0.3949
 7839SOL    HW235151   4.558   0.080   5.015 -0.8748  0.2982  0.5924
 7840SOL     OW35152   3.044   3.743  13.786 -0.0166 -0.3509  0.2609
 7840SOL    HW135153   3.044   3.677  13.854 -0.7870  0.1942  0.7902
 7840SOL    HW235154   2.951   3.766  13.780  0.2875  0.6660 -0.4953
 7841SOL     OW35155   2.543   1.929   8.099 -0.4994 -0.1046  0.1235
 7841SOL    HW135156   2.451   1.932   8.128 -0.7997  1.2073 -0.9475
 7841SOL    HW235157   2.573   2.018   8.116 -1.2553 -0.2769  2.3616
 7842SOL     OW35158   1.427   0.286   5.586 -0.0597 -0.4006 -0.0708
 7842SOL    HW135159   1.397   0.258   5.673 -1.5759  1.4572  0.0039
 7842SOL    HW235160   1.373   0.227   5.533  0.5267  0.0531 -1.1577
 7843SOL     OW35161   1.734   2.140   8.536 -0.9248  0.0395  0.0318
 7843SOL    HW135162   1.647   2.118   8.503 -0.7525  1.0840 -1.1102
 7843SOL    HW235163   1.736   2.233   8.560  2.6753  0.0423 -0.2271
 7844SOL     OW35164   3.795   1.970  11.856  0.1081  0.2382  0.0136
 7844SOL    HW135165   3.740   1.986  11.933 -2.2252  0.2700 -1.6960
 7844SOL    HW235166   3.728   1.965  11.788  1.1841  0.0344 -1.0269
 7845SOL     OW35167   2.366   4.578   8.572  0.6291  0.2925 -0.1684
 7845SOL    HW135168   2.381   4.573   8.666 -1.3093  2.3197  0.2591
 7845SOL    HW235169   2.329   4.494   8.547 -0.5845  0.6678  0.3427
 7846SOL     OW35170   3.142   0.915   5.510  0.2033 -0.0326  0.3244
 7846SOL    HW135171   3.185   0.974   5.448 -1.0446  0.1264 -0.3782
 7846SOL    HW235172   3.221   0.898   5.562  2.1674  0.2681 -2.5617
 7847SOL     OW35173   4.410   3.648   5.601  0.0466  0.0592  0.1014
 7847SOL    HW135174   4.403   3.740   5.628  0.4235  0.6120 -1.6987
 7847SOL    HW235175   4.505   3.635   5.609 -0.2054 -1.1979  0.9495
 7848SOL     OW35176   2.031   1.808   6.299 -0.2324  0.3288  0.3842
 7848SOL    HW135177   1.972   1.880   6.318 -0.1975  0.6040 -0.5273
 7848SOL    HW235178   2.043   1.775   6.388 -0.4766 -0.1954  0.2204
 7849SOL     OW35179   2.305   4.341   0.516  0.3374 -0.0614  0.0485
 7849SOL    HW135180   2.218   4.332   0.477  1.5591 -2.1483 -2.1353
 7849SOL    HW235181   2.310   4.436   0.528  1.1267 -0.2652  1.2918
 7850SOL     OW35182   2.443   0.980   4.763 -0.0295 -0.0254 -0.0342
 7850SOL    HW135183   2.355   0.974   4.799 -0.6827 -1.9475 -1.9011
 7850SOL    HW235184   2.472   1.070   4.772 -0.1463  0.0436 -0.3493
 7851SOL     OW35185   4.594   3.951   6.364  0.3596  0.7145 -0.3225
 7851SOL    HW135186   4.599   3.978   6.456  1.3302 -1.8110  0.3728
 7851SOL    HW235187   4.637   3.867   6.380  0.0338  0.3110 -1.5917
 7852SOL     OW35188   0.548   3.362   5.133 -0.4781 -0.1481  0.0529
 7852SOL    HW135189   0.466   3.353   5.181 -0.4407  0.0515  0.1555
 7852SOL    HW235190   0.547   3.288   5.073 -2.3904 -0.1879  0.1426
 7853SOL     OW35191   3.839   3.942   6.537  0.5252 -0.0842  0.0560
 7853SOL    HW135192   3.864   4.029   6.568 -2.1683  0.3419  1.1089
 7853SOL    HW235193   3.917   3.909   6.493 -0.0200  0.6182 -1.4234
 7854SOL     OW35194   0.725   3.636   2.386  0.0435 -0.2727  0.1652
 7854SOL    HW135195   0.701   3.576   2.456  1.0998 -0.3047  0.4956
 7854SOL    HW235196   0.821   3.636   2.384  0.0196  1.7224 -2.5131
 7855SOL     OW35197   4.359   3.997  11.264 -0.4030  0.3012 -0.1259
 7855SOL    HW135198   4.441   3.974  11.221 -0.5168  2.2984 -1.4225
 7855SOL    HW235199   4.352   4.087  11.231 -1.2567  0.4637  0.4923
 7856SOL     OW35200   4.451   0.083   8.628 -0.1348  0.4036 -0.4244
 7856SOL    HW135201   4.451   4.722   8.617  0.6736  0.6262 -2.3396
 7856SOL    HW235202   4.401   0.105   8.550 -1.7403 -0.2915  0.4040
 7857SOL     OW35203   1.849   2.177  11.078  0.2379  0.4994  0.2262
 7857SOL    HW135204   1.820   2.183  10.987  0.6269  2.7924  0.2674
 7857SOL    HW235205   1.895   2.260  11.088 -0.1751  0.7662 -0.0920
 7858SOL     OW35206   3.341   2.404  11.493  0.3904  0.5708 -0.1446
 7858SOL    HW135207   3.303   2.344  11.557  3.4736  0.5954  1.7072
 7858SOL    HW235208   3.378   2.338  11.432  1.8302  0.4085  0.8939
 7859SOL     OW35209   0.243   0.287  12.730  0.4754 -0.2562  0.1439
 7859SOL    HW135210   0.175   0.220  12.720 -1.9836  1.8570  2.7769
 7859SOL    HW235211   0.203   0.358  12.679  0.6366  0.5296  1.1076
 7860SOL     OW35212   0.209   2.896   1.575 -0.5355 -0.1985 -0.4436
 7860SOL    HW135213   0.194   2.850   1.493  0.3654  0.5327 -1.0142
 7860SOL    HW235214   0.123   2.899   1.618 -0.7431  0.8336 -0.9145
 7861SOL     OW35215   2.648   1.703   3.666  0.2265  0.3186 -0.2741
 7861SOL    HW135216   2.699   1.784   3.660  2.3577 -0.8344  2.3749
 7861SOL    HW235217   2.563   1.744   3.683  1.0933  2.4828 -1.1280
 7862SOL     OW35218   2.798   4.320  16.896 -0.2727 -0.1129 -0.1173
 7862SOL    HW135219   2.716   4.354  16.860 -0.1268  0.2649 -0.0926
 7862SOL    HW235220   2.859   4.386  16.865  1.4229 -1.0555  1.1593
 7863SOL     OW35221   3.743   3.867   5.709 -0.1801 -0.1950  0.8352
 7863SOL    HW135222   3.751   3.786   5.761  1.1485 -2.0568 -2.2783
 7863SOL    HW235223   3.684   3.848   5.636 -1.1248  2.1479  1.0060
 7864SOL     OW35224   3.584   4.197  12.277 -0.3815 -0.2088 -0.1576
 7864SOL    HW135225   3.627   4.240  12.202 -1.6911 -1.0043 -1.3678
 7864SOL    HW235226   3.558   4.113  12.238  0.8074 -0.4492 -0.4369
 7865SOL     OW35227   2.442   2.986   1.517  0.1086 -0.5242 -0.1982
 7865SOL    HW135228   2.368   2.941   1.556  1.8683 -2.2169  1.2024
 7865SOL    HW235229   2.494   2.996   1.597  2.0321 -0.0919 -1.4974
 7866SOL     OW35230   1.049   1.512   7.721 -0.0772  0.6009  0.8892
 7866SOL    HW135231   1.025   1.420   7.709  0.4276  0.4203  1.2435
 7866SOL    HW235232   0.966   1.551   7.694 -1.5004 -0.4169  3.7915
 7867SOL     OW35233   4.312   1.611   5.646  0.5129 -0.5287 -0.3066
 7867SOL    HW135234   4.280   1.693   5.683 -1.8260 -1.8733  0.6603
 7867SOL    HW235235   4.367   1.654   5.581  1.7443 -1.3631  0.1763
 7868SOL     OW35236   3.582   4.680   3.988 -0.1653 -0.3189  0.6317
 7868SOL    HW135237   3.580   4.585   3.977 -0.5485 -0.3051  0.5846
 7868SOL    HW235238   3.676   4.683   4.003  0.2646 -0.9373 -1.8561
 7869SOL     OW35239   3.704   3.918   2.347  0.5342  0.3275  0.3827
 7869SOL    HW135240   3.676   4.006   2.372 -0.5244  0.5129 -1.4169
 7869SOL    HW235241   3.799   3.916   2.355  0.7352 -1.3978 -2.1704
 7870SOL     OW35242   1.426   2.110  10.241 -0.4651  0.3314  0.1213
 7870SOL    HW135243   1.409   2.103  10.335  0.7538 -0.6934  0.2739
 7870SOL    HW235244   1.485   2.185  10.237 -1.1974  0.9257  0.6193
 7871SOL     OW35245   1.687   1.010   1.129  0.3256 -0.2521  0.5447
 7871SOL    HW135246   1.641   0.991   1.211  3.9554 -2.3658  2.0664
 7871SOL    HW235247   1.618   1.011   1.063  1.3951 -0.1052 -0.5670
 7872SOL     OW35248   0.022   1.230   1.083 -0.0637  0.1058  0.1047
 7872SOL    HW135249   0.070   1.153   1.114  0.2026 -0.2246 -1.1467
 7872SOL    HW235250   4.669   1.225   1.123  0.7200  0.7280  1.8739
 7873SOL     OW35251   3.034   1.280  17.056  0.1984 -0.1019  0.4564
 7873SOL    HW135252   3.087   1.285  16.976  0.2854 -0.7516  0.4717
 7873SOL    HW235253   2.970   1.213  17.034 -0.1693  0.1943  0.6331
 7874SOL     OW35254   1.711   2.681   1.965 -0.6453  0.1215  0.5527
 7874SOL    HW135255   1.741   2.657   1.877 -0.4525  0.9150  0.3998
 7874SOL    HW235256   1.630   2.632   1.980  0.0477 -0.2227  3.1920
 7875SOL     OW35257   3.951   3.584  14.420  0.6469  0.6454  0.1772
 7875SOL    HW135258   3.977   3.542  14.338  0.7311  2.0459 -0.5104
 7875SOL    HW235259   3.934   3.515  14.485 -1.8601 -0.1012 -1.2734
 7876SOL     OW35260   1.581   4.031   7.762 -0.6848  0.3267  0.0246
 7876SOL    HW135261   1.565   4.008   7.670  0.9484 -0.7137  0.0170
 7876SOL    HW235262   1.663   4.080   7.760 -1.9599  2.4259 -1.1140
 7877SOL     OW35263   2.640   3.715   8.263  0.5788 -0.2402 -0.1861
 7877SOL    HW135264   2.644   3.644   8.327  0.6135  0.3062  0.4133
 7877SOL    HW235265   2.705   3.776   8.297  1.1753 -0.7451 -0.4041
 7878SOL     OW35266   4.300   2.424  12.491 -0.3687 -0.1855  0.2527
 7878SOL    HW135267   4.261   2.505  12.460  1.3692 -0.2032 -2.0092
 7878SOL    HW235268   4.222   2.384  12.530 -0.3866 -1.3944 -1.0174
 7879SOL     OW35269   2.469   2.735  10.924  0.3143 -0.8637  0.1620
 7879SOL    HW135270   2.481   2.644  10.952  0.3327 -0.5856  1.0705
 7879SOL    HW235271   2.443   2.727  10.833 -2.0638  3.3842  0.4433
 7880SOL     OW35272   1.490   2.879   8.711 -0.3967  0.3510 -0.0963
 7880SOL    HW135273   1.578   2.851   8.734 -0.1774  0.7443 -0.4509
 7880SOL    HW235274   1.448   2.793   8.711 -1.1483  0.7089  0.2515
 7881SOL     OW35275   0.056   0.715  17.492  0.3008 -0.7722  0.0987
 7881SOL    HW135276   0.001   0.646  17.454  0.8197 -1.7610  1.1347
 7881SOL    HW235277   0.004   0.733  17.571 -1.4739 -2.7285 -0.6292
 7882SOL     OW35278   2.938   2.339   4.468 -0.0822  0.1126 -0.2373
 7882SOL    HW135279   2.889   2.392   4.406  0.2900 -0.1054 -0.7183
 7882SOL    HW235280   3.024   2.330   4.427 -0.1081  1.1132 -0.5007
 7883SOL     OW35281   4.668   0.914   0.196  0.5097  0.5831  0.4421
 7883SOL    HW135282   4.651   0.961   0.278  0.6490  0.6144  0.4532
 7883SOL    HW235283   0.027   0.936   0.197  0.1881  1.9866  0.1279
 7884SOL     OW35284   2.584   2.265   4.335 -0.7753 -0.4426  0.2809
 7884SOL    HW135285   2.636   2.202   4.384  0.5227  1.2896  1.1453
 7884SOL    HW235286   2.562   2.331   4.401  0.2802  1.2886 -1.0663
 7885SOL     OW35287   2.822   2.538   2.898  0.1512 -0.1591  0.0441
 7885SOL    HW135288   2.815   2.626   2.862  0.0654 -0.3364 -0.3771
 7885SOL    HW235289   2.780   2.490   2.826  1.5186  0.3207 -1.0608
 7886SOL     OW35290   2.246   0.361   5.619  0.1985 -0.3833 -0.0900
 7886SOL    HW135291   2.301   0.414   5.677  0.3390 -0.6900  0.0610
 7886SOL    HW235292   2.235   0.281   5.670 -0.7482  1.0339  1.8951
 7887SOL     OW35293   0.969   1.871   4.539  0.4456  0.2525 -0.1488
 7887SOL    HW135294   1.062   1.868   4.563  1.1941  2.3320 -2.8981
 7887SOL    HW235295   0.968   1.847   4.446 -1.3441  0.2206 -0.1040
 7888SOL     OW35296   3.231   2.009  12.592 -0.3095  0.9661 -0.1557
 7888SOL    HW135297   3.248   2.094  12.632  2.6262  0.3377 -0.0238
 7888SOL    HW235298   3.169   2.024  12.520 -0.1222 -1.7259 -0.8863
 7889SOL     OW35299   0.155   2.504   2.395  0.0693 -0.4616 -0.1347
 7889SOL    HW135300   0.241   2.493   2.434 -0.5168 -1.3128  0.9187
 7889SOL    HW235301   0.126   2.421   2.359  2.3621 -2.0753  1.7949
 7890SOL     OW35302   3.529   0.778   6.011 -0.1028  0.0935 -0.1464
 7890SOL    HW135303   3.600   0.757   6.072  1.1064 -1.4857 -2.0861
 7890SOL    HW235304   3.488   0.691   6.012 -0.9723  0.5105 -0.0679
 7891SOL     OW35305   0.520   2.516  15.719  0.4496 -0.1442 -0.4151
 7891SOL    HW135306   0.562   2.495  15.636 -1.9138 -0.4206 -1.5335
 7891SOL    HW235307   0.580   2.486  15.788  0.7564  0.8174 -0.2722
 7892SOL     OW35308   0.965   4.601  11.943  0.1087 -0.1900 -0.4464
 7892SOL    HW135309   0.904   4.564  12.006 -0.7501  1.9553  0.0081
 7892SOL    HW235310   1.009   4.518  11.925 -0.4708 -0.2503 -1.5984
 7893SOL     OW35311   3.826   1.345   3.575  0.0150  0.3336  0.3962
 7893SOL    HW135312   3.886   1.411   3.539 -1.5990  1.5652 -0.0772
 7893SOL    HW235313   3.757   1.409   3.594 -0.6208 -0.1921 -0.1410
 7894SOL     OW35314   2.244   0.276   7.389  0.0168  0.2512  0.1134
 7894SOL    HW135315   2.184   0.327   7.442 -2.2047 -1.9556 -0.2600
 7894SOL    HW235316   2.217   0.312   7.305 -2.7486  1.6236  1.5965
 7895SOL     OW35317   3.057   1.245   5.687 -0.4155  0.1561  0.0358
 7895SOL    HW135318   3.150   1.233   5.701 -0.7066  1.4557  2.9410
 7895SOL    HW235319   3.046   1.227   5.593 -1.0992  0.9775 -0.0435
 7896SOL     OW35320   1.772   1.858   7.918 -0.0239 -0.1770 -0.1751
 7896SOL    HW135321   1.808   1.791   7.859  0.6854 -0.8715  1.0512
 7896SOL    HW235322   1.835   1.927   7.898 -1.8710  0.9812 -2.0084
 7897SOL     OW35323   3.352   2.412   9.270  0.6440  0.3291  0.5717
 7897SOL    HW135324   3.437   2.450   9.289  1.1522  0.4725 -1.9993
 7897SOL    HW235325   3.332   2.454   9.186  2.2079 -0.2232 -0.0841
 7898SOL     OW35326   2.332   3.162   2.806 -0.6477 -0.4180 -0.0023
 7898SOL    HW135327   2.256   3.170   2.863 -1.0230 -2.5094 -0.2111
 7898SOL    HW235328   2.370   3.079   2.832 -0.7023 -1.5469 -3.4831
 7899SOL     OW35329   2.181   1.056   2.398 -0.3574  0.0767 -0.1056
 7899SOL    HW135330   2.255   1.107   2.433  0.5217  0.0471 -1.8924
 7899SOL    HW235331   2.112   1.122   2.397  0.9788  1.4608 -1.6511
 7900SOL     OW35332   3.544   1.378   2.479 -0.4064  0.2841  0.5599
 7900SOL    HW135333   3.476   1.355   2.416  0.1279 -0.3465  0.2178
 7900SOL    HW235334   3.564   1.292   2.517 -2.7361 -0.9343 -0.9644
 7901SOL     OW35335   4.152   4.208   5.232 -0.0627 -0.3400 -0.1966
 7901SOL    HW135336   4.166   4.301   5.217  1.5263 -0.9548 -2.6979
 7901SOL    HW235337   4.105   4.191   5.313 -0.2146 -0.8273 -0.3860
 7902SOL     OW35338   3.140   1.533   3.541 -0.0519 -0.6795 -0.1364
 7902SOL    HW135339   3.113   1.623   3.520 -0.3719 -1.0281 -1.2045
 7902SOL    HW235340   3.060   1.483   3.559 -0.2897 -0.4342 -0.5294
 7903SOL     OW35341   4.004   4.049   7.771 -0.1258  0.0491 -0.3766
 7903SOL    HW135342   3.949   4.125   7.753  0.0659  0.4174  0.5672
 7903SOL    HW235343   4.090   4.090   7.762 -0.8119  1.7081  0.5378
 7904SOL     OW35344   2.066   2.890   7.896 -0.5487 -0.1537 -0.0151
 7904SOL    HW135345   2.094   2.806   7.859 -1.0809 -0.5520  0.4767
 7904SOL    HW235346   2.051   2.859   7.985  1.7039 -0.3553  0.2870
 7905SOL     OW35347   4.497   3.441   4.568  0.6447 -0.4974  0.3360
 7905SOL    HW135348   4.542   3.399   4.642 -2.8603 -1.0764  2.1348
 7905SOL    HW235349   4.570   3.429   4.508 -0.7396 -0.5587 -1.3464
 7906SOL     OW35350   0.319   3.151  17.241  0.4213  0.3821 -0.5496
 7906SOL    HW135351   0.350   3.235  17.276  2.6459 -0.4134 -0.6267
 7906SOL    HW235352   0.240   3.172  17.191  2.6276  1.0943 -3.7625
 7907SOL     OW35353   2.158   1.554   9.817 -0.7643 -0.7271  0.1321
 7907SOL    HW135354   2.074   1.590   9.842  1.1107  1.5369  3.1454
 7907SOL    HW235355   2.222   1.584   9.882 -0.2016  1.7125 -1.5439
 7908SOL     OW35356   1.525   4.101   1.820 -0.4541 -0.4714  0.3258
 7908SOL    HW135357   1.539   4.193   1.842 -1.1707 -0.2407 -0.1829
 7908SOL    HW235358   1.576   4.083   1.741  0.0114 -0.4043  0.6091
 7909SOL     OW35359   0.273   2.721   7.654  0.0522 -0.1822  0.0815
 7909SOL    HW135360   0.280   2.779   7.578  1.7449 -0.4440  0.0333
 7909SOL    HW235361   0.322   2.644   7.627  2.6308  2.1420 -1.9203
 7910SOL     OW35362   0.004   1.020   7.556  0.2658 -0.3153 -0.0539
 7910SOL    HW135363   4.707   0.941   7.511 -0.7096 -0.8276  1.5242
 7910SOL    HW235364   0.064   0.976   7.616  1.0600  0.9837  0.0904
 7911SOL     OW35365   3.308   3.186   9.700 -0.2134 -0.3190  0.0922
 7911SOL    HW135366   3.292   3.158   9.791 -0.8510  2.0763  0.7207
 7911SOL    HW235367   3.312   3.103   9.653 -1.3212 -0.2672 -0.0921
 7912SOL     OW35368   3.425   2.167   8.846  0.3642  0.2368 -0.1349
 7912SOL    HW135369   3.471   2.091   8.881 -0.6697 -0.1334  0.4241
 7912SOL    HW235370   3.491   2.235   8.856 -0.2490  1.0517 -1.5618
 7913SOL     OW35371   0.515   2.069  12.254 -0.4607  0.0710  0.5018
 7913SOL    HW135372   0.561   2.090  12.173 -1.2424 -0.5168 -0.0885
 7913SOL    HW235373   0.423   2.073  12.228 -0.2156  0.4954 -0.2820
 7914SOL     OW35374   3.592   3.977   4.309  0.2026  0.0480  0.4247
 7914SOL    HW135375   3.642   3.922   4.249  0.1052  2.0036 -1.4354
 7914SOL    HW235376   3.623   3.948   4.395  0.7329  0.5347  0.3979
 7915SOL     OW35377   3.173   1.367   6.377 -0.4836  0.1533 -0.3247
 7915SOL    HW135378   3.190   1.416   6.296 -0.4891  0.4140 -0.1665
 7915SOL    HW235379   3.257   1.380   6.421  0.5918 -0.6040 -2.1528
 7916SOL     OW35380   1.070   2.173   0.960 -0.1971  0.1405  0.6927
 7916SOL    HW135381   1.002   2.196   0.897  0.1805  1.2181  0.6815
 7916SOL    HW235382   1.101   2.088   0.927 -0.0473 -0.3544  2.1101
 7917SOL     OW35383   0.691   1.985   6.015 -0.5581 -0.1686 -0.2749
 7917SOL    HW135384   0.722   1.898   6.040 -2.8248 -1.5254 -2.2406
 7917SOL    HW235385   0.747   1.993   5.938  0.4702 -0.6763  0.4135
 7918SOL     OW35386   4.060   1.801   1.802  0.1047  0.1899  0.2273
 7918SOL    HW135387   4.070   1.715   1.844 -0.6654  0.7688  1.6092
 7918SOL    HW235388   3.997   1.786   1.732  1.6707  1.5193 -1.4731
 7919SOL     OW35389   1.116   0.453   8.696 -0.3006 -0.2259  0.1363
 7919SOL    HW135390   1.123   0.416   8.785  2.5201  0.0690  0.0230
 7919SOL    HW235391   1.063   0.530   8.717 -0.5035  0.0820 -1.5306
 7920SOL     OW35392   1.659   3.755   4.325  0.1273 -0.0963 -0.3370
 7920SOL    HW135393   1.614   3.779   4.244 -1.3491  0.4339  0.6444
 7920SOL    HW235394   1.630   3.664   4.326 -1.2505  0.3554  1.4749
 7921SOL     OW35395   0.260   0.945  13.002 -0.3986  0.3228 -0.0972
 7921SOL    HW135396   0.285   1.030  13.040  1.3799  0.4903 -1.6538
 7921SOL    HW235397   0.317   0.890  13.056 -1.7026 -0.4731  0.4646
 7922SOL     OW35398   2.768   3.934  16.520  0.3397 -0.8719 -0.0439
 7922SOL    HW135399   2.685   3.891  16.542  0.5924 -0.2024  2.2755
 7922SOL    HW235400   2.763   3.931  16.425 -0.7811  1.6225 -0.0530
 7923SOL     OW35401   2.247   3.068   9.071  0.4273  0.2028 -0.2559
 7923SOL    HW135402   2.291   2.996   9.024 -1.6274  0.6163 -2.8275
 7923SOL    HW235403   2.197   3.009   9.128 -0.4822 -0.2569 -1.5266
 7924SOL     OW35404   4.453   0.914  17.167  0.3670  0.4060 -0.2480
 7924SOL    HW135405   4.358   0.916  17.177  0.1790 -1.3698 -1.7352
 7924SOL    HW235406   4.453   0.842  17.104  0.0622 -0.9285  1.2601
 7925SOL     OW35407   2.612   1.850   5.877  0.2029  0.1806 -0.7391
 7925SOL    HW135408   2.550   1.840   5.949  0.1326  0.7582 -0.7212
 7925SOL    HW235409   2.651   1.932   5.906 -3.2649  1.9302 -1.0017
 7926SOL     OW35410   3.258   4.212  17.448 -0.3057  0.0297 -0.1235
 7926SOL    HW135411   3.181   4.168  17.412 -1.0970  1.2801  0.0256
 7926SOL    HW235412   3.234   4.305  17.442  1.0867  0.3906 -0.0499
 7927SOL     OW35413   0.054   2.111   7.691 -0.0701  0.4026 -0.0647
 7927SOL    HW135414   0.082   2.026   7.724 -1.1446 -0.0660 -0.3815
 7927SOL    HW235415   0.138   2.153   7.672  1.1189 -0.9161  2.2385
 7928SOL     OW35416   4.003   0.904   3.584  0.3075 -0.4846 -0.6963
 7928SOL    HW135417   3.988   0.905   3.678 -1.4705 -1.6691 -0.9752
 7928SOL    HW235418   3.944   0.977   3.564  2.1245  1.3117  0.4509
 7929SOL     OW35419   2.449   2.888  16.767 -0.2957  0.3458 -0.0311
 7929SOL    HW135420   2.481   2.801  16.741  0.2345 -0.0564  1.9312
 7929SOL    HW235421   2.471   2.884  16.861  0.8875 -1.8632 -0.3779
 7930SOL     OW35422   1.504   0.583   2.782 -0.1724  0.1865  1.1588
 7930SOL    HW135423   1.432   0.524   2.760 -0.1034  0.8711 -0.8899
 7930SOL    HW235424   1.518   0.621   2.695  1.7632 -0.4818  1.1605
 7931SOL     OW35425   3.258   2.618   6.185  0.0151 -0.0941  0.7296
 7931SOL    HW135426   3.230   2.707   6.165 -0.8017 -0.3848  0.5721
 7931SOL    HW235427   3.345   2.630   6.224  0.0690 -0.3559  0.6913
 7932SOL     OW35428   2.001   2.444   7.425 -0.2056 -0.7069  0.0949
 7932SOL    HW135429   2.034   2.411   7.509  1.4299 -1.3375 -0.8060
 7932SOL    HW235430   1.915   2.403   7.419 -1.7476  2.3389  1.3915
 7933SOL     OW35431   1.865   4.522  12.148  0.0083 -0.5274  0.0509
 7933SOL    HW135432   1.896   4.477  12.069 -2.3478 -0.3733 -0.9534
 7933SOL    HW235433   1.775   4.542  12.123  0.7504  0.9855 -1.3838
 7934SOL     OW35434   2.541   3.347   2.323 -0.6606  0.1162  0.2508
 7934SOL    HW135435   2.463   3.329   2.374 -0.0924  2.2775  1.8806
 7934SOL    HW235436   2.610   3.302   2.371  2.3545  1.7037 -2.5475
 7935SOL     OW35437   4.443   0.769   9.416 -0.5402 -0.0295 -0.0081
 7935SOL    HW135438   4.446   0.862   9.439  2.5679 -0.5405  1.6026
 7935SOL    HW235439   4.405   0.769   9.327 -0.2141  0.2564 -0.1474
 7936SOL     OW35440   4.298   2.584   6.655 -0.0120 -0.3775  0.6597
 7936SOL    HW135441   4.378   2.592   6.707  1.2848 -0.0079 -1.3558
 7936SOL    HW235442   4.238   2.644   6.700 -1.1665 -0.1033 -1.2272
 7937SOL     OW35443   4.141   3.934   8.057 -0.3403 -0.0235  0.5836
 7937SOL    HW135444   4.173   4.017   8.020 -1.8168  0.0835 -0.4641
 7937SOL    HW235445   4.104   3.961   8.141  0.1216 -0.5963  0.9728
 7938SOL     OW35446   0.177   4.043   0.963  0.1210 -0.0133  0.5277
 7938SOL    HW135447   0.174   4.138   0.970 -0.6116 -0.0484  0.7349
 7938SOL    HW235448   0.257   4.026   0.913 -0.3378  2.5497 -1.0845
 7939SOL     OW35449   1.156   4.690  12.994 -0.3977  0.0215 -0.0202
 7939SOL    HW135450   1.176   0.048  12.973 -3.3760  1.6101  4.1309
 7939SOL    HW235451   1.138   4.688  13.088 -1.8699  1.2713 -0.2689
 7940SOL     OW35452   0.383   2.181   4.871  0.2702  0.1404  0.6914
 7940SOL    HW135453   0.374   2.177   4.966  1.6900 -3.6917  0.6688
 7940SOL    HW235454   0.469   2.138   4.866  0.2519  0.5813 -3.8096
 7941SOL     OW35455   0.493   2.360   7.799 -0.5321  0.0463 -0.5668
 7941SOL    HW135456   0.480   2.404   7.882  1.0792 -1.0028  0.2462
 7941SOL    HW235457   0.515   2.432   7.740 -0.5593  0.0192 -0.6100
 7942SOL     OW35458   3.337   3.822   3.227  0.5098 -0.1524  0.2761
 7942SOL    HW135459   3.248   3.858   3.231  0.0746 -1.2310  0.0934
 7942SOL    HW235460   3.381   3.906   3.213 -1.0441  0.8996  1.7335
 7943SOL     OW35461   3.902   1.485   4.524  0.0351 -0.3579 -0.0703
 7943SOL    HW135462   3.901   1.468   4.618 -1.7309 -0.1567 -0.0489
 7943SOL    HW235463   3.997   1.497   4.518 -0.1262  0.7113 -0.6444
 7944SOL     OW35464   1.283   3.944  11.479  0.3869  0.6890  0.2260
 7944SOL    HW135465   1.230   3.892  11.539  0.1820  1.8006  1.0025
 7944SOL    HW235466   1.245   4.029  11.500 -0.2637  0.4458  0.0073
 7945SOL     OW35467   4.519   2.487   2.245  0.0705  0.3682  0.4115
 7945SOL    HW135468   4.517   2.567   2.298 -0.5341  1.4105 -1.1850
 7945SOL    HW235469   4.468   2.433   2.305  2.1053 -1.3906  0.5395
 7946SOL     OW35470   3.666   0.900   8.346  0.3712  0.0676 -0.0257
 7946SOL    HW135471   3.746   0.859   8.315  2.1479  3.3232  0.1970
 7946SOL    HW235472   3.695   0.990   8.329  0.0894 -0.0695 -1.2238
 7947SOL     OW35473   2.360   0.123   5.746 -0.1655 -0.0360  0.3979
 7947SOL    HW135474   2.406   0.058   5.799 -0.3750 -1.2063 -0.8482
 7947SOL    HW235475   2.413   0.124   5.667  0.4351 -0.7186  0.7990
 7948SOL     OW35476   3.805   4.217   7.986 -0.2301  0.1715 -0.6347
 7948SOL    HW135477   3.811   4.249   7.895 -1.9275  2.4527  0.0495
 7948SOL    HW235478   3.896   4.239   8.007  0.1272  0.5065 -2.4802
 7949SOL     OW35479   2.398   2.219   3.159  0.0688  0.2475 -0.0848
 7949SOL    HW135480   2.370   2.309   3.144  2.3123  1.1097  0.8864
 7949SOL    HW235481   2.474   2.245   3.211  0.8457 -0.9838 -0.6080
 7950SOL     OW35482   0.855   4.481   1.014  0.3853 -0.2550  0.3233
 7950SOL    HW135483   0.929   4.469   1.074 -1.7892  2.1108  3.5045
 7950SOL    HW235484   0.903   4.496   0.933 -0.3238 -0.7194 -0.1744
 7951SOL     OW35485   1.649   3.230  13.049  0.1890  0.5174  0.1322
 7951SOL    HW135486   1.571   3.198  13.094  0.3751  0.5958  0.5128
 7951SOL    HW235487   1.685   3.305  13.097  0.7267  0.3870 -0.0585
 7952SOL     OW35488   4.501   4.277   3.632 -0.7894  0.4108 -0.4733
 7952SOL    HW135489   4.579   4.242   3.675 -1.4298 -0.3805  0.0214
 7952SOL    HW235490   4.487   4.218   3.558 -1.1165  1.8180 -1.5426
 7953SOL     OW35491   3.305   3.458  16.726 -0.2083 -0.0527 -0.0348
 7953SOL    HW135492   3.300   3.540  16.776 -0.4476  0.5003 -0.9796
 7953SOL    HW235493   3.241   3.402  16.770 -0.7550  0.8606  0.3265
 7954SOL     OW35494   4.590   0.926   5.769  0.0720  0.8503 -0.8145
 7954SOL    HW135495   4.675   0.919   5.814 -0.5927  1.7434  0.5901
 7954SOL    HW235496   4.536   0.976   5.830  0.8213 -1.9445  2.1581
 7955SOL     OW35497   1.486   1.895   6.753  0.3069 -0.3512  0.3337
 7955SOL    HW135498   1.468   1.808   6.790  0.2520 -0.6336 -0.3478
 7955SOL    HW235499   1.412   1.949   6.781  0.9107  0.3221  0.6255
 7956SOL     OW35500   2.369   0.247   8.045  0.1909 -0.6343  0.2227
 7956SOL    HW135501   2.388   0.332   8.005 -0.6375  0.0785  1.3169
 7956SOL    HW235502   2.341   0.278   8.132 -0.9068 -1.5070  0.1698
 7957SOL     OW35503   4.556   1.922  10.895 -0.3932 -0.3165  0.4049
 7957SOL    HW135504   4.550   1.830  10.869 -1.4382  0.3029 -1.5744
 7957SOL    HW235505   4.497   1.929  10.970  0.8348  0.6433  1.2822
 7958SOL     OW35506   0.679   3.316  12.737  0.2602  0.3108  0.0066
 7958SOL    HW135507   0.674   3.379  12.809  0.3944  0.7485 -0.3678
 7958SOL    HW235508   0.728   3.371  12.675 -1.4320  0.9947 -0.7271
 7959SOL     OW35509   0.921   1.798   2.592  0.0274  0.0639  0.6189
 7959SOL    HW135510   0.943   1.759   2.677  2.3038 -1.7709 -0.7981
 7959SOL    HW235511   0.901   1.890   2.613 -2.3949 -1.1194  3.5152
 7960SOL     OW35512   1.173   1.640   1.919  0.4107 -0.2917  0.6904
 7960SOL    HW135513   1.124   1.681   1.991 -1.5185 -0.3829 -0.5502
 7960SOL    HW235514   1.243   1.705   1.911  0.0143  0.1129  0.5020
 7961SOL     OW35515   0.182   2.660  11.831 -0.3200 -0.0452  0.2609
 7961SOL    HW135516   0.181   2.728  11.899 -1.3687  0.1431  0.0662
 7961SOL    HW235517   0.140   2.712  11.762  1.1087 -1.2807 -1.5193
 7962SOL     OW35518   1.701   3.863  17.332 -0.2896  0.6142 -0.3140
 7962SOL    HW135519   1.750   3.939  17.363  0.8383 -1.3493  2.6512
 7962SOL    HW235520   1.628   3.855  17.393 -0.0511 -0.4685 -0.1763
 7963SOL     OW35521   2.853   3.502   3.947  0.0809 -0.5853 -0.6752
 7963SOL    HW135522   2.877   3.576   4.003  1.0842 -2.4925  1.4100
 7963SOL    HW235523   2.862   3.540   3.860  1.5892  1.0770  0.2063
 7964SOL     OW35524   4.036   0.374   9.408  0.0906 -0.0702 -0.0503
 7964SOL    HW135525   4.093   0.433   9.456 -0.9848  0.4268  0.6116
 7964SOL    HW235526   3.962   0.431   9.388  0.7676  1.2642  1.3041
 7965SOL     OW35527   3.234   0.246   8.491 -0.0326  0.7480  0.1503
 7965SOL    HW135528   3.317   0.200   8.504 -1.5275 -1.7857  0.7752
 7965SOL    HW235529   3.217   0.263   8.584  0.3990  0.3217  0.3065
 7966SOL     OW35530   0.868   0.532  15.315 -0.1700  0.1529  0.5843
 7966SOL    HW135531   0.774   0.520  15.324 -0.0063 -0.4576  1.4863
 7966SOL    HW235532   0.886   0.598  15.381  1.5538 -0.9129  1.1779
 7967SOL     OW35533   1.566   1.663  11.612 -0.3765 -0.1034  0.8503
 7967SOL    HW135534   1.642   1.621  11.653  0.6954  1.1942  0.1845
 7967SOL    HW235535   1.599   1.705  11.533 -2.1474 -1.2849 -0.5232
 7968SOL     OW35536   2.524   0.931   7.034  0.0364  0.4380 -0.0117
 7968SOL    HW135537   2.591   0.932   6.965  0.6046  0.5546  0.5380
 7968SOL    HW235538   2.519   0.836   7.045  0.9091  0.0310 -3.0741
 7969SOL     OW35539   1.406   1.284   4.094  0.2707 -0.1123 -0.2437
 7969SOL    HW135540   1.449   1.206   4.129  0.0174 -0.4959 -0.7812
 7969SOL    HW235541   1.447   1.306   4.010  0.6794  1.3450  0.3478
 7970SOL     OW35542   3.045   2.889   1.991 -0.3221 -0.4860 -0.0563
 7970SOL    HW135543   3.012   2.805   2.025 -1.4667 -1.4021 -3.4746
 7970SOL    HW235544   3.138   2.877   2.007 -0.4129 -2.5615 -1.0541
 7971SOL     OW35545   0.321   4.526  10.800  0.5542 -0.4261  0.1755
 7971SOL    HW135546   0.261   4.579  10.852 -0.7298  0.0830 -1.8228
 7971SOL    HW235547   0.383   4.588  10.762 -0.3691 -0.0763 -0.7722
 7972SOL     OW35548   0.145   0.489  12.561  0.2339 -0.3094  0.4627
 7972SOL    HW135549   0.091   0.567  12.549  2.3035  0.9753 -0.4726
 7972SOL    HW235550   0.209   0.498  12.491 -3.1391  1.1712 -2.4482
 7973SOL     OW35551   0.700   4.590   6.149  0.3254 -0.4592 -0.1997
 7973SOL    HW135552   0.694   4.590   6.244  0.8605  2.6029 -0.1564
 7973SOL    HW235553   0.633   4.525   6.128 -0.4191  0.0424  0.6492
 7974SOL     OW35554   0.439   3.188   5.982 -0.1263 -0.0577 -0.2421
 7974SOL    HW135555   0.523   3.216   6.016 -0.1842 -0.3019  0.0974
 7974SOL    HW235556   0.450   3.150   5.894 -1.2216 -2.2494  0.5735
 7975SOL     OW35557   3.671   0.573  16.577  0.0273 -0.0081 -0.2976
 7975SOL    HW135558   3.629   0.655  16.550 -0.7441  0.0563  1.0752
 7975SOL    HW235559   3.594   0.517  16.589 -0.0581  0.0438 -0.5981
 7976SOL     OW35560   2.776   1.800   3.325 -0.1966  0.0172  0.0998
 7976SOL    HW135561   2.770   1.868   3.258  1.5086  0.2089  0.1384
 7976SOL    HW235562   2.691   1.812   3.368 -0.5831 -1.1414 -0.3394
 7977SOL     OW35563   0.214   0.462   3.091 -0.0970 -0.3213  0.0858
 7977SOL    HW135564   0.216   0.513   3.010 -3.7952 -1.4244 -0.6985
 7977SOL    HW235565   0.307   0.468   3.114 -0.0344  1.1280 -0.5665
 7978SOL     OW35566   1.572   3.119   1.967 -0.1105 -0.3248 -0.0021
 7978SOL    HW135567   1.537   3.161   2.046  1.2790  1.0680 -0.1176
 7978SOL    HW235568   1.585   3.197   1.913  1.4866  0.4216  1.4435
 7979SOL     OW35569   0.606   2.032   4.923 -0.2037  0.1674  0.4695
 7979SOL    HW135570   0.581   1.961   4.983  0.0859  1.2207  1.8475
 7979SOL    HW235571   0.685   1.990   4.888 -0.9674 -1.3928  0.6306
 7980SOL     OW35572   4.255   4.431   9.507 -0.1729 -0.2007  0.0528
 7980SOL    HW135573   4.269   4.361   9.444  1.7186 -0.1985  0.4607
 7980SOL    HW235574   4.265   4.370   9.581 -2.7022  0.3717  0.8662
 7981SOL     OW35575   1.505   2.895   3.423 -0.0413  0.7954  0.3038
 7981SOL    HW135576   1.565   2.929   3.490 -0.4025  0.5435  0.7548
 7981SOL    HW235577   1.559   2.872   3.348  0.0285  0.5860  0.4183
 7982SOL     OW35578   3.463   3.713   5.675 -0.2938  0.0578  0.1417
 7982SOL    HW135579   3.511   3.670   5.746 -0.2283  0.5993  0.4283
 7982SOL    HW235580   3.383   3.662   5.687 -0.8975  0.6280 -1.5412
 7983SOL     OW35581   1.565   0.194   8.915 -0.4049  0.9476  0.3707
 7983SOL    HW135582   1.493   0.255   8.931  0.1980  1.5710  0.7111
 7983SOL    HW235583   1.532   0.166   8.830  2.1535 -1.0976  0.0486
 7984SOL     OW35584   1.466   4.447   1.387 -0.3963  0.4521  0.0960
 7984SOL    HW135585   1.477   4.374   1.449  0.4702  0.6076  0.1314
 7984SOL    HW235586   1.458   4.397   1.306 -0.2819 -0.2178  0.4990
 7985SOL     OW35587   3.008   3.437   9.332  0.1853 -0.2822 -1.1918
 7985SOL    HW135588   2.994   3.513   9.388 -0.5030 -0.6767 -0.8314
 7985SOL    HW235589   3.037   3.380   9.404 -1.5421  0.8171  0.3613
 7986SOL     OW35590   1.619   0.937   8.403 -0.2277  0.2764 -0.7874
 7986SOL    HW135591   1.639   0.845   8.413 -1.7570  0.2511  2.3201
 7986SOL    HW235592   1.523   0.942   8.407 -0.1865  1.7700 -1.3816
 7987SOL     OW35593   2.896   1.156   8.281  0.3942  0.2049 -0.1579
 7987SOL    HW135594   2.822   1.108   8.318  1.0157 -0.6437 -0.0171
 7987SOL    HW235595   2.856   1.237   8.249 -0.7030 -0.0662  0.5341
 7988SOL     OW35596   0.036   0.741   8.166  0.0774  0.5972 -0.4876
 7988SOL    HW135597   4.694   0.683   8.158 -0.6868  1.6631 -0.9108
 7988SOL    HW235598   0.041   0.761   8.260  1.8991 -0.3797 -0.3794
 7989SOL     OW35599   2.082   0.498   3.255 -0.4092  0.0091  0.3460
 7989SOL    HW135600   2.166   0.486   3.299  0.3930 -0.2226 -1.2411
 7989SOL    HW235601   2.071   0.592   3.272  1.0761  0.4881 -1.2687
 7990SOL     OW35602   3.731   4.624   9.179 -0.5095  0.5359  0.0349
 7990SOL    HW135603   3.795   4.677   9.226 -0.6089  1.3766 -0.7825
 7990SOL    HW235604   3.684   4.694   9.133 -0.3006 -0.1779 -1.2463
 7991SOL     OW35605   3.208   0.847  11.235  0.0469 -0.1817 -0.7225
 7991SOL    HW135606   3.135   0.785  11.227 -0.5876  0.5773 -0.8705
 7991SOL    HW235607   3.173   0.937  11.234 -3.6765 -1.6439 -0.7426
 7992SOL     OW35608   0.955   0.757   0.147 -0.3119 -0.5584 -0.5406
 7992SOL    HW135609   0.973   0.849   0.128 -1.2540 -0.2472  0.0819
 7992SOL    HW235610   0.981   0.718   0.063  2.5661 -1.2119  0.6518
 7993SOL     OW35611   2.533   4.616   8.130 -0.1433 -0.3098 -0.0418
 7993SOL    HW135612   2.487   4.642   8.050  0.4358  1.6868  0.2921
 7993SOL    HW235613   2.464   4.556   8.158  0.5712 -1.5879 -1.0320
 7994SOL     OW35614   1.212   1.727  16.303 -0.2085 -0.4621  1.1029
 7994SOL    HW135615   1.193   1.746  16.395 -0.7461 -0.8105  1.0633
 7994SOL    HW235616   1.303   1.701  16.313  0.2389  1.3562  1.7844
 7995SOL     OW35617   1.151   0.262  17.488  0.3590  0.1630  0.3140
 7995SOL    HW135618   1.137   0.177  17.446  1.5871  0.8023 -1.3955
 7995SOL    HW235619   1.117   0.250  17.576 -0.2753  0.6456  0.1330
 7996SOL     OW35620   2.627   1.912   6.454  0.1746 -0.2709  0.1339
 7996SOL    HW135621   2.539   1.882   6.433 -0.7145  3.0199 -0.7962
 7996SOL    HW235622   2.666   1.828   6.481  0.9774  0.1101  0.1716
 7997SOL     OW35623   4.378   2.764   5.593 -0.4065  0.0995  0.3017
 7997SOL    HW135624   4.360   2.679   5.632  0.5818 -0.7947 -1.1624
 7997SOL    HW235625   4.297   2.805   5.624 -0.0886  1.1020 -0.1772
 7998SOL     OW35626   1.579   0.170  14.236  0.1045  0.6158  0.2272
 7998SOL    HW135627   1.582   0.183  14.141  0.7052 -1.3746 -0.0279
 7998SOL    HW235628   1.659   0.216  14.259 -0.3776  1.5579  0.0334
 7999SOL     OW35629   0.651   3.927  15.243  0.2128  0.9515 -0.1823
 7999SOL    HW135630   0.670   3.868  15.170 -0.8903  2.7163 -1.8738
 7999SOL    HW235631   0.734   3.972  15.257 -0.5754  3.2028 -2.8476
 8000SOL     OW35632   2.361   1.284   8.696 -0.1840  0.0497 -0.3322
 8000SOL    HW135633   2.352   1.235   8.778  0.8778  0.5968  0.1055
 8000SOL    HW235634   2.315   1.225   8.636 -0.0738 -4.3564  3.8879
 8001SOL     OW35635   1.469   1.777  13.612 -0.4896 -0.8038 -0.4101
 8001SOL    HW135636   1.426   1.763  13.696  0.9357 -0.3192  0.3984
 8001SOL    HW235637   1.401   1.753  13.550 -1.2808  0.4998 -0.0373
 8002SOL     OW35638   0.992   4.720   2.587  0.2870 -0.1051  0.2402
 8002SOL    HW135639   1.023   4.642   2.540 -0.0298 -0.4451  0.6001
 8002SOL    HW235640   1.065   0.048   2.589  0.2812 -0.0678 -0.8873
 8003SOL     OW35641   3.220   0.324  16.398  0.1937 -0.3037  0.0767
 8003SOL    HW135642   3.159   0.348  16.329  0.2763 -0.7189 -0.1400
 8003SOL    HW235643   3.206   0.233  16.425  1.9491 -1.0410 -1.5158
 8004SOL     OW35644   2.973   0.757   6.951  0.1802 -0.8105  0.0469
 8004SOL    HW135645   2.890   0.732   6.912  0.7119  1.2205 -2.4272
 8004SOL    HW235646   3.017   0.778   6.869  2.1028  0.8625  1.4996
 8005SOL     OW35647   2.718   2.743   6.927  0.1108  0.1505  0.1928
 8005SOL    HW135648   2.646   2.793   6.890 -0.8314 -0.8537  0.6902
 8005SOL    HW235649   2.789   2.789   6.882  0.5004 -0.0234  0.6305
 8006SOL     OW35650   0.492   3.403  11.893  0.4618  0.1526 -0.2598
 8006SOL    HW135651   0.538   3.353  11.960 -1.3646 -0.1817  0.7447
 8006SOL    HW235652   0.399   3.389  11.909  0.2448  0.7705 -0.9940
 8007SOL     OW35653   0.956   1.822   2.877 -0.3939  0.1271  0.4634
 8007SOL    HW135654   1.046   1.818   2.909 -0.2675  1.0549  0.2183
 8007SOL    HW235655   0.955   1.916   2.860  0.9208  0.1559  0.5864
 8008SOL     OW35656   2.566   3.180   8.283  0.3485 -0.4408 -0.4820
 8008SOL    HW135657   2.518   3.230   8.216 -0.8014  1.2449  1.6017
 8008SOL    HW235658   2.555   3.090   8.252  1.1254 -0.2263 -1.3624
 8009SOL     OW35659   1.356   0.144   5.040  0.1641 -0.0211 -0.2832
 8009SOL    HW135660   1.304   0.114   5.115  0.8145 -3.6637 -1.2517
 8009SOL    HW235661   1.295   0.190   4.983  0.2397 -0.5134 -0.7686
 8010SOL     OW35662   0.626   2.952   1.836  0.0739  0.4538  0.4513
 8010SOL    HW135663   0.659   3.032   1.876  0.7629  1.3914 -1.9371
 8010SOL    HW235664   0.639   2.956   1.741  2.3808  0.1321  0.7447
 8011SOL     OW35665   2.683   3.064   9.982 -0.1470  0.3515  0.4943
 8011SOL    HW135666   2.708   3.055  10.074  4.2360  1.2514 -0.5938
 8011SOL    HW235667   2.599   3.018   9.975 -1.0072  2.1108 -1.0567
 8012SOL     OW35668   3.498   3.174  13.510 -0.3332 -0.3154 -0.2550
 8012SOL    HW135669   3.407   3.197  13.530 -1.0580 -3.0902 -0.3656
 8012SOL    HW235670   3.537   3.261  13.502 -0.5073 -0.3084 -1.0048
 8013SOL     OW35671   3.022   1.798   4.479 -0.0020 -0.4703  0.1235
 8013SOL    HW135672   3.078   1.734   4.435  0.0570 -1.2720  1.3788
 8013SOL    HW235673   3.076   1.870   4.445 -0.4740  0.2659  0.9421
 8014SOL     OW35674   3.928   0.663   0.648  0.5937  0.2684  1.1462
 8014SOL    HW135675   3.865   0.721   0.605 -0.8161 -1.1791  1.2737
 8014SOL    HW235676   3.872   0.617   0.710 -0.6454  0.3231  0.0563
 8015SOL     OW35677   1.400   3.552   7.964  0.0737  0.1892 -0.7769
 8015SOL    HW135678   1.494   3.561   7.977  0.1451 -0.0791 -1.0915
 8015SOL    HW235679   1.384   3.464   8.000  0.3319  0.9419  1.1640
 8016SOL     OW35680   0.452   2.356  12.008  0.3081  0.4034 -0.0935
 8016SOL    HW135681   0.454   2.434  11.953  0.1154 -0.3160 -1.1247
 8016SOL    HW235682   0.490   2.398  12.085  0.7786 -0.1965 -0.0002
 8017SOL     OW35683   3.217   1.751   9.033 -0.3982  0.2044  0.3659
 8017SOL    HW135684   3.124   1.776   9.038 -0.4451 -0.0504  0.7207
 8017SOL    HW235685   3.244   1.840   9.056  0.1586 -0.2456  1.4331
 8018SOL     OW35686   1.637   3.313   8.086  0.0476  0.4554  0.0835
 8018SOL    HW135687   1.627   3.308   7.991 -1.0683  0.5897  0.1905
 8018SOL    HW235688   1.641   3.408   8.091  3.0021  0.3399 -0.3279
 8019SOL     OW35689   3.139   2.587  17.354 -0.3170 -0.3933 -0.0789
 8019SOL    HW135690   3.201   2.527  17.395 -0.0446 -0.2315 -0.2564
 8019SOL    HW235691   3.162   2.670  17.397 -1.7867  0.0437 -0.1268
 8020SOL     OW35692   0.768   2.488   7.377 -0.2704 -0.4188  0.9002
 8020SOL    HW135693   0.677   2.518   7.378 -0.1178  0.0942 -1.9110
 8020SOL    HW235694   0.784   2.444   7.293 -1.3895 -1.2693  1.1228
 8021SOL     OW35695   2.260   2.492   3.825  0.1860 -0.0774  0.5354
 8021SOL    HW135696   2.183   2.481   3.880 -2.4548  2.0043 -2.7030
 8021SOL    HW235697   2.272   2.401   3.799  0.7711 -0.3674  1.8399
 8022SOL     OW35698   4.057   4.076   8.869 -0.1783 -0.2490  0.7200
 8022SOL    HW135699   3.998   4.091   8.796  2.8749 -0.8927 -1.8485
 8022SOL    HW235700   4.074   3.983   8.852  0.1476 -0.0324 -0.1408
 8023SOL     OW35701   4.532   4.368  10.756  0.5130  0.0894 -0.1292
 8023SOL    HW135702   4.558   4.278  10.776  0.9602 -0.0712 -1.4079
 8023SOL    HW235703   4.563   4.381  10.667  1.2862 -0.7253  0.0261
 8024SOL     OW35704   3.426   2.791   9.063  0.7551  0.1982 -0.4401
 8024SOL    HW135705   3.359   2.819   9.125 -0.8787  0.1551 -2.1883
 8024SOL    HW235706   3.437   2.870   9.010 -1.9500  0.7665 -0.1611
 8025SOL     OW35707   0.461   3.202   6.762 -0.5037  0.8654 -1.1482
 8025SOL    HW135708   0.445   3.252   6.681  0.9196 -0.1928 -2.1007
 8025SOL    HW235709   0.520   3.132   6.732  0.4442  1.0647  0.2872
 8026SOL     OW35710   3.184   0.346   8.751 -0.7232  0.1364  0.1409
 8026SOL    HW135711   3.220   0.432   8.732  1.6363 -0.9509 -0.2903
 8026SOL    HW235712   3.102   0.356   8.800 -0.6456  2.0210 -0.1359
 8027SOL     OW35713   4.233   2.233  10.839 -0.5917 -0.0592  0.7423
 8027SOL    HW135714   4.198   2.309  10.793 -0.7580 -0.2607  0.5386
 8027SOL    HW235715   4.266   2.175  10.771 -3.0222 -0.7305  0.1688
 8028SOL     OW35716   3.837   4.710   0.645 -0.5026 -0.1713  0.2356
 8028SOL    HW135717   3.828   0.058   0.693  2.6382  0.2517  0.0945
 8028SOL    HW235718   3.839   4.648   0.719 -2.4141  0.0141  0.4341
 8029SOL     OW35719   1.752   1.806   6.427  0.0889  0.2467  0.0141
 8029SOL    HW135720   1.734   1.900   6.422  1.6946  0.5966  0.8311
 8029SOL    HW235721   1.673   1.785   6.476 -0.2046  0.7081 -0.2574
 8030SOL     OW35722   1.547   3.929   4.505 -0.2760 -0.1642 -0.6682
 8030SOL    HW135723   1.473   3.930   4.444  1.0624  4.3065 -2.2384
 8030SOL    HW235724   1.598   3.860   4.464 -0.4049 -0.5010 -0.2591
 8031SOL     OW35725   3.258   0.302   9.088 -0.0947  0.4197  0.5245
 8031SOL    HW135726   3.331   0.342   9.042  1.7438 -3.3883  0.1480
 8031SOL    HW235727   3.193   0.373   9.093  0.9126  1.2562  1.9989
 8032SOL     OW35728   4.322   1.375   1.942  0.5965 -0.1385  0.0254
 8032SOL    HW135729   4.358   1.450   1.897  2.4909 -1.7063 -1.0585
 8032SOL    HW235730   4.307   1.322   1.864 -1.8791 -0.1159  0.4677
 8033SOL     OW35731   1.424   3.974  17.219 -0.2747  0.5474 -0.0586
 8033SOL    HW135732   1.411   3.963  17.124  0.2728  1.9294 -0.2859
 8033SOL    HW235733   1.406   3.883  17.245  0.0804  0.0138 -1.6942
 8034SOL     OW35734   2.785   1.439   5.191  0.2344 -0.2074 -0.3940
 8034SOL    HW135735   2.760   1.407   5.277 -0.3361  0.5519 -0.2834
 8034SOL    HW235736   2.704   1.424   5.143  0.6246 -0.3285 -1.0247
 8035SOL     OW35737   4.612   1.232   1.580  0.5868  0.2867  0.0983
 8035SOL    HW135738   4.617   1.265   1.670  2.5722  0.0299  0.0861
 8035SOL    HW235739   4.676   1.285   1.532 -0.2809  1.7898  0.6115
 8036SOL     OW35740   3.848   2.945   2.973 -0.0610 -0.3675 -0.3872
 8036SOL    HW135741   3.935   2.979   2.951  0.9688 -3.4818 -1.1832
 8036SOL    HW235742   3.857   2.853   2.949  1.5175 -0.0878 -0.8858
 8037SOL     OW35743   0.783   2.806   4.429 -0.5325  0.0411 -0.0069
 8037SOL    HW135744   0.828   2.855   4.498 -0.0243  0.1619 -0.4231
 8037SOL    HW235745   0.820   2.721   4.455 -0.7661  0.2097  0.8507
 8038SOL     OW35746   1.768   1.503   3.732 -0.3064  0.4083  0.2889
 8038SOL    HW135747   1.718   1.568   3.684  1.0608  0.8436 -0.5475
 8038SOL    HW235748   1.832   1.483   3.664  1.3483  1.1447  1.6271
 8039SOL     OW35749   1.604   1.987   2.339  0.5458  0.5162  0.8561
 8039SOL    HW135750   1.523   1.943   2.366  3.1975 -3.9288  1.5670
 8039SOL    HW235751   1.619   2.029   2.423  0.4739  2.4832 -0.1288
 8040SOL     OW35752   4.526   4.476  17.648 -0.0919 -0.3097 -0.3467
 8040SOL    HW135753   4.451   4.490  17.591  0.9781  1.5763 -1.3088
 8040SOL    HW235754   4.572   4.557  17.626 -1.2115 -0.2801 -2.5499
 8041SOL     OW35755   2.606   3.809   7.093 -1.0002 -0.3882  0.2056
 8041SOL    HW135756   2.589   3.889   7.045 -0.6601 -1.2395 -1.3234
 8041SOL    HW235757   2.610   3.848   7.181 -0.0897  2.4276 -1.1011
 8042SOL     OW35758   2.561   1.049  15.950  0.9252  0.1181 -0.0310
 8042SOL    HW135759   2.598   1.012  15.870  0.2055 -0.8746  0.0932
 8042SOL    HW235760   2.590   1.140  15.940 -0.2392  0.5614  0.6585
 8043SOL     OW35761   0.447   2.653   2.802 -0.4540 -0.2384 -0.0113
 8043SOL    HW135762   0.495   2.635   2.883 -1.8642  2.8382  1.5276
 8043SOL    HW235763   0.358   2.658   2.834 -0.2326 -1.0441  0.7263
 8044SOL     OW35764   4.068   3.027   8.907  0.0161 -0.5488  0.2822
 8044SOL    HW135765   3.973   3.030   8.920 -0.0562 -0.2314 -0.3014
 8044SOL    HW235766   4.076   3.106   8.854 -1.1085 -0.7564 -0.1969
 8045SOL     OW35767   3.446   0.201  12.304 -0.0726 -0.3499  0.6044
 8045SOL    HW135768   3.526   0.157  12.274 -0.0272 -0.7303  1.2872
 8045SOL    HW235769   3.404   0.121  12.334 -2.7738  1.1440  0.7945
 8046SOL     OW35770   1.111   2.524   7.682 -0.6731  0.7277  0.7656
 8046SOL    HW135771   1.031   2.491   7.642 -0.4926 -0.0233  1.0244
 8046SOL    HW235772   1.069   2.583   7.745  1.0044 -0.2229  2.7616
 8047SOL     OW35773   2.147   4.547  11.692  0.0462 -0.2450 -0.1420
 8047SOL    HW135774   2.236   4.581  11.697 -0.7972  1.6482  2.0280
 8047SOL    HW235775   2.135   4.519  11.782 -3.0090 -0.2379 -0.5318
 8048SOL     OW35776   2.059   2.766   4.693 -0.5031  0.5134  0.0496
 8048SOL    HW135777   1.993   2.716   4.742 -0.2836  1.0581  0.8932
 8048SOL    HW235778   2.020   2.771   4.606 -0.6311  0.0874  0.0799
 8049SOL     OW35779   1.368   2.373   2.691  0.1156  0.2436 -0.2179
 8049SOL    HW135780   1.283   2.384   2.735 -1.2205 -0.8871 -2.5218
 8049SOL    HW235781   1.390   2.295   2.741  0.3737 -0.0055 -0.7292
 8050SOL     OW35782   4.624   0.087   9.022 -0.2074 -0.4010 -0.1638
 8050SOL    HW135783   4.603   0.017   9.085  2.4093  0.1485  1.3356
 8050SOL    HW235784   4.681   0.036   8.964 -2.0809 -0.4122 -1.9789
 8051SOL     OW35785   2.585   4.107   9.123  0.1974  0.1365 -0.2262
 8051SOL    HW135786   2.638   4.028   9.139  1.8234  1.1808 -0.4546
 8051SOL    HW235787   2.606   4.157   9.202 -1.8065 -1.0822  1.0720
 8052SOL     OW35788   3.181   3.731   9.780  0.0444 -0.2241  0.5444
 8052SOL    HW135789   3.241   3.692   9.842 -1.0758 -0.2406  1.6240
 8052SOL    HW235790   3.096   3.721   9.823  1.1628  0.2120  2.8681
 8053SOL     OW35791   2.227   0.644   8.807 -0.2330  0.4411 -0.4174
 8053SOL    HW135792   2.180   0.605   8.733  1.0834 -3.2207  0.6944
 8053SOL    HW235793   2.193   0.733   8.802 -0.1095  0.4386 -1.3301
 8054SOL     OW35794   1.145   3.845  11.692 -0.0265  0.3856 -0.0327
 8054SOL    HW135795   1.214   3.819  11.753 -0.5272  1.3943  0.9717
 8054SOL    HW235796   1.089   3.910  11.734 -2.0039 -0.3574 -1.5421
 8055SOL     OW35797   3.684   1.006   9.625 -0.0842 -0.8761 -0.0646
 8055SOL    HW135798   3.745   0.936   9.649 -1.4987 -2.4016 -0.8894
 8055SOL    HW235799   3.609   0.967   9.670  0.5031 -2.0970 -0.1513
 8056SOL     OW35800   2.127   1.971  15.861  0.3590  0.5171  0.4693
 8056SOL    HW135801   2.059   1.985  15.795  0.4324  0.1035  0.3065
 8056SOL    HW235802   2.078   1.921  15.925 -0.6103 -0.6399 -1.1810
 8057SOL     OW35803   2.412   1.812   1.058 -0.0400 -0.3295  0.3228
 8057SOL    HW135804   2.442   1.840   0.972 -2.8373 -0.5275 -0.7079
 8057SOL    HW235805   2.490   1.762   1.082  0.8346 -0.0600 -2.0067
 8058SOL     OW35806   1.022   0.929   7.066 -0.2628 -1.0994  0.3479
 8058SOL    HW135807   1.019   0.988   7.141 -1.0537 -0.2942 -0.3259
 8058SOL    HW235808   0.927   0.928   7.057 -0.4340  0.4969  2.0924
 8059SOL     OW35809   4.410   1.864   5.510  0.3065 -0.0334  0.5341
 8059SOL    HW135810   4.397   1.929   5.580  0.7676  0.4916  0.1268
 8059SOL    HW235811   4.406   1.922   5.435 -0.0223  0.2157  0.7418
 8060SOL     OW35812   1.927   0.026   7.811 -0.5485 -0.4845 -0.5168
 8060SOL    HW135813   1.917   4.690   7.875 -0.8920 -1.2082 -1.3573
 8060SOL    HW235814   1.840   0.066   7.817 -0.2797  0.4155 -2.5030
 8061SOL     OW35815   3.077   4.486   5.937  0.1857 -0.0046 -0.0019
 8061SOL    HW135816   3.146   4.423   5.918 -0.1733 -0.1787 -0.7484
 8061SOL    HW235817   3.046   4.441   6.016  2.3513 -1.5170 -0.0274
 8062SOL     OW35818   3.764   1.963   0.269 -0.3873 -0.0594 -0.4134
 8062SOL    HW135819   3.754   1.871   0.293 -1.3132  0.1454 -0.0380
 8062SOL    HW235820   3.717   2.007   0.339  1.9308 -0.1651  1.2361
 8063SOL     OW35821   2.491   2.663   5.562  0.1452 -0.0183  0.0775
 8063SOL    HW135822   2.513   2.750   5.595 -2.1382  1.3140 -1.9289
 8063SOL    HW235823   2.397   2.670   5.547 -0.4524 -1.0082  3.4443
 8064SOL     OW35824   3.981   4.576   0.862 -0.1302  0.0362  0.2377
 8064SOL    HW135825   4.058   4.605   0.911  0.8304 -0.1451 -1.1858
 8064SOL    HW235826   4.024   4.517   0.800 -1.3817  0.3513 -0.9337
 8065SOL     OW35827   1.197   4.459   0.328  0.1689  0.6972 -0.3412
 8065SOL    HW135828   1.253   4.426   0.398 -2.8900 -0.5649  1.4801
 8065SOL    HW235829   1.193   4.378   0.277 -3.1996  0.3164  0.5582
 8066SOL     OW35830   0.544   0.892   8.639 -0.0999 -0.6100 -0.0376
 8066SOL    HW135831   0.504   0.950   8.574 -0.5839 -1.0304 -0.1136
 8066SOL    HW235832   0.478   0.824   8.654  0.2357 -0.5001  1.9418
 8067SOL     OW35833   2.469   2.312   4.910  0.2515  0.6515 -0.4810
 8067SOL    HW135834   2.375   2.328   4.910  0.2966  0.9582  2.2111
 8067SOL    HW235835   2.474   2.225   4.949 -0.0617  1.2744  0.9514
 8068SOL     OW35836   2.536   2.018  15.963 -0.0469  0.2779 -0.4687
 8068SOL    HW135837   2.482   1.940  15.959 -0.6661  0.6731  0.1535
 8068SOL    HW235838   2.471   2.067  15.913 -2.0310  0.3987  2.2205
 8069SOL     OW35839   1.524   0.390  13.122 -0.6362 -0.1944 -0.1804
 8069SOL    HW135840   1.602   0.425  13.165  1.3289 -0.2142 -3.7255
 8069SOL    HW235841   1.465   0.465  13.114 -0.8807 -0.3147  0.5035
 8070SOL     OW35842   0.188   4.163   5.940  0.0163  0.1400  0.1129
 8070SOL    HW135843   0.094   4.177   5.939  0.2235  1.5605 -0.8789
 8070SOL    HW235844   0.211   4.199   5.854 -0.7040  1.8392  0.6285
 8071SOL     OW35845   2.627   2.024   8.401  0.1334 -0.6580  0.3255
 8071SOL    HW135846   2.635   1.929   8.387  0.8391 -0.6775  0.8334
 8071SOL    HW235847   2.632   2.015   8.497 -1.1332  0.1802  0.4664
 8072SOL     OW35848   0.547   2.447   5.304  0.3891  0.7561  0.3651
 8072SOL    HW135849   0.479   2.480   5.363 -1.4557 -0.2723 -1.1828
 8072SOL    HW235850   0.618   2.464   5.366  1.8892 -2.1477 -0.5833
 8073SOL     OW35851   1.755   1.288   5.157 -0.1384  0.2217  0.0442
 8073SOL    HW135852   1.814   1.267   5.230  2.0315  0.1382 -1.7419
 8073SOL    HW235853   1.820   1.289   5.087 -1.9030  1.5089 -1.5835
 8074SOL     OW35854   3.680   0.050   1.063  0.0337 -0.7419  0.1542
 8074SOL    HW135855   3.691   0.004   1.146 -0.7019 -1.6399 -0.2421
 8074SOL    HW235856   3.585   0.062   1.053 -0.0799 -0.0286  2.0619
 8075SOL     OW35857   0.837   1.644  17.253 -0.5031  0.8691 -0.1265
 8075SOL    HW135858   0.842   1.728  17.299  0.9692  0.7350 -0.0597
 8075SOL    HW235859   0.742   1.644  17.239 -0.3154  4.5783 -1.5404
 8076SOL     OW35860   1.483   0.143   4.326  0.6309 -0.1960 -0.2210
 8076SOL    HW135861   1.492   0.161   4.419 -1.9588  1.7167 -0.3530
 8076SOL    HW235862   1.389   0.156   4.313  0.5433  0.6243  1.1995
 8077SOL     OW35863   1.601   2.687   6.821 -0.1615  0.6031  0.1404
 8077SOL    HW135864   1.632   2.626   6.755  0.4288  0.0044  0.9774
 8077SOL    HW235865   1.605   2.641   6.905  0.2920 -0.5769 -0.5382
 8078SOL     OW35866   0.004   0.659  10.325  0.2442  0.5570 -0.2754
 8078SOL    HW135867   4.733   0.693  10.235  0.7603 -0.4841 -0.6962
 8078SOL    HW235868   4.685   0.722  10.373 -1.9051 -2.0687  0.8113
 8079SOL     OW35869   1.891   2.750   3.800  0.2302 -0.2213  0.2170
 8079SOL    HW135870   1.840   2.830   3.808  2.2932  1.2581 -1.4705
 8079SOL    HW235871   1.971   2.791   3.767  0.7713 -1.3747  0.0805
 8080SOL     OW35872   0.303   0.270   3.502  0.1583  0.1762 -0.0765
 8080SOL    HW135873   0.315   0.320   3.583  0.2790  0.7500 -0.4442
 8080SOL    HW235874   0.392   0.249   3.474  0.7797  0.9474  1.3252
 8081SOL     OW35875   2.984   3.450  17.171 -0.5502 -0.3128  0.2416
 8081SOL    HW135876   2.995   3.425  17.079 -0.1660 -2.2130  0.8032
 8081SOL    HW235877   2.912   3.397  17.204 -1.9907  0.7737 -1.1494
 8082SOL     OW35878   1.225   0.714   3.284  0.7498  0.2663 -0.8303
 8082SOL    HW135879   1.166   0.690   3.356  0.3541  0.2827 -1.1480
 8082SOL    HW235880   1.167   0.771   3.233 -1.0042  0.1773  1.0604
 8083SOL     OW35881   2.465   2.718   7.863  0.0767 -0.1519 -0.3090
 8083SOL    HW135882   2.489   2.769   7.785  0.1428  0.5450  0.1734
 8083SOL    HW235883   2.510   2.754   7.939 -1.4026  1.5813 -0.2494
 8084SOL     OW35884   3.747   1.452   8.981  0.2631 -0.1191  0.1592
 8084SOL    HW135885   3.733   1.470   9.074  1.1185 -1.3873  0.5418
 8084SOL    HW235886   3.666   1.491   8.950 -0.0701 -3.2473 -2.9192
 8085SOL     OW35887   2.961   2.297   7.442 -0.8167 -0.4520 -0.2267
 8085SOL    HW135888   2.880   2.251   7.465 -1.9583  1.1039 -1.1299
 8085SOL    HW235889   2.941   2.390   7.431 -0.7109 -0.5552 -1.3497
 8086SOL     OW35890   4.179   2.642   1.991 -0.1315  0.2884  0.0164
 8086SOL    HW135891   4.109   2.708   1.994 -1.0074 -0.7868  2.9358
 8086SOL    HW235892   4.147   2.572   2.048  0.9131 -0.9369 -0.9115
 8087SOL     OW35893   3.232   4.515  12.788 -0.5033  0.0193  0.4760
 8087SOL    HW135894   3.202   4.538  12.700  1.2996 -1.7477 -0.5854
 8087SOL    HW235895   3.306   4.575  12.796 -1.1983  0.8545  0.7833
 8088SOL     OW35896   4.436   4.133   2.262 -0.6407 -0.0378  0.7952
 8088SOL    HW135897   4.378   4.058   2.249 -0.5181  0.5739 -3.4540
 8088SOL    HW235898   4.385   4.197   2.211  1.2314  0.4507 -0.4783
 8089SOL     OW35899   3.223   0.527  15.587  0.2622  0.3283 -0.0933
 8089SOL    HW135900   3.312   0.492  15.593  0.8083  1.6560 -0.4042
 8089SOL    HW235901   3.234   0.583  15.510  1.9305  0.6376  0.3695
 8090SOL     OW35902   3.956   2.888   5.049  0.3840 -0.1630 -0.4339
 8090SOL    HW135903   3.973   2.827   4.977 -3.5163 -0.9156 -0.7321
 8090SOL    HW235904   3.920   2.824   5.111  0.5133 -0.0575 -0.2510
 8091SOL     OW35905   0.359   1.739  11.500 -0.4218 -0.4525 -0.6296
 8091SOL    HW135906   0.429   1.687  11.462 -0.4660 -0.9524 -0.0411
 8091SOL    HW235907   0.289   1.694  11.453  0.3053 -0.2058 -1.9330
 8092SOL     OW35908   2.590   3.444  17.434  0.0745  0.0370  0.5225
 8092SOL    HW135909   2.576   3.539  17.429 -1.2129 -0.1918 -0.3381
 8092SOL    HW235910   2.544   3.426  17.516 -0.6409 -0.2750  0.0589
 8093SOL     OW35911   4.489   1.452   4.793 -0.2065  0.7785 -0.1134
 8093SOL    HW135912   4.574   1.495   4.803  0.2753 -0.6496  1.7185
 8093SOL    HW235913   4.503   1.360   4.774 -0.9774  0.7846 -0.7132
 8094SOL     OW35914   1.592   1.410   7.473 -0.5531 -0.6476  0.0072
 8094SOL    HW135915   1.571   1.369   7.556  1.8413 -1.0758  0.4101
 8094SOL    HW235916   1.683   1.436   7.489 -0.3399 -1.1409 -0.3962
 8095SOL     OW35917   2.177   4.238   4.285  0.2745  0.5607  0.0484
 8095SOL    HW135918   2.086   4.213   4.303  0.0826  1.2468  0.0187
 8095SOL    HW235919   2.171   4.311   4.223  0.8652 -0.1207 -0.8184
 8096SOL     OW35920   1.458   1.216   1.495  0.7342 -0.1568  0.0880
 8096SOL    HW135921   1.376   1.224   1.445  1.3281  0.3472 -0.8059
 8096SOL    HW235922   1.514   1.257   1.429  0.2907 -1.3844 -1.0545
 8097SOL     OW35923   0.304   1.860   5.123  0.7122  0.2265  0.1698
 8097SOL    HW135924   0.399   1.862   5.110  0.5791  0.1739 -0.7653
 8097SOL    HW235925   0.290   1.883   5.215 -1.3271  2.0025 -0.5868
 8098SOL     OW35926   1.451   3.478  10.955 -0.0004  0.0931 -0.2844
 8098SOL    HW135927   1.437   3.571  10.972 -2.8336 -0.6395  1.5338
 8098SOL    HW235928   1.421   3.470  10.865  0.8764 -1.0610 -0.4706
 8099SOL     OW35929   0.638   2.520   8.215 -0.2699 -0.0282  0.1344
 8099SOL    HW135930   0.631   2.600   8.267 -0.7743  1.2390 -1.9007
 8099SOL    HW235931   0.589   2.542   8.136 -2.2188 -3.6281  0.3341
 8100SOL     OW35932   3.223   4.162   7.068 -0.1606  0.1193  0.4814
 8100SOL    HW135933   3.193   4.249   7.095 -0.7177 -0.3937  1.5012
 8100SOL    HW235934   3.302   4.179   7.016  1.2931  0.6230  2.8506
 8101SOL     OW35935   4.332   3.326  15.318  0.4908  0.9680 -0.0623
 8101SOL    HW135936   4.353   3.407  15.364 -0.7616  0.3713  1.5611
 8101SOL    HW235937   4.239   3.335  15.298  0.5806 -1.2016 -1.4582
 8102SOL     OW35938   3.894   3.137   7.950  0.6235 -0.5940  0.0356
 8102SOL    HW135939   3.917   3.096   8.033 -0.1503 -1.2058 -0.0560
 8102SOL    HW235940   3.904   3.066   7.887  1.9366  0.2989 -0.7782
 8103SOL     OW35941   2.536   4.576   3.473  0.1090 -0.7449 -0.0146
 8103SOL    HW135942   2.589   4.656   3.480  1.1683 -1.6993  3.0526
 8103SOL    HW235943   2.529   4.544   3.563  2.1785 -2.1999 -0.3757
 8104SOL     OW35944   0.546   0.796   6.762 -0.2004  0.1985  0.0801
 8104SOL    HW135945   0.522   0.734   6.831 -0.1903  0.7421  0.5730
 8104SOL    HW235946   0.613   0.739   6.726 -0.6150 -0.9934  1.2063
 8105SOL     OW35947   0.490   0.476   6.728 -0.3989 -0.1389 -0.0002
 8105SOL    HW135948   0.511   0.500   6.638 -2.2211  0.5367 -0.2557
 8105SOL    HW235949   0.408   0.426   6.729 -0.4443 -0.0995 -1.3043
 8106SOL     OW35950   2.620   0.229   5.258  0.2627  0.1864 -0.1636
 8106SOL    HW135951   2.552   0.179   5.212 -0.8477  1.0599  0.5258
 8106SOL    HW235952   2.697   0.229   5.200  0.4009 -1.8109  0.0137
 8107SOL     OW35953   0.419   1.491   7.559 -0.1708  0.5479  0.2394
 8107SOL    HW135954   0.379   1.578   7.547  0.1467  1.0453  2.8183
 8107SOL    HW235955   0.439   1.463   7.469  0.7687 -0.1238  0.6652
 8108SOL     OW35956   1.664   2.039   6.580  0.3887 -0.8735 -0.3096
 8108SOL    HW135957   1.601   2.006   6.644 -1.4433 -1.5394 -2.4715
 8108SOL    HW235958   1.610   2.083   6.514 -0.8907 -0.8259  0.7754
 8109SOL     OW35959   2.111   2.553   2.743 -0.4755  0.7768  0.2982
 8109SOL    HW135960   2.104   2.644   2.773  1.2433  0.2197  2.3851
 8109SOL    HW235961   2.020   2.526   2.731 -0.5379  0.0923  2.3506
 8110SOL     OW35962   0.981   2.127   7.633 -0.1545  0.3100  0.4610
 8110SOL    HW135963   0.891   2.093   7.633  0.7837 -2.2229  0.1848
 8110SOL    HW235964   1.013   2.101   7.720 -1.6943  0.6504  1.1344
 8111SOL     OW35965   3.570   4.282   5.719  0.1022  0.0907  0.2607
 8111SOL    HW135966   3.563   4.209   5.780  0.6419 -0.2095 -0.0333
 8111SOL    HW235967   3.663   4.282   5.697  0.0126  1.3964 -0.1782
 8112SOL     OW35968   3.693   4.023   1.492  0.1900  0.4187  0.1655
 8112SOL    HW135969   3.690   4.117   1.512 -0.3956  0.3648  0.3411
 8112SOL    HW235970   3.772   4.007   1.543 -1.0515 -1.4351  1.4945
 8113SOL     OW35971   2.957   0.228   9.026 -0.2371 -0.5161 -0.2921
 8113SOL    HW135972   2.908   0.255   8.949  1.9218  1.0186 -1.1350
 8113SOL    HW235973   2.991   0.312   9.059  0.9309 -1.0625 -0.1051
 8114SOL     OW35974   3.156   3.108   2.576 -0.6325 -0.1443  0.3541
 8114SOL    HW135975   3.132   3.145   2.661 -2.4367  3.0486 -1.5663
 8114SOL    HW235976   3.236   3.059   2.597  1.5005  3.6931  1.0439
 8115SOL     OW35977   2.748   0.913  11.577  0.1960 -0.0411 -0.4885
 8115SOL    HW135978   2.742   0.880  11.666 -2.4096  3.0287  0.4752
 8115SOL    HW235979   2.677   0.977  11.582  2.1139  1.9577  1.1533
 8116SOL     OW35980   4.464   4.728   3.405  0.4149 -0.8183 -0.2294
 8116SOL    HW135981   4.409   4.732   3.483 -0.7758  1.1714 -1.1853
 8116SOL    HW235982   4.417   0.049   3.343 -0.3423 -3.5973 -2.1545
 8117SOL     OW35983   4.035   1.438   4.807  0.3597  0.6748 -0.5866
 8117SOL    HW135984   4.040   1.526   4.844  4.1126  0.7441 -1.1789
 8117SOL    HW235985   4.086   1.451   4.726  0.6282 -3.4203 -1.0541
 8118SOL     OW35986   3.338   0.566   0.234  0.2335 -0.3255 -0.3703
 8118SOL    HW135987   3.424   0.599   0.209  1.2143 -1.1624  1.8771
 8118SOL    HW235988   3.309   0.635   0.294 -1.5253 -0.4543 -1.0667
 8119SOL     OW35989   2.100   4.205  15.340 -0.1470 -0.2954 -0.2434
 8119SOL    HW135990   2.011   4.203  15.304 -0.6780 -1.2158  1.1359
 8119SOL    HW235991   2.136   4.290  15.312  1.0602 -0.6631  0.2301
 8120SOL     OW35992   3.416   0.883   3.147 -0.5663  0.2024  0.0561
 8120SOL    HW135993   3.426   0.924   3.233 -0.8015  0.6020 -0.1076
 8120SOL    HW235994   3.401   0.956   3.087  1.2110  1.1504  0.7798
 8121SOL     OW35995   3.872   2.507   0.585 -1.0314 -0.2431 -0.0087
 8121SOL    HW135996   3.825   2.470   0.511 -1.2523 -0.2598  0.1378
 8121SOL    HW235997   3.872   2.440   0.654  1.5020  0.0847  0.3011
 8122SOL     OW35998   0.955   1.411  16.693  0.1899 -0.4215 -0.0976
 8122SOL    HW135999   0.861   1.398  16.681 -0.3533  2.7595  0.6380
 8122SOL    HW236000   0.958   1.487  16.751 -0.3739 -0.7935  0.4204
 8123SOL     OW36001   4.675   4.173  11.207  0.8192  0.5377 -0.1477
 8123SOL    HW136002   4.677   4.079  11.225  3.1628  0.6549  0.1607
 8123SOL    HW236003   4.719   4.161  11.123  0.6004  1.9545 -0.4651
 8124SOL     OW36004   0.887   1.879  16.680  0.4119 -0.0830 -0.0963
 8124SOL    HW136005   0.823   1.869  16.610  1.4694  1.9371 -1.3611
 8124SOL    HW236006   0.874   1.969  16.712  0.9780 -0.1129  0.2265
 8125SOL     OW36007   4.311   4.354  15.757  0.3135  0.0036  0.4530
 8125SOL    HW136008   4.372   4.288  15.724 -0.8092  0.1678 -2.0103
 8125SOL    HW236009   4.253   4.297  15.807 -0.4120  0.8765  0.6051
 8126SOL     OW36010   2.170   1.952   5.180 -0.0890  0.0481  0.8104
 8126SOL    HW136011   2.125   1.891   5.239 -1.2037 -1.4304 -1.5620
 8126SOL    HW236012   2.163   1.905   5.096 -0.1285  0.3095  0.6681
 8127SOL     OW36013   0.986   4.083  14.895  0.1273  0.1521 -0.4473
 8127SOL    HW136014   0.965   4.163  14.847  1.3305  0.7364 -0.0165
 8127SOL    HW236015   1.024   4.130  14.970  0.4623  0.8292 -1.0373
 8128SOL     OW36016   2.735   3.635   5.451  0.3530 -0.2554  0.0686
 8128SOL    HW136017   2.734   3.628   5.356 -0.3465  1.3074 -0.0415
 8128SOL    HW236018   2.755   3.728   5.457  1.7999 -0.4266 -2.2462
 8129SOL     OW36019   3.791   2.432   5.057 -0.5466  0.1609 -0.9562
 8129SOL    HW136020   3.773   2.342   5.083  0.4752  0.3516  0.4179
 8129SOL    HW236021   3.709   2.457   5.015 -1.1591 -1.2633 -0.6173
 8130SOL     OW36022   3.775   1.806   6.469  0.2736  0.1828  0.2630
 8130SOL    HW136023   3.763   1.901   6.477 -0.5879 -0.0048  1.1874
 8130SOL    HW236024   3.841   1.804   6.400  0.2656  1.6893  0.2099
 8131SOL     OW36025   2.068   1.614  15.753 -0.1961  0.0753  0.1608
 8131SOL    HW136026   2.040   1.574  15.671 -0.6570 -1.1848  0.9405
 8131SOL    HW236027   2.006   1.686  15.767 -0.2007  0.2038 -0.5155
 8132SOL     OW36028   1.450   4.175   6.152 -0.5040  0.2754  0.0038
 8132SOL    HW136029   1.461   4.244   6.217 -2.8843  0.2525  0.4323
 8132SOL    HW236030   1.464   4.231   6.076 -1.7012 -0.8394 -1.0180
 8133SOL     OW36031   1.232   0.269   2.019  0.2490  0.3305 -0.1279
 8133SOL    HW136032   1.159   0.249   2.078  0.7315  0.0285  0.3651
 8133SOL    HW236033   1.278   0.185   2.013  1.7026  1.0830  0.4207
 8134SOL     OW36034   3.435   2.155   6.259 -0.2205 -0.1646  0.0974
 8134SOL    HW136035   3.427   2.111   6.344  0.9070  1.1837  0.8970
 8134SOL    HW236036   3.443   2.078   6.203  2.9578  0.8708 -0.8524
 8135SOL     OW36037   3.825   0.849   5.183 -0.1344  0.4855  0.6775
 8135SOL    HW136038   3.794   0.820   5.269 -1.3391  0.2816  0.1733
 8135SOL    HW236039   3.839   0.943   5.194  1.5607  0.2505  0.5772
 8136SOL     OW36040   3.063   2.100   8.673  0.0755 -0.1102 -0.0668
 8136SOL    HW136041   3.034   2.126   8.760 -1.0564  1.7020 -1.0013
 8136SOL    HW236042   3.014   2.165   8.623 -2.2270 -2.2141 -0.5482
 8137SOL     OW36043   2.080   1.218   9.740  0.0721 -0.3978 -0.2302
 8137SOL    HW136044   2.144   1.151   9.718  2.0836  1.3156  0.3439
 8137SOL    HW236045   2.021   1.162   9.789  1.0113 -0.2855  1.0153
 8138SOL     OW36046   0.865   1.329   4.365  0.1568 -0.0784 -0.0117
 8138SOL    HW136047   0.802   1.391   4.401  0.4634  0.4626 -0.4110
 8138SOL    HW236048   0.813   1.250   4.354 -1.6076  1.1653 -0.5374
 8139SOL     OW36049   3.692   0.942   4.688  0.0625 -0.4480 -0.0339
 8139SOL    HW136050   3.783   0.912   4.696  0.6907  0.9862 -1.8500
 8139SOL    HW236051   3.679   0.982   4.774 -2.3271 -2.3417  0.4845
 8140SOL     OW36052   2.463   4.219   5.208  0.2797  0.9138 -0.0338
 8140SOL    HW136053   2.368   4.224   5.216  0.2732  0.3381  0.2590
 8140SOL    HW236054   2.476   4.168   5.128 -1.4607  0.8321 -0.2576
 8141SOL     OW36055   4.047   2.960   8.619  0.2732 -0.0754 -0.1955
 8141SOL    HW136056   4.006   2.927   8.699  0.6911  0.9180  0.4254
 8141SOL    HW236057   4.129   2.999   8.649  0.2377  0.5795 -0.9564
 8142SOL     OW36058   2.710   0.131   3.229  0.1363 -0.0185  0.0397
 8142SOL    HW136059   2.765   0.210   3.225 -0.5292  0.4919  1.0254
 8142SOL    HW236060   2.740   0.090   3.147  2.8422 -2.5828  2.2875
 8143SOL     OW36061   2.130   0.647   4.855 -0.1494  0.0677  0.1200
 8143SOL    HW136062   2.054   0.600   4.889 -0.4247  1.0383  0.8479
 8143SOL    HW236063   2.209   0.597   4.874 -0.1902  0.4301  1.2197
 8144SOL     OW36064   2.000   2.737   7.093 -0.3977 -0.1915  0.0097
 8144SOL    HW136065   1.946   2.668   7.055  0.0707 -0.6825  0.2430
 8144SOL    HW236066   1.982   2.721   7.186 -0.7390  0.1796  0.0057
 8145SOL     OW36067   3.962   3.011  11.981 -0.4247  0.1100 -0.0797
 8145SOL    HW136068   3.906   2.945  12.021  0.0479 -0.1622  0.1392
 8145SOL    HW236069   3.958   2.973  11.893 -1.1216 -0.3037  0.1349
 8146SOL     OW36070   0.959   2.720   3.693  0.0005 -0.0470  0.0102
 8146SOL    HW136071   0.947   2.758   3.781 -1.4020 -2.8368  1.0131
 8146SOL    HW236072   1.024   2.776   3.651  0.5217 -0.0063  0.8671
 8147SOL     OW36073   3.405   3.585   3.751 -0.4587  0.0479 -0.1269
 8147SOL    HW136074   3.402   3.660   3.692 -0.5376 -0.4197 -0.7149
 8147SOL    HW236075   3.498   3.584   3.773 -0.7128  1.2577  1.0474
 8148SOL     OW36076   3.611   1.877  14.583  0.3429  0.4376  0.1469
 8148SOL    HW136077   3.615   1.960  14.535 -0.9137  0.6550  0.4018
 8148SOL    HW236078   3.538   1.838  14.535  1.2323 -2.4772  1.1463
 8149SOL     OW36079   1.148   1.707   6.858  0.2079 -0.4362 -0.0476
 8149SOL    HW136080   1.172   1.657   6.936 -0.2760  0.1167  0.4575
 8149SOL    HW236081   1.199   1.786   6.877 -1.0411  0.0425  1.3192
 8150SOL     OW36082   3.532   1.338   5.603  0.3977 -0.0879 -0.2681
 8150SOL    HW136083   3.624   1.355   5.621 -0.0182  0.0958  1.6864
 8150SOL    HW236084   3.480   1.409   5.641  1.1489  0.3748 -0.0941
 8151SOL     OW36085   4.607   3.778  12.505 -0.1740 -0.4456 -0.2322
 8151SOL    HW136086   4.518   3.753  12.479 -0.4062 -0.1511  0.3002
 8151SOL    HW236087   4.644   3.696  12.538  0.2869  0.5206  1.6327
 8152SOL     OW36088   1.862   1.098   1.381  0.8181 -0.4170  0.8888
 8152SOL    HW136089   1.875   1.192   1.382  1.7628 -0.5271 -0.4625
 8152SOL    HW236090   1.907   1.072   1.461 -0.6536 -1.4173  1.3908
 8153SOL     OW36091   3.299   0.860   7.491  0.3192  0.4346 -0.0905
 8153SOL    HW136092   3.289   0.955   7.502  0.2418  0.0708  2.8998
 8153SOL    HW236093   3.370   0.872   7.429 -2.1475  1.6120 -2.7226
 8154SOL     OW36094   2.053   2.777  13.396 -0.1806 -0.3676  0.6743
 8154SOL    HW136095   2.100   2.812  13.471 -1.2115  1.7999  0.3238
 8154SOL    HW236096   2.101   2.789  13.314  2.4181 -1.2419  2.0784
 8155SOL     OW36097   4.150   2.761   8.952  0.3281  0.3851  0.3589
 8155SOL    HW136098   4.094   2.838   8.942 -1.0465 -0.9085 -1.8493
 8155SOL    HW236099   4.196   2.748   8.870  3.3622  1.5366  1.8726
 8156SOL     OW36100   2.240   4.715   3.494 -0.1940  0.5628 -0.4221
 8156SOL    HW136101   2.246   0.031   3.412  1.4145  1.0325 -0.0141
 8156SOL    HW236102   2.332   4.690   3.494 -0.3266  0.0645 -1.1908
 8157SOL     OW36103   1.111   0.123  14.659 -0.0033 -0.3576  0.0586
 8157SOL    HW136104   1.133   0.163  14.575 -0.5015  2.2820  1.1811
 8157SOL    HW236105   1.165   0.044  14.655  1.0975  0.4063 -0.1676
 8158SOL     OW36106   0.991   4.321  14.134 -0.0375  0.4364 -0.1089
 8158SOL    HW136107   1.025   4.235  14.157 -0.6356 -0.1656 -1.4419
 8158SOL    HW236108   0.947   4.351  14.213  1.6916 -0.5433  1.2345
 8159SOL     OW36109   3.988   0.559   3.319 -0.6524  0.3944  0.2998
 8159SOL    HW136110   4.060   0.579   3.379 -0.4912  0.0284  0.2279
 8159SOL    HW236111   3.914   0.532   3.374 -0.6354  0.8583  0.5507
 8160SOL     OW36112   3.309   1.133   5.767  0.5854  1.2399  0.1036
 8160SOL    HW136113   3.350   1.170   5.846  2.2022 -1.2052  0.4333
 8160SOL    HW236114   3.380   1.072   5.747 -1.3458 -1.0914  0.3428
 8161SOL     OW36115   0.592   2.867  14.726 -0.0351  0.0665  0.0126
 8161SOL    HW136116   0.609   2.783  14.683 -2.4833 -0.4337  0.0062
 8161SOL    HW236117   0.507   2.899  14.696  0.3662 -0.3372 -1.5340
 8162SOL     OW36118   3.672   2.306   6.247 -0.4569 -0.2566  0.2537
 8162SOL    HW136119   3.585   2.273   6.272 -0.5017 -1.8987 -2.1185
 8162SOL    HW236120   3.679   2.276   6.157  1.0491  0.1973  0.2185
 8163SOL     OW36121   2.930   4.643   7.132  0.2612  0.2644 -0.4458
 8163SOL    HW136122   2.973   4.635   7.217 -0.1941 -0.6744 -0.3133
 8163SOL    HW236123   2.970   4.726   7.105  1.0136 -0.1565 -0.6235
 8164SOL     OW36124   2.643   1.607  15.255  0.5362  0.6185  0.2892
 8164SOL    HW136125   2.585   1.632  15.183  0.5662 -0.7490 -0.2054
 8164SOL    HW236126   2.661   1.514  15.246 -1.6196  0.0872  1.5203
 8165SOL     OW36127   0.272   4.310   7.567  0.0140  0.0021 -0.6141
 8165SOL    HW136128   0.236   4.323   7.655 -0.8702  1.8021 -1.2442
 8165SOL    HW236129   0.362   4.281   7.579  0.2639 -0.2758 -3.1265
 8166SOL     OW36130   3.823   4.018   7.144 -0.2561  0.5551 -0.2364
 8166SOL    HW136131   3.793   3.960   7.214  0.2455 -1.3612 -1.6079
 8166SOL    HW236132   3.779   3.975   7.071 -2.3236  2.9492 -0.4223
 8167SOL     OW36133   1.577   2.603   7.339 -0.9575  0.1718 -0.1655
 8167SOL    HW136134   1.514   2.545   7.382 -1.5218 -0.2304 -1.5216
 8167SOL    HW236135   1.602   2.658   7.413  0.6042  0.4894 -0.9126
 8168SOL     OW36136   4.062   1.173   5.048  0.3026 -0.0590  0.0298
 8168SOL    HW136137   4.092   1.208   4.964  0.9094 -1.4534 -0.3293
 8168SOL    HW236138   3.967   1.186   5.046  0.1490 -1.1325  0.3961
 8169SOL     OW36139   2.540   2.829  16.308  0.1584 -0.1233 -0.3312
 8169SOL    HW136140   2.447   2.849  16.309  0.0583 -0.7368  2.4343
 8169SOL    HW236141   2.531   2.751  16.253  0.4467  0.1764 -0.8021
 8170SOL     OW36142   1.636   0.756  13.388 -0.4669  0.0921 -0.2817
 8170SOL    HW136143   1.676   0.745  13.302 -0.1096  0.3374 -0.1472
 8170SOL    HW236144   1.703   0.713  13.441 -0.0150  1.7436  0.4827
 8171SOL     OW36145   2.970   1.146   4.137 -0.1731 -0.2530 -0.0922
 8171SOL    HW136146   3.039   1.119   4.198  0.4631 -0.3445 -0.8526
 8171SOL    HW236147   2.910   1.171   4.207  0.4113  0.5263  0.1329
 8172SOL     OW36148   3.622   1.138   3.190  0.1852 -0.2720  0.5708
 8172SOL    HW136149   3.663   1.086   3.259 -0.6004  3.2719  3.6657
 8172SOL    HW236150   3.530   1.122   3.214  0.3411  1.3008  2.1844
 8173SOL     OW36151   0.858   2.484   8.399 -0.0990 -0.1815  0.5404
 8173SOL    HW136152   0.775   2.494   8.351  0.4565 -1.0779 -0.6104
 8173SOL    HW236153   0.874   2.390   8.386 -2.3989 -0.5334  0.2120
 8174SOL     OW36154   1.768   4.103   2.538 -0.1723 -0.2585  0.0984
 8174SOL    HW136155   1.813   4.187   2.529  0.2417 -0.5276 -0.3787
 8174SOL    HW236156   1.761   4.094   2.633  1.0570  0.7515  0.2874
 8175SOL     OW36157   1.069   4.722  17.728  0.6049 -0.1150  0.3242
 8175SOL    HW136158   1.083   4.717   0.087 -1.2885 -2.0966  0.5103
 8175SOL    HW236159   1.051   0.082  17.724 -0.7199 -0.4620 -1.9933
 8176SOL     OW36160   4.610   0.638   4.650  0.4730  0.0205  0.0673
 8176SOL    HW136161   4.572   0.635   4.738 -1.9256 -2.6440 -1.0354
 8176SOL    HW236162   4.545   0.582   4.606  0.5181  0.1477 -0.1610
 8177SOL     OW36163   0.379   2.893  16.374 -0.1234  0.1159 -0.1652
 8177SOL    HW136164   0.323   2.898  16.451  1.2170  2.2179  0.6729
 8177SOL    HW236165   0.459   2.937  16.404 -1.3070  1.4916  0.9485
 8178SOL     OW36166   3.169   2.945   5.583  0.3022 -0.2207 -0.1604
 8178SOL    HW136167   3.080   2.911   5.593 -0.6351  1.9484 -1.0420
 8178SOL    HW236168   3.222   2.866   5.574 -0.1953 -0.3416 -2.0915
 8179SOL     OW36169   2.641   1.467   9.033 -0.3215 -0.0757  0.0202
 8179SOL    HW136170   2.711   1.532   9.020 -0.0376 -0.5742 -0.9474
 8179SOL    HW236171   2.606   1.471   8.944 -2.1152  1.1434  0.7849
 8180SOL     OW36172   0.847   3.448   6.657  0.4076  0.1700 -0.2342
 8180SOL    HW136173   0.846   3.352   6.652  0.1817  0.3919 -4.6040
 8180SOL    HW236174   0.937   3.451   6.690  1.0025  0.3106 -1.8739
 8181SOL     OW36175   2.888   0.033   5.216 -0.0514  0.4295  0.0168
 8181SOL    HW136176   2.827   0.062   5.148 -1.3266 -0.5498  0.7454
 8181SOL    HW236177   2.969   0.068   5.179  0.8869 -3.0254 -1.1357
 8182SOL     OW36178   3.210   1.756   7.435 -0.2127  0.2283 -0.3843
 8182SOL    HW136179   3.281   1.707   7.476 -1.5467  0.8777  2.6675
 8182SOL    HW236180   3.199   1.698   7.360  3.4743  0.3720 -0.9957
 8183SOL     OW36181   4.168   1.393   4.013 -0.2839  0.1605 -0.3212
 8183SOL    HW136182   4.130   1.312   4.049 -0.2318 -0.0567 -0.7547
 8183SOL    HW236183   4.224   1.361   3.942 -0.1343  1.4768 -0.7962
 8184SOL     OW36184   3.083   2.816   6.147 -0.3880  0.4862 -0.4800
 8184SOL    HW136185   3.057   2.788   6.059 -0.4459  0.0475 -0.3224
 8184SOL    HW236186   3.028   2.756   6.197  0.7764 -1.0562 -1.0767
 8185SOL     OW36187   4.606   4.275   3.030  0.4089  0.7099 -0.3085
 8185SOL    HW136188   4.590   4.369   3.021 -2.2417  0.4629  1.6496
 8185SOL    HW236189   4.596   4.243   2.940 -0.2888  1.6210 -0.5591
 8186SOL     OW36190   3.695   3.312  10.252  0.3305  0.0084 -0.4008
 8186SOL    HW136191   3.722   3.320  10.344 -0.1765 -0.3121 -0.2268
 8186SOL    HW236192   3.761   3.372  10.217 -1.1034  1.5563 -0.4118
 8187SOL     OW36193   4.652   3.839  12.218  0.4464  0.3982  0.4440
 8187SOL    HW136194   4.662   3.757  12.266 -0.5489  0.4573  0.7690
 8187SOL    HW236195   4.557   3.840  12.206  0.2728  0.2173  1.7631
 8188SOL     OW36196   0.272   3.496   3.745 -0.0775  0.0802  0.0902
 8188SOL    HW136197   0.238   3.489   3.834  1.7921 -0.1371  0.7922
 8188SOL    HW236198   0.360   3.531   3.758 -0.1375  0.5507 -0.7868
 8189SOL     OW36199   4.204   0.206  11.341 -0.2967  0.0037  0.0662
 8189SOL    HW136200   4.239   0.186  11.254 -0.3748 -0.0089  0.0369
 8189SOL    HW236201   4.287   0.219  11.387 -0.4643 -1.3808  0.7248
 8190SOL     OW36202   4.101   0.838  14.632  0.4462  0.2969  0.0319
 8190SOL    HW136203   4.169   0.770  14.631  0.3274  0.1708  0.4053
 8190SOL    HW236204   4.132   0.888  14.557  1.7220 -0.3768  0.1167
 8191SOL     OW36205   4.122   2.404  11.379 -0.0495  0.7357  0.9934
 8191SOL    HW136206   4.140   2.358  11.297 -0.1093 -0.9556  1.9347
 8191SOL    HW236207   4.157   2.491  11.359 -0.3474  0.5947 -0.1531
 8192SOL     OW36208   0.155   1.687   8.377  0.0830 -0.6089  0.3595
 8192SOL    HW136209   0.135   1.620   8.312  0.1108  0.8539 -1.1353
 8192SOL    HW236210   0.241   1.661   8.411  1.0854  1.2517 -0.7279
 8193SOL     OW36211   0.606   1.432   3.407  0.4351  0.7628 -0.0825
 8193SOL    HW136212   0.694   1.434   3.368  0.0696  1.5764 -0.8433
 8193SOL    HW236213   0.607   1.352   3.460 -0.0468 -0.4525 -1.9268
 8194SOL     OW36214   4.732   3.764  17.056  0.4941 -0.8086  0.5925
 8194SOL    HW136215   0.041   3.762  17.141  2.3024 -2.2030 -0.3738
 8194SOL    HW236216   4.721   3.670  17.040 -1.3787 -0.7996  1.7891
 8195SOL     OW36217   1.816   2.090   4.507 -0.6013  0.5005 -0.1370
 8195SOL    HW136218   1.722   2.092   4.489 -0.9333 -0.5686  1.4889
 8195SOL    HW236219   1.835   2.179   4.479  3.6394 -0.6017 -0.8349
 8196SOL     OW36220   3.385   3.920   9.938 -0.1626  1.2846 -0.0679
 8196SOL    HW136221   3.375   3.826   9.955 -1.4965  1.5535  0.5903
 8196SOL    HW236222   3.375   3.959  10.025  1.2758  0.4762  0.4539
 8197SOL     OW36223   2.932   3.704   4.119 -0.3148 -1.0530  0.2512
 8197SOL    HW136224   3.024   3.727   4.129 -0.8791  1.3734 -0.1884
 8197SOL    HW236225   2.904   3.788   4.082 -0.8700 -1.6470 -0.7027
 8198SOL     OW36226   0.055   4.252   8.672  0.1837  0.2342 -0.5661
 8198SOL    HW136227   0.076   4.305   8.595  0.8914  0.8529  0.0495
 8198SOL    HW236228   0.127   4.283   8.727  1.0698 -0.2943 -1.4351
 8199SOL     OW36229   4.040   0.138   0.235 -0.0676  0.5521 -0.5148
 8199SOL    HW136230   4.106   0.182   0.289 -0.2244  0.7889 -0.5166
 8199SOL    HW236231   3.999   0.090   0.307  2.0614 -0.9226 -0.2759
 8200SOL     OW36232   1.508   2.513  11.979  0.0725 -0.2021  0.0472
 8200SOL    HW136233   1.584   2.537  12.031 -1.0669  1.4137  0.9471
 8200SOL    HW236234   1.436   2.554  12.028 -0.4366  0.7680 -1.5187
 8201SOL     OW36235   1.848   4.504   6.880 -0.7805 -0.0202 -0.9131
 8201SOL    HW136236   1.872   4.557   6.956 -1.3297  0.2455 -0.9250
 8201SOL    HW236237   1.766   4.547   6.859 -2.4492 -2.9975 -0.5531
 8202SOL     OW36238   3.598   2.674  15.852 -0.0220 -0.1861  0.2023
 8202SOL    HW136239   3.547   2.653  15.774 -0.2047  0.2834  0.1943
 8202SOL    HW236240   3.526   2.714  15.901  0.7851  0.0758  1.1805
 8203SOL     OW36241   1.000   1.272   8.772 -0.0192  0.0676 -0.0228
 8203SOL    HW136242   1.016   1.338   8.839 -0.3100 -0.0635  0.1737
 8203SOL    HW236243   0.978   1.199   8.829 -1.2380 -0.5327 -1.2590
 8204SOL     OW36244   2.897   0.759  14.369  0.4128 -0.4568 -0.2256
 8204SOL    HW136245   2.957   0.735  14.440  1.0947 -0.8461 -0.9435
 8204SOL    HW236246   2.952   0.805  14.306 -1.6890  2.5872  0.1552
 8205SOL     OW36247   2.479   2.437  10.665 -0.6226 -0.1940 -0.0551
 8205SOL    HW136248   2.454   2.529  10.673  0.0146 -0.0352  0.1098
 8205SOL    HW236249   2.570   2.443  10.694 -0.0800  0.4370 -1.8852
 8206SOL     OW36250   0.934   0.132   0.310 -0.5949  1.2051  0.0687
 8206SOL    HW136251   1.012   0.085   0.279 -0.4803  1.5075 -0.1005
 8206SOL    HW236252   0.963   0.218   0.338  2.1460  0.9883 -2.0696
 8207SOL     OW36253   0.972   0.583   3.860 -0.2930 -0.4069 -0.6656
 8207SOL    HW136254   0.923   0.664   3.868  0.3399 -0.0534 -0.3880
 8207SOL    HW236255   1.057   0.605   3.821  0.0400 -0.8981 -0.2163
 8208SOL     OW36256   2.329   3.691  13.596  0.1898  0.7384 -0.6038
 8208SOL    HW136257   2.269   3.764  13.610 -1.4867 -0.8444  0.4179
 8208SOL    HW236258   2.364   3.696  13.507 -0.3388 -0.5497 -0.8764
 8209SOL     OW36259   0.578   0.081  17.502  0.2446  0.4993 -0.3707
 8209SOL    HW136260   0.549   0.071  17.412 -1.5425 -1.4156  0.4274
 8209SOL    HW236261   0.576   0.176  17.510 -2.8886  0.2306  1.7603
 8210SOL     OW36262   4.291   1.912   7.474 -0.5344 -0.0789  0.3333
 8210SOL    HW136263   4.324   1.995   7.440 -1.7854  0.7209  1.0482
 8210SOL    HW236264   4.370   1.861   7.486 -0.1547  0.1451 -1.2242
 8211SOL     OW36265   2.492   3.281   9.790  0.0398 -0.5721  0.3575
 8211SOL    HW136266   2.576   3.236   9.797  0.5573  0.7468  2.4961
 8211SOL    HW236267   2.505   3.372   9.761 -0.1791 -0.3418  0.9766
 8212SOL     OW36268   4.551   4.466  10.452  0.5957  0.5106 -0.1829
 8212SOL    HW136269   4.615   4.533  10.475  1.7154 -0.0870 -1.5400
 8212SOL    HW236270   4.601   4.388  10.479 -0.0419  0.8677  1.9729
 8213SOL     OW36271   1.893   0.827   7.977  0.4796  0.5151 -0.0866
 8213SOL    HW136272   1.929   0.809   8.064  1.5672  2.4960 -0.1218
 8213SOL    HW236273   1.962   0.789   7.922 -1.2601 -1.0619 -1.1958
 8214SOL     OW36274   1.250   2.666   2.308  0.0669  0.4854 -0.2044
 8214SOL    HW136275   1.300   2.617   2.373  0.3381 -1.5594 -1.9254
 8214SOL    HW236276   1.156   2.653   2.317  0.3099 -0.6569  0.6871
 8215SOL     OW36277   4.254   4.507  13.035 -0.2894 -0.0790  0.2768
 8215SOL    HW136278   4.237   4.485  13.126 -0.0690  0.2996  0.4090
 8215SOL    HW236279   4.342   4.542  13.048 -0.0340  0.1353 -1.9043
 8216SOL     OW36280   1.747   2.586   7.846  0.2431  0.6972  0.0765
 8216SOL    HW136281   1.778   2.628   7.766 -1.8332  0.9069 -0.6160
 8216SOL    HW236282   1.730   2.663   7.902  1.0489  0.2042  0.9984
 8217SOL     OW36283   1.391   1.935   0.458 -0.5634 -0.2203 -0.3897
 8217SOL    HW136284   1.316   1.959   0.512  0.7248  3.1951 -0.1204
 8217SOL    HW236285   1.459   1.931   0.525 -0.8166  1.0995 -0.0550
 8218SOL     OW36286   4.512   0.674  16.975 -0.7308 -0.2523  0.7289
 8218SOL    HW136287   4.451   0.719  16.917 -1.3762 -1.7128  0.2648
 8218SOL    HW236288   4.540   0.608  16.911  0.4473  1.6548 -0.7255
 8219SOL     OW36289   0.259   2.132   5.174  0.1625 -0.5267 -0.2770
 8219SOL    HW136290   0.195   2.200   5.198  0.5940 -0.1006 -0.3399
 8219SOL    HW236291   0.201   2.058   5.152  0.9037 -1.1208 -0.2115
 8220SOL     OW36292   1.854   1.709   5.088 -0.1331  0.2799  0.0818
 8220SOL    HW136293   1.890   1.634   5.040 -0.5396 -0.3452  0.7573
 8220SOL    HW236294   1.766   1.716   5.052  0.1386  1.2313 -0.3998
 8221SOL     OW36295   2.313   4.286   8.354  0.1969 -0.3325 -0.0785
 8221SOL    HW136296   2.227   4.250   8.377 -1.1912  1.1494 -3.0149
 8221SOL    HW236297   2.304   4.289   8.258  1.4399  1.6772 -0.1125
 8222SOL     OW36298   0.883   0.215  14.747 -0.0970  0.2490  0.0212
 8222SOL    HW136299   0.969   0.177  14.732  1.3576  3.1917  0.8622
 8222SOL    HW236300   0.905   0.297  14.790 -3.1211 -1.1933  4.2264
 8223SOL     OW36301   0.481   3.323   8.792 -0.2111  0.9070  0.1310
 8223SOL    HW136302   0.546   3.362   8.850 -0.9866  1.4620  0.6279
 8223SOL    HW236303   0.441   3.401   8.753 -0.0048  0.5005 -0.8900
 8224SOL     OW36304   1.820   2.419  14.574  0.5243 -0.4756  0.1252
 8224SOL    HW136305   1.802   2.348  14.512  1.5506 -0.5219 -0.1130
 8224SOL    HW236306   1.895   2.391  14.626  1.0336  0.7012  0.0147
 8225SOL     OW36307   0.100   4.672   1.526 -0.8691 -0.0213 -0.0254
 8225SOL    HW136308   0.079   4.592   1.574  1.7872 -0.0739  1.0302
 8225SOL    HW236309   0.078   0.001   1.594  2.5515  2.0963 -0.9187
 8226SOL     OW36310   1.918   4.603   5.725 -0.0519  0.3829  0.1741
 8226SOL    HW136311   1.947   4.540   5.660 -0.8835 -0.9487  1.1047
 8226SOL    HW236312   1.978   4.677   5.724  0.3417  0.0827  1.5696
 8227SOL     OW36313   0.041   3.669   8.703  0.4352  0.2959  0.3540
 8227SOL    HW136314   0.079   3.649   8.789  0.5797  1.8988  0.6575
 8227SOL    HW236315   4.727   3.751   8.709  0.2016  0.0936  1.1895
 8228SOL     OW36316   4.252   1.387  16.381 -0.7975  0.2739 -0.7506
 8228SOL    HW136317   4.216   1.298  16.386 -1.6625  0.5977 -1.1882
 8228SOL    HW236318   4.180   1.430  16.335  1.0925  3.9548 -0.2503
 8229SOL     OW36319   1.054   2.544   4.985 -0.2258 -0.3953  0.0250
 8229SOL    HW136320   1.087   2.538   5.075  1.0041 -0.2655 -0.4195
 8229SOL    HW236321   0.982   2.606   5.000  1.4306  1.8363 -1.4164
 8230SOL     OW36322   4.270   3.449   9.069  0.2812  0.1561 -0.1339
 8230SOL    HW136323   4.230   3.494   9.143 -0.3663  0.1538 -0.4828
 8230SOL    HW236324   4.258   3.519   9.004  0.8299 -0.4880 -0.9323
 8231SOL     OW36325   3.322   4.158   2.592 -0.5554  0.0645 -0.9576
 8231SOL    HW136326   3.386   4.221   2.559  2.4995 -2.2685  0.5448
 8231SOL    HW236327   3.377   4.080   2.593  0.4634  0.8206  2.6233
 8232SOL     OW36328   3.077   3.543   8.476 -0.3855  0.2490  0.2754
 8232SOL    HW136329   3.139   3.587   8.533 -1.8044  0.3365  1.7596
 8232SOL    HW236330   3.003   3.573   8.529  0.0699  0.5413  0.7404
 8233SOL     OW36331   1.248   4.005   1.986 -0.3392 -0.6885  0.2490
 8233SOL    HW136332   1.313   4.076   1.984 -1.5078  0.3970  1.0729
 8233SOL    HW236333   1.202   4.033   1.907  1.2129  0.5385 -0.2206
 8234SOL     OW36334   0.251   0.513   4.620 -0.3061  0.2158  0.4281
 8234SOL    HW136335   0.275   0.516   4.527 -1.2608 -2.4191  0.1023
 8234SOL    HW236336   0.211   0.600   4.622 -1.7157 -0.4496  1.6067
 8235SOL     OW36337   0.165   4.025   4.790 -0.0535 -0.3009  0.1057
 8235SOL    HW136338   0.146   3.933   4.808  1.7800 -0.6057  0.4898
 8235SOL    HW236339   0.097   4.048   4.725  1.0211  3.0422  0.1820
 8236SOL     OW36340   4.309   2.731  14.110 -0.1414 -0.1649 -0.1634
 8236SOL    HW136341   4.341   2.641  14.121 -0.9759 -0.5972 -1.2242
 8236SOL    HW236342   4.259   2.727  14.028 -0.8278 -1.6166  0.3230
 8237SOL     OW36343   3.036   1.865   3.469 -0.5759 -0.8651 -0.5497
 8237SOL    HW136344   2.964   1.849   3.409 -0.7296 -1.1474 -0.2894
 8237SOL    HW236345   3.108   1.884   3.409 -0.9568 -1.1522 -1.0965
 8238SOL     OW36346   3.963   0.983   8.675 -0.2378  0.1015 -0.2793
 8238SOL    HW136347   4.052   1.012   8.694 -0.5140  0.2654  0.7683
 8238SOL    HW236348   3.935   0.954   8.762 -0.3334  2.8403  0.6041
 8239SOL     OW36349   3.391   3.791   5.973 -1.0235  0.0921 -0.0168
 8239SOL    HW136350   3.338   3.870   5.975 -0.7007  0.3258 -0.7349
 8239SOL    HW236351   3.328   3.722   5.996  0.1845 -0.6424  1.1188
 8240SOL     OW36352   0.871   4.657   2.093 -0.5193 -0.6553  0.3133
 8240SOL    HW136353   0.841   4.631   2.006 -0.4685 -1.4274  0.5218
 8240SOL    HW236354   0.819   4.610   2.158 -0.2308 -1.1847  0.1616
 8241SOL     OW36355   0.040   2.030   4.726  0.2458 -0.3778  0.0316
 8241SOL    HW136356   0.056   1.948   4.679  0.3991  0.0941 -0.7349
 8241SOL    HW236357   4.679   2.030   4.740 -0.2609  1.6509 -3.5166
 8242SOL     OW36358   4.209   2.176   4.490  0.1687 -0.1667 -0.2760
 8242SOL    HW136359   4.120   2.149   4.514 -0.5536  2.3566 -0.0686
 8242SOL    HW236360   4.194   2.228   4.411 -0.1516 -0.1090 -0.1786
 8243SOL     OW36361   0.938   1.420  17.125 -0.4131  0.3925 -0.3276
 8243SOL    HW136362   0.913   1.513  17.126 -1.4555  0.1291 -1.0346
 8243SOL    HW236363   0.857   1.386  17.162 -0.0787 -0.3853 -0.3205
 8244SOL     OW36364   0.084   2.739  10.393 -0.2093  0.1375 -0.0724
 8244SOL    HW136365   4.732   2.699  10.394  0.2444 -0.8620 -0.5246
 8244SOL    HW236366   0.139   2.663  10.412 -2.4344 -1.3040  0.4801
 8245SOL     OW36367   1.339   3.168   0.837 -0.2426 -0.1610 -0.1306
 8245SOL    HW136368   1.400   3.230   0.876  1.2359 -1.6288 -0.1265
 8245SOL    HW236369   1.250   3.202   0.847  0.5467  1.7435  0.5538
 8246SOL     OW36370   4.062   3.458   5.700  0.1712 -0.3056 -0.7282
 8246SOL    HW136371   4.074   3.531   5.640  0.7775 -1.3273 -1.8366
 8246SOL    HW236372   4.016   3.499   5.773  1.3412 -1.8429  0.8771
 8247SOL     OW36373   3.826   4.309   4.864 -0.3582 -0.3346 -0.1553
 8247SOL    HW136374   3.823   4.404   4.853  1.9058 -0.3797 -1.0523
 8247SOL    HW236375   3.800   4.283   4.775 -1.8708  0.6898 -0.0156
 8248SOL     OW36376   3.012   1.302   2.328 -0.3527 -0.4117 -0.2155
 8248SOL    HW136377   2.992   1.314   2.421 -0.4979 -1.6900 -0.0845
 8248SOL    HW236378   2.967   1.218   2.324 -3.2193  1.0625  0.9055
 8249SOL     OW36379   3.763   0.767   5.438  0.1313 -0.1611  0.0153
 8249SOL    HW136380   3.742   0.703   5.506 -0.8889  1.0894  0.8729
 8249SOL    HW236381   3.819   0.831   5.482 -1.1355  1.1029 -0.1955
 8250SOL     OW36382   3.412   4.698   6.354 -0.9764  0.4380  0.1722
 8250SOL    HW136383   3.342   4.639   6.381 -0.1116  0.5745  2.7065
 8250SOL    HW236384   3.485   4.636   6.345 -3.2675 -1.9564 -1.7141
 8251SOL     OW36385   3.454   4.028   0.397 -0.0818 -0.4536 -0.0553
 8251SOL    HW136386   3.493   4.049   0.312 -0.1005  0.9401  0.2771
 8251SOL    HW236387   3.411   4.112   0.411  0.1570 -0.3977  0.3600
 8252SOL     OW36388   3.296   4.211   3.584  0.0476  0.4035  0.0308
 8252SOL    HW136389   3.243   4.170   3.516  0.9758  2.0023 -1.6567
 8252SOL    HW236390   3.288   4.292   3.534  0.0668  0.4883  0.1667
 8253SOL     OW36391   2.938   0.457   9.368  0.1538 -0.6486 -0.4231
 8253SOL    HW136392   3.015   0.458   9.425 -1.0515  0.7599  1.1950
 8253SOL    HW236393   2.974   0.519   9.305  0.7211 -0.1160  0.4135
 8254SOL     OW36394   4.300   2.984   4.551  0.5832  0.1165 -0.1665
 8254SOL    HW136395   4.243   3.058   4.534  0.3526 -0.2955 -1.2076
 8254SOL    HW236396   4.340   2.962   4.467  1.5040 -0.8881  0.5219
 8255SOL     OW36397   2.759   2.918   6.295 -0.4011  0.3174 -0.2670
 8255SOL    HW136398   2.813   2.840   6.288 -1.0827 -0.1302 -0.4844
 8255SOL    HW236399   2.675   2.874   6.280  0.7990 -2.4105  1.0515
 8256SOL     OW36400   2.336   2.845  14.735 -0.2333 -0.0006 -0.1809
 8256SOL    HW136401   2.377   2.762  14.759  0.2953  0.3584  0.1558
 8256SOL    HW236402   2.407   2.903  14.761 -1.2049  1.4840 -0.8514
 8257SOL     OW36403   0.861   2.875   6.236  0.1498 -0.0267  0.2048
 8257SOL    HW136404   0.867   2.797   6.182 -1.2403  0.5715 -0.8093
 8257SOL    HW236405   0.799   2.859   6.308 -2.9695  1.1972 -2.1780
 8258SOL     OW36406   2.926   3.371   6.752  0.3585  0.0426  0.4946
 8258SOL    HW136407   2.962   3.290   6.787  0.1906  0.3455  1.3634
 8258SOL    HW236408   2.839   3.338   6.727 -0.0796  1.5030  0.0931
 8259SOL     OW36409   3.740   3.415   5.680 -0.3642 -0.3459  0.3917
 8259SOL    HW136410   3.789   3.487   5.718 -1.0151 -0.4327  1.3913
 8259SOL    HW236411   3.777   3.343   5.732  2.8995  0.0761 -1.2996
 8260SOL     OW36412   3.861   1.091   8.439  0.3007  0.4363  0.0939
 8260SOL    HW136413   3.912   1.053   8.511  0.3280  1.1134  0.4344
 8260SOL    HW236414   3.855   1.183   8.465 -0.8172 -0.5053  3.0669
 8261SOL     OW36415   4.372   1.439   1.405 -0.2705  0.7632 -0.1586
 8261SOL    HW136416   4.339   1.504   1.342 -2.2383  0.1730  0.2592
 8261SOL    HW236417   4.467   1.440   1.392 -0.2668 -0.5057 -0.1564
 8262SOL     OW36418   3.837   2.867   6.334  0.2647 -0.1322  0.6323
 8262SOL    HW136419   3.853   2.856   6.240  0.3206 -0.8776  0.7306
 8262SOL    HW236420   3.922   2.867   6.377  1.3386  0.4202 -1.4721
 8263SOL     OW36421   0.887   1.258   3.815  0.1093 -0.0371 -0.6675
 8263SOL    HW136422   0.968   1.250   3.864  0.0184  2.3295 -0.1350
 8263SOL    HW236423   0.913   1.313   3.741 -0.3876 -2.0844 -2.3806
 8264SOL     OW36424   1.439   0.404   0.983  0.0131  0.3054  0.2441
 8264SOL    HW136425   1.479   0.325   0.947  0.2058  0.4326  0.1788
 8264SOL    HW236426   1.484   0.459   0.919  2.4722 -1.3619  0.5449
 8265SOL     OW36427   1.360   4.573   7.829 -0.0261  0.6626  0.2798
 8265SOL    HW136428   1.327   4.489   7.861  0.0207  1.3921  2.2060
 8265SOL    HW236429   1.285   4.611   7.784 -2.0499 -2.5083  0.9859
 8266SOL     OW36430   1.263   2.778  16.484  0.1128 -0.5597  0.8179
 8266SOL    HW136431   1.342   2.797  16.534  0.6417  1.7448 -0.8474
 8266SOL    HW236432   1.212   2.729  16.547 -1.2675 -1.2148 -0.7961
 8267SOL     OW36433   3.867   2.173   4.266 -0.2196 -0.0082 -0.8470
 8267SOL    HW136434   3.897   2.264   4.275  0.7772 -0.4482  0.4028
 8267SOL    HW236435   3.883   2.145   4.356 -0.2093  1.3273 -0.4386
 8268SOL     OW36436   2.399   3.039   4.916 -0.1222 -0.2601 -0.3111
 8268SOL    HW136437   2.389   3.016   4.824  0.2760  3.0752 -1.2168
 8268SOL    HW236438   2.481   3.088   4.912 -1.4975  2.2538  1.6780
 8269SOL     OW36439   3.345   2.541   9.045 -0.4052  0.3667  0.9500
 8269SOL    HW136440   3.255   2.573   9.056  0.5449  3.3011  0.1780
 8269SOL    HW236441   3.401   2.617   9.032  0.5306 -0.6005 -0.5916
 8270SOL     OW36442   1.039   1.826   3.222  0.3332  0.3941 -0.3146
 8270SOL    HW136443   1.105   1.815   3.154  0.4221 -1.3895  0.0608
 8270SOL    HW236444   1.087   1.880   3.285  0.2139 -0.4270  0.4737
 8271SOL     OW36445   2.435   1.618  15.570  0.3013 -0.7024  0.3864
 8271SOL    HW136446   2.387   1.536  15.585  0.0471 -0.3519  1.5260
 8271SOL    HW236447   2.373   1.678  15.529 -0.7537 -1.4608  0.8643
 8272SOL     OW36448   3.810   2.622   9.382  0.8304  0.6285 -0.6166
 8272SOL    HW136449   3.807   2.527   9.373  0.2384  0.4001  2.0481
 8272SOL    HW236450   3.842   2.627   9.472 -0.0516 -0.9945 -0.2177
 8273SOL     OW36451   2.295   4.406  10.726 -0.1458  0.0852  0.0516
 8273SOL    HW136452   2.286   4.366  10.639  0.4068  1.5509 -0.6791
 8273SOL    HW236453   2.271   4.334  10.785 -0.6089  1.0786  1.0847
 8274SOL     OW36454   2.117   0.303   5.133 -0.0913  0.2539 -0.3919
 8274SOL    HW136455   2.153   0.385   5.101 -0.9156  1.1181  0.8863
 8274SOL    HW236456   2.125   0.313   5.228 -0.9776 -0.6957 -0.2153
 8275SOL     OW36457   3.543   2.974   5.410  0.0774  0.3340 -0.3721
 8275SOL    HW136458   3.580   3.054   5.373 -1.1591  0.5232 -1.2235
 8275SOL    HW236459   3.480   2.957   5.340 -0.8505 -1.0122  0.7950
 8276SOL     OW36460   1.378   1.469  10.872  0.4041 -0.4219  0.2098
 8276SOL    HW136461   1.408   1.396  10.926 -1.1570 -1.4501 -0.3056
 8276SOL    HW236462   1.443   1.483  10.804 -0.4073  1.4784 -0.1829
 8277SOL     OW36463   0.041   4.531   7.929  0.0879 -0.1039 -0.5124
 8277SOL    HW136464   4.720   4.516   7.852 -1.5357  0.2260  0.5844
 8277SOL    HW236465   4.701   4.518   7.989  0.1908  2.6477  0.2226
 8278SOL     OW36466   1.563   4.646   6.431  0.0313 -0.4154 -0.4814
 8278SOL    HW136467   1.623   4.715   6.404 -0.2137  0.7104  1.9233
 8278SOL    HW236468   1.629   4.593   6.476 -0.1459 -1.2329 -1.1708
 8279SOL     OW36469   2.253   1.145   0.373 -0.1633  0.2242  0.1436
 8279SOL    HW136470   2.293   1.230   0.357  1.0717 -0.3822 -0.0043
 8279SOL    HW236471   2.260   1.094   0.292 -2.2838  1.0629 -0.5661
 8280SOL     OW36472   4.395   3.092   2.070  0.4447 -0.1747 -0.9328
 8280SOL    HW136473   4.455   3.060   2.137 -0.1192  2.2219  0.7361
 8280SOL    HW236474   4.310   3.070   2.109  1.9265 -3.5703  0.3776
 8281SOL     OW36475   1.742   4.137   1.190  0.0713 -0.2051  0.3942
 8281SOL    HW136476   1.831   4.129   1.155 -0.1483 -3.2394  0.5769
 8281SOL    HW236477   1.767   4.143   1.282 -1.3743  1.2805  0.7009
 8282SOL     OW36478   3.195   4.662  16.781  0.2846 -0.4668  0.6536
 8282SOL    HW136479   3.275   4.628  16.820  0.0087 -2.7589 -0.7760
 8282SOL    HW236480   3.122   4.615  16.823 -1.1874  0.5202 -0.7955
 8283SOL     OW36481   2.934   1.388   4.519 -0.4523  0.0092 -0.3885
 8283SOL    HW136482   2.844   1.369   4.492 -0.6795 -0.5990  0.8288
 8283SOL    HW236483   2.976   1.427   4.442 -1.0411 -0.2307 -0.8369
 8284SOL     OW36484   0.217   3.046   5.655 -0.2993 -0.0071 -0.9792
 8284SOL    HW136485   0.250   2.956   5.662 -1.7451 -0.4167  0.3177
 8284SOL    HW236486   0.157   3.039   5.729 -0.5646 -0.7288 -1.2594
 8285SOL     OW36487   1.258   1.159   7.870 -0.2678  0.2711  0.2116
 8285SOL    HW136488   1.204   1.197   7.801  0.1692 -0.2848 -0.4457
 8285SOL    HW236489   1.343   1.127   7.838 -1.6192 -1.9101 -1.2025
 8286SOL     OW36490   3.630   1.920   7.785 -0.4360 -0.1715 -0.1666
 8286SOL    HW136491   3.564   1.863   7.824 -1.1353  0.8380  0.1317
 8286SOL    HW236492   3.685   1.859   7.736 -0.8461 -0.5708 -0.1218
 8287SOL     OW36493   3.179   3.094   1.166 -0.3980 -0.3056 -0.0746
 8287SOL    HW136494   3.236   3.037   1.218 -1.5131 -1.8274 -0.5179
 8287SOL    HW236495   3.123   3.024   1.133  1.2696  0.2722 -4.0610
 8288SOL     OW36496   0.424   3.093   8.964 -0.0094  0.3872 -0.5444
 8288SOL    HW136497   0.503   3.067   8.916  0.1983 -0.8814  0.4943
 8288SOL    HW236498   0.419   3.180   8.926 -2.1444  0.0562 -0.9951
 8289SOL     OW36499   1.225   2.451   6.396 -0.5784  0.0212  0.2240
 8289SOL    HW136500   1.227   2.538   6.436  1.5240 -0.5854  1.4125
 8289SOL    HW236501   1.185   2.397   6.465 -0.1795  0.8388  1.0824
 8290SOL     OW36502   4.454   0.928  16.295  0.1309  0.3674  0.3614
 8290SOL    HW136503   4.414   0.967  16.372 -0.1351 -0.6968  0.7602
 8290SOL    HW236504   4.480   1.009  16.252  0.4705 -0.2967 -0.6896
 8291SOL     OW36505   4.341   4.397   0.349  0.2036  0.0546 -0.2584
 8291SOL    HW136506   4.373   4.421   0.262 -0.7901 -0.2924 -0.7238
 8291SOL    HW236507   4.396   4.450   0.407 -1.4189 -0.8840  2.1440
 8292SOL     OW36508   0.663   0.525  14.996  0.1438  0.1096  0.2121
 8292SOL    HW136509   0.665   0.621  14.988  0.5191  0.0346 -0.6683
 8292SOL    HW236510   0.579   0.513  15.039  1.3660 -0.1832  2.5145
 8293SOL     OW36511   3.845   3.635   8.645  0.3631  0.3848 -0.2844
 8293SOL    HW136512   3.789   3.713   8.651  0.4645  0.6322 -2.5180
 8293SOL    HW236513   3.897   3.650   8.724 -1.0162 -0.6240  0.8206
 8294SOL     OW36514   4.255   3.924   2.317  0.2645 -0.5200  0.3068
 8294SOL    HW136515   4.276   3.991   2.382 -0.9114  1.6376 -1.5310
 8294SOL    HW236516   4.191   3.864   2.355  0.6572 -0.8893  0.3901
 8295SOL     OW36517   1.908   1.059  11.809  0.2053  0.6890 -0.4113
 8295SOL    HW136518   1.881   1.000  11.880  0.9427  0.2717 -0.4766
 8295SOL    HW236519   1.872   1.013  11.733 -0.3458  0.8426 -0.2474
 8296SOL     OW36520   1.839   3.987   7.894 -0.2707  0.4936  0.3054
 8296SOL    HW136521   1.886   4.064   7.862 -1.9462  1.3513 -0.0960
 8296SOL    HW236522   1.883   3.982   7.979  0.9160  0.5181 -0.3087
 8297SOL     OW36523   2.482   2.749  10.203  0.5070  0.4014  0.0278
 8297SOL    HW136524   2.574   2.739  10.179  0.6262  0.8564  0.2846
 8297SOL    HW236525   2.430   2.686  10.154  0.3261  2.0693 -1.9565
 8298SOL     OW36526   0.872   1.976   6.974 -0.6688 -0.0919 -0.6840
 8298SOL    HW136527   0.863   1.883   6.954 -0.7072 -0.0429 -0.8974
 8298SOL    HW236528   0.790   1.977   7.023 -0.0356 -0.6043  0.3706
 8299SOL     OW36529   3.511   2.657   7.290 -0.2154  0.3755  0.0805
 8299SOL    HW136530   3.588   2.713   7.299  0.7156 -0.9366  0.3379
 8299SOL    HW236531   3.529   2.601   7.366  0.0223 -0.3678 -0.5194
 8300SOL     OW36532   0.638   4.272   8.291 -0.1925 -0.5882  0.0027
 8300SOL    HW136533   0.598   4.204   8.236  2.5816 -3.4889  1.6095
 8300SOL    HW236534   0.559   4.323   8.311  0.1726 -0.8580  2.0929
 8301SOL     OW36535   0.508   0.770   2.101 -0.1634  0.0278  0.3619
 8301SOL    HW136536   0.553   0.853   2.083 -1.5428  0.3801 -1.4088
 8301SOL    HW236537   0.513   0.767   2.197  0.1529  0.9183  0.3731
 8302SOL     OW36538   2.724   0.073   5.945  0.2322 -0.5987  0.2694
 8302SOL    HW136539   2.697   0.164   5.934 -0.6980 -1.0044 -0.7735
 8302SOL    HW236540   2.701   0.041   5.858 -1.8516  1.1268  0.1899
 8303SOL     OW36541   2.220   2.692   2.259 -0.4088 -0.1669 -0.3003
 8303SOL    HW136542   2.154   2.735   2.314  1.4193  0.4978  1.3558
 8303SOL    HW236543   2.294   2.720   2.312 -1.5200 -0.3043  1.3420
 8304SOL     OW36544   0.161   0.930  15.182  0.5147  0.4296  0.3311
 8304SOL    HW136545   0.147   1.014  15.138 -2.1918  0.5879  1.5049
 8304SOL    HW236546   0.146   0.874  15.106 -1.5535  1.3880  0.0566
 8305SOL     OW36547   3.354   0.136   4.952  0.0722  0.3988  0.1693
 8305SOL    HW136548   3.366   0.223   4.914  1.1869  1.5827  3.2250
 8305SOL    HW236549   3.420   0.142   5.021  0.2202  0.3688  0.0308
 8306SOL     OW36550   3.522   2.403   3.352  0.4264  0.5444 -0.2250
 8306SOL    HW136551   3.602   2.384   3.400  1.0565 -0.8619 -1.8521
 8306SOL    HW236552   3.470   2.444   3.421  0.2636 -1.8243  1.0506
 8307SOL     OW36553   3.373   1.788   8.735  0.5367 -0.5347 -0.8202
 8307SOL    HW136554   3.399   1.812   8.824 -1.9622  1.0257 -0.5277
 8307SOL    HW236555   3.383   1.870   8.688  0.1522 -1.6114 -2.7544
 8308SOL     OW36556   3.952   0.955   4.823  0.1612  0.0140 -0.0379
 8308SOL    HW136557   4.015   0.935   4.754  1.9595  0.1836  1.5339
 8308SOL    HW236558   4.003   1.013   4.880 -0.1088  1.3223 -1.1413
 8309SOL     OW36559   4.290   3.674   1.999 -0.4738 -0.6648 -0.4015
 8309SOL    HW136560   4.231   3.609   2.039  0.0952 -1.1946 -0.4182
 8309SOL    HW236561   4.275   3.654   1.907  0.3332 -0.7451 -0.5117
 8310SOL     OW36562   2.394   4.476  16.106 -0.4122  0.2792  0.3567
 8310SOL    HW136563   2.365   4.482  16.197  1.3237 -0.8614  0.9924
 8310SOL    HW236564   2.422   4.384  16.103  0.1519  0.4101  1.5458
 8311SOL     OW36565   4.625   1.311  12.353 -0.4594 -0.1975  1.0649
 8311SOL    HW136566   4.667   1.345  12.274 -1.2172 -2.7316 -0.4354
 8311SOL    HW236567   4.646   1.218  12.349  2.6538  0.4600  1.8647
 8312SOL     OW36568   0.038   2.956   4.907 -0.0308  0.9622 -0.2030
 8312SOL    HW136569   0.071   2.892   4.970  0.6558 -1.0227 -2.5844
 8312SOL    HW236570   0.094   2.942   4.831 -1.8021 -0.8546 -1.1540
 8313SOL     OW36571   0.579   2.551  13.828  0.2123  0.3590  0.3723
 8313SOL    HW136572   0.584   2.647  13.834 -0.8500  0.6888 -4.0691
 8313SOL    HW236573   0.550   2.530  13.917  1.6442  1.4297  1.1024
 8314SOL     OW36574   0.948   2.554   2.104 -0.1872 -0.3724  0.1250
 8314SOL    HW136575   0.945   2.635   2.054  2.7337  1.6458  3.1954
 8314SOL    HW236576   0.962   2.578   2.196  0.6080 -1.5602  0.3178
 8315SOL     OW36577   0.148   3.445   1.931 -0.3602 -0.2108 -0.5648
 8315SOL    HW136578   0.081   3.457   1.998 -1.9481  1.2560 -2.4197
 8315SOL    HW236579   0.222   3.423   1.988 -2.1235  0.7253  2.0829
 8316SOL     OW36580   2.915   0.673   9.740 -0.2395  0.1356  0.5069
 8316SOL    HW136581   2.979   0.623   9.690  0.2973 -0.9511  2.2506
 8316SOL    HW236582   2.879   0.733   9.676  0.2695 -0.7064 -0.5704
 8317SOL     OW36583   1.724   2.715  13.641 -0.0515  0.0342  0.4531
 8317SOL    HW136584   1.665   2.713  13.717 -0.1544 -1.2817  0.3359
 8317SOL    HW236585   1.702   2.798  13.599  1.4830  0.3407  0.2628
 8318SOL     OW36586   2.167   2.053   4.660  0.5813  0.2531  0.3495
 8318SOL    HW136587   2.205   2.047   4.572 -2.6269  2.5716 -1.1904
 8318SOL    HW236588   2.151   2.147   4.664 -2.5599 -0.2480 -0.1312
 8319SOL     OW36589   1.054   4.677   6.266  0.2491  0.6853 -0.5338
 8319SOL    HW136590   1.134   4.690   6.317  0.4809  1.6992 -1.1549
 8319SOL    HW236591   0.986   4.711   6.325  0.3615 -0.3018  0.1577
 8320SOL     OW36592   4.303   2.463   3.204 -0.0232 -0.0309  0.4324
 8320SOL    HW136593   4.360   2.537   3.224  2.1207 -1.5183 -0.1819
 8320SOL    HW236594   4.353   2.410   3.142  1.9736  1.7335  0.5336
 8321SOL     OW36595   2.006   3.318  14.028  0.0011  0.3590  0.4435
 8321SOL    HW136596   1.930   3.370  14.002  0.2011  1.5967  2.3804
 8321SOL    HW236597   2.055   3.382  14.080 -0.3411 -0.0323  1.2506
 8322SOL     OW36598   3.730   2.217   4.758  0.1383 -0.0498 -0.0036
 8322SOL    HW136599   3.699   2.254   4.675 -0.5586 -0.2309  0.1788
 8322SOL    HW236600   3.781   2.296   4.776 -2.5288  1.6857 -0.2067
 8323SOL     OW36601   4.258   2.393   8.561  0.0759 -0.2525 -0.6976
 8323SOL    HW136602   4.187   2.338   8.528 -0.8253  0.1913  0.4704
 8323SOL    HW236603   4.291   2.416   8.474  1.5748 -1.5400 -0.4615
 8324SOL     OW36604   1.233   3.996   6.048  0.0843 -0.0302  0.5759
 8324SOL    HW136605   1.299   4.055   6.013 -2.6356  1.1082 -2.6736
 8324SOL    HW236606   1.150   4.038   6.027  0.0430  1.4473  3.6321
 8325SOL     OW36607   2.245   1.651   8.825  0.3260  0.3061 -0.1847
 8325SOL    HW136608   2.177   1.586   8.839 -0.8691  1.6406  0.2443
 8325SOL    HW236609   2.214   1.716   8.762  1.3773  1.9661  0.9976
 8326SOL     OW36610   0.277   2.094   4.099 -0.3213 -0.1737 -0.3118
 8326SOL    HW136611   0.215   2.091   4.027  1.2863 -1.7042 -1.6251
 8326SOL    HW236612   0.317   2.177   4.074 -0.9204  0.3817  0.5901
 8327SOL     OW36613   1.459   3.814   1.840 -0.1398  0.3741  0.1911
 8327SOL    HW136614   1.529   3.861   1.795  1.7219 -1.2487  1.3854
 8327SOL    HW236615   1.421   3.889   1.885  2.0647  0.9978  1.0393
 8328SOL     OW36616   3.901   0.274   2.160 -0.3063  0.0870  0.3235
 8328SOL    HW136617   3.927   0.184   2.137  0.7508  0.8754 -1.5568
 8328SOL    HW236618   3.916   0.276   2.254 -3.5291  2.1017  0.7914
 8329SOL     OW36619   4.038   3.392   7.162  0.8272 -0.1234 -0.1629
 8329SOL    HW136620   3.956   3.430   7.132 -1.2309 -2.2565  2.8038
 8329SOL    HW236621   4.014   3.395   7.255 -3.3243  0.7003 -1.2815
 8330SOL     OW36622   1.972   2.916  16.764 -0.0139 -0.2383 -0.0723
 8330SOL    HW136623   1.895   2.866  16.793 -0.8637  0.9088 -0.3214
 8330SOL    HW236624   1.974   2.893  16.671  0.9854  0.3163 -0.1851
 8331SOL     OW36625   0.060   4.066  10.988 -0.4257  0.3660 -0.0893
 8331SOL    HW136626   0.116   4.031  11.056  1.2109 -1.5726 -2.4302
 8331SOL    HW236627   0.115   4.099  10.916  0.2587 -1.5391 -0.4261
 8332SOL     OW36628   1.116   1.133   6.909 -0.2338 -0.2786 -0.2531
 8332SOL    HW136629   1.081   1.052   6.946 -1.0268  0.1192 -0.1277
 8332SOL    HW236630   1.067   1.139   6.827 -0.4257 -2.8777 -0.3171
 8333SOL     OW36631   3.781   3.966   3.670  0.1662 -0.5554  0.1516
 8333SOL    HW136632   3.851   3.966   3.735 -1.2627 -2.3117  1.6838
 8333SOL    HW236633   3.712   3.914   3.711 -0.2778  0.7133  1.0436
 8334SOL     OW36634   4.381   2.507   4.702 -0.0606 -0.6782 -0.1652
 8334SOL    HW136635   4.443   2.579   4.694 -1.1582  0.3811  1.0531
 8334SOL    HW236636   4.352   2.533   4.789 -0.5937 -0.2888 -0.4542
 8335SOL     OW36637   1.243   0.493   4.130 -0.0832 -0.5788  0.7424
 8335SOL    HW136638   1.215   0.408   4.164 -0.2390 -0.4537  0.9280
 8335SOL    HW236639   1.188   0.556   4.176  1.5005  0.6084  1.0106
 8336SOL     OW36640   0.674   1.749   7.207  0.1878  0.2758 -0.1089
 8336SOL    HW136641   0.665   1.837   7.172 -0.0992 -0.0820 -0.9400
 8336SOL    HW236642   0.755   1.745   7.258 -1.4241 -0.8176  2.3643
 8337SOL     OW36643   0.692   3.003  14.232  0.0239  0.9478 -0.0825
 8337SOL    HW136644   0.732   3.090  14.225  1.8853  0.0955  0.1324
 8337SOL    HW236645   0.627   3.001  14.161  1.0799 -0.6773 -0.9975
 8338SOL     OW36646   2.404   4.539   2.176 -0.5312  0.1230 -0.3255
 8338SOL    HW136647   2.357   4.459   2.153  2.1750 -1.3010 -0.9567
 8338SOL    HW236648   2.326   4.594   2.179 -0.5073  0.2158 -1.2218
 8339SOL     OW36649   1.468   1.718   7.184  0.9128  0.4083 -0.2287
 8339SOL    HW136650   1.445   1.811   7.181  1.6786  0.6311  0.9098
 8339SOL    HW236651   1.560   1.721   7.158  0.2222 -1.7068 -2.9492
 8340SOL     OW36652   3.275   3.376   8.132  0.8745  0.7034 -0.2956
 8340SOL    HW136653   3.346   3.426   8.173  0.5476  0.8005  0.1624
 8340SOL    HW236654   3.202   3.436   8.151  0.2678  0.1827 -0.9703
 8341SOL     OW36655   0.017   4.600  14.831 -0.2409  0.1648  0.2050
 8341SOL    HW136656   0.102   4.574  14.865 -0.5495 -0.4047  0.5400
 8341SOL    HW236657   4.729   4.667  14.896  0.7219 -2.0237  2.8046
 8342SOL     OW36658   2.726   2.931   7.856  0.0989 -0.3335 -0.0784
 8342SOL    HW136659   2.808   2.968   7.888  0.9785 -1.8316 -0.5927
 8342SOL    HW236660   2.716   2.872   7.931 -0.1760 -0.5601 -0.2920
 8343SOL     OW36661   0.023   2.813   7.266  0.8212  0.0115 -0.3058
 8343SOL    HW136662   0.049   2.838   7.177 -2.1600  0.4429 -1.0482
 8343SOL    HW236663   4.673   2.858   7.275  2.1634  2.4942 -0.1561
 8344SOL     OW36664   4.325   0.499   6.222  0.5374  0.3582 -0.2076
 8344SOL    HW136665   4.372   0.473   6.143  2.3002  2.0209  0.3053
 8344SOL    HW236666   4.273   0.420   6.238  0.7734  0.1921 -0.2644
 8345SOL     OW36667   4.278   2.887  17.545 -0.2869  0.3133  0.5390
 8345SOL    HW136668   4.215   2.894  17.473  1.0353  0.0784 -0.6492
 8345SOL    HW236669   4.368   2.893  17.514  0.2687 -1.5972  1.7780
 8346SOL     OW36670   0.038   4.530  13.816 -0.4611 -0.5092  0.0657
 8346SOL    HW136671   0.104   4.525  13.885  0.8293 -0.7149 -1.1666
 8346SOL    HW236672   4.692   4.504  13.862  0.0693 -1.1488  0.6403
 8347SOL     OW36673   1.582   3.982   6.604  0.7297  0.0167  0.2904
 8347SOL    HW136674   1.538   3.979   6.519  1.7990 -0.2483 -0.2640
 8347SOL    HW236675   1.590   4.075   6.625  0.8168  0.6702 -2.6147
 8348SOL     OW36676   1.874   2.598  15.913  0.0880  0.3310 -0.0814
 8348SOL    HW136677   1.881   2.682  15.959 -0.7774  0.0475  0.5725
 8348SOL    HW236678   1.938   2.597  15.842 -0.2286 -1.4372 -0.3397
 8349SOL     OW36679   1.288   2.975   1.693  0.0065 -0.2352  0.3443
 8349SOL    HW136680   1.239   2.920   1.633  0.1514 -0.2495  0.2395
 8349SOL    HW236681   1.349   3.025   1.639  1.7702 -0.9221  1.7112
 8350SOL     OW36682   3.561   1.136   8.623 -0.0777  0.5463 -0.2888
 8350SOL    HW136683   3.567   1.194   8.546 -0.5146  1.0525  0.0563
 8350SOL    HW236684   3.650   1.101   8.619  0.2494  1.3461 -0.1200
 8351SOL     OW36685   2.835   2.345   1.572 -0.3525  0.1370 -0.0328
 8351SOL    HW136686   2.748   2.305   1.566 -0.4053  0.5515 -2.2417
 8351SOL    HW236687   2.838   2.394   1.654 -0.8304 -1.3728  0.8818
 8352SOL     OW36688   3.023   3.723   4.903  0.3032  0.1878 -0.1111
 8352SOL    HW136689   3.108   3.762   4.922 -0.5568  1.6229  0.7863
 8352SOL    HW236690   2.962   3.792   4.926  1.5043  1.0620  0.4380
 8353SOL     OW36691   0.367   4.000   0.680  0.6218 -0.1177  0.4309
 8353SOL    HW136692   0.336   4.087   0.653  0.2454  0.6313  3.2142
 8353SOL    HW236693   0.412   4.022   0.762 -0.0822  0.2380  0.7202
 8354SOL     OW36694   2.206   4.186   5.505  0.5250 -0.1339 -0.5513
 8354SOL    HW136695   2.119   4.147   5.497 -0.6821  2.2583  0.9549
 8354SOL    HW236696   2.239   4.133   5.578  2.3917  2.3520  0.4412
 8355SOL     OW36697   4.619   3.935   4.952  0.3015 -0.2746  0.0781
 8355SOL    HW136698   4.694   3.884   4.922  0.1961 -1.3645  1.6448
 8355SOL    HW236699   4.654   3.993   5.020 -0.0006 -0.3145  0.2668
 8356SOL     OW36700   3.334   4.672   0.403  0.3086 -0.1062 -0.6439
 8356SOL    HW136701   3.350   0.007   0.339  3.5777 -0.1659  0.1456
 8356SOL    HW236702   3.398   4.688   0.472  1.2540 -2.6311 -0.9583
 8357SOL     OW36703   0.521   2.558  14.092  0.0646 -0.2409 -0.0864
 8357SOL    HW136704   0.559   2.478  14.128 -0.9301 -1.1507 -1.0400
 8357SOL    HW236705   0.480   2.596  14.169  0.4797 -1.4273  0.7161
 8358SOL     OW36706   1.321   0.598   8.119 -0.6524 -0.3987  0.5910
 8358SOL    HW136707   1.351   0.511   8.147  1.9324  0.3269  0.1182
 8358SOL    HW236708   1.333   0.641   8.203  1.2373  1.4490 -0.6302
 8359SOL     OW36709   1.765   1.202   6.713  0.7121  0.2466  0.5295
 8359SOL    HW136710   1.724   1.176   6.631  2.7073  0.2545 -0.4587
 8359SOL    HW236711   1.807   1.119   6.739 -2.2560 -1.3882  0.0824
 8360SOL     OW36712   0.633   4.695   5.490  0.4216 -0.2402 -0.4426
 8360SOL    HW136713   0.552   4.692   5.440 -0.0251 -1.6366  0.3679
 8360SOL    HW236714   0.689   4.689   5.412 -0.7408 -0.9152 -1.2271
 8361SOL     OW36715   1.266   2.755   7.660 -0.1620  0.2725 -0.3465
 8361SOL    HW136716   1.198   2.733   7.597 -0.1090 -1.1388  0.0986
 8361SOL    HW236717   1.248   2.703   7.739  0.6582 -2.3494 -1.8935
 8362SOL     OW36718   2.388   3.598  15.261 -0.4100  0.3710  0.4272
 8362SOL    HW136719   2.343   3.642  15.334  2.7492  2.5495  1.0867
 8362SOL    HW236720   2.378   3.509  15.295  2.0109 -0.1279 -0.1534
 8363SOL     OW36721   2.043   3.595   2.764  0.1923  0.4379 -0.1766
 8363SOL    HW136722   1.977   3.571   2.700 -0.9605  1.5458  0.5915
 8363SOL    HW236723   2.043   3.690   2.760  2.9256  0.3220 -2.8092
 8364SOL     OW36724   1.897   3.528   9.167 -0.2583 -0.8345  0.0379
 8364SOL    HW136725   1.853   3.596   9.218 -0.7689 -0.8490 -0.3820
 8364SOL    HW236726   1.857   3.447   9.197 -1.5320 -0.1232  0.2541
 8365SOL     OW36727   3.288   1.997   7.332 -0.1977 -0.4438 -0.2523
 8365SOL    HW136728   3.369   2.022   7.376 -0.9318 -1.6847  1.7692
 8365SOL    HW236729   3.256   1.927   7.388 -1.0848  0.7506  0.7201
 8366SOL     OW36730   3.140   3.475   6.615  0.6593 -0.0945 -0.2261
 8366SOL    HW136731   3.057   3.460   6.661  0.1401 -0.6509 -1.3507
 8366SOL    HW236732   3.145   3.394   6.564  0.6857  0.7297 -1.5064
 8367SOL     OW36733   1.551   0.654   3.454  0.2054 -0.6112  0.0737
 8367SOL    HW136734   1.481   0.717   3.434  1.7423  0.3601 -2.2943
 8367SOL    HW236735   1.566   0.630   3.362 -2.2243 -0.1678 -0.4571
 8368SOL     OW36736   3.579   0.804   7.329 -0.0505 -0.5296  0.3598
 8368SOL    HW136737   3.577   0.709   7.339 -1.3903 -0.5080  0.3611
 8368SOL    HW236738   3.654   0.821   7.272 -0.3125  0.1226  0.2175
 8369SOL     OW36739   2.373   2.983  10.149 -0.2291  0.3233  0.3694
 8369SOL    HW136740   2.409   2.896  10.167 -0.4880 -0.2646 -1.9123
 8369SOL    HW236741   2.381   2.992  10.054  0.4111  1.8904  0.5634
 8370SOL     OW36742   4.053   0.593  12.061  0.4502  0.2036  0.6236
 8370SOL    HW136743   4.079   0.654  11.992 -1.1416  1.9811  1.5922
 8370SOL    HW236744   3.995   0.537  12.009  0.8024 -0.0521  0.5120
 8371SOL     OW36745   0.410   3.335   1.447  0.7523 -0.6924 -0.1880
 8371SOL    HW136746   0.355   3.304   1.375  0.1218  1.4966 -0.6560
 8371SOL    HW236747   0.353   3.387   1.504  1.2903  1.2385 -1.4318
 8372SOL     OW36748   0.722   2.461   0.644  0.1032 -0.1030  0.1145
 8372SOL    HW136749   0.671   2.385   0.672  0.9527 -1.2022 -1.3507
 8372SOL    HW236750   0.745   2.514   0.721 -0.0564  0.5297 -0.2796
 8373SOL     OW36751   2.451   0.720   8.609  0.1535 -0.0432  0.6763
 8373SOL    HW136752   2.503   0.683   8.537  1.3918  0.7486  1.1687
 8373SOL    HW236753   2.362   0.713   8.576  0.5296  0.3688 -0.4088
 8374SOL     OW36754   2.663   1.443   3.774  0.0103  0.3462  0.6398
 8374SOL    HW136755   2.677   1.456   3.868  4.0484  1.6887 -0.1439
 8374SOL    HW236756   2.634   1.529   3.743 -1.7764 -0.3067  0.4838
 8375SOL     OW36757   3.243   1.556   6.200  0.2882  0.1676  0.1986
 8375SOL    HW136758   3.152   1.584   6.212  0.1734 -0.1407  0.0303
 8375SOL    HW236759   3.281   1.642   6.180  1.6173  0.0891  2.3466
 8376SOL     OW36760   1.805   2.522   4.102 -0.1763 -0.2667  0.2998
 8376SOL    HW136761   1.724   2.472   4.095 -0.7188  0.8248 -1.4752
 8376SOL    HW236762   1.774   2.609   4.129  2.0577  0.8032 -0.5063
 8377SOL     OW36763   2.905   2.115   2.552  0.5723  0.4879  0.1531
 8377SOL    HW136764   2.957   2.080   2.480 -1.2759  3.4095 -2.6519
 8377SOL    HW236765   2.818   2.081   2.529  1.0191 -0.4970 -0.0803
 8378SOL     OW36766   2.471   3.889   7.612  0.0296 -0.6956 -0.2747
 8378SOL    HW136767   2.563   3.889   7.587  0.4739  1.8091  1.2631
 8378SOL    HW236768   2.481   3.878   7.707  0.5186 -1.8990 -0.4711
 8379SOL     OW36769   0.039   0.735   7.628 -0.2860 -0.2736  0.7915
 8379SOL    HW136770   0.014   0.729   7.536 -1.3079 -2.9055  1.2446
 8379SOL    HW236771   0.129   0.703   7.622  0.0896  0.7223  1.1638
 8380SOL     OW36772   3.243   0.541  10.751 -0.1240  0.2088  0.2338
 8380SOL    HW136773   3.236   0.493  10.669 -0.1765 -2.8237  1.9983
 8380SOL    HW236774   3.321   0.500  10.789 -0.6371  0.2288  1.3298
 8381SOL     OW36775   2.378   0.169   6.862 -0.5405 -0.5011 -0.0895
 8381SOL    HW136776   2.404   0.235   6.798 -0.9407  1.3939  1.6818
 8381SOL    HW236777   2.283   0.162   6.852 -0.6654 -0.1858  0.8802
 8382SOL     OW36778   4.173   1.481   4.538  0.2791 -0.6542  0.4656
 8382SOL    HW136779   4.269   1.486   4.535  0.0849  1.8026 -1.7790
 8382SOL    HW236780   4.166   1.388   4.520 -0.6237 -0.3901 -0.5368
 8383SOL     OW36781   2.409   4.704   7.908 -0.0654  0.8978  0.0695
 8383SOL    HW136782   2.314   4.711   7.919 -0.3632 -0.1737 -1.6930
 8383SOL    HW236783   2.433   0.059   7.933  0.8619  0.7472 -0.3122
 8384SOL     OW36784   4.678   3.007   7.575 -0.0687  0.0603  0.0671
 8384SOL    HW136785   4.703   3.085   7.525 -2.4029  0.0786 -1.0495
 8384SOL    HW236786   4.584   3.013   7.557 -0.1435 -0.8330  0.1479
 8385SOL     OW36787   0.529   0.017  17.045  0.0653  1.0758 -0.5698
 8385SOL    HW136788   0.520   4.665  17.003 -2.4291  0.0197  2.0535
 8385SOL    HW236789   0.556   0.075  16.975  0.9391  1.7687  0.3512
 8386SOL     OW36790   3.534   0.718   6.883  0.0383  0.5373  0.3440
 8386SOL    HW136791   3.488   0.791   6.923 -1.6375 -1.3280  1.8177
 8386SOL    HW236792   3.458   0.672   6.846  0.3172  0.7753 -0.5209
 8387SOL     OW36793   0.449   0.939   4.985  0.0564 -0.1194  0.3557
 8387SOL    HW136794   0.516   0.929   4.917 -1.3237 -3.1387 -0.5842
 8387SOL    HW236795   0.396   0.860   4.974  0.0290 -0.3107  1.9042
 8388SOL     OW36796   2.058   3.774  14.128  0.2953  0.0484  0.2120
 8388SOL    HW136797   2.043   3.868  14.113  0.0283  0.1986  1.4655
 8388SOL    HW236798   2.079   3.749  14.038 -2.0642 -0.5568 -0.1816
 8389SOL     OW36799   4.145   4.697   7.623  0.0042 -0.1908 -0.5040
 8389SOL    HW136800   4.142   4.715   7.717  2.2403  0.1760 -0.4981
 8389SOL    HW236801   4.110   0.040   7.578  0.8220  0.9650  0.8140
 8390SOL     OW36802   3.448   1.137   5.201 -0.2347  0.4622  0.1172
 8390SOL    HW136803   3.427   1.143   5.107 -1.7816 -4.5242  0.1371
 8390SOL    HW236804   3.424   1.045   5.211 -0.8147  0.6214  0.2214
 8391SOL     OW36805   3.822   0.126  14.692 -0.4357 -0.1416  0.0622
 8391SOL    HW136806   3.768   0.193  14.732  1.0498  0.9028  0.3049
 8391SOL    HW236807   3.815   0.135  14.597  0.9163 -0.3721 -0.0606
 8392SOL     OW36808   3.060   3.894   6.374  0.1521  0.0931 -0.4114
 8392SOL    HW136809   3.034   3.896   6.282 -1.0702 -0.8920 -0.0931
 8392SOL    HW236810   3.064   3.800   6.395  0.3497  0.8321  2.8973
 8393SOL     OW36811   4.458   4.226   7.902  0.4596  0.3757  0.3386
 8393SOL    HW136812   4.490   4.188   7.820  2.4740  0.6877  0.9798
 8393SOL    HW236813   4.365   4.225   7.881  0.6379  1.3644 -0.4680
 8394SOL     OW36814   2.645   0.740   4.541 -0.1150 -0.3474  0.0334
 8394SOL    HW136815   2.671   0.671   4.481 -1.2765  0.0081 -0.8695
 8394SOL    HW236816   2.554   0.725   4.565 -0.5355  0.4090 -1.0770
 8395SOL     OW36817   0.780   1.008   2.748 -0.2300 -0.2464 -0.3536
 8395SOL    HW136818   0.748   0.926   2.787  0.9265 -0.0495  1.0091
 8395SOL    HW236819   0.832   1.039   2.822 -0.8366  0.6063 -0.2906
 8396SOL     OW36820   3.616   4.682   8.812 -0.0703  0.0245  0.1139
 8396SOL    HW136821   3.580   0.006   8.746  1.6229  1.2948  0.2981
 8396SOL    HW236822   3.620   4.595   8.773 -3.0663 -0.2331  0.4376
 8397SOL     OW36823   1.958   1.382  15.878 -0.2213  0.0985  0.5351
 8397SOL    HW136824   2.036   1.388  15.932 -1.2958 -2.2028  2.3266
 8397SOL    HW236825   1.962   1.472  15.844  0.0271 -0.6156 -1.3610
 8398SOL     OW36826   4.629   1.035   0.434 -0.0356  0.0051  0.2356
 8398SOL    HW136827   4.543   1.062   0.466 -1.3010 -1.3506 -2.0424
 8398SOL    HW236828   4.688   1.101   0.471 -0.9089  0.4195  0.8905
 8399SOL     OW36829   0.352   4.104   6.396 -0.1608 -0.4465  0.4518
 8399SOL    HW136830   0.402   4.027   6.371  1.4087  0.9591 -0.7079
 8399SOL    HW236831   0.270   4.090   6.349 -0.6438 -1.0801  1.4786
 8400SOL     OW36832   1.926   0.022   8.707  0.3278  0.0385 -0.0097
 8400SOL    HW136833   1.853   0.020   8.644 -0.8422  0.7183  1.3348
 8400SOL    HW236834   1.896   0.090   8.768 -0.6455 -0.6719  0.2902
 8401SOL     OW36835   1.274   3.590   3.216 -0.2064  0.1057  0.2396
 8401SOL    HW136836   1.295   3.590   3.123 -0.5813 -0.6346  0.1471
 8401SOL    HW236837   1.349   3.643   3.241  0.5280 -2.3685  3.2785
 8402SOL     OW36838   3.862   0.711   2.918 -0.7501  0.5059 -0.5841
 8402SOL    HW136839   3.847   0.619   2.897  0.9371  0.1846 -0.3995
 8402SOL    HW236840   3.953   0.705   2.946 -0.4220  1.5791 -1.4260
 8403SOL     OW36841   3.763   1.243   2.603 -0.3834  0.2716  0.5605
 8403SOL    HW136842   3.835   1.279   2.550 -0.1946  0.5644  1.0167
 8403SOL    HW236843   3.769   1.301   2.679  0.5218  0.0318  0.6813
 8404SOL     OW36844   4.724   4.479   9.640 -0.3636  0.3091  0.7500
 8404SOL    HW136845   4.682   4.495   9.724 -1.5223  1.6186 -0.0745
 8404SOL    HW236846   4.717   4.571   9.614  2.9262  0.3162 -0.1730
 8405SOL     OW36847   0.092   4.048   4.511 -0.4849  0.8390  0.5855
 8405SOL    HW136848   0.041   3.967   4.523 -0.4269  0.6286 -0.6609
 8405SOL    HW236849   0.024   4.115   4.511  0.1326  1.4636  0.6163
 8406SOL     OW36850   1.228   0.845   9.169 -0.3679 -0.3361  0.1675
 8406SOL    HW136851   1.231   0.838   9.265 -0.1036 -0.6271  0.1406
 8406SOL    HW236852   1.321   0.846   9.145 -0.3738 -0.7132  0.1243
 8407SOL     OW36853   0.572   2.455   5.694  0.0099  0.5319 -0.5130
 8407SOL    HW136854   0.478   2.466   5.702  0.0160  0.0661  0.2429
 8407SOL    HW236855   0.599   2.546   5.705  1.0307  0.2086 -0.2545
 8408SOL     OW36856   2.196   1.359  16.052 -0.1513  0.4502 -0.5409
 8408SOL    HW136857   2.155   1.333  16.135 -1.6572 -0.1921 -1.5078
 8408SOL    HW236858   2.204   1.273  16.011  0.3831 -0.3109  1.1234
 8409SOL     OW36859   0.402   4.675   2.422  0.0341 -0.0870  0.6589
 8409SOL    HW136860   0.379   0.023   2.465 -1.1666 -0.8521  1.4768
 8409SOL    HW236861   0.489   4.696   2.387  0.1311 -1.8584 -0.1796
 8410SOL     OW36862   1.830   3.606   6.864 -0.0046 -0.2740  0.0805
 8410SOL    HW136863   1.799   3.608   6.774 -0.1485  0.3304  0.1441
 8410SOL    HW236864   1.754   3.638   6.913  0.1060 -0.5931  0.4636
 8411SOL     OW36865   0.173   4.646   8.146  0.4970  0.6333  0.5557
 8411SOL    HW136866   0.118   4.591   8.202  0.0171 -0.3103 -0.8285
 8411SOL    HW236867   0.132   4.632   8.061  1.8844  2.5761 -0.4250
 8412SOL     OW36868   1.669   1.059  12.464  0.0719 -0.4863  0.2392
 8412SOL    HW136869   1.741   1.017  12.511  0.8012  1.1049  0.5731
 8412SOL    HW236870   1.638   1.111  12.539 -0.8413 -0.8997  0.1417
 8413SOL     OW36871   0.529   2.811  16.134  0.3843 -0.3440  0.6423
 8413SOL    HW136872   0.443   2.805  16.092  0.4623  0.8798  0.2877
 8413SOL    HW236873   0.509   2.849  16.219 -0.9765 -2.0921  1.0942
 8414SOL     OW36874   3.803   1.898  15.636  0.0321 -0.2134  0.1841
 8414SOL    HW136875   3.898   1.906  15.626  0.1388 -0.1305  1.2571
 8414SOL    HW236876   3.777   1.808  15.617  1.4115 -0.4894 -0.4515
 8415SOL     OW36877   1.322   0.456   5.065 -0.2436 -0.2618  0.1131
 8415SOL    HW136878   1.399   0.470   5.121 -2.9948  0.2644  3.7472
 8415SOL    HW236879   1.241   0.437   5.112  0.1099 -3.1533 -0.4319
 8416SOL     OW36880   1.015   4.210   6.650  0.2449 -0.1398  0.0806
 8416SOL    HW136881   1.036   4.254   6.568  2.4425 -0.8449  0.2412
 8416SOL    HW236882   0.921   4.228   6.653  0.6545  1.8610  0.9989
 8417SOL     OW36883   1.476   2.902   5.961 -0.0228  0.4286  0.9143
 8417SOL    HW136884   1.512   2.896   6.049  0.0791 -1.2719  0.7629
 8417SOL    HW236885   1.551   2.884   5.904 -1.9433 -0.6094 -1.3270
 8418SOL     OW36886   0.465   0.511   9.609 -0.0222 -0.8622  0.2827
 8418SOL    HW136887   0.480   0.561   9.690  0.7497 -1.1317  0.3031
 8418SOL    HW236888   0.406   0.567   9.559 -1.0666 -0.9255  1.4209
 8419SOL     OW36889   4.237   1.402  14.297 -0.8140 -0.3884  1.1067
 8419SOL    HW136890   4.258   1.314  14.326  0.5619 -0.5985 -0.5197
 8419SOL    HW236891   4.251   1.398  14.202 -0.7616 -0.3768  1.1136
 8420SOL     OW36892   1.560   1.154   4.685 -0.2035  0.0311  0.1194
 8420SOL    HW136893   1.475   1.189   4.711 -0.1489 -0.1238  0.5168
 8420SOL    HW236894   1.534   1.067   4.654  0.4793 -0.0834 -0.1529
 8421SOL     OW36895   2.106   1.041   3.981  0.4757 -0.2019 -0.1549
 8421SOL    HW136896   2.148   1.056   4.066  0.6758  2.0486 -0.6611
 8421SOL    HW236897   2.186   1.017   3.935  1.2766  1.7514  0.2335
 8422SOL     OW36898   0.149   1.761   1.985  0.2853 -0.4263  0.5368
 8422SOL    HW136899   0.189   1.717   2.060  0.4286  0.4236  0.9573
 8422SOL    HW236900   0.081   1.817   2.023  0.6637  0.3977 -0.0050
 8423SOL     OW36901   2.466   3.710   3.734 -0.6861  0.3093  0.3114
 8423SOL    HW136902   2.471   3.615   3.747  2.7786  0.8502  3.0041
 8423SOL    HW236903   2.371   3.722   3.742 -0.7475  0.3748 -0.5793
 8424SOL     OW36904   4.638   1.273   3.002 -0.1642  0.2031  0.2098
 8424SOL    HW136905   4.602   1.221   3.074  0.2501 -0.6714 -0.2029
 8424SOL    HW236906   4.583   1.350   3.016  1.3512  1.6902 -2.0524
 8425SOL     OW36907   2.971   4.335  14.835  0.1080 -0.1429 -0.4961
 8425SOL    HW136908   2.928   4.264  14.883 -0.6357  1.1856  0.8140
 8425SOL    HW236909   3.052   4.297  14.803  0.2534  1.0401 -1.5475
 8426SOL     OW36910   1.456   4.661   0.558  0.1729  0.0702 -0.4927
 8426SOL    HW136911   1.514   4.625   0.490  0.3167  0.2207 -0.4477
 8426SOL    HW236912   1.514   4.729   0.592  0.6230 -1.4592  1.7941
 8427SOL     OW36913   3.484   2.612   7.027 -0.5405  0.1846  0.1588
 8427SOL    HW136914   3.408   2.554   7.019 -2.6674  2.7505  1.3916
 8427SOL    HW236915   3.488   2.617   7.123 -1.4070 -0.2882  0.2293
 8428SOL     OW36916   1.448   0.755   9.843 -0.2027 -0.0743  0.4727
 8428SOL    HW136917   1.516   0.782   9.904  0.9718 -2.3003  0.1572
 8428SOL    HW236918   1.395   0.834   9.843  0.1113  0.1376  0.3203
 8429SOL     OW36919   0.904   0.535   8.977  0.0598  0.2058  0.0302
 8429SOL    HW136920   0.970   0.576   9.032  0.9194 -0.4913 -0.4835
 8429SOL    HW236921   0.840   0.600   8.947 -0.9717 -0.3532  0.9985
 8430SOL     OW36922   0.499   1.258   9.280  0.6859  0.0876 -0.1691
 8430SOL    HW136923   0.455   1.175   9.268 -1.1817  1.0821 -0.1854
 8430SOL    HW236924   0.581   1.242   9.234  0.4051 -1.6650 -0.0672
 8431SOL     OW36925   1.764   2.217   3.313  0.0760 -0.2295  0.6331
 8431SOL    HW136926   1.715   2.231   3.394  0.0125  1.2584  0.3452
 8431SOL    HW236927   1.800   2.130   3.328 -1.4236 -1.3616 -2.1956
 8432SOL     OW36928   4.045   4.692   5.217  0.0889 -0.4354 -0.1645
 8432SOL    HW136929   4.005   0.042   5.199 -0.2091 -0.4583  0.3766
 8432SOL    HW236930   4.000   4.642   5.149  1.7472  0.1578 -1.7019
 8433SOL     OW36931   1.449   1.804   6.463 -0.3478  0.1269 -0.1033
 8433SOL    HW136932   1.355   1.792   6.470 -0.1663 -0.3179  1.4588
 8433SOL    HW236933   1.460   1.897   6.478 -1.2134  0.2490 -0.2188
 8434SOL     OW36934   3.501   3.555   8.153 -0.3361  0.9628 -0.7734
 8434SOL    HW136935   3.541   3.629   8.199  2.7471 -0.7344 -0.7120
 8434SOL    HW236936   3.577   3.498   8.138 -2.4680 -2.0021 -0.3953
 8435SOL     OW36937   4.433   4.275  11.220  0.0498  0.2838  0.1508
 8435SOL    HW136938   4.428   4.369  11.206  2.8721  0.4549  0.3145
 8435SOL    HW236939   4.526   4.255  11.227  0.2718  1.1386 -0.3397
 8436SOL     OW36940   1.711   2.911   4.716 -0.4282  0.1264 -0.6233
 8436SOL    HW136941   1.763   2.983   4.752  0.8993 -1.3764  0.4873
 8436SOL    HW236942   1.782   2.848   4.705 -0.9986 -0.1683 -2.5449
 8437SOL     OW36943   2.468   2.373   9.555 -0.1458  0.1892  0.1390
 8437SOL    HW136944   2.559   2.376   9.525 -0.6264  2.0656 -1.1289
 8437SOL    HW236945   2.445   2.286   9.521  0.7707 -0.7895  2.0116
 8438SOL     OW36946   2.577   1.665  15.792 -0.4048 -0.0896  0.2638
 8438SOL    HW136947   2.521   1.712  15.854 -0.1937 -0.6568  0.8876
 8438SOL    HW236948   2.515   1.658  15.719  1.2553 -2.1803 -0.9176
 8439SOL     OW36949   1.542   4.450  12.234  0.0435 -0.1603  0.3072
 8439SOL    HW136950   1.614   4.397  12.266 -1.4865 -1.7634  1.0916
 8439SOL    HW236951   1.543   4.524  12.296 -2.1270  0.1073  0.0275
 8440SOL     OW36952   0.153   3.097  11.619 -0.4193 -0.9145  0.1123
 8440SOL    HW136953   0.242   3.126  11.601 -0.9545  0.6035 -0.0488
 8440SOL    HW236954   0.167   3.002  11.616  0.6270 -0.7936  1.1775
 8441SOL     OW36955   2.658   4.375   7.850 -0.5408  0.2461  0.2435
 8441SOL    HW136956   2.675   4.314   7.778  0.0516 -0.0816  0.6586
 8441SOL    HW236957   2.567   4.401   7.840 -0.2904  0.4156 -1.6068
 8442SOL     OW36958   1.740   0.073   6.253 -0.0670  0.1244  0.0973
 8442SOL    HW136959   1.834   0.078   6.269 -0.2084  2.6819  0.1619
 8442SOL    HW236960   1.742   4.730   6.196  0.8543 -0.0012  0.2915
 8443SOL     OW36961   0.646   4.283  15.381 -0.4295 -0.1197 -0.1976
 8443SOL    HW136962   0.686   4.321  15.459  0.9895  0.4437 -1.1890
 8443SOL    HW236963   0.719   4.300  15.321  1.5374  0.4428  2.3665
 8444SOL     OW36964   0.073   1.721   1.721  0.4498 -0.3761 -0.4375
 8444SOL    HW136965   4.719   1.751   1.698  0.4568  1.1263  1.5478
 8444SOL    HW236966   0.088   1.739   1.814  0.0228  1.0032 -0.6394
 8445SOL     OW36967   3.519   4.500   6.814  0.1054 -0.2066 -0.1421
 8445SOL    HW136968   3.427   4.477   6.803 -0.4437  1.9085  0.1111
 8445SOL    HW236969   3.523   4.577   6.757  2.3573  0.3127  0.7070
 8446SOL     OW36970   3.248   4.341   7.875 -0.5140 -0.7096  0.1817
 8446SOL    HW136971   3.289   4.428   7.874 -0.8721 -0.5388  0.4782
 8446SOL    HW236972   3.197   4.348   7.956 -1.6831 -1.5560 -0.4798
 8447SOL     OW36973   2.553   4.044   6.682  0.2543 -0.5246  0.7191
 8447SOL    HW136974   2.641   4.046   6.644 -0.2378 -3.1144 -0.4997
 8447SOL    HW236975   2.576   4.048   6.775 -0.3102  1.0748  0.7907
 8448SOL     OW36976   1.772   1.294   1.917 -0.3226 -0.7301 -0.3495
 8448SOL    HW136977   1.791   1.377   1.961 -0.4702 -0.9041  0.0378
 8448SOL    HW236978   1.698   1.264   1.969  0.6937  0.3063  1.6865
 8449SOL     OW36979   1.748   0.482  13.249  0.3045  0.1905  0.3461
 8449SOL    HW136980   1.826   0.449  13.292  0.6697 -1.6407 -1.7282
 8449SOL    HW236981   1.785   0.562  13.213 -0.7012  0.8768  0.8201
 8450SOL     OW36982   3.046   2.815   8.810 -0.1751  0.2176  0.7527
 8450SOL    HW136983   3.103   2.874   8.859  1.9970 -1.5634  0.3874
 8450SOL    HW236984   2.999   2.870   8.747  0.4659 -0.5817 -0.4408
 8451SOL     OW36985   1.727   0.824   2.628  0.1472  0.1523 -0.1424
 8451SOL    HW136986   1.787   0.774   2.682 -2.0577 -0.0673  2.0754
 8451SOL    HW236987   1.750   0.806   2.537  1.5331  1.4064 -0.0437
 8452SOL     OW36988   1.019   0.747   7.379  0.4435  0.2513 -0.2752
 8452SOL    HW136989   0.942   0.740   7.435  1.0068 -0.0187  0.4678
 8452SOL    HW236990   1.024   0.842   7.364  0.5559  0.3832  0.5987
 8453SOL     OW36991   0.784   1.805   3.101  0.5932  0.1992 -0.2053
 8453SOL    HW136992   0.836   1.818   3.021  1.0721 -0.5381 -0.0108
 8453SOL    HW236993   0.850   1.762   3.156  0.4965 -0.3044 -0.4784
 8454SOL     OW36994   1.299   2.471   1.886  0.2232 -0.6148 -0.1900
 8454SOL    HW136995   1.238   2.423   1.942  0.1079 -1.2467 -0.8610
 8454SOL    HW236996   1.373   2.413   1.867  1.4198  0.0283  2.3930
 8455SOL     OW36997   2.602   0.809  12.590 -0.3432 -0.1980  0.0732
 8455SOL    HW136998   2.601   0.813  12.494 -0.4484  2.5147  0.1772
 8455SOL    HW236999   2.600   0.714  12.602  0.0766 -0.2048  0.0881
 8456SOL     OW37000   0.496   4.311   1.118  0.1780 -0.1082 -0.2913
 8456SOL    HW137001   0.541   4.388   1.151  0.1788  0.3955 -1.4610
 8456SOL    HW237002   0.565   4.253   1.085  2.2053  0.5115  2.9138
 8457SOL     OW37003   3.445   2.388   7.890  0.3178  0.4466 -0.1682
 8457SOL    HW137004   3.409   2.430   7.812  0.8495 -0.3413 -0.8450
 8457SOL    HW237005   3.382   2.316   7.886 -1.4720  2.0381 -0.4107
 8458SOL     OW37006   1.683   1.228   3.296 -0.2031 -0.3935  0.5138
 8458SOL    HW137007   1.758   1.287   3.288 -0.0371 -0.7833 -0.7583
 8458SOL    HW237008   1.628   1.260   3.225  0.8099 -2.1831 -1.0902
 8459SOL     OW37009   4.459   0.669   3.830  0.4089  0.2761 -0.8481
 8459SOL    HW137010   4.363   0.666   3.828  0.3148  2.7632  0.7308
 8459SOL    HW237011   4.494   0.601   3.887  1.9363  2.4042  0.7143
 8460SOL     OW37012   4.080   2.324   3.087 -0.0728 -0.6191 -0.2318
 8460SOL    HW137013   4.139   2.393   3.118 -0.3636  0.4688 -2.1216
 8460SOL    HW237014   4.054   2.354   3.000 -1.7588  1.3153  0.9548
 8461SOL     OW37015   1.583   0.574   3.193 -0.2896 -0.2630  0.3708
 8461SOL    HW137016   1.572   0.634   3.119  1.8753  2.6334  2.4227
 8461SOL    HW237017   1.673   0.601   3.211 -1.2655  1.1345  3.1242
 8462SOL     OW37018   4.065   1.096   6.947 -0.2898  0.6439  0.4995
 8462SOL    HW137019   4.161   1.096   6.937 -0.1762  0.8847  1.6014
 8462SOL    HW237020   4.038   1.009   6.919 -0.0206  0.8740 -0.4819
 8463SOL     OW37021   1.032   0.565  16.836  0.1014 -0.1366  0.3326
 8463SOL    HW137022   1.037   0.567  16.931 -1.9126 -0.0276  0.4495
 8463SOL    HW237023   1.123   0.549  16.814 -0.0091 -0.7397  0.3112
 8464SOL     OW37024   3.578   2.820  15.131 -0.0727 -0.2566  0.4826
 8464SOL    HW137025   3.567   2.726  15.114 -2.4954  0.3528 -1.2147
 8464SOL    HW237026   3.530   2.860  15.058  1.4005 -1.3459 -1.0967
 8465SOL     OW37027   2.055   0.075   5.832  0.0357  0.6712 -0.1444
 8465SOL    HW137028   2.046   0.045   5.922  0.2078  1.0584  0.0002
 8465SOL    HW237029   2.147   0.053   5.821 -0.6287 -2.3585  0.1709
 8466SOL     OW37030   0.787   3.559  13.254 -0.3754  0.0108 -0.6383
 8466SOL    HW137031   0.801   3.635  13.198  1.4345 -1.4960 -2.2433
 8466SOL    HW237032   0.717   3.506  13.215  1.4258 -0.7893 -2.7382
 8467SOL     OW37033   4.498   4.528   4.957  0.5143 -0.5198 -0.4316
 8467SOL    HW137034   4.470   4.495   4.872  0.5846 -2.9553  0.5063
 8467SOL    HW237035   4.434   4.497   5.020  1.4759 -0.1914  0.7197
 8468SOL     OW37036   1.469   4.111  15.594 -0.0833 -0.0820  0.3460
 8468SOL    HW137037   1.446   4.184  15.652  1.5623  0.4658  0.3255
 8468SOL    HW237038   1.416   4.046  15.640  1.5050 -1.0760  0.7587
 8469SOL     OW37039   2.420   2.228  15.133  0.2221  0.1734  0.4504
 8469SOL    HW137040   2.368   2.239  15.053  2.0767 -1.9433 -1.0567
 8469SOL    HW237041   2.508   2.201  15.105  0.0810 -0.9379  1.0375
 8470SOL     OW37042   0.018   1.756   4.562  0.6291  0.6087  0.6700
 8470SOL    HW137043   0.102   1.744   4.519  0.0397  0.9693 -0.5946
 8470SOL    HW237044   4.725   1.670   4.595 -0.1076  0.8575  0.7148
 8471SOL     OW37045   1.488   2.993   5.559 -0.1248  0.4806 -0.5037
 8471SOL    HW137046   1.444   2.910   5.545 -0.1171  0.0500  2.0680
 8471SOL    HW237047   1.405   3.041   5.554 -0.0360  0.5877 -0.9788
 8472SOL     OW37048   0.030   1.519   6.668  0.2468  0.4276 -0.9431
 8472SOL    HW137049   4.728   1.568   6.594  0.7466  3.6933  0.9360
 8472SOL    HW237050   0.108   1.572   6.686  0.2417 -0.7841  2.6002
 8473SOL     OW37051   2.963   4.410  17.227  0.5881 -0.4662  0.0055
 8473SOL    HW137052   2.917   4.489  17.257  0.8238  0.0169 -0.9064
 8473SOL    HW237053   2.910   4.384  17.152 -0.2199  0.7019  0.1658
 8474SOL     OW37054   2.041   0.746   3.390 -0.1621  0.1008 -0.3446
 8474SOL    HW137055   1.952   0.763   3.422  0.6081  3.6688 -0.1102
 8474SOL    HW237056   2.084   0.717   3.470 -3.6812 -1.3853  1.0068
 8475SOL     OW37057   1.733   2.982   3.581 -0.4044 -0.3146  0.2287
 8475SOL    HW137058   1.745   3.046   3.511  1.0524  0.8930  1.5910
 8475SOL    HW237059   1.816   2.935   3.576 -0.2512  0.3035 -2.8251
 8476SOL     OW37060   2.944   0.802   7.508 -0.5683 -0.4338 -0.5499
 8476SOL    HW137061   2.999   0.731   7.474 -1.3254 -0.1263 -2.4467
 8476SOL    HW237062   2.981   0.807   7.596  1.6431  0.3690 -1.5398
 8477SOL     OW37063   3.796   2.937   0.875  0.0747 -0.1006  0.1744
 8477SOL    HW137064   3.811   3.006   0.811  1.0799 -0.9700 -0.5374
 8477SOL    HW237065   3.752   2.870   0.822  0.8281  1.2922 -2.2376
 8478SOL     OW37066   2.243   0.639   4.131  0.6714 -0.4460 -0.1143
 8478SOL    HW137067   2.248   0.558   4.080  0.5965 -0.7906  0.4227
 8478SOL    HW237068   2.164   0.626   4.183  0.3161  2.2989 -0.0019
 8479SOL     OW37069   4.276   3.934   2.012 -0.4207 -0.3776 -0.1487
 8479SOL    HW137070   4.275   3.941   2.108 -0.9201  0.9501 -0.2450
 8479SOL    HW237071   4.268   3.839   2.004 -0.4344 -0.4762  0.9449
 8480SOL     OW37072   2.947   3.848   6.144 -0.1499 -0.2491 -0.1883
 8480SOL    HW137073   2.887   3.774   6.146  1.4467 -1.5569 -0.7406
 8480SOL    HW237074   3.007   3.830   6.071 -1.7097  1.0707 -1.7852
 8481SOL     OW37075   1.612   0.034   9.158  0.0328  0.3097  0.1101
 8481SOL    HW137076   1.583   0.087   9.083 -0.3061 -1.1413 -0.7725
 8481SOL    HW237077   1.684   0.080   9.202  0.9004  0.9263 -1.9589
 8482SOL     OW37078   3.279   1.454   3.935 -0.1414  0.5097 -0.1700
 8482SOL    HW137079   3.208   1.395   3.957 -0.3857  0.8797  0.0351
 8482SOL    HW237080   3.288   1.513   4.010  2.1001 -0.3295  0.2193
 8483SOL     OW37081   1.617   4.683   7.807  0.0030 -0.1216  0.3323
 8483SOL    HW137082   1.652   4.594   7.812  1.1975  0.3098 -0.2820
 8483SOL    HW237083   1.527   4.652   7.808 -0.2894  0.6626 -0.7750
 8484SOL     OW37084   2.245   3.183  15.434 -0.0444 -0.3708 -0.2527
 8484SOL    HW137085   2.306   3.232  15.490 -0.6392  1.0806 -0.8786
 8484SOL    HW237086   2.176   3.248  15.420  0.1750 -0.1929 -0.5094
 8485SOL     OW37087   2.450   3.548   7.059  0.0328 -0.0268 -0.2541
 8485SOL    HW137088   2.456   3.642   7.074  1.3252  0.1575 -1.8009
 8485SOL    HW237089   2.528   3.521   7.107  0.6845  1.6465 -0.3584
 8486SOL     OW37090   4.423   3.446   8.194 -0.1956 -0.6140  0.1075
 8486SOL    HW137091   4.340   3.412   8.229 -0.1185  1.8194  2.6502
 8486SOL    HW237092   4.389   3.455   8.105  1.0514 -0.3606 -0.3416
 8487SOL     OW37093   0.310   2.179   7.671 -0.1901 -0.0136  0.3921
 8487SOL    HW137094   0.341   2.256   7.720 -0.8339 -0.6653  1.8068
 8487SOL    HW237095   0.334   2.110   7.733  2.8385 -0.1674 -0.9513
 8488SOL     OW37096   0.705   1.882  13.600 -0.9096 -0.3992 -0.2147
 8488SOL    HW137097   0.645   1.956  13.593 -0.9291 -0.1619  2.4367
 8488SOL    HW237098   0.790   1.920  13.579 -1.5760  0.6472 -0.9780
 8489SOL     OW37099   4.657   1.616   7.927  0.4869 -0.0379 -0.0515
 8489SOL    HW137100   4.641   1.640   8.018  0.1518  1.2720 -0.4671
 8489SOL    HW237101   4.617   1.529   7.931 -0.3107  0.2578 -1.6853
 8490SOL     OW37102   2.531   1.933   2.594 -0.3861  0.5698  0.0069
 8490SOL    HW137103   2.600   1.963   2.535 -0.3294  0.8400  0.2136
 8490SOL    HW237104   2.529   1.839   2.575  0.7357  0.7994 -1.2221
 8491SOL     OW37105   0.963   2.670   7.453 -0.0980  0.7386 -0.0097
 8491SOL    HW137106   0.912   2.721   7.515  1.0857  0.6491  1.0454
 8491SOL    HW237107   0.892   2.617   7.417  2.2632 -2.4955  0.1022
 8492SOL     OW37108   2.587   1.178   8.939  0.3615 -0.0992  0.2931
 8492SOL    HW137109   2.505   1.210   8.977 -0.4823 -0.5291 -1.1587
 8492SOL    HW237110   2.645   1.247   8.971  2.2613 -0.0469 -3.2549
 8493SOL     OW37111   2.273   3.107  16.752  0.3108  0.1035 -0.4459
 8493SOL    HW137112   2.323   3.028  16.734 -0.4210 -1.1744  3.0294
 8493SOL    HW237113   2.303   3.130  16.840 -0.4362 -0.0208 -0.1546
 8494SOL     OW37114   0.036   3.239  11.825 -0.2033  0.2133 -0.0753
 8494SOL    HW137115   0.065   3.202  11.742 -1.3499  1.9010 -1.2401
 8494SOL    HW237116   0.113   3.255  11.880 -0.3043  1.0695 -0.1846
 8495SOL     OW37117   4.240   1.768  10.951 -0.1809  0.2334  0.0909
 8495SOL    HW137118   4.302   1.740  10.883  0.7426  0.4141  0.8620
 8495SOL    HW237119   4.300   1.791  11.022 -0.7379  1.0815  0.2784
 8496SOL     OW37120   3.588   4.452   9.317 -0.5822  0.0066 -0.1190
 8496SOL    HW137121   3.643   4.500   9.255 -0.3064  1.4528  1.2465
 8496SOL    HW237122   3.628   4.474   9.401  2.3401  0.0254 -1.4854
 8497SOL     OW37123   2.845   0.425   5.912  0.2042 -0.4419  0.4234
 8497SOL    HW137124   2.890   0.370   5.848  0.8495  1.2164 -0.5692
 8497SOL    HW237125   2.755   0.399   5.892 -0.2058  1.6923 -0.5117
 8498SOL     OW37126   2.682   2.038  16.251  0.1624  0.3707 -0.6315
 8498SOL    HW137127   2.657   1.986  16.175 -2.0910  1.9886 -0.9848
 8498SOL    HW237128   2.627   2.115  16.260 -0.6467 -0.1973 -0.6719
 8499SOL     OW37129   4.120   4.461   7.907  0.1360  0.5936 -0.2821
 8499SOL    HW137130   4.051   4.527   7.910  0.1883  0.6771 -1.0989
 8499SOL    HW237131   4.188   4.527   7.892  2.0770 -1.2999  0.2458
 8500SOL     OW37132   2.721   1.661  14.084 -0.2392 -0.6745  0.8475
 8500SOL    HW137133   2.661   1.618  14.145 -1.1066  0.3041  0.6966
 8500SOL    HW237134   2.653   1.711  14.038  0.2458  0.9960  1.9294
 8501SOL     OW37135   2.457   4.532   4.021  0.3258  0.6210  0.3572
 8501SOL    HW137136   2.463   4.596   4.092  1.3665  0.3508  0.5124
 8501SOL    HW237137   2.464   4.601   3.954  4.0903 -1.2716 -1.2177
 8502SOL     OW37138   2.660   1.743   8.416  0.2385  0.0505 -0.1205
 8502SOL    HW137139   2.632   1.680   8.350  2.7380 -1.4956  0.2829
 8502SOL    HW237140   2.747   1.715   8.444 -0.6521 -1.5919  1.0138
 8503SOL     OW37141   0.147   0.722   3.823  0.1476  0.1204  0.0471
 8503SOL    HW137142   0.160   0.668   3.901  1.1511 -0.3422 -0.4459
 8503SOL    HW237143   0.233   0.710   3.782  0.6184  1.2358  0.7072
 8504SOL     OW37144   0.740   0.886  15.544  0.1243  0.1707 -0.1565
 8504SOL    HW137145   0.661   0.937  15.525 -0.2097 -0.4641 -0.4927
 8504SOL    HW237146   0.732   0.837  15.462  1.4619  0.9071 -0.7180
 8505SOL     OW37147   2.431   4.204  16.108  0.5584  0.3467  0.2690
 8505SOL    HW137148   2.488   4.140  16.064 -0.0376  0.7751 -1.1168
 8505SOL    HW237149   2.345   4.163  16.101  0.0528  1.1161  2.0249
 8506SOL     OW37150   2.277   3.063   3.613  0.2267 -0.3034 -0.1078
 8506SOL    HW137151   2.330   3.091   3.538  1.3071 -0.5291  0.5627
 8506SOL    HW237152   2.209   3.130   3.623  2.5802  2.3649 -1.8495
 8507SOL     OW37153   1.037   1.383   5.902  0.3641  0.7576 -0.2267
 8507SOL    HW137154   0.980   1.406   5.830  0.1120 -0.3771 -0.3994
 8507SOL    HW237155   0.990   1.441   5.961 -0.7520 -0.1653 -0.2101
 8508SOL     OW37156   2.037   2.214  15.074  0.2602  0.1166 -0.2337
 8508SOL    HW137157   1.972   2.283  15.077 -0.1118 -0.2596  0.4602
 8508SOL    HW237158   2.112   2.246  15.124  0.7378 -0.5434 -0.5193
 8509SOL     OW37159   2.315   2.606   9.080 -0.3928 -0.2513 -0.0982
 8509SOL    HW137160   2.351   2.614   9.168 -1.9851 -0.9604  0.6144
 8509SOL    HW237161   2.258   2.529   9.079 -2.2972  1.2027 -2.5232
 8510SOL     OW37162   0.620   2.478   5.043 -0.3909 -0.1637  0.4805
 8510SOL    HW137163   0.598   2.457   5.134 -1.5248 -1.1814 -0.0188
 8510SOL    HW237164   0.682   2.407   5.023 -2.1041 -1.5636  0.1065
 8511SOL     OW37165   1.530   1.914   5.508 -0.0708  0.1325 -0.3202
 8511SOL    HW137166   1.607   1.864   5.533  2.0802  2.9150 -1.4816
 8511SOL    HW237167   1.465   1.871   5.565 -0.1419  0.7712  0.0780
 8512SOL     OW37168   1.817   2.988   8.343  0.5114  0.4260  0.2350
 8512SOL    HW137169   1.794   2.919   8.405 -0.0182  4.0310  4.0210
 8512SOL    HW237170   1.731   3.026   8.325  0.0867 -0.3967  0.5030
 8513SOL     OW37171   2.983   3.824   5.750  0.1955 -0.1953  0.1992
 8513SOL    HW137172   3.048   3.769   5.708  0.7004 -1.2251  2.3127
 8513SOL    HW237173   2.906   3.771   5.729  0.7177 -1.0118  0.3458
 8514SOL     OW37174   2.131   3.792   4.877 -0.0106  0.1761 -0.3802
 8514SOL    HW137175   2.126   3.798   4.973 -1.9365 -1.3277 -0.3834
 8514SOL    HW237176   2.126   3.882   4.845  2.4318  0.2076 -0.6224
 8515SOL     OW37177   1.213   3.021   7.593  0.1277 -0.2139 -0.0329
 8515SOL    HW137178   1.238   2.929   7.606 -0.7903 -0.3409  0.8609
 8515SOL    HW237179   1.192   3.040   7.685 -1.2884  1.3950 -0.6970
 8516SOL     OW37180   2.245   3.905   2.233  0.5295  0.5721  0.2684
 8516SOL    HW137181   2.152   3.919   2.252  0.5626  0.3220  0.6353
 8516SOL    HW237182   2.247   3.822   2.186  0.0493  0.2985  0.7253
 8517SOL     OW37183   1.050   3.575  11.918 -0.0465 -0.0522 -0.2535
 8517SOL    HW137184   1.128   3.579  11.973 -0.6621  0.2657  0.6027
 8517SOL    HW237185   1.072   3.643  11.855 -0.3408  0.0140 -0.2849
 8518SOL     OW37186   1.166   2.131   3.056 -0.2944  0.4999 -0.2384
 8518SOL    HW137187   1.191   2.044   3.027 -1.3590 -0.6996  2.4553
 8518SOL    HW237188   1.072   2.118   3.045 -0.0039 -0.0334 -2.0167
 8519SOL     OW37189   0.240   0.217  10.826 -0.9961  0.2400  0.3195
 8519SOL    HW137190   0.206   0.299  10.862  0.0562  1.5373 -1.6546
 8519SOL    HW237191   0.319   0.244  10.779 -1.8706  1.0822 -0.6941
 8520SOL     OW37192   1.263   3.823   9.234  0.4508 -0.0924 -0.1764
 8520SOL    HW137193   1.263   3.788   9.145 -1.0018  2.7794 -1.3206
 8520SOL    HW237194   1.293   3.746   9.283  2.0831  0.0929 -0.8767
 8521SOL     OW37195   1.268   1.569   7.088  0.4965  0.3474 -0.0557
 8521SOL    HW137196   1.350   1.604   7.124 -0.1663 -0.6156  2.3668
 8521SOL    HW237197   1.293   1.477   7.083 -1.3397 -0.0248 -2.2384
 8522SOL     OW37198   3.358   2.309   3.929 -0.1689 -0.3720 -0.0721
 8522SOL    HW137199   3.442   2.339   3.964 -1.4646  2.5255  0.5123
 8522SOL    HW237200   3.348   2.380   3.864  0.3999 -1.1148 -0.9746
 8523SOL     OW37201   1.161   1.902   3.779  0.2253 -0.1782  0.4613
 8523SOL    HW137202   1.085   1.955   3.754 -0.4387 -1.1202  0.4672
 8523SOL    HW237203   1.147   1.893   3.874  0.1748 -0.1010  0.4612
 8524SOL     OW37204   3.464   3.915   2.559 -0.5391 -0.1861 -0.5561
 8524SOL    HW137205   3.453   3.824   2.586 -1.1433 -0.5326 -1.9531
 8524SOL    HW237206   3.543   3.919   2.504  0.1647  1.7204  0.5788
 8525SOL     OW37207   0.487   3.869   2.602  0.3408  0.8994  0.9718
 8525SOL    HW137208   0.540   3.938   2.641 -1.1342  2.1776  0.6986
 8525SOL    HW237209   0.534   3.864   2.518  1.5612  0.6780  1.6710
 8526SOL     OW37210   2.391   1.736   0.479  0.4537  0.2871 -0.2304
 8526SOL    HW137211   2.393   1.819   0.432 -0.8914  0.7475  0.5358
 8526SOL    HW237212   2.297   1.724   0.486  0.1311  1.0985 -3.4480
 8527SOL     OW37213   0.336   2.149  10.734  0.1504 -0.4290 -0.0184
 8527SOL    HW137214   0.299   2.075  10.782  0.4746 -0.0426  0.8129
 8527SOL    HW237215   0.423   2.118  10.709 -1.2973 -2.0327 -3.1345
 8528SOL     OW37216   1.860   2.404   5.349 -0.4004  0.1383 -0.4718
 8528SOL    HW137217   1.917   2.327   5.348 -0.4473  0.0886  0.4628
 8528SOL    HW237218   1.786   2.375   5.401  1.2261 -0.2266  1.6328
 8529SOL     OW37219   3.771   3.557   1.872  0.7073  0.0661  0.4476
 8529SOL    HW137220   3.720   3.557   1.791  0.4248  2.9803  0.6391
 8529SOL    HW237221   3.811   3.470   1.871 -0.0116 -0.2695  0.4864
 8530SOL     OW37222   3.882   0.125   8.546  0.0654  0.6585 -0.1707
 8530SOL    HW137223   3.910   0.047   8.595 -0.5250 -1.2520 -2.8883
 8530SOL    HW237224   3.897   0.199   8.605 -2.9372 -0.0760  1.5405
 8531SOL     OW37225   3.381   0.939   7.019 -0.3937 -0.3665  0.0234
 8531SOL    HW137226   3.341   1.009   6.968 -3.6225 -0.8416  1.8595
 8531SOL    HW237227   3.303   0.897   7.056 -0.6773 -1.3904 -1.7332
 8532SOL     OW37228   3.572   0.615   6.317  0.0280 -0.1134 -0.1094
 8532SOL    HW137229   3.653   0.608   6.367 -0.0024  0.6977  0.0587
 8532SOL    HW237230   3.505   0.599   6.383  0.0513 -1.4741 -0.4094
 8533SOL     OW37231   4.619   0.777   3.243 -0.1772 -0.0286 -0.3088
 8533SOL    HW137232   4.645   0.696   3.201  1.3303  1.4709 -2.2537
 8533SOL    HW237233   4.527   0.761   3.267 -0.6067  1.5325 -0.8555
 8534SOL     OW37234   1.631   0.324   7.038 -0.3693  0.4214  0.1495
 8534SOL    HW137235   1.604   0.233   7.050  3.0465 -0.6250 -0.0222
 8534SOL    HW237236   1.626   0.356   7.128 -0.8742 -0.6124  0.4879
 8535SOL     OW37237   3.619   3.614   7.554 -0.1132  0.7954 -0.1803
 8535SOL    HW137238   3.635   3.586   7.644 -0.1560 -0.4060 -0.5482
 8535SOL    HW237239   3.679   3.553   7.511 -1.8214  0.0547 -1.5520
 8536SOL     OW37240   0.033   0.323   7.242  0.3915  0.2449  0.1184
 8536SOL    HW137241   0.011   0.327   7.149 -0.9996  1.7846  0.4933
 8536SOL    HW237242   0.111   0.378   7.251  1.4787 -1.4779  1.1603
 8537SOL     OW37243   1.366   3.000   3.098  0.2286 -0.1443  0.4072
 8537SOL    HW137244   1.368   3.074   3.158 -0.5514  1.6838 -1.8213
 8537SOL    HW237245   1.294   2.953   3.140  1.2833 -1.0534  1.1994
 8538SOL     OW37246   0.250   3.523   9.252 -0.1983  1.0080 -1.0631
 8538SOL    HW137247   0.216   3.579   9.322  1.8529  0.4645  0.3579
 8538SOL    HW237248   0.332   3.572   9.249  0.1632  0.3962 -1.3600
 8539SOL     OW37249   3.455   0.031  16.537 -0.6070  0.3348 -0.3422
 8539SOL    HW137250   3.362   0.030  16.517 -0.1272  0.5854 -2.6084
 8539SOL    HW237251   3.472   4.674  16.513  0.3234  0.8795 -1.7540
 8540SOL     OW37252   4.567   4.176   7.287 -0.2236 -0.4308 -0.1665
 8540SOL    HW137253   4.471   4.176   7.296 -0.2937  0.6386 -0.9908
 8540SOL    HW237254   4.597   4.086   7.272 -0.8567 -0.4827 -1.0742
 8541SOL     OW37255   2.283   0.527   2.587  0.1442 -0.2853  0.0316
 8541SOL    HW137256   2.289   0.614   2.628  0.6008  0.3844 -1.4804
 8541SOL    HW237257   2.364   0.526   2.537 -1.7229 -0.6042 -3.0013
 8542SOL     OW37258   0.035   2.463   6.811 -0.4836  0.1717 -0.7832
 8542SOL    HW137259   0.069   2.384   6.852 -0.2276  0.7975  0.2223
 8542SOL    HW237260   4.704   2.408   6.768  0.1094 -2.8437  2.2396
 8543SOL     OW37261   3.249   3.367   2.084 -0.0977  0.1489 -0.2654
 8543SOL    HW137262   3.200   3.441   2.046  0.2216  1.8805  2.7416
 8543SOL    HW237263   3.191   3.297   2.054  0.5224 -0.0138 -1.0951
 8544SOL     OW37264   3.139   4.510  14.409  0.7067 -0.2353 -0.6093
 8544SOL    HW137265   3.210   4.528  14.470 -0.8727 -0.6133  1.3731
 8544SOL    HW237266   3.084   4.589  14.407 -0.3800 -1.0003 -0.9075
 8545SOL     OW37267   1.845   0.826   4.284 -0.4444  0.2995  0.1841
 8545SOL    HW137268   1.848   0.905   4.338  0.2525 -0.5251  1.3527
 8545SOL    HW237269   1.795   0.765   4.338  1.1640 -1.0796  0.1294
 8546SOL     OW37270   0.653   1.481   6.620  0.4140 -0.0064  0.4321
 8546SOL    HW137271   0.740   1.521   6.615  1.6174 -2.8550 -1.0693
 8546SOL    HW237272   0.601   1.559   6.598 -2.1251 -2.0348 -0.7137
 8547SOL     OW37273   4.435   1.977   0.121 -0.1163  0.2940  0.1745
 8547SOL    HW137274   4.460   2.001   0.210  0.2719 -1.3499  0.5206
 8547SOL    HW237275   4.370   2.044   0.100 -1.0886 -0.5338  0.5484
 8548SOL     OW37276   1.865   1.938  14.367 -0.3599 -0.0677  0.2236
 8548SOL    HW137277   1.820   1.981  14.294  1.9795  3.1691  0.7022
 8548SOL    HW237278   1.947   1.906  14.329 -0.1539 -0.8343  1.3274
 8549SOL     OW37279   0.706   4.619  15.394  0.1601 -0.3465 -0.1896
 8549SOL    HW137280   0.765   4.694  15.401 -0.8874  0.1930  2.9808
 8549SOL    HW237281   0.767   4.555  15.358  1.3620  0.1093  1.0733
 8550SOL     OW37282   4.388   1.114   5.902  0.2541  0.3239  0.4107
 8550SOL    HW137283   4.459   1.150   5.956  1.1643 -0.6062 -0.1823
 8550SOL    HW237284   4.360   1.193   5.854 -2.0589 -0.4555  0.4679
 8551SOL     OW37285   3.170   3.681   4.372  0.0271 -0.9616 -0.0323
 8551SOL    HW137286   3.233   3.660   4.302  0.9821  0.6001  0.3570
 8551SOL    HW237287   3.162   3.588   4.395  2.1948 -0.8178  1.2930
 8552SOL     OW37288   1.065   4.313   7.356 -0.2695 -0.3117  0.6585
 8552SOL    HW137289   1.047   4.292   7.447  1.5931  0.0937  1.1013
 8552SOL    HW237290   0.975   4.303   7.323 -0.0950 -1.8365  0.6754
 8553SOL     OW37291   0.542   0.557   4.775  0.0010 -0.1396 -0.6960
 8553SOL    HW137292   0.637   0.564   4.785 -0.3773  0.7818  2.3948
 8553SOL    HW237293   0.538   0.478   4.721 -0.8103  0.8855 -2.1378
 8554SOL     OW37294   2.105   1.451   5.434  0.1260  0.2158  0.1924
 8554SOL    HW137295   2.191   1.488   5.455  1.0225 -0.4399 -2.2288
 8554SOL    HW237296   2.105   1.461   5.339 -0.9855  1.4380  0.3245
 8555SOL     OW37297   4.674   2.247   2.914  0.2569 -0.1931 -0.5247
 8555SOL    HW137298   0.013   2.223   2.972 -1.0008 -1.2350  0.6271
 8555SOL    HW237299   4.723   2.278   2.838  0.0204  0.2246 -0.5025
 8556SOL     OW37300   0.949   3.530   8.791  0.2401 -0.0404  0.3191
 8556SOL    HW137301   1.042   3.548   8.774  1.2925 -1.9981  4.1307
 8556SOL    HW237302   0.939   3.599   8.856 -0.7202 -0.3614  0.5119
 8557SOL     OW37303   2.268   2.958   6.807 -0.2988  0.4964 -0.3589
 8557SOL    HW137304   2.187   2.939   6.760  1.4210 -0.7533 -2.8038
 8557SOL    HW237305   2.241   3.041   6.848  0.9685  0.5495  0.3675
 8558SOL     OW37306   2.859   1.816  14.251  0.7384  0.1947  0.1216
 8558SOL    HW137307   2.887   1.873  14.180 -1.2520  0.5536 -0.3914
 8558SOL    HW237308   2.816   1.748  14.198  1.6428 -0.2071 -0.0988
 8559SOL     OW37309   0.345   3.782   2.832  0.1780 -0.2380  0.0415
 8559SOL    HW137310   0.360   3.814   2.743 -0.9769 -0.7200 -0.3180
 8559SOL    HW237311   0.434   3.802   2.861  0.2454  0.9396 -0.9470
 8560SOL     OW37312   1.999   0.469   7.271  0.2391  0.2343  0.1333
 8560SOL    HW137313   2.024   0.503   7.185 -3.1528  3.2055  0.3143
 8560SOL    HW237314   2.053   0.509   7.339 -0.2597 -1.2858  1.4063
 8561SOL     OW37315   3.455   0.332  13.351  0.6820 -0.2042  0.0741
 8561SOL    HW137316   3.483   0.251  13.308  1.3298  0.8051 -1.4525
 8561SOL    HW237317   3.440   0.380  13.269  1.6832  1.0527  0.6343
 8562SOL     OW37318   3.749   2.933  10.284  0.0582 -0.4750 -0.3448
 8562SOL    HW137319   3.775   2.944  10.375  1.6292 -1.4124 -0.6935
 8562SOL    HW237320   3.728   2.839  10.285 -0.7243 -0.2758  3.1546
 8563SOL     OW37321   0.788   4.309   7.307  0.2922  0.0015  0.0576
 8563SOL    HW137322   0.765   4.224   7.270 -1.3638  1.5318 -2.4403
 8563SOL    HW237323   0.713   4.335   7.361 -0.1831 -0.0674 -0.5709
 8564SOL     OW37324   3.846   3.317   6.573  0.4686 -0.2494  0.1827
 8564SOL    HW137325   3.856   3.225   6.596 -0.6499 -0.6861 -1.0498
 8564SOL    HW237326   3.752   3.315   6.554  0.1482 -1.0862  1.8808
 8565SOL     OW37327   1.731   0.396   2.488  0.9741  0.3392  0.3083
 8565SOL    HW137328   1.797   0.418   2.422 -0.7469  0.5477 -1.3443
 8565SOL    HW237329   1.757   0.305   2.503 -0.9484 -0.1216  0.7910
 8566SOL     OW37330   3.135   4.390   8.569  0.1616  0.5195  0.0866
 8566SOL    HW137331   3.092   4.310   8.599 -0.1238  0.4457 -0.5247
 8566SOL    HW237332   3.141   4.443   8.648  2.1071  3.1395 -1.7990
 8567SOL     OW37333   1.441   3.244   7.426  0.3259 -0.1058 -0.1798
 8567SOL    HW137334   1.498   3.168   7.434  1.9731  1.0692 -0.7495
 8567SOL    HW237335   1.467   3.294   7.503  1.1807 -1.6577  0.5359
 8568SOL     OW37336   4.126   2.076   3.715  0.0680  0.0967 -0.4248
 8568SOL    HW137337   4.198   2.125   3.676  3.6142 -2.7543  2.5759
 8568SOL    HW237338   4.164   2.019   3.782  0.0605 -2.9746 -3.0394
 8569SOL     OW37339   1.985   2.190   3.568  0.4616 -0.0110  0.1687
 8569SOL    HW137340   1.976   2.128   3.641  1.5464 -1.4305 -0.8881
 8569SOL    HW237341   2.068   2.219   3.604  1.9417 -1.5464 -2.0215
 8570SOL     OW37342   1.276   1.943   4.626 -0.3035  0.2081 -0.5371
 8570SOL    HW137343   1.235   1.946   4.712 -1.7910 -0.8025 -1.2061
 8570SOL    HW237344   1.365   1.912   4.648 -0.4285  0.4889  0.3677
 8571SOL     OW37345   2.747   3.652   3.718  0.1531 -0.3098  0.0077
 8571SOL    HW137346   2.758   3.570   3.670  1.7174  0.1864 -0.4908
 8571SOL    HW237347   2.669   3.690   3.680  0.5892  0.8203  0.2428
 8572SOL     OW37348   3.365   2.227   4.953 -0.0828  0.1134  0.3609
 8572SOL    HW137349   3.418   2.165   4.902  2.3474 -0.2042  3.2298
 8572SOL    HW237350   3.426   2.292   4.988 -0.9069  2.1201 -1.9345
 8573SOL     OW37351   1.457   0.851   3.259  0.5187 -0.4053  0.3713
 8573SOL    HW137352   1.433   0.898   3.179  0.3103  0.4687  0.9392
 8573SOL    HW237353   1.385   0.789   3.266 -0.1377  0.3944  0.7967
 8574SOL     OW37354   0.015   1.105   2.809 -0.1080  0.2780 -0.3076
 8574SOL    HW137355   4.710   1.159   2.878  0.6926 -0.5479  0.7874
 8574SOL    HW237356   0.107   1.129   2.818  0.3753 -1.9953  0.8549
 8575SOL     OW37357   3.405   4.591   7.094  0.0661 -0.3920  0.1244
 8575SOL    HW137358   3.401   4.686   7.083  0.7643 -0.2831  0.7869
 8575SOL    HW237359   3.392   4.557   7.006 -1.7002  2.8358 -0.8441
 8576SOL     OW37360   3.113   3.623  13.542 -0.0278  0.1104  0.2263
 8576SOL    HW137361   3.065   3.542  13.559  1.3450 -0.9317 -0.9171
 8576SOL    HW237362   3.090   3.670  13.622  0.9523 -0.1638  0.6756
 8577SOL     OW37363   0.731   0.854   6.979  0.2587 -0.2894  0.0178
 8577SOL    HW137364   0.756   0.882   6.891  1.1614 -1.2056 -0.0171
 8577SOL    HW237365   0.654   0.799   6.968  0.3328  0.1890 -2.7446
 8578SOL     OW37366   2.793   2.572  13.032 -0.2582  0.6555 -0.6934
 8578SOL    HW137367   2.834   2.643  13.082  0.6616 -0.2692 -0.1597
 8578SOL    HW237368   2.717   2.542  13.081 -0.6893  0.5073 -1.4596
 8579SOL     OW37369   1.520   3.194   4.652 -0.4513 -0.0903 -0.0589
 8579SOL    HW137370   1.587   3.150   4.704  1.3192 -0.5309 -2.6868
 8579SOL    HW237371   1.453   3.223   4.714 -0.7975  0.8599 -0.8645
 8580SOL     OW37372   0.342   1.753   7.490  0.0314  0.0077 -0.2440
 8580SOL    HW137373   0.293   1.800   7.557 -2.2113  0.3807 -2.1338
 8580SOL    HW237374   0.428   1.769   7.529  0.2801 -0.3417 -0.6445
 8581SOL     OW37375   1.974   0.156   9.429 -0.2915 -0.4277  0.3448
 8581SOL    HW137376   1.911   0.085   9.417  0.0231 -0.6432 -0.0657
 8581SOL    HW237377   1.970   0.176   9.522 -0.8730  2.0615 -0.2206
 8582SOL     OW37378   4.320   3.752   3.778 -0.3248  0.1725  0.5590
 8582SOL    HW137379   4.362   3.837   3.787  0.8751 -0.4389  0.6485
 8582SOL    HW237380   4.311   3.734   3.871 -1.2051  2.0166  0.8413
 8583SOL     OW37381   3.006   1.971  16.026 -0.1812  0.6954 -0.2249
 8583SOL    HW137382   3.059   1.899  15.993 -2.2113 -1.7578  1.8705
 8583SOL    HW237383   2.918   1.937  16.014 -0.2208  1.8717 -3.2174
 8584SOL     OW37384   4.135   3.801  11.158  0.0460 -0.0001  0.1261
 8584SOL    HW137385   4.153   3.886  11.118  0.6991 -1.0689 -1.8417
 8584SOL    HW237386   4.063   3.824  11.216  1.3221  0.6384  1.4364
 8585SOL     OW37387   1.577   2.748   6.264 -0.3718  0.4275 -0.1259
 8585SOL    HW137388   1.623   2.828   6.237 -0.2463  0.8437  1.2939
 8585SOL    HW237389   1.556   2.701   6.184 -1.5453  2.6050 -1.1081
 8586SOL     OW37390   1.458   3.202  10.801  0.2163 -0.2108 -0.2054
 8586SOL    HW137391   1.386   3.177  10.858  0.5523 -2.5613 -0.7945
 8586SOL    HW237392   1.460   3.297  10.806  3.5586 -0.2585 -0.4957
 8587SOL     OW37393   0.182   1.101  14.657  0.1205 -0.2921 -0.1904
 8587SOL    HW137394   0.253   1.162  14.678  0.8688 -0.9614 -0.8068
 8587SOL    HW237395   0.222   1.030  14.607  0.2677 -0.0021 -0.4835
 8588SOL     OW37396   1.391   4.170   3.454 -0.5364  0.0555 -0.3163
 8588SOL    HW137397   1.425   4.082   3.472  2.1698  1.2475  0.3964
 8588SOL    HW237398   1.313   4.171   3.508 -1.3852  0.4468 -1.5498
 8589SOL     OW37399   0.813   2.631   0.238 -0.1278 -0.1012 -0.4289
 8589SOL    HW137400   0.812   2.547   0.284  0.5099 -0.4196 -0.9972
 8589SOL    HW237401   0.795   2.695   0.307 -0.8154  0.3250 -1.0129
 8590SOL     OW37402   1.744   3.071  14.550  0.5397  0.1654 -0.3278
 8590SOL    HW137403   1.795   3.040  14.625  2.3238  1.4705 -0.9787
 8590SOL    HW237404   1.807   3.077  14.478  1.8923  1.1756  0.9397
 8591SOL     OW37405   3.669   2.360   3.585 -0.1156  0.4306 -0.0428
 8591SOL    HW137406   3.656   2.298   3.656 -3.7582  2.0014  0.6580
 8591SOL    HW237407   3.765   2.359   3.580 -0.0332  1.1605  1.2564
 8592SOL     OW37408   4.332   3.021  16.149 -0.0662 -0.5429  0.3950
 8592SOL    HW137409   4.344   3.108  16.186 -1.9479 -0.6953  1.3621
 8592SOL    HW237410   4.422   2.989  16.154 -0.5337 -2.6097 -4.3132
 8593SOL     OW37411   0.725   4.461   3.203 -0.0122 -0.6191 -0.0780
 8593SOL    HW137412   0.752   4.385   3.151  2.2146 -0.8902  1.4784
 8593SOL    HW237413   0.726   4.528   3.135 -3.1058 -1.4731 -0.9759
 8594SOL     OW37414   3.311   2.557  15.635  0.3462 -0.2601  0.0422
 8594SOL    HW137415   3.355   2.598  15.560 -1.1811  0.1848 -0.5934
 8594SOL    HW237416   3.239   2.614  15.659 -0.0667 -0.1512 -1.4273
 8595SOL     OW37417   0.534   3.590   3.784  0.3244 -0.0624  0.5573
 8595SOL    HW137418   0.537   3.685   3.772 -0.5480 -0.6106 -4.0361
 8595SOL    HW237419   0.517   3.591   3.878  0.9607 -1.5354  0.6983
 8596SOL     OW37420   1.696   4.134   4.594  0.0965  0.5634 -0.1188
 8596SOL    HW137421   1.668   4.161   4.682 -1.0509  0.4184 -0.4354
 8596SOL    HW237422   1.635   4.064   4.570 -0.6124  1.1174  0.0720
 8597SOL     OW37423   4.240   2.313   3.968 -0.1874 -0.1744 -0.4683
 8597SOL    HW137424   4.200   2.237   4.009  3.1371 -0.8101  1.5704
 8597SOL    HW237425   4.172   2.354   3.915  0.5736  1.7169  0.0208
 8598SOL     OW37426   4.145   2.181   2.731 -0.0310 -0.3113 -0.1467
 8598SOL    HW137427   4.211   2.195   2.663 -0.9274  3.5377 -0.1848
 8598SOL    HW237428   4.197   2.125   2.789 -0.7671 -0.5204  0.2974
 8599SOL     OW37429   1.191   0.899  13.480 -0.3033  0.6348 -0.2827
 8599SOL    HW137430   1.103   0.864  13.495  0.0750 -0.3192 -0.3198
 8599SOL    HW237431   1.223   0.927  13.565 -0.7426 -2.5239  0.8981
 8600SOL     OW37432   4.288   4.552  10.220  0.5256  0.1484  0.3724
 8600SOL    HW137433   4.246   4.534  10.304 -1.3846 -0.9500 -0.8027
 8600SOL    HW237434   4.223   4.529  10.153  1.3921  0.2004 -0.4861
 8601SOL     OW37435   1.664   2.194  11.337 -0.2254  0.5933  0.4204
 8601SOL    HW137436   1.614   2.234  11.408  0.6856  1.6545  0.4694
 8601SOL    HW237437   1.746   2.243  11.339 -1.0491  1.8941  2.3565
 8602SOL     OW37438   1.855   1.177   5.691  0.0014 -0.5896 -0.0258
 8602SOL    HW137439   1.943   1.142   5.677  0.4395  0.5127 -0.0742
 8602SOL    HW237440   1.866   1.266   5.725 -0.7194 -1.3196  2.0829
 8603SOL     OW37441   0.246   0.906   7.399 -0.3989  0.1390 -0.3150
 8603SOL    HW137442   0.269   0.935   7.488  0.5704  0.7612 -0.7724
 8603SOL    HW237443   0.252   0.813   7.418  1.8297  0.1242 -1.0282
 8604SOL     OW37444   0.495   3.099   8.212 -0.1468 -0.9070  0.1289
 8604SOL    HW137445   0.428   3.031   8.218 -1.2157  0.1635  0.1739
 8604SOL    HW237446   0.453   3.146   8.140 -0.2081 -0.4246  0.4828
 8605SOL     OW37447   2.835   2.584   3.914  0.0011 -0.1643  0.1667
 8605SOL    HW137448   2.754   2.533   3.909 -0.9799  1.5066 -1.3597
 8605SOL    HW237449   2.902   2.516   3.905 -1.3433 -1.3783 -0.7645
 8606SOL     OW37450   0.695   4.078   2.348  0.0550 -0.1506 -0.0212
 8606SOL    HW137451   0.681   4.152   2.288  4.0963 -0.2435 -1.0985
 8606SOL    HW237452   0.603   4.054   2.354  0.2606 -1.0786 -0.5825
 8607SOL     OW37453   4.159   0.830   6.268 -0.0622  0.0412 -0.0792
 8607SOL    HW137454   4.205   0.778   6.202 -0.6215  1.4092 -1.5328
 8607SOL    HW237455   4.181   0.912   6.224  0.4441  0.2860  0.6336
 8608SOL     OW37456   3.847   4.427  12.694 -0.6715  0.0321  0.2619
 8608SOL    HW137457   3.929   4.385  12.720 -1.9787 -1.5934  1.7859
 8608SOL    HW237458   3.825   4.488  12.764 -1.1779  0.0250  0.1095
 8609SOL     OW37459   4.336   0.512  11.281 -0.8797 -0.4844  0.4321
 8609SOL    HW137460   4.314   0.604  11.293 -2.0994 -0.2820 -3.1847
 8609SOL    HW237461   4.277   0.479  11.214  0.5007 -1.0155 -0.5371
 8610SOL     OW37462   3.830   0.512   5.334 -0.5390 -0.1432  0.1043
 8610SOL    HW137463   3.917   0.538   5.302 -1.8836 -0.1772 -3.5679
 8610SOL    HW237464   3.801   0.599   5.360 -2.3089 -0.3763 -1.0907
 8611SOL     OW37465   0.632   0.093  13.393 -0.0323 -0.0459  0.1529
 8611SOL    HW137466   0.672   0.055  13.315  0.6568  2.5411 -0.7582
 8611SOL    HW237467   0.544   0.054  13.391 -0.6837  1.4231 -0.1752
 8612SOL     OW37468   3.516   4.337   9.749 -0.3032  0.1223 -0.3660
 8612SOL    HW137469   3.574   4.262   9.760 -1.5600 -0.7113  0.6996
 8612SOL    HW237470   3.560   4.383   9.679  1.6319  1.5046  1.7647
 8613SOL     OW37471   1.413   1.774  15.992  0.2537  0.0980 -0.2294
 8613SOL    HW137472   1.379   1.832  15.924  1.2766  0.1434 -0.7142
 8613SOL    HW237473   1.495   1.817  16.017 -0.2628  2.0157 -1.7867
 8614SOL     OW37474   2.020   1.200   0.483 -0.1893  0.2672  0.3557
 8614SOL    HW137475   2.101   1.164   0.446 -2.6200 -1.8820 -2.8778
 8614SOL    HW237476   2.032   1.292   0.461  3.5967  0.3473  2.6828
 8615SOL     OW37477   0.852   0.610   1.668 -0.5915  0.1161  0.3891
 8615SOL    HW137478   0.787   0.591   1.599 -0.6145  1.5648  0.0169
 8615SOL    HW237479   0.931   0.626   1.616  0.4455 -2.1561  1.2778
 8616SOL     OW37480   1.812   3.434  13.163 -0.2396  0.0201 -0.3307
 8616SOL    HW137481   1.819   3.422  13.258  0.2387 -2.2439 -0.6633
 8616SOL    HW237482   1.767   3.519  13.160 -0.7930 -0.2551  0.1674
 8617SOL     OW37483   4.637   2.903   1.639  0.1183  0.1910  0.3382
 8617SOL    HW137484   4.626   2.896   1.734 -0.0026 -1.1789  0.2276
 8617SOL    HW237485   4.548   2.885   1.610  0.5102 -1.6527  0.2437
 8618SOL     OW37486   3.502   2.833  16.639  0.2389  0.1189  0.0887
 8618SOL    HW137487   3.460   2.915  16.665  0.4574  0.2553  0.0074
 8618SOL    HW237488   3.471   2.824  16.549  1.6816 -2.7985 -0.1330
 8619SOL     OW37489   0.947   3.791  10.231  0.1726  0.8384  0.1710
 8619SOL    HW137490   1.003   3.726  10.274  0.8288  0.6770 -0.9369
 8619SOL    HW237491   1.013   3.825  10.171  0.3651  1.2825  0.6385
 8620SOL     OW37492   4.626   1.264   6.431  0.0951 -0.0728 -0.3574
 8620SOL    HW137493   4.704   1.224   6.392  0.1541  1.0520 -1.3970
 8620SOL    HW237494   4.594   1.186   6.475 -1.6915 -0.2122 -1.9045
 8621SOL     OW37495   0.135   3.116  15.765 -0.0273 -0.3651  0.0757
 8621SOL    HW137496   0.139   3.207  15.736  0.6114 -0.1110  0.9705
 8621SOL    HW237497   0.109   3.128  15.857  0.5241  1.7568 -0.0500
 8622SOL     OW37498   2.369   1.268  12.936  0.4556 -0.6102  0.3383
 8622SOL    HW137499   2.343   1.353  12.901 -1.5228 -0.1721  2.8788
 8622SOL    HW237500   2.418   1.225  12.865  0.7949 -1.8595  1.3224
 8623SOL     OW37501   0.620   3.651  15.452  0.6491  0.7194 -0.1249
 8623SOL    HW137502   0.712   3.662  15.475  0.2643  0.8238  1.3624
 8623SOL    HW237503   0.592   3.736  15.486  0.9825  0.8595 -0.2007
 8624SOL     OW37504   2.533   1.914   6.984  0.1436 -0.3280  0.2110
 8624SOL    HW137505   2.605   1.976   6.978 -0.2138  0.0092 -0.6573
 8624SOL    HW237506   2.487   1.943   6.905  0.4311 -1.0289 -0.2174
 8625SOL     OW37507   3.002   0.054  14.412 -0.5211  1.0218  0.4177
 8625SOL    HW137508   2.913   0.088  14.414 -1.5401 -1.6059  0.1230
 8625SOL    HW237509   3.012   0.058  14.316  1.6445 -0.1470  0.5924
 8626SOL     OW37510   1.926   0.987   6.401  0.2458  0.0444 -0.1585
 8626SOL    HW137511   1.848   0.932   6.400  0.0179  0.3351  1.5796
 8626SOL    HW237512   1.992   0.919   6.418  0.0958  0.5652  2.5697
 8627SOL     OW37513   0.445   4.487   8.373 -0.6162  0.2757  0.3633
 8627SOL    HW137514   0.443   4.424   8.445 -0.3354 -1.3577 -1.0709
 8627SOL    HW237515   0.363   4.464   8.328 -0.2449 -0.8390  0.2500
 8628SOL     OW37516   4.311   2.529   8.345  0.1779  0.1363 -0.2665
 8628SOL    HW137517   4.342   2.601   8.291 -0.1394  2.1951  2.3270
 8628SOL    HW237518   4.226   2.564   8.372  0.0777 -0.1666 -0.1832
 8629SOL     OW37519   2.593   4.055   2.765 -0.1265  0.4707 -0.2834
 8629SOL    HW137520   2.547   4.129   2.804 -0.6946 -0.0773  0.0657
 8629SOL    HW237521   2.608   4.089   2.677  1.8658  1.6095  0.4730
 8630SOL     OW37522   3.794   1.314   6.535 -0.0165 -0.0458 -0.5894
 8630SOL    HW137523   3.852   1.346   6.604 -0.3470 -0.2948 -0.1999
 8630SOL    HW237524   3.715   1.367   6.541 -0.9750 -1.6898  1.0766
 8631SOL     OW37525   1.844   2.455   8.815  0.3425 -0.0111 -0.2013
 8631SOL    HW137526   1.906   2.522   8.785  0.1855  0.5306  0.6810
 8631SOL    HW237527   1.804   2.425   8.734 -0.4482 -1.4555  0.7235
 8632SOL     OW37528   4.387   2.539   5.014  0.1253  0.2792 -0.0601
 8632SOL    HW137529   4.343   2.492   5.085  1.3367  0.6834  0.9598
 8632SOL    HW237530   4.378   2.632   5.031 -2.5587  0.3031 -1.7199
 8633SOL     OW37531   3.313   3.807  13.794 -1.0633 -0.5607  0.0071
 8633SOL    HW137532   3.353   3.780  13.711  0.0284  0.1169  0.3159
 8633SOL    HW237533   3.220   3.805  13.769 -0.6690  0.5036 -1.5339
 8634SOL     OW37534   3.896   4.280   6.390 -0.2044 -0.2249  0.2478
 8634SOL    HW137535   3.820   4.235   6.427 -0.0172  0.4337  1.4358
 8634SOL    HW237536   3.870   4.370   6.408 -0.1871 -0.1643 -0.0402
 8635SOL     OW37537   2.055   2.208   6.722  0.0120  0.0157 -0.2421
 8635SOL    HW137538   2.144   2.239   6.736 -0.2668  0.6510  0.1227
 8635SOL    HW237539   2.036   2.162   6.804  0.9230  3.1065  1.6988
 8636SOL     OW37540   0.404   2.910   5.877  0.2903 -0.4692 -0.0478
 8636SOL    HW137541   0.315   2.880   5.860  0.8072 -0.3740 -3.0006
 8636SOL    HW237542   0.428   2.861   5.955  0.5882  3.9583  2.6298
 8637SOL     OW37543   3.710   3.478   4.105 -0.4741 -0.0461  0.1241
 8637SOL    HW137544   3.658   3.458   4.182 -1.5376 -1.3663 -0.9393
 8637SOL    HW237545   3.716   3.394   4.061  0.4118 -1.3058  2.6666
 8638SOL     OW37546   2.219   2.714   5.552  0.3680 -0.3754 -0.0603
 8638SOL    HW137547   2.215   2.810   5.550 -0.6093 -0.3706  1.8555
 8638SOL    HW237548   2.147   2.698   5.491  0.2103 -0.6400  0.1944
 8639SOL     OW37549   1.445   4.472  15.966  0.2827 -0.3601 -0.0828
 8639SOL    HW137550   1.412   4.560  15.952 -1.3515 -0.8180  0.9311
 8639SOL    HW237551   1.463   4.474  16.059  0.9668  0.2075 -0.2297
 8640SOL     OW37552   3.316   1.759   5.917  0.1923 -0.1479 -0.2120
 8640SOL    HW137553   3.387   1.700   5.893  1.2883  0.5608  1.2731
 8640SOL    HW237554   3.241   1.725   5.868 -1.5817  4.3799 -0.6588
 8641SOL     OW37555   3.720   3.406  16.477 -0.1864 -0.3877  0.0021
 8641SOL    HW137556   3.779   3.469  16.519 -2.5117  1.0623  1.1313
 8641SOL    HW237557   3.744   3.325  16.522  0.0649  1.1747  2.7050
 8642SOL     OW37558   4.328   4.012  10.941 -0.2871  0.2282  0.0845
 8642SOL    HW137559   4.414   4.023  10.902 -1.2942 -1.2516 -2.5434
 8642SOL    HW237560   4.294   3.948  10.879 -0.9841  0.5940  0.0887
 8643SOL     OW37561   2.286   1.087  17.312  0.0013  0.1961  0.4813
 8643SOL    HW137562   2.302   1.109  17.404 -2.5160 -2.4508  1.5750
 8643SOL    HW237563   2.370   1.107  17.272 -1.7074  1.3932 -2.4658
 8644SOL     OW37564   0.753   1.909  14.929 -0.0875  0.0541  0.6390
 8644SOL    HW137565   0.791   1.834  14.976 -0.3594 -0.1473  0.5394
 8644SOL    HW237566   0.721   1.963  15.001  1.9097  3.0296 -0.7391
 8645SOL     OW37567   0.383   3.749   7.515 -0.2733  0.3342 -0.1069
 8645SOL    HW137568   0.471   3.717   7.494  0.6262  1.4501  1.9721
 8645SOL    HW237569   0.382   3.829   7.462 -0.8541 -0.5420 -1.4308
 8646SOL     OW37570   0.793   4.411   8.081  0.2245  0.2148 -0.1787
 8646SOL    HW137571   0.755   4.328   8.110 -1.5437  1.9410  2.4425
 8646SOL    HW237572   0.790   4.463   8.161  0.1612 -0.4068  0.2257
 8647SOL     OW37573   2.907   3.376   8.107  0.0853 -0.7515 -0.1752
 8647SOL    HW137574   2.952   3.341   8.030 -0.9197 -3.0293  0.2893
 8647SOL    HW237575   2.851   3.444   8.070 -3.5687 -2.2016  2.7284
 8648SOL     OW37576   2.464   3.057   7.603  0.0033 -0.4426  0.4140
 8648SOL    HW137577   2.535   3.025   7.547  0.2311 -2.2951  1.7372
 8648SOL    HW237578   2.484   3.150   7.604 -0.0729 -0.3973 -1.1175
 8649SOL     OW37579   3.946   0.119   4.200 -0.2590  0.0830  1.0420
 8649SOL    HW137580   3.892   0.108   4.122 -1.7982  1.0696  1.9613
 8649SOL    HW237581   3.944   0.028   4.230  0.2859 -0.1895  0.2424
 8650SOL     OW37582   3.977   0.728   6.453  0.2082  0.2111 -0.0882
 8650SOL    HW137583   3.984   0.801   6.515  1.0457 -1.0423  1.3152
 8650SOL    HW237584   4.040   0.764   6.390  0.4615 -1.0157 -0.5347
 8651SOL     OW37585   4.643   4.056   6.915 -0.1509 -0.1904  0.4448
 8651SOL    HW137586   4.695   4.007   6.851  0.5759  1.3658 -0.1536
 8651SOL    HW237587   4.710   4.059   6.984  0.2217 -0.6065  0.1081
 8652SOL     OW37588   3.142   1.870   2.576 -0.2385  0.0012 -0.0673
 8652SOL    HW137589   3.067   1.867   2.636  0.6085 -1.3456  0.9274
 8652SOL    HW237590   3.108   1.924   2.505 -0.6278 -1.7607 -1.2368
 8653SOL     OW37591   1.162   3.861   3.410 -0.2931 -0.1230  0.0056
 8653SOL    HW137592   1.181   3.914   3.332  1.8171  0.8226  1.1590
 8653SOL    HW237593   1.104   3.921   3.456  0.8427  0.2677  0.9399
 8654SOL     OW37594   2.680   0.405  17.237  0.2410 -0.6220 -0.4372
 8654SOL    HW137595   2.740   0.418  17.310 -0.7355 -1.1156  0.4498
 8654SOL    HW237596   2.710   0.484  17.191 -1.3376 -0.7088 -1.6173
 8655SOL     OW37597   1.596   1.551   4.641  0.0248  0.2805 -0.1727
 8655SOL    HW137598   1.561   1.514   4.559  0.3632 -2.9589  1.1251
 8655SOL    HW237599   1.670   1.492   4.651 -1.4829 -2.1103 -2.9023
 8656SOL     OW37600   2.622   3.839   9.626 -0.1334 -0.7399 -0.1826
 8656SOL    HW137601   2.715   3.852   9.646 -0.3390  1.5160 -0.6623
 8656SOL    HW237602   2.575   3.894   9.689  2.2905  0.3967  0.6262
 8657SOL     OW37603   1.105   3.948   6.516 -0.3090 -0.1372 -0.3287
 8657SOL    HW137604   1.178   3.997   6.478  1.7282 -2.2951  0.7998
 8657SOL    HW237605   1.061   4.025   6.552  0.8011  0.1848  0.3452
 8658SOL     OW37606   4.049   3.879   6.378  0.4416  0.2412 -0.0680
 8658SOL    HW137607   4.141   3.881   6.407  0.7442 -1.0087 -0.9504
 8658SOL    HW237608   4.063   3.879   6.283 -0.3388 -0.1683 -0.1759
 8659SOL     OW37609   2.268   2.263   8.804  0.2820  0.1804 -0.0239
 8659SOL    HW137610   2.307   2.181   8.836 -0.4564  0.3356  1.2231
 8659SOL    HW237611   2.235   2.241   8.717  0.2094 -1.1331  0.3294
 8660SOL     OW37612   3.681   2.290  11.431 -0.5118 -0.0862  0.0348
 8660SOL    HW137613   3.774   2.291  11.453 -0.3653 -0.0179 -0.5726
 8660SOL    HW237614   3.694   2.252  11.344 -0.0570 -0.4329  0.2525
 8661SOL     OW37615   1.632   0.518   8.614 -0.3083 -0.5099  0.3574
 8661SOL    HW137616   1.542   0.505   8.645 -0.4737 -1.8157 -0.6655
 8661SOL    HW237617   1.670   0.550   8.695 -3.2518 -0.6842  1.7996
 8662SOL     OW37618   2.137   2.777   3.050 -0.0337 -0.0698  0.2435
 8662SOL    HW137619   2.070   2.708   3.059  0.7062 -1.3086 -3.9243
 8662SOL    HW237620   2.131   2.795   2.956  0.4233  0.1061  0.2508
 8663SOL     OW37621   1.143   2.329  11.253  0.1982 -0.2496 -0.1666
 8663SOL    HW137622   1.186   2.313  11.169  2.1085  1.4434  0.5018
 8663SOL    HW237623   1.089   2.250  11.253  0.1873 -0.2448 -1.5338
 8664SOL     OW37624   2.904   4.545   7.828  0.1145  0.6679 -0.1350
 8664SOL    HW137625   2.816   4.517   7.851  0.6220 -0.2164  0.6924
 8664SOL    HW237626   2.948   4.526   7.910 -1.5175  0.0072  0.5639
 8665SOL     OW37627   1.657   1.015   4.925  0.2651  0.1730  0.8327
 8665SOL    HW137628   1.668   1.047   4.835 -0.2270 -0.6192  0.4893
 8665SOL    HW237629   1.655   0.920   4.912 -0.4617  0.3316 -0.2503
 8666SOL     OW37630   0.977   1.183   5.319 -0.0604 -0.0836 -0.0621
 8666SOL    HW137631   0.955   1.208   5.409  1.2895  2.6816 -0.5241
 8666SOL    HW237632   1.072   1.176   5.331  0.3039  2.7979 -1.4609
 8667SOL     OW37633   3.696   0.590   5.612 -0.5883  0.1406 -0.2589
 8667SOL    HW137634   3.632   0.519   5.610  1.4296 -1.6826 -0.7683
 8667SOL    HW237635   3.676   0.631   5.696 -1.8499  0.9112 -0.9412
 8668SOL     OW37636   4.267   0.223   2.140  0.4274 -0.8011  0.2187
 8668SOL    HW137637   4.233   0.207   2.228 -2.0618 -0.5190 -0.6869
 8668SOL    HW237638   4.264   0.129   2.123  1.9581 -0.7240 -0.4751
 8669SOL     OW37639   3.164   1.424  15.532 -0.7389  0.1970 -0.0032
 8669SOL    HW137640   3.104   1.418  15.607 -1.6887  0.2858 -0.7682
 8669SOL    HW237641   3.103   1.446  15.462  0.0911 -1.9807 -1.4165
 8670SOL     OW37642   3.537   0.818  13.627  0.1124 -0.5730  0.3587
 8670SOL    HW137643   3.599   0.847  13.559 -1.0364  0.1742 -0.3728
 8670SOL    HW237644   3.586   0.749  13.670  0.8833  0.0240  0.4453
 8671SOL     OW37645   4.287   0.144  11.090 -0.6565 -0.6761 -0.2931
 8671SOL    HW137646   4.273   0.195  11.010  4.0846  2.8444  1.0812
 8671SOL    HW237647   4.350   0.074  11.073 -1.2513 -1.4746  0.8358
 8672SOL     OW37648   4.040   0.960   6.568 -0.0645  0.3501 -0.3070
 8672SOL    HW137649   3.989   0.997   6.640 -0.5545 -1.3287  0.1958
 8672SOL    HW237650   4.001   1.004   6.492  0.4061  0.8696 -0.2473
 8673SOL     OW37651   3.247   3.514   5.216  0.4294  0.0145 -0.9194
 8673SOL    HW137652   3.211   3.482   5.133  0.5324 -2.4676  0.0193
 8673SOL    HW237653   3.173   3.569   5.244  1.6706  0.5061  1.3385
 8674SOL     OW37654   0.977   3.669   1.450 -0.1767  0.3357  0.1703
 8674SOL    HW137655   0.893   3.629   1.472 -2.1119  2.8583 -2.5910
 8674SOL    HW237656   1.023   3.587   1.431  1.6057  1.8094 -1.7513
 8675SOL     OW37657   4.160   2.258   0.688  0.2619 -0.6720 -0.5500
 8675SOL    HW137658   4.066   2.262   0.705  0.5956 -0.5474  1.2639
 8675SOL    HW237659   4.183   2.214   0.770 -0.0637 -1.6268 -0.9714
 8676SOL     OW37660   0.729   2.048   7.622 -0.0629 -0.1688  0.9790
 8676SOL    HW137661   0.662   2.106   7.659  1.5851  2.7431 -0.5278
 8676SOL    HW237662   0.723   1.962   7.662  1.8443 -1.1626 -0.8982
 8677SOL     OW37663   0.004   3.125   3.497  0.2027 -0.3604 -0.4056
 8677SOL    HW137664   0.059   3.150   3.571  0.6383  0.3235 -0.9729
 8677SOL    HW237665   4.666   3.091   3.551  0.1086  1.2958  0.5060
 8678SOL     OW37666   1.445   2.010   6.113  0.8047  0.0759  0.4575
 8678SOL    HW137667   1.381   1.949   6.148  0.1866 -0.5878 -1.8388
 8678SOL    HW237668   1.447   1.999   6.018  0.9727  0.2650  0.4386
 8679SOL     OW37669   0.046   0.315   3.524 -0.0639  0.0175 -0.4647
 8679SOL    HW137670   4.722   0.284   3.454  0.0618  0.3375 -0.7130
 8679SOL    HW237671   0.131   0.303   3.482 -1.1389 -3.5029 -1.6829
 8680SOL     OW37672   0.429   2.179  15.324  0.6040  0.0956  0.5624
 8680SOL    HW137673   0.340   2.214  15.324  0.9462  0.9737 -0.9425
 8680SOL    HW237674   0.408   2.093  15.362 -0.2831 -0.1552 -0.4987
 8681SOL     OW37675   3.321   3.465   6.891  0.1313  0.0880 -0.1442
 8681SOL    HW137676   3.261   3.534   6.918 -0.1711 -0.9281  1.7866
 8681SOL    HW237677   3.332   3.487   6.799 -1.3650 -0.6154 -0.4807
 8682SOL     OW37678   2.697   0.836   3.205  0.1671  0.6685  0.4581
 8682SOL    HW137679   2.706   0.844   3.300  1.0686 -0.1959  0.4485
 8682SOL    HW237680   2.694   0.926   3.171 -0.3157  1.3226  2.1859
 8683SOL     OW37681   2.598   1.083  13.506 -0.2445  0.1663 -0.0681
 8683SOL    HW137682   2.634   1.052  13.589  0.4088 -1.7402 -1.0597
 8683SOL    HW237683   2.616   1.177  13.513 -0.8340  0.0344  3.2282
 8684SOL     OW37684   4.028   0.714   0.993  0.5862 -0.3108 -0.3939
 8684SOL    HW137685   4.024   0.693   0.900  2.1691  0.1654 -0.5664
 8684SOL    HW237686   4.045   0.627   1.029 -0.2115  0.1920  1.2159
 8685SOL     OW37687   0.431   3.202  11.554  0.0208 -0.0404 -0.2191
 8685SOL    HW137688   0.509   3.171  11.600 -1.1703 -2.1723  0.3954
 8685SOL    HW237689   0.421   3.294  11.581  0.0934 -0.3835  0.9823
 8686SOL     OW37690   4.431   0.926   7.756 -0.2166  0.1138 -0.5600
 8686SOL    HW137691   4.383   0.946   7.837  0.7216  0.3005 -0.0530
 8686SOL    HW237692   4.507   0.880   7.791  0.1710  0.4286 -0.9740
 8687SOL     OW37693   0.011   1.679   3.899 -0.6514  1.5540 -0.2179
 8687SOL    HW137694   0.046   1.738   3.832  0.3076 -0.8189 -1.7906
 8687SOL    HW237695   0.094   1.660   3.943 -0.7487  1.1723 -0.1962
 8688SOL     OW37696   0.591   0.603   6.948  0.0446 -0.6720 -0.2168
 8688SOL    HW137697   0.557   0.541   6.884  1.8716 -2.2250  0.3218
 8688SOL    HW237698   0.542   0.570   7.023 -0.1825 -1.7642 -0.8466
 8689SOL     OW37699   3.496   1.751  14.286  0.0430 -0.7904 -0.0348
 8689SOL    HW137700   3.430   1.748  14.216  0.2299  0.7970 -0.2884
 8689SOL    HW237701   3.452   1.807  14.349 -0.8787 -1.6972  0.1306
 8690SOL     OW37702   4.725   0.772   6.749 -0.5986  0.5043  0.0387
 8690SOL    HW137703   0.047   0.834   6.702 -0.2469  1.3373  1.5381
 8690SOL    HW237704   4.731   0.803   6.840  0.2609 -0.4048  0.2909
 8691SOL     OW37705   1.541   4.103  17.435  0.4873  0.1362 -0.1912
 8691SOL    HW137706   1.494   4.040  17.381  1.6301 -1.4964  0.7412
 8691SOL    HW237707   1.566   4.171  17.372  0.5256  0.7277  0.4516
 8692SOL     OW37708   0.339   1.626   2.137  0.5376  0.5027  0.1116
 8692SOL    HW137709   0.380   1.602   2.055 -0.7828 -1.2899 -0.0419
 8692SOL    HW237710   0.380   1.576   2.207  0.9203  0.6440 -0.0163
 8693SOL     OW37711   0.478   4.544  14.094 -0.4173 -0.5219 -0.1044
 8693SOL    HW137712   0.520   4.473  14.046 -0.4892  0.3138 -1.3824
 8693SOL    HW237713   0.549   4.604  14.113  0.8599 -1.8825 -0.5780
 8694SOL     OW37714   0.804   3.508  14.906  0.1607 -0.1640  0.2014
 8694SOL    HW137715   0.876   3.558  14.867  0.7113 -1.2997 -0.2175
 8694SOL    HW237716   0.809   3.441  14.837 -0.6458 -0.0717  0.0508
 8695SOL     OW37717   2.715   2.007   5.430 -0.1541 -0.2192 -0.6947
 8695SOL    HW137718   2.785   1.947   5.455 -1.2011 -1.1005  0.0973
 8695SOL    HW237719   2.745   2.036   5.344 -0.0773  2.3300  0.1678
 8696SOL     OW37720   2.427   2.206  13.098 -0.5099  0.1744  0.0401
 8696SOL    HW137721   2.346   2.176  13.056  0.5099 -0.5704 -1.3962
 8696SOL    HW237722   2.436   2.292  13.057 -1.0139  0.8722  1.4011
 8697SOL     OW37723   0.796   1.119   7.495 -0.1436 -0.8775  0.2336
 8697SOL    HW137724   0.737   1.134   7.569  1.3439  0.4222  1.1562
 8697SOL    HW237725   0.762   1.035   7.465  0.2627 -1.3200  0.9986
 8698SOL     OW37726   0.419   0.509   8.582  0.1392  0.1558 -0.2338
 8698SOL    HW137727   0.366   0.429   8.584 -0.4574  0.5363 -0.7838
 8698SOL    HW237728   0.353   0.573   8.608 -0.2140  0.9119 -2.9472
 8699SOL     OW37729   1.628   3.774  10.964  0.5067 -0.4143  0.5102
 8699SOL    HW137730   1.668   3.690  10.986  1.0551  0.0993  1.4854
 8699SOL    HW237731   1.601   3.822  11.042  1.5379  0.1969  0.4929
 8700SOL     OW37732   1.896   2.068   9.359 -0.3789  0.4025 -0.3540
 8700SOL    HW137733   1.820   2.125   9.366  0.4300  1.0633  3.1222
 8700SOL    HW237734   1.876   2.005   9.290  0.5720 -1.4904  1.0874
 8701SOL     OW37735   1.844   1.939   9.105  0.2050  0.4114 -0.1380
 8701SOL    HW137736   1.827   2.016   9.051 -1.2336 -0.6162 -1.1494
 8701SOL    HW237737   1.925   1.911   9.061 -1.8115 -1.6554 -2.5485
 8702SOL     OW37738   3.700   1.771   8.749  0.4484  0.5967 -0.6381
 8702SOL    HW137739   3.712   1.838   8.683 -0.4852 -1.5278 -2.9672
 8702SOL    HW237740   3.683   1.698   8.689  3.7655 -0.2669 -0.5104
 8703SOL     OW37741   1.626   0.861   7.989  0.7159 -0.8060 -0.1785
 8703SOL    HW137742   1.721   0.846   7.985  0.9601  0.4696  0.8080
 8703SOL    HW237743   1.632   0.925   8.060 -0.7053 -1.4046  0.4785
 8704SOL     OW37744   3.633   3.716   3.216  0.3417 -0.3164 -0.4407
 8704SOL    HW137745   3.556   3.773   3.213 -0.2257 -0.9849  1.9166
 8704SOL    HW237746   3.620   3.657   3.142 -0.1401 -2.2233  1.1818
 8705SOL     OW37747   2.989   2.753   5.893 -0.0918 -0.2075  0.0748
 8705SOL    HW137748   2.964   2.845   5.882 -0.1663 -0.2999 -0.5511
 8705SOL    HW237749   2.948   2.711   5.817 -0.8121 -2.0059  1.4622
 8706SOL     OW37750   1.606   1.490   5.277  0.3279 -0.3170  0.5789
 8706SOL    HW137751   1.682   1.516   5.329  2.3275 -0.1933 -2.3864
 8706SOL    HW237752   1.653   1.428   5.221 -1.7000 -0.3506 -1.1222
 8707SOL     OW37753   3.863   2.144   8.277 -0.1309 -0.3990  0.0378
 8707SOL    HW137754   3.936   2.086   8.258 -0.7400 -1.1259 -0.1011
 8707SOL    HW237755   3.810   2.133   8.198 -1.6892  1.1813  0.8611
 8708SOL     OW37756   1.459   3.381   4.483  0.1547  0.1191 -0.3290
 8708SOL    HW137757   1.446   3.445   4.553  2.3342 -0.6108  0.7288
 8708SOL    HW237758   1.469   3.299   4.531  0.5407 -0.2420 -1.0240
 8709SOL     OW37759   4.446   3.096   6.054 -0.3278 -0.5316 -0.7233
 8709SOL    HW137760   4.478   3.130   5.971 -1.2226  0.7536 -0.5400
 8709SOL    HW237761   4.410   3.175   6.095 -0.4657 -2.0377  2.0818
 8710SOL     OW37762   1.911   0.124   5.284 -0.3403  0.8020  0.0426
 8710SOL    HW137763   1.966   0.199   5.263  0.1826  0.5296  0.4274
 8710SOL    HW237764   1.889   0.076   5.204  1.3914 -0.9128  0.5836
 8711SOL     OW37765   1.518   1.820  17.672  0.1625 -0.9339 -0.7099
 8711SOL    HW137766   1.437   1.872  17.671  1.8007  1.6164 -1.0113
 8711SOL    HW237767   1.538   1.831   0.030 -0.2146 -0.2755 -0.7045
 8712SOL     OW37768   0.972   1.396   3.620 -0.2160 -0.2473  0.2355
 8712SOL    HW137769   0.938   1.485   3.630  0.2892 -0.1907  1.3768
 8712SOL    HW237770   1.043   1.415   3.558 -1.8074  0.2862 -1.4283
 8713SOL     OW37771   3.283   0.588   8.067  0.1698 -0.1610  0.0720
 8713SOL    HW137772   3.259   0.592   8.160  1.3949 -2.3093  0.4832
 8713SOL    HW237773   3.288   0.683   8.054  0.4378 -0.1106  0.5270
 8714SOL     OW37774   0.719   3.174   5.355  0.0455 -0.3253 -0.3122
 8714SOL    HW137775   0.691   3.238   5.420 -1.2998 -2.2540  0.9897
 8714SOL    HW237776   0.636   3.149   5.314 -1.5590  1.7135  1.7172
 8715SOL     OW37777   2.541   3.013   5.224 -0.3884  0.4322  0.4963
 8715SOL    HW137778   2.526   3.055   5.140 -0.0625 -1.8521 -0.6957
 8715SOL    HW237779   2.561   3.090   5.277 -0.6818 -0.0137  1.2556
 8716SOL     OW37780   4.665   0.914   4.484  0.6936 -0.0998 -0.2492
 8716SOL    HW137781   4.614   0.961   4.549  1.4336  0.3840 -0.0174
 8716SOL    HW237782   4.697   0.833   4.523 -1.9101 -0.5242  0.9572
 8717SOL     OW37783   1.344   0.164   5.830 -0.1917 -0.3769  0.1407
 8717SOL    HW137784   1.381   0.247   5.862  1.2854 -0.4249 -1.5020
 8717SOL    HW237785   1.404   0.101   5.870  2.7449  1.4892 -1.3356
 8718SOL     OW37786   3.793   1.084   3.562 -0.2043 -0.1621  0.6259
 8718SOL    HW137787   3.724   1.063   3.625  1.0330  1.3895  2.4729
 8718SOL    HW237788   3.809   1.177   3.579 -1.1813  0.2731 -0.8453
 8719SOL     OW37789   4.698   1.690   5.526 -0.4410  0.1445  0.2283
 8719SOL    HW137790   4.674   1.609   5.572  0.0141 -1.0599 -1.6766
 8719SOL    HW237791   0.013   1.660   5.449  0.3775  1.9142  0.0628
 8720SOL     OW37792   0.532   3.326  17.321  0.2001  0.0639 -0.3511
 8720SOL    HW137793   0.525   3.420  17.305  1.4629 -0.0366 -1.4820
 8720SOL    HW237794   0.569   3.308  17.407 -0.6532  0.9035  0.1864
 8721SOL     OW37795   3.174   2.157   4.539  0.4812 -0.1760  0.7453
 8721SOL    HW137796   3.185   2.118   4.452  2.7866 -0.0025  0.9646
 8721SOL    HW237797   3.191   2.251   4.536 -2.6561  0.3691  0.8732
 8722SOL     OW37798   1.603   1.682   3.591 -0.0777 -0.0329  0.0427
 8722SOL    HW137799   1.575   1.654   3.504 -2.3525 -1.4264  1.2193
 8722SOL    HW237800   1.634   1.771   3.574  1.1544 -0.4824 -0.1081
 8723SOL     OW37801   2.582   2.764   5.206 -0.2502  0.2110 -0.8218
 8723SOL    HW137802   2.601   2.747   5.298 -1.9300  0.1724 -0.4789
 8723SOL    HW237803   2.551   2.853   5.224 -0.0637  0.0575  0.2455
 8724SOL     OW37804   2.735   0.951  14.265 -0.3188  0.0182  0.3374
 8724SOL    HW137805   2.678   0.969  14.340 -3.8277 -0.2341 -2.2591
 8724SOL    HW237806   2.767   0.863  14.285  1.5442  0.4989 -0.5770
 8725SOL     OW37807   2.742   2.919   7.157 -0.3198  0.0401  0.4373
 8725SOL    HW137808   2.743   2.872   7.073 -2.4650 -1.1928  1.1030
 8725SOL    HW237809   2.829   2.959   7.161  0.6652 -1.8628 -2.2597
 8726SOL     OW37810   1.434   0.531   9.720  0.3282 -0.3722  0.6169
 8726SOL    HW137811   1.431   0.604   9.781 -1.4327  0.4131 -0.4171
 8726SOL    HW237812   1.343   0.503   9.724  0.7119 -1.8587 -1.1209
 8727SOL     OW37813   2.259   2.526  14.580 -0.2207 -0.2860  1.0177
 8727SOL    HW137814   2.222   2.575  14.507  1.4835  0.3546  0.5816
 8727SOL    HW237815   2.204   2.573  14.642 -0.8479 -1.1297  1.1010
 8728SOL     OW37816   1.962   0.937   6.111 -0.6452  0.7049 -0.2599
 8728SOL    HW137817   1.875   0.897   6.114  0.2354 -1.2155 -0.1157
 8728SOL    HW237818   1.941   1.030   6.103 -1.7413  0.3417 -1.6118
 8729SOL     OW37819   1.308   2.335   7.699 -0.3598 -0.1488 -0.6037
 8729SOL    HW137820   1.353   2.367   7.776 -1.8402 -1.1091  0.6589
 8729SOL    HW237821   1.236   2.398   7.708  0.4011  0.2720  2.2151
 8730SOL     OW37822   0.263   0.405  16.191 -0.2523  0.1238  0.2615
 8730SOL    HW137823   0.326   0.427  16.123  0.0407  0.8607  0.7665
 8730SOL    HW237824   0.310   0.442  16.266 -1.4584 -0.6063  1.3878
 8731SOL     OW37825   3.239   0.475   6.000 -0.4407  0.2705 -0.3180
 8731SOL    HW137826   3.330   0.478   6.032 -0.2629  0.0636 -0.8072
 8731SOL    HW237827   3.242   0.453   5.907 -2.4011 -0.9983 -0.0618
 8732SOL     OW37828   4.401   0.999   8.763  0.4320 -0.2402 -0.3339
 8732SOL    HW137829   4.325   0.982   8.819 -0.1505 -0.1390 -1.0926
 8732SOL    HW237830   4.389   1.087   8.728  3.0105  0.4657  0.5505
 8733SOL     OW37831   2.351   0.682   4.602  0.2484 -0.2108 -0.8109
 8733SOL    HW137832   2.287   0.621   4.565 -0.9224  1.2312 -1.1665
 8733SOL    HW237833   2.359   0.637   4.687  0.7552  0.1288 -0.6801
 8734SOL     OW37834   2.489   2.079   0.497 -0.0347 -0.3702  0.5183
 8734SOL    HW137835   2.418   2.020   0.473  0.6181 -1.6765  1.7764
 8734SOL    HW237836   2.567   2.024   0.492  1.3072  1.5409  0.3634
 8735SOL     OW37837   2.711   3.141  17.722 -0.1551  0.4995  0.1879
 8735SOL    HW137838   2.648   3.212  17.733 -1.1567 -0.6073  1.6865
 8735SOL    HW237839   2.784   3.186  17.681  0.4632  0.7142  1.5075
 8736SOL     OW37840   0.109   0.309   0.513  0.0370  0.0189 -0.1137
 8736SOL    HW137841   0.197   0.325   0.480  0.1317  0.6170  0.4274
 8736SOL    HW237842   0.091   0.218   0.489  1.6218  0.1369 -1.7756
 8737SOL     OW37843   3.950   3.359   9.054  0.1607  0.0779 -0.0334
 8737SOL    HW137844   3.918   3.431   9.108 -0.7790 -0.1631 -0.2800
 8737SOL    HW237845   4.007   3.317   9.119 -0.6790 -0.5827  0.2679
 8738SOL     OW37846   3.440   0.110   8.126  0.8270  0.0785 -0.0746
 8738SOL    HW137847   3.410   0.191   8.085 -0.5313 -0.3293  0.1059
 8738SOL    HW237848   3.505   0.076   8.064  1.1137  2.1857 -0.9238
 8739SOL     OW37849   1.988   0.186   6.372 -0.1941  0.2237 -0.0722
 8739SOL    HW137850   1.917   0.249   6.368 -1.0323 -0.7505 -0.4222
 8739SOL    HW237851   2.061   0.247   6.386 -1.7511  1.4309  2.7267
 8740SOL     OW37852   0.146   3.641   1.746  0.0512 -0.4673  0.1172
 8740SOL    HW137853   0.238   3.620   1.732 -0.1013 -1.3897  0.5440
 8740SOL    HW237854   0.135   3.576   1.815 -0.9160  0.6346  0.9965
 8741SOL     OW37855   0.283   0.934   2.423  0.0080  0.3399 -0.2550
 8741SOL    HW137856   0.341   0.893   2.359  1.2130  0.5487  0.6898
 8741SOL    HW237857   0.208   0.964   2.372 -2.3939 -2.4448  1.6245
 8742SOL     OW37858   4.568   3.496   5.893 -0.1262 -0.2853 -0.0341
 8742SOL    HW137859   4.595   3.546   5.815  0.9341 -0.1880  0.4018
 8742SOL    HW237860   4.578   3.555   5.968 -2.8202 -0.0091  0.1164
 8743SOL     OW37861   0.739   3.798   8.449  0.1737  0.4765  0.9544
 8743SOL    HW137862   0.755   3.843   8.532  1.0317  0.2514  0.9125
 8743SOL    HW237863   0.805   3.729   8.459  0.9349  0.6845 -2.5114
 8744SOL     OW37864   4.660   0.103   6.849  0.3277 -0.0527  0.0588
 8744SOL    HW137865   4.667   0.107   6.753  1.5624 -1.3183  0.0794
 8744SOL    HW237866   4.686   0.012   6.865 -2.4909 -0.9061 -0.2334
 8745SOL     OW37867   4.149   1.884   7.223 -0.3972  0.0544  0.4166
 8745SOL    HW137868   4.188   1.881   7.311 -0.0446 -0.3171  0.2506
 8745SOL    HW237869   4.084   1.815   7.238  1.7998 -2.0825  0.0023
 8746SOL     OW37870   0.730   0.485   7.598  0.0479 -0.3853  0.1913
 8746SOL    HW137871   0.785   0.563   7.602 -2.8747  1.6088  1.7669
 8746SOL    HW237872   0.709   0.487   7.504 -0.8274 -0.2809  0.3892
 8747SOL     OW37873   0.215   0.602   2.320 -0.6432 -0.4822 -0.1387
 8747SOL    HW137874   0.199   0.660   2.245  1.4861  0.6032  0.2479
 8747SOL    HW237875   0.127   0.605   2.359 -0.3383 -1.6243  0.6096
 8748SOL     OW37876   3.174   3.799   7.504 -0.1968 -0.3328  0.1698
 8748SOL    HW137877   3.171   3.892   7.481  1.7351 -0.1144  0.7984
 8748SOL    HW237878   3.246   3.781   7.443  0.9861 -0.6556  1.6581
 8749SOL     OW37879   3.472   0.056   8.580 -0.1029 -0.0671  0.2908
 8749SOL    HW137880   3.401   4.727   8.592 -1.2939  1.6217  2.0699
 8749SOL    HW237881   3.502   0.015   8.499  1.0747 -0.0799  0.7344
 8750SOL     OW37882   0.155   1.057   4.399 -0.1890 -0.1676 -0.4960
 8750SOL    HW137883   0.070   1.015   4.411 -0.6060  1.2188  1.3593
 8750SOL    HW237884   0.147   1.149   4.424 -0.5596 -0.3300 -0.0323
 8751SOL     OW37885   0.325   4.591   3.196 -0.4697 -0.8966  0.7495
 8751SOL    HW137886   0.249   4.631   3.237  1.1376  0.9817  1.8385
 8751SOL    HW237887   0.357   4.654   3.131 -2.3973  1.0788  1.7594
 8752SOL     OW37888   2.732   0.542  14.345  0.0380 -0.4364 -0.1099
 8752SOL    HW137889   2.693   0.563  14.429  0.4063  0.2865 -0.1116
 8752SOL    HW237890   2.794   0.615  14.337 -0.3481 -0.2578 -1.5648
 8753SOL     OW37891   4.291   0.496  14.266 -0.1320  0.0399  0.5105
 8753SOL    HW137892   4.264   0.584  14.293  0.9557  0.7299 -0.7172
 8753SOL    HW237893   4.324   0.460  14.348  0.0343 -1.0314 -0.0260
 8754SOL     OW37894   0.688   2.562   6.665  0.0168  0.7438 -0.2465
 8754SOL    HW137895   0.779   2.561   6.635 -0.4739  0.4668 -1.7339
 8754SOL    HW237896   0.653   2.478   6.633 -1.5821  0.7733  1.3806
 8755SOL     OW37897   3.634   2.010   4.548 -0.9061  0.4271  0.0166
 8755SOL    HW137898   3.684   2.090   4.532 -1.1297  0.4753 -0.4373
 8755SOL    HW237899   3.573   2.022   4.475 -0.4917  0.8714 -0.2521
 8756SOL     OW37900   2.564   2.183   6.473 -0.0340  0.0340  0.4541
 8756SOL    HW137901   2.596   2.215   6.388 -1.6361  0.4200 -0.0030
 8756SOL    HW237902   2.601   2.095   6.472  0.3856  0.2304 -1.6082
 8757SOL     OW37903   1.732   4.110  13.114 -0.1356 -0.1811  0.0259
 8757SOL    HW137904   1.777   4.033  13.149 -0.5448 -1.9904 -3.4393
 8757SOL    HW237905   1.690   4.140  13.194 -1.2003 -1.7264  0.0569
 8758SOL     OW37906   0.835   0.908   6.534 -0.1749 -0.1015 -0.5010
 8758SOL    HW137907   0.785   0.988   6.517  1.6483  1.0976 -0.1760
 8758SOL    HW237908   0.829   0.859   6.451  3.8545 -0.2492 -0.6630
 8759SOL     OW37909   0.699   0.033   0.219 -0.0807  0.1987  0.0582
 8759SOL    HW137910   0.786   0.065   0.245 -0.6604  0.8501  1.2058
 8759SOL    HW237911   0.711   0.006   0.128  0.9595 -1.0975  0.5776
 8760SOL     OW37912   1.364   1.406   9.302  0.4723 -0.2083 -0.9125
 8760SOL    HW137913   1.330   1.484   9.346  0.6629 -0.7745  0.2349
 8760SOL    HW237914   1.279   1.367   9.278 -1.2232  0.6080  3.7637
 8761SOL     OW37915   4.610   3.759  11.726  0.6442 -0.5747 -0.0205
 8761SOL    HW137916   4.584   3.776  11.636  1.1022  0.8088  0.0965
 8761SOL    HW237917   4.539   3.708  11.763  0.4471  0.4910  1.0724
 8762SOL     OW37918   4.026   4.494   9.683  0.1939  0.2166 -0.1167
 8762SOL    HW137919   4.090   4.465   9.618  0.6303 -0.0747  0.4407
 8762SOL    HW237920   4.059   4.471   9.770 -0.5923 -1.3378 -0.2307
 8763SOL     OW37921   2.642   0.418   7.488  0.3425  0.5580  0.3401
 8763SOL    HW137922   2.683   0.501   7.513  0.2963  1.3059 -2.0704
 8763SOL    HW237923   2.680   0.357   7.551 -1.8574 -0.1783  0.9150
 8764SOL     OW37924   4.393   0.780   0.496 -0.1167  0.3377  0.4507
 8764SOL    HW137925   4.398   0.782   0.592  0.2518 -2.0974  0.4860
 8764SOL    HW237926   4.301   0.754   0.490  1.2413 -4.1727 -0.9363
 8765SOL     OW37927   0.040   3.927   1.272  0.0941 -0.1990 -0.0096
 8765SOL    HW137928   4.705   3.868   1.302 -0.1822  0.7096  1.1171
 8765SOL    HW237929   0.033   3.985   1.348 -0.5514  0.0774 -0.2779
 8766SOL     OW37930   1.085   4.033   1.769  0.6811 -0.0945  0.2847
 8766SOL    HW137931   0.990   4.046   1.777  1.1678  1.8515  3.0904
 8766SOL    HW237932   1.072   3.956   1.714  0.2887 -0.4937  0.9300
 8767SOL     OW37933   0.531   2.854   5.471  0.0691 -0.2408  0.0590
 8767SOL    HW137934   0.616   2.817   5.495  0.2284 -1.3092 -2.2218
 8767SOL    HW237935   0.555   2.890   5.386  1.1290 -0.7317  0.1519
 8768SOL     OW37936   2.785   3.540   2.404 -0.2040 -0.2571  0.0537
 8768SOL    HW137937   2.849   3.558   2.335 -0.7541 -0.0730 -0.4109
 8768SOL    HW237938   2.733   3.620   2.404  0.2047  0.0135  0.3529
 8769SOL     OW37939   4.536   0.502   1.110 -0.1178  0.9696 -0.1096
 8769SOL    HW137940   4.443   0.527   1.112 -1.3085 -3.2468 -2.2476
 8769SOL    HW237941   4.572   0.500   1.198 -2.9795 -1.7799  1.0039
 8770SOL     OW37942   1.769   2.724   3.172 -0.1163 -0.2754  0.3173
 8770SOL    HW137943   1.822   2.789   3.219 -0.5333  0.9323 -0.8701
 8770SOL    HW237944   1.796   2.645   3.218  0.2024  0.4217  1.3224
 8771SOL     OW37945   1.658   4.303   4.797 -0.6080  0.1453 -0.1688
 8771SOL    HW137946   1.635   4.362   4.725 -0.1760  0.3770 -0.1139
 8771SOL    HW237947   1.751   4.322   4.805 -0.5514 -0.6840  1.2277
 8772SOL     OW37948   1.369   1.084   9.322 -0.4117  0.2742 -0.3272
 8772SOL    HW137949   1.308   1.121   9.258 -1.4299  0.1463  0.5813
 8772SOL    HW237950   1.420   1.161   9.347 -0.7203 -0.2686  1.9335
 8773SOL     OW37951   0.801   1.922  17.352 -0.3264  0.1312 -0.1449
 8773SOL    HW137952   0.833   2.012  17.357  0.2838 -0.0879 -0.0939
 8773SOL    HW237953   0.749   1.918  17.432 -0.0115 -2.2345 -0.0641
 8774SOL     OW37954   1.865   1.841  15.768 -0.5069 -0.1018 -0.2028
 8774SOL    HW137955   1.825   1.878  15.689 -0.3233 -0.9322 -0.6803
 8774SOL    HW237956   1.804   1.871  15.836  0.0735  2.7280 -0.9487
 8775SOL     OW37957   3.153   3.732   1.027 -0.1291 -0.3262 -0.0036
 8775SOL    HW137958   3.139   3.815   0.982  0.0981  0.7638  1.9832
 8775SOL    HW237959   3.122   3.750   1.115 -1.7791  0.8801 -0.8436
 8776SOL     OW37960   3.168   4.189   8.172  0.0979  0.3360 -0.0413
 8776SOL    HW137961   3.159   4.114   8.232 -0.2643 -0.4925 -1.1467
 8776SOL    HW237962   3.076   4.211   8.163  0.3071  0.2221 -2.2791
 8777SOL     OW37963   0.575   0.776   0.415  0.0104 -0.0584 -0.0537
 8777SOL    HW137964   0.613   0.695   0.381  1.0968  1.1299 -1.7440
 8777SOL    HW237965   0.617   0.834   0.351 -0.9935 -2.9810 -3.3818
 8778SOL     OW37966   3.042   0.404   7.738 -0.5946  0.3552  0.3531
 8778SOL    HW137967   3.027   0.428   7.829  2.1456 -0.2747  0.9551
 8778SOL    HW237968   2.971   0.344   7.715 -0.5410  1.2325 -2.1654
 8779SOL     OW37969   0.828   4.605  14.690  0.4673  0.0055  0.1812
 8779SOL    HW137970   0.787   4.608  14.603  0.0808 -2.9467  0.2384
 8779SOL    HW237971   0.750   4.603  14.746  0.4626  0.3654  0.1860
 8780SOL     OW37972   0.233   0.635   8.764  0.9167 -0.1484 -0.2145
 8780SOL    HW137973   0.163   0.671   8.819  2.1859 -1.3669  2.1977
 8780SOL    HW237974   0.268   0.563   8.816 -0.9955 -1.0503 -0.1989
 8781SOL     OW37975   3.788   3.669  16.863 -0.0562  0.1410 -0.5065
 8781SOL    HW137976   3.870   3.696  16.904  1.5037 -4.3894 -0.6636
 8781SOL    HW237977   3.811   3.617  16.786 -0.6076  0.0061 -0.5847
 8782SOL     OW37978   0.533   3.996   6.001  0.3255  0.1248  0.2268
 8782SOL    HW137979   0.565   3.976   5.913  1.6310  0.7314  0.5606
 8782SOL    HW237980   0.556   4.089   5.997  0.5639 -0.0289 -1.9906
 8783SOL     OW37981   4.701   0.992   3.458  0.2707  0.0940 -0.3816
 8783SOL    HW137982   4.721   0.930   3.388 -1.9381  1.3684 -2.1453
 8783SOL    HW237983   4.607   0.979   3.459  0.4929 -1.4998 -1.2325
 8784SOL     OW37984   1.346   1.870   2.368  0.4233 -0.4193  0.5187
 8784SOL    HW137985   1.288   1.816   2.422  1.0128  0.7473  2.3146
 8784SOL    HW237986   1.305   1.856   2.283  0.8716 -2.9964  0.7246
 8785SOL     OW37987   3.819   3.454  11.251 -0.9663 -0.1032  0.1992
 8785SOL    HW137988   3.859   3.541  11.257  1.1140 -1.1524  1.1216
 8785SOL    HW237989   3.802   3.434  11.343  1.1519  0.7562  0.7730
 8786SOL     OW37990   2.768   0.702   4.146  0.4904  0.3443 -0.2756
 8786SOL    HW137991   2.712   0.776   4.122 -1.8931 -1.2791  0.3279
 8786SOL    HW237992   2.736   0.627   4.096 -1.0782  0.4152  0.6278
 8787SOL     OW37993   2.388   1.812   5.063  0.8299 -0.0912  0.3005
 8787SOL    HW137994   2.462   1.751   5.052  0.7731 -0.6258  3.0212
 8787SOL    HW237995   2.393   1.832   5.156 -2.4175 -0.1827  0.4837
 8788SOL     OW37996   3.030   3.722   0.493  0.0982 -0.2401  0.3880
 8788SOL    HW137997   3.019   3.809   0.531  0.6441 -0.5282  1.2030
 8788SOL    HW237998   3.124   3.704   0.502  0.1488 -0.0413  0.2578
 8789SOL     OW37999   1.602   2.603  15.866  0.6846 -0.2684 -0.2776
 8789SOL    HW138000   1.578   2.679  15.920 -0.3632 -2.0445  1.7564
 8789SOL    HW238001   1.690   2.586  15.899  0.9643  1.8859  0.0810
 8790SOL     OW38002   2.300   3.845   2.728 -0.0870 -0.2072  0.1771
 8790SOL    HW138003   2.330   3.759   2.757  0.2067 -0.4363 -0.8108
 8790SOL    HW238004   2.371   3.905   2.751 -0.8753  0.9876 -0.5601
 8791SOL     OW38005   3.285   3.754   4.965 -1.3272  0.0945 -0.0138
 8791SOL    HW138006   3.321   3.681   4.914  0.6791  0.2250  1.2262
 8791SOL    HW238007   3.365   3.779   5.012 -0.8564 -0.9760 -0.2461
 8792SOL     OW38008   0.656   1.133   4.356  0.3168  0.6296  0.4176
 8792SOL    HW138009   0.717   1.075   4.310 -0.0729  0.9963 -0.5410
 8792SOL    HW238010   0.575   1.107   4.313 -0.0649  1.0471  0.8794
 8793SOL     OW38011   1.123   4.705   0.241  0.1027  0.2764  0.2512
 8793SOL    HW138012   1.215   4.720   0.217 -0.5725  2.4079 -0.9749
 8793SOL    HW238013   1.128   4.614   0.272 -0.5709  0.3527  0.5796
 8794SOL     OW38014   3.953   1.336   6.765  0.2903 -0.0511 -0.3265
 8794SOL    HW138015   3.961   1.423   6.804  0.2276  1.2018 -3.1051
 8794SOL    HW238016   4.010   1.282   6.819  0.8719  1.7826  0.8854
 8795SOL     OW38017   0.252   1.791   5.745 -0.1542  0.4978  0.8664
 8795SOL    HW138018   0.203   1.727   5.796 -0.3076 -0.1719 -0.1157
 8795SOL    HW238019   0.343   1.774   5.769 -0.2385 -0.2135  0.6804
 8796SOL     OW38020   4.362   3.220   2.352 -0.5083 -0.3182  0.1208
 8796SOL    HW138021   4.270   3.238   2.368 -0.1531 -0.5383  2.4116
 8796SOL    HW238022   4.406   3.304   2.336 -0.9895 -0.1705 -0.4216
 8797SOL     OW38023   1.397   0.327   9.093 -0.1053  0.3280 -0.0333
 8797SOL    HW138024   1.348   0.256   9.134 -0.8055 -0.2930 -1.9546
 8797SOL    HW238025   1.430   0.379   9.167  1.5882  0.2635 -0.7577
 8798SOL     OW38026   0.739   4.441  16.160  0.2285 -0.2480  0.4737
 8798SOL    HW138027   0.795   4.408  16.089  1.3817  4.8897 -0.9909
 8798SOL    HW238028   0.666   4.379  16.168  0.8756 -1.1082 -0.2743
 8799SOL     OW38029   1.998   4.330   3.270 -0.1740 -0.8541 -0.4183
 8799SOL    HW138030   2.011   4.417   3.233  0.1304  0.8037  3.5957
 8799SOL    HW238031   2.045   4.335   3.353  1.0370 -0.9126 -1.0973
 8800SOL     OW38032   0.144   3.535  11.751  0.4430 -0.0857  0.6081
 8800SOL    HW138033   0.120   3.491  11.833 -1.7711  2.5037  1.3110
 8800SOL    HW238034   0.068   3.514  11.697 -0.6382  2.6047  1.1294
 8801SOL     OW38035   2.304   2.792  13.982  0.7953 -0.8971  0.2507
 8801SOL    HW138036   2.353   2.868  13.948 -0.5574 -1.1681 -2.3211
 8801SOL    HW238037   2.324   2.799  14.075  0.8464 -1.2813  0.2676
 8802SOL     OW38038   2.111   0.522  10.060  0.2403 -0.5673  0.5458
 8802SOL    HW138039   2.156   0.588  10.008 -1.4126  0.3334  0.2800
 8802SOL    HW238040   2.026   0.552  10.029  0.3902 -1.5524 -0.8205
 8803SOL     OW38041   1.017   3.894   9.136  0.0997  0.0945  0.2960
 8803SOL    HW138042   0.945   3.910   9.197  0.5445  0.3050  0.7663
 8803SOL    HW238043   1.097   3.910   9.187  1.2871 -2.5631 -0.7074
 8804SOL     OW38044   3.687   0.169   2.594  0.3257 -0.1128 -0.2443
 8804SOL    HW138045   3.736   0.243   2.558  0.9567  0.2189  1.2992
 8804SOL    HW238046   3.729   0.151   2.678  0.2415 -2.7269 -0.7489
 8805SOL     OW38047   2.762   3.646   4.398 -0.4018 -0.2195 -0.4476
 8805SOL    HW138048   2.733   3.595   4.474  0.1027 -0.2771 -0.2943
 8805SOL    HW238049   2.774   3.734   4.434 -3.8013 -0.6218  1.7237
 8806SOL     OW38050   3.247   2.810  16.929 -0.7755  0.7088 -0.4045
 8806SOL    HW138051   3.168   2.757  16.936 -1.3283  1.4248 -1.3796
 8806SOL    HW238052   3.318   2.747  16.913 -0.7514  0.7739 -0.5484
 8807SOL     OW38053   1.266   3.008   6.341 -0.7156 -0.1311  0.1812
 8807SOL    HW138054   1.295   2.989   6.252 -0.3909 -0.5306  0.3726
 8807SOL    HW238055   1.192   2.952   6.364  0.5125 -1.7910  0.1059
 8808SOL     OW38056   3.153   0.937   9.562 -0.0542  0.1335  0.4553
 8808SOL    HW138057   3.078   0.917   9.505 -0.7441 -2.0697  2.1479
 8808SOL    HW238058   3.150   1.033   9.553  0.5301  0.0286 -0.8260
 8809SOL     OW38059   3.124   1.106   9.968  0.0622  0.0832  0.8219
 8809SOL    HW138060   3.090   1.020   9.948  1.4476 -0.7745  2.1476
 8809SOL    HW238061   3.219   1.094   9.980  0.2320  1.0715  0.5050
 8810SOL     OW38062   2.078   0.201   3.262  0.4556  0.2151  0.7202
 8810SOL    HW138063   2.060   0.294   3.248  1.5238  0.6949  2.5557
 8810SOL    HW238064   2.001   0.144   3.264 -0.1836  1.1072  1.6671
 8811SOL     OW38065   1.631   2.450  14.149 -0.6948 -0.3627 -0.1396
 8811SOL    HW138066   1.641   2.509  14.224 -1.9681  0.5435 -0.6901
 8811SOL    HW238067   1.712   2.469  14.103 -0.4651  1.4547  1.0098
 8812SOL     OW38068   0.741   2.613  12.127  0.3652  0.0958 -0.2802
 8812SOL    HW138069   0.779   2.615  12.039 -1.1060 -0.7264 -0.9232
 8812SOL    HW238070   0.659   2.661  12.115  0.0327 -0.4134 -0.0418
 8813SOL     OW38071   1.170   4.187  11.513 -0.3227  0.1086  0.1381
 8813SOL    HW138072   1.081   4.204  11.482  0.0573  0.0667 -0.9718
 8813SOL    HW238073   1.170   4.266  11.567  2.4453 -0.0966  0.4070
 8814SOL     OW38074   4.666   1.355   1.821 -0.1678 -0.3387 -0.2091
 8814SOL    HW138075   4.622   1.439   1.811 -0.6353 -0.6098 -0.3839
 8814SOL    HW238076   0.019   1.390   1.842 -1.0066  0.2990  2.1946
 8815SOL     OW38077   2.725   3.408   5.589 -0.2929 -0.1971  0.2540
 8815SOL    HW138078   2.813   3.371   5.594  0.2939  1.0651 -0.7971
 8815SOL    HW238079   2.737   3.482   5.529  1.9350  1.7464  3.1102
 8816SOL     OW38080   4.712   0.102   1.134  0.0479  0.3217 -0.3139
 8816SOL    HW138081   0.046   0.036   1.118  0.9530  0.7876  1.5561
 8816SOL    HW238082   4.671   0.121   1.050 -1.4433 -1.1148  0.0857
 8817SOL     OW38083   0.485   3.840   8.410 -0.1714  0.5225 -0.4522
 8817SOL    HW138084   0.467   3.855   8.503  1.2063  0.9299 -0.2591
 8817SOL    HW238085   0.578   3.819   8.410  0.2551  2.4109  0.5969
 8818SOL     OW38086   1.223   3.468  17.230  0.3299  0.5360  0.5692
 8818SOL    HW138087   1.162   3.462  17.156 -0.0374 -1.7958  1.0726
 8818SOL    HW238088   1.185   3.411  17.296  0.3445 -0.4541 -0.2727
 8819SOL     OW38089   3.241   3.310  10.319  0.3827  0.2100 -0.0128
 8819SOL    HW138090   3.230   3.232  10.372  2.4205  0.6006  0.9835
 8819SOL    HW238091   3.154   3.351  10.316  0.4349  0.3713  0.6962
 8820SOL     OW38092   0.072   3.209   6.327  0.3438  0.3812  0.5234
 8820SOL    HW138093   0.158   3.198   6.286 -0.2689  3.6897 -1.6316
 8820SOL    HW238094   0.064   3.120   6.361  0.4433 -0.2973 -1.2433
 8821SOL     OW38095   2.253   1.060   4.228 -0.0052 -0.5991 -0.0477
 8821SOL    HW138096   2.291   0.994   4.287 -0.3775  0.9823  1.9351
 8821SOL    HW238097   2.298   1.137   4.261  1.8188 -2.7115  2.4820
 8822SOL     OW38098   0.228   3.175   2.385  0.2389 -0.1571 -0.1591
 8822SOL    HW138099   0.218   3.159   2.292  2.0616  1.5070 -0.6364
 8822SOL    HW238100   0.277   3.094   2.394  1.0708  0.4862  1.2249
 8823SOL     OW38101   0.801   2.753   1.920 -0.1913  0.1022 -0.1412
 8823SOL    HW138102   0.743   2.813   1.874 -2.8913 -1.7531  0.8671
 8823SOL    HW238103   0.880   2.774   1.870 -1.6987  1.1986 -2.0573
 8824SOL     OW38104   2.987   4.367   4.473 -0.0062  0.7345  0.1570
 8824SOL    HW138105   2.942   4.371   4.557  1.8296 -0.9635  1.2334
 8824SOL    HW238106   2.917   4.370   4.408 -0.5000 -1.5596  0.5991
 8825SOL     OW38107   4.675   4.550  12.118  0.0213  0.6132  0.2282
 8825SOL    HW138108   4.614   4.550  12.045  0.0660  1.8904  0.1936
 8825SOL    HW238109   4.612   4.557  12.189  1.2130  1.6382  1.1980
 8826SOL     OW38110   0.214   0.702   2.939 -0.1357 -0.2443  0.9271
 8826SOL    HW138111   0.141   0.764   2.949  1.2387  1.2013  1.9557
 8826SOL    HW238112   0.273   0.753   2.883  1.8000 -2.6180  0.8242
 8827SOL     OW38113   3.979   0.425   7.502  0.0038  0.1813  0.1467
 8827SOL    HW138114   3.921   0.398   7.572 -0.3287 -1.4378 -0.7467
 8827SOL    HW238115   4.019   0.342   7.476  0.1117  0.7494 -1.5258
 8828SOL     OW38116   3.833   4.545   6.310  0.5078 -0.3605 -0.5493
 8828SOL    HW138117   3.820   4.631   6.270 -0.6110 -0.0602  0.4646
 8828SOL    HW238118   3.744   4.511   6.315  1.9760 -4.1151  0.0083
 8829SOL     OW38119   3.825   1.384   5.621 -0.3968  0.7308  0.0676
 8829SOL    HW138120   3.829   1.395   5.716  2.3673 -0.7549  0.1252
 8829SOL    HW238121   3.907   1.427   5.593  0.1772 -2.3262 -2.9308
 8830SOL     OW38122   2.530   0.008   9.694  1.0723 -0.0696 -0.4691
 8830SOL    HW138123   2.508   0.091   9.736  0.7265 -0.2732 -0.2352
 8830SOL    HW238124   2.613   4.722   9.737 -0.4311 -0.7658  2.1541
 8831SOL     OW38125   4.728   1.179   8.144  0.0338  0.1603 -0.6125
 8831SOL    HW138126   4.734   1.124   8.223 -0.2630  0.2210 -0.5487
 8831SOL    HW238127   0.046   1.129   8.082  0.9462 -0.8193  0.9487
 8832SOL     OW38128   4.631   4.726   1.371  0.1048  0.0955 -0.0771
 8832SOL    HW138129   4.669   0.038   1.296 -1.7873  0.1408 -1.0046
 8832SOL    HW238130   4.711   4.702   1.418 -0.0951 -0.1042  0.1565
 8833SOL     OW38131   1.486   1.347   7.708 -0.1768 -0.0081  0.4740
 8833SOL    HW138132   1.449   1.436   7.713  0.9312  0.4319  0.7188
 8833SOL    HW238133   1.538   1.350   7.788  3.1342  0.0656 -1.7140
 8834SOL     OW38134   3.500   0.408   5.675 -0.0994 -0.2097 -0.2348
 8834SOL    HW138135   3.423   0.351   5.685 -0.4028  0.2748  0.1492
 8834SOL    HW238136   3.557   0.375   5.745  1.8461  1.8748 -0.8578
 8835SOL     OW38137   4.292   3.330   1.944 -0.5271 -0.2375 -0.1101
 8835SOL    HW138138   4.246   3.381   2.010 -0.5076  0.7603 -0.8732
 8835SOL    HW238139   4.347   3.280   2.005 -2.1490 -2.0135 -0.1005
 8836SOL     OW38140   1.845   1.805   2.591 -0.4817  0.0281 -0.1063
 8836SOL    HW138141   1.890   1.889   2.583  0.8778 -0.6647  0.2643
 8836SOL    HW238142   1.867   1.770   2.677  1.9102 -0.0733 -0.7726
 8837SOL     OW38143   2.607   1.054  14.474  0.9058 -0.8810  0.6392
 8837SOL    HW138144   2.526   1.087  14.514  0.8254 -0.4235  0.0929
 8837SOL    HW238145   2.663   1.128  14.500  2.2904 -1.8915  0.5771
 8838SOL     OW38146   4.032   1.233  12.280 -0.3908 -0.2597  0.0065
 8838SOL    HW138147   4.011   1.140  12.271 -0.9416 -0.0232 -1.1139
 8838SOL    HW238148   4.127   1.241  12.291 -0.1376 -2.2066 -0.8271
 8839SOL     OW38149   2.992   4.228   5.365  0.2641  0.0837  0.1376
 8839SOL    HW138150   3.043   4.305   5.339  0.1115 -0.1617 -0.8746
 8839SOL    HW238151   2.902   4.260   5.359  0.5259  0.2261 -3.0434
 8840SOL     OW38152   2.226   0.664   5.901  0.6606 -0.2829  0.4289
 8840SOL    HW138153   2.149   0.608   5.914 -0.8879  1.8320  0.5251
 8840SOL    HW238154   2.189   0.750   5.880 -2.3513 -1.4822  0.8033
 8841SOL     OW38155   4.531   4.138   0.331 -0.3643  0.0067  0.3386
 8841SOL    HW138156   4.563   4.193   0.259 -0.2245  1.1886  1.3020
 8841SOL    HW238157   4.453   4.191   0.348 -1.3448 -0.9077 -1.3692
 8842SOL     OW38158   0.161   3.553   5.284 -0.1617 -0.0653  0.7481
 8842SOL    HW138159   0.200   3.479   5.237  0.0396  0.0086  0.7995
 8842SOL    HW238160   0.129   3.520   5.367 -1.0649 -2.0477 -0.3883
 8843SOL     OW38161   0.968   3.187   6.587 -0.7885  0.5401 -0.2401
 8843SOL    HW138162   1.041   3.247   6.596 -1.6066  1.2346  1.7699
 8843SOL    HW238163   0.975   3.155   6.497  4.2534 -1.6372  0.9067
 8844SOL     OW38164   0.570   0.181   3.530 -0.4526 -0.1827 -0.1970
 8844SOL    HW138165   0.603   0.204   3.617 -1.4912  1.0508 -0.1244
 8844SOL    HW238166   0.605   0.254   3.480 -1.1101 -2.0343 -3.3286
 8845SOL     OW38167   4.450   0.764   6.318 -0.2758 -0.1968 -0.3955
 8845SOL    HW138168   4.383   0.697   6.332  0.0015 -0.7572 -1.7667
 8845SOL    HW238169   4.387   0.836   6.322  1.1823  1.0755 -0.2672
 8846SOL     OW38170   3.173   0.688   2.394 -0.1042 -0.3455  0.3282
 8846SOL    HW138171   3.234   0.760   2.406 -0.5632 -0.0822  1.0496
 8846SOL    HW238172   3.098   0.723   2.345  0.6328  0.0813 -0.4959
 8847SOL     OW38173   3.007   3.374   5.610 -0.3943 -0.4656  0.0994
 8847SOL    HW138174   3.097   3.342   5.601 -0.6829 -1.1948 -0.1839
 8847SOL    HW238175   2.985   3.361   5.702  0.7515 -0.4489  0.3776
 8848SOL     OW38176   2.528   1.841   3.446 -0.4002  0.7887  0.8927
 8848SOL    HW138177   2.453   1.874   3.396  0.1121  0.0436 -0.3726
 8848SOL    HW238178   2.514   1.882   3.531 -1.4116  1.4668  0.3924
 8849SOL     OW38179   3.524   1.982   5.170 -0.1088  0.0591  0.0176
 8849SOL    HW138180   3.536   1.894   5.135 -2.7232 -0.5881  0.7605
 8849SOL    HW238181   3.467   2.028   5.108 -1.3237  0.5499  1.4887
 8850SOL     OW38182   3.164   2.668   0.418  0.1382 -0.1725 -0.3889
 8850SOL    HW138183   3.222   2.743   0.408 -0.5063  0.0018 -2.6572
 8850SOL    HW238184   3.171   2.663   0.514  0.2232  1.2496 -0.3314
 8851SOL     OW38185   1.575   0.430   2.094  0.2936 -0.0104 -0.5169
 8851SOL    HW138186   1.558   0.510   2.144 -2.8060 -0.6523 -0.5341
 8851SOL    HW238187   1.503   0.446   2.033 -0.5861 -1.2197  0.2122
 8852SOL     OW38188   2.686   2.783   3.655  0.3295  0.1544  0.0794
 8852SOL    HW138189   2.758   2.831   3.614  0.2239 -1.6026 -2.1734
 8852SOL    HW238190   2.710   2.809   3.744 -2.3678 -0.9871  1.1617
 8853SOL     OW38191   0.771   4.441   3.663  0.0724 -0.2838  0.2594
 8853SOL    HW138192   0.714   4.377   3.705  2.2834 -0.2945  3.1906
 8853SOL    HW238193   0.700   4.491   3.623  0.6017 -1.2662 -1.9001
 8854SOL     OW38194   4.558   3.750   4.615  0.1909  0.1918  0.9499
 8854SOL    HW138195   4.601   3.763   4.530  1.1846 -1.7918  1.1459
 8854SOL    HW238196   4.537   3.657   4.615  0.4091  0.1419  1.7384
 8855SOL     OW38197   3.584   3.769  12.325  0.2169 -0.2378 -0.1281
 8855SOL    HW138198   3.489   3.754  12.317  0.0691  1.3155 -1.4174
 8855SOL    HW238199   3.600   3.785  12.232  1.7167 -1.1876 -0.0213
 8856SOL     OW38200   0.606   3.437  13.116  0.5243  0.3300 -0.2855
 8856SOL    HW138201   0.611   3.365  13.053 -1.4670  2.1220 -2.4718
 8856SOL    HW238202   0.513   3.440  13.140  1.4760  2.2995  3.0972
 8857SOL     OW38203   2.821   4.721   4.918 -0.1705  0.3306  0.4543
 8857SOL    HW138204   2.873   4.691   4.844  0.0844  1.3047  0.2425
 8857SOL    HW238205   2.790   4.642   4.962 -0.4446 -0.5272 -1.3227
 8858SOL     OW38206   2.522   0.980  11.984  0.7718  0.4226 -0.3951
 8858SOL    HW138207   2.455   0.952  11.922 -0.6689 -0.2660  1.4977
 8858SOL    HW238208   2.585   1.019  11.923 -0.0154 -0.0298 -1.4852
 8859SOL     OW38209   3.337   4.538   5.440 -0.3548 -0.4632 -0.6212
 8859SOL    HW138210   3.370   4.627   5.429  0.3838 -0.3882  2.1643
 8859SOL    HW238211   3.250   4.564   5.470 -0.2965 -2.6114  1.3760
 8860SOL     OW38212   1.655   4.668  13.523 -0.3363 -0.4394  0.0387
 8860SOL    HW138213   1.672   0.026  13.544  0.4195 -0.2593 -1.4092
 8860SOL    HW238214   1.610   4.640  13.603 -2.0534 -0.7696 -1.0419
 8861SOL     OW38215   2.897   2.489   2.254 -0.2364 -0.6527 -0.6593
 8861SOL    HW138216   2.807   2.458   2.260 -0.2018 -0.7084 -0.4160
 8861SOL    HW238217   2.944   2.454   2.329 -0.5225 -1.6297 -0.9391
 8862SOL     OW38218   3.378   4.431   0.265  0.2734  0.5713  0.3775
 8862SOL    HW138219   3.370   4.526   0.269 -2.3806  0.3419  0.4616
 8862SOL    HW238220   3.346   4.428   0.175  0.2349 -1.4879  0.4518
 8863SOL     OW38221   3.632   3.802   2.105 -0.8463  0.3238 -0.4470
 8863SOL    HW138222   3.725   3.788   2.089 -0.3579  1.6299  1.2263
 8863SOL    HW238223   3.633   3.860   2.181 -2.9363 -0.0025 -0.1853
 8864SOL     OW38224   4.609   4.369   4.279 -0.1858  0.2690 -0.2481
 8864SOL    HW138225   4.577   4.456   4.300  1.4882  0.6426  0.7014
 8864SOL    HW238226   4.603   4.320   4.361  1.4647  1.1776  0.4129
 8865SOL     OW38227   1.556   3.263  14.488 -0.1143  0.2096 -0.5276
 8865SOL    HW138228   1.545   3.253  14.394  0.7393 -1.5200 -0.4473
 8865SOL    HW238229   1.617   3.194  14.514 -0.6541 -0.5527 -1.3312
 8866SOL     OW38230   0.142   3.609   2.833 -0.0333 -0.6313  0.1070
 8866SOL    HW138231   0.208   3.678   2.839  0.1661 -0.7716 -0.4563
 8866SOL    HW238232   0.142   3.608   2.737  1.5826 -0.9145  0.0995
 8867SOL     OW38233   1.934   1.404   6.666  0.1522 -0.0625  0.0059
 8867SOL    HW138234   1.867   1.348   6.703  1.7127 -2.9875 -1.5446
 8867SOL    HW238235   2.012   1.397   6.721  0.1795 -1.1688 -0.1834
 8868SOL     OW38236   2.697   1.661  13.590 -0.5715 -0.1727  0.3579
 8868SOL    HW138237   2.768   1.652  13.654  2.5608  0.8129 -3.0012
 8868SOL    HW238238   2.697   1.577  13.544  0.1539  1.0044 -1.7928
 8869SOL     OW38239   1.923   3.119   7.988 -0.0858  0.0392  0.2511
 8869SOL    HW138240   1.841   3.110   7.939 -0.6052 -1.0259  1.3139
 8869SOL    HW238241   1.973   3.038   7.975 -0.8302 -0.1043 -1.7282
 8870SOL     OW38242   3.626   2.892  17.100 -0.0906  0.4314  0.0237
 8870SOL    HW138243   3.661   2.809  17.067 -0.6288  0.9791 -1.9178
 8870SOL    HW238244   3.573   2.854  17.171  0.5381 -0.4805  0.0080
 8871SOL     OW38245   2.587   1.415   8.523  0.0099 -0.6104 -0.0900
 8871SOL    HW138246   2.514   1.379   8.573  2.9029 -1.0094  3.8345
 8871SOL    HW238247   2.627   1.350   8.467 -0.9610  0.0091 -1.4938
 8872SOL     OW38248   1.528   0.209  13.822  0.5486  0.1094 -0.1218
 8872SOL    HW138249   1.504   0.125  13.861  2.3297 -0.2167  0.2646
 8872SOL    HW238250   1.508   0.282  13.881  1.9394  0.6322 -0.3036
 8873SOL     OW38251   2.280   1.311  10.796 -0.2207 -0.1763 -0.7301
 8873SOL    HW138252   2.246   1.222  10.806 -3.9208  1.0249 -2.4763
 8873SOL    HW238253   2.263   1.360  10.877  0.6072  1.0634 -1.2996
 8874SOL     OW38254   1.960   2.433   6.244  0.2911 -0.1893  0.0859
 8874SOL    HW138255   2.045   2.450   6.204  0.5461 -0.8853  0.3219
 8874SOL    HW238256   1.935   2.517   6.281  1.4611  1.0447 -1.9650
 8875SOL     OW38257   2.161   4.731   6.356  0.0996 -0.3124 -0.5607
 8875SOL    HW138258   2.106   4.674   6.409  1.6515  1.1068  2.5407
 8875SOL    HW238259   2.117   0.082   6.365  1.3878  0.3353 -0.4587
 8876SOL     OW38260   1.776   0.626   7.154  0.0057 -0.8237 -0.1325
 8876SOL    HW138261   1.824   0.679   7.090 -1.1261  0.0613 -0.2454
 8876SOL    HW238262   1.845   0.563   7.174  0.8406 -0.1622 -0.9192
 8877SOL     OW38263   3.993   4.708  15.238 -0.0760  0.1000 -0.2619
 8877SOL    HW138264   4.033   0.054  15.204 -0.4466 -0.1401 -1.2701
 8877SOL    HW238265   4.021   4.647  15.170  0.9130 -1.0792  1.2170
 8878SOL     OW38266   4.285   0.157   7.271 -0.2432 -0.0752 -0.0173
 8878SOL    HW138267   4.317   0.079   7.318  0.3480  0.7210  0.8902
 8878SOL    HW238268   4.325   0.139   7.186 -0.8599  0.7959 -0.4762
 8879SOL     OW38269   2.795   2.251   3.970  0.6142 -0.7725  0.0403
 8879SOL    HW138270   2.855   2.192   3.924  1.2478  0.9324 -1.3526
 8879SOL    HW238271   2.723   2.190   3.985  0.4252 -0.5089  0.2133
 8880SOL     OW38272   0.486   3.070   3.854 -0.5095  0.1251  0.3073
 8880SOL    HW138273   0.447   3.006   3.914  0.3572  1.0753  1.8871
 8880SOL    HW238274   0.531   3.015   3.790 -0.1360  1.4268 -0.5590
 8881SOL     OW38275   2.758   1.906  15.965 -0.3852 -0.1890  0.1915
 8881SOL    HW138276   2.768   1.885  15.872 -2.0933  0.7529 -0.1895
 8881SOL    HW238277   2.676   1.954  15.961  0.3413  1.0768  0.5796
 8882SOL     OW38278   0.353   3.027   9.223  0.1023 -0.0303 -0.1773
 8882SOL    HW138279   0.431   2.973   9.236  0.7944  0.1374 -3.7453
 8882SOL    HW238280   0.372   3.063   9.137 -0.3094 -0.1214 -0.3071
 8883SOL     OW38281   4.226   0.314  14.561  0.9103  0.0425 -0.0831
 8883SOL    HW138282   4.169   0.390  14.571  0.9921  0.3161 -1.7590
 8883SOL    HW238283   4.310   0.359  14.569  0.7533  0.8484 -3.1582
 8884SOL     OW38284   0.186   1.955   8.779 -0.1262 -0.0973  0.8386
 8884SOL    HW138285   0.186   1.978   8.686  0.2860 -3.7590 -0.0690
 8884SOL    HW238286   0.127   2.026   8.802 -1.4283 -1.2216  1.0330
 8885SOL     OW38287   4.501   2.011   6.652  0.2199 -0.3272 -0.0756
 8885SOL    HW138288   4.419   2.052   6.627 -0.1973 -1.0541  0.0999
 8885SOL    HW238289   4.459   1.946   6.709  1.3773 -2.3422 -1.4830
 8886SOL     OW38290   4.360   4.103   8.944 -0.0693  0.0185 -0.0559
 8886SOL    HW138291   4.273   4.105   8.902 -0.7290 -0.1016  1.2985
 8886SOL    HW238292   4.342   4.025   8.998  2.4997  0.5797  1.6144
 8887SOL     OW38293   2.289   4.645   1.432  0.2025 -0.2633 -0.1517
 8887SOL    HW138294   2.359   4.703   1.462  1.6003 -2.0555  0.0533
 8887SOL    HW238295   2.224   4.712   1.412 -1.3979 -2.0021 -0.8052
 8888SOL     OW38296   3.251   2.088  16.771  0.1760 -0.0377 -0.0621
 8888SOL    HW138297   3.292   2.100  16.857  1.5197  1.6637 -0.9476
 8888SOL    HW238298   3.159   2.091  16.798  0.5123 -1.9871  1.3402
 8889SOL     OW38299   1.554   3.326   3.315 -0.2567  0.1499 -0.1286
 8889SOL    HW138300   1.516   3.239   3.326  1.9610 -1.0073 -1.7332
 8889SOL    HW238301   1.480   3.379   3.347 -0.9242 -1.0428  0.3110
 8890SOL     OW38302   0.915   4.568  11.519 -0.1070  0.7158 -0.3014
 8890SOL    HW138303   0.870   4.517  11.452  1.1454 -0.3458 -0.3248
 8890SOL    HW238304   0.997   4.521  11.531 -1.5263 -1.5527  0.4010
 8891SOL     OW38305   1.815   2.308  16.350  0.1860 -0.4748  0.0558
 8891SOL    HW138306   1.904   2.286  16.323 -0.4789 -3.6537  0.3861
 8891SOL    HW238307   1.796   2.379  16.289 -2.1414 -0.9101  0.2623
 8892SOL     OW38308   0.635   2.267   1.864  0.1044  0.0548  0.0720
 8892SOL    HW138309   0.717   2.250   1.817 -0.3405  1.5989 -1.2870
 8892SOL    HW238310   0.662   2.325   1.935 -2.8574  2.9165 -1.0993
 8893SOL     OW38311   1.052   0.035   2.924 -0.2419 -0.1693  0.3002
 8893SOL    HW138312   1.120   0.103   2.923  1.5921 -2.0323 -1.3697
 8893SOL    HW238313   1.081   4.726   2.843  2.0089 -1.3255  1.7239
 8894SOL     OW38314   2.170   4.692   7.692 -0.2958 -0.2890 -0.0323
 8894SOL    HW138315   2.104   4.721   7.755  0.0235  0.8521 -0.2302
 8894SOL    HW238316   2.140   0.015   7.621  0.1814 -1.0681 -0.8654
 8895SOL     OW38317   3.375   1.927  11.315 -0.8246 -0.2727  0.0434
 8895SOL    HW138318   3.363   1.838  11.347  1.2651 -0.3339  0.6545
 8895SOL    HW238319   3.292   1.944  11.270 -1.0729 -1.7607 -0.0427
 8896SOL     OW38320   1.503   3.431   6.323  0.5292  0.1786 -0.1494
 8896SOL    HW138321   1.493   3.489   6.399  0.3834  0.1829 -0.1718
 8896SOL    HW238322   1.483   3.349   6.369 -0.2941  0.0874 -0.6637
 8897SOL     OW38323   4.092   1.948   5.019 -0.2294  0.6344  0.1751
 8897SOL    HW138324   4.082   1.983   5.108 -1.6027  1.2692 -0.2300
 8897SOL    HW238325   4.007   1.960   4.977 -0.0946  1.6709  0.2014
 8898SOL     OW38326   4.515   4.050  12.492 -0.0499 -0.4776 -0.3889
 8898SOL    HW138327   4.560   3.966  12.477  1.9484  0.3961  0.7546
 8898SOL    HW238328   4.507   4.039  12.587 -0.5701  2.5355 -0.1050
 8899SOL     OW38329   1.518   1.562   6.323  0.4138  0.3713  0.0483
 8899SOL    HW138330   1.512   1.656   6.339 -1.7117  0.1510  0.4981
 8899SOL    HW238331   1.596   1.539   6.375 -0.4329  1.6706  1.9110
 8900SOL     OW38332   1.418   4.277   2.369  0.2484  0.1273 -0.7657
 8900SOL    HW138333   1.460   4.330   2.301  0.6476 -0.6782 -1.1551
 8900SOL    HW238334   1.473   4.199   2.360  0.5469  0.5742 -3.0219
 8901SOL     OW38335   1.860   0.701   9.608 -0.5883 -0.0823 -0.5777
 8901SOL    HW138336   1.931   0.661   9.559 -1.6513 -2.6752  0.0071
 8901SOL    HW238337   1.885   0.793   9.598 -2.6997  0.3021 -2.4131
 8902SOL     OW38338   4.574   4.390   8.089 -0.2001 -0.3957  0.2914
 8902SOL    HW138339   4.529   4.474   8.080 -0.1577 -0.4463 -0.4060
 8902SOL    HW238340   4.532   4.332   8.025 -3.2383  1.6811  0.3718
 8903SOL     OW38341   1.911   4.033  11.200  0.2377  0.4325  0.4082
 8903SOL    HW138342   1.981   4.078  11.152 -1.3857  1.1781 -1.2661
 8903SOL    HW238343   1.884   4.106  11.256  0.5898  0.3401  0.7013
 8904SOL     OW38344   4.287   4.733   3.606  0.8020  0.1703  0.8372
 8904SOL    HW138345   4.279   0.031   3.696  1.3583  2.3207  0.1205
 8904SOL    HW238346   4.277   4.640   3.629 -0.4281 -0.5516 -2.4892
 8905SOL     OW38347   2.141   2.227   7.407  0.0095 -0.0237 -0.3096
 8905SOL    HW138348   2.218   2.258   7.456 -0.9965  0.1448  1.1643
 8905SOL    HW238349   2.087   2.305   7.398 -2.6006 -2.0440 -1.9193
 8906SOL     OW38350   2.786   4.567   8.522 -0.3088  0.6107 -0.2850
 8906SOL    HW138351   2.867   4.617   8.513  0.1805  0.5215  3.5761
 8906SOL    HW238352   2.729   4.635   8.486  2.2951  3.3563  0.7670
 8907SOL     OW38353   1.507   2.923  13.893  0.8036 -0.4191  0.9640
 8907SOL    HW138354   1.569   2.975  13.843 -1.2664 -1.0572 -2.2868
 8907SOL    HW238355   1.549   2.839  13.915 -1.6237 -1.7245  0.6413
 8908SOL     OW38356   3.661   4.711  15.467 -0.4753  0.5314 -0.5432
 8908SOL    HW138357   3.572   4.732  15.438 -1.0449 -0.6167  0.3777
 8908SOL    HW238358   3.669   0.031  15.546 -1.2094  1.1879 -0.9073
 8909SOL     OW38359   3.372   0.621   2.592 -0.3430 -0.1780  0.3580
 8909SOL    HW138360   3.428   0.697   2.574 -1.9959  0.1638 -3.2677
 8909SOL    HW238361   3.356   0.581   2.506 -0.3906 -0.8281  0.6676
 8910SOL     OW38362   4.570   4.657   3.865 -0.0034 -0.3310 -0.4297
 8910SOL    HW138363   4.563   4.614   3.780 -0.4300 -2.1550  0.5417
 8910SOL    HW238364   4.652   4.704   3.851 -1.5023  2.2220 -0.7005
 8911SOL     OW38365   3.017   1.361   7.953 -0.2822  0.2857  0.0707
 8911SOL    HW138366   2.969   1.280   7.939  1.3658 -0.5026 -0.9488
 8911SOL    HW238367   3.098   1.330   7.994  0.5700  0.5092 -1.4485
 8912SOL     OW38368   4.055   4.387   3.298  0.0324  0.1328 -0.2546
 8912SOL    HW138369   4.080   4.328   3.226 -0.2491 -0.6598  0.2941
 8912SOL    HW238370   4.104   4.467   3.280  0.6751 -0.4176 -0.9797
 8913SOL     OW38371   0.289   2.638  16.297  0.3793 -0.4874 -0.0003
 8913SOL    HW138372   0.201   2.675  16.307  0.8940  0.3434  1.4201
 8913SOL    HW238373   0.345   2.714  16.284  2.1232 -1.4653  1.8886
 8914SOL     OW38374   2.140   1.342   6.832  0.5308  0.1847 -0.8944
 8914SOL    HW138375   2.101   1.298   6.907 -0.6323  1.7905 -0.5609
 8914SOL    HW238376   2.136   1.267   6.773  0.3009  0.9108 -1.7990
 8915SOL     OW38377   1.393   4.139   5.763  0.0604 -0.0816 -0.5650
 8915SOL    HW138378   1.384   4.044   5.753  0.5302  0.0564 -2.3441
 8915SOL    HW238379   1.481   4.151   5.797 -0.2076 -1.2862  0.5437
 8916SOL     OW38380   4.583   0.074   0.415  0.0060 -0.4256 -0.1936
 8916SOL    HW138381   4.588   0.105   0.324 -1.2812  0.8958  0.1934
 8916SOL    HW238382   4.673   0.045   0.429  0.3780  1.3588  1.1212
 8917SOL     OW38383   1.294   3.789   8.019 -0.6070 -0.4732  0.0730
 8917SOL    HW138384   1.339   3.707   8.000 -0.7957 -0.8758  1.3638
 8917SOL    HW238385   1.249   3.817   7.939  0.1294  0.5160  0.0107
 8918SOL     OW38386   3.607   2.922  15.603  0.3456 -0.2631  0.0210
 8918SOL    HW138387   3.574   2.842  15.563  0.0401 -0.0728 -0.0975
 8918SOL    HW238388   3.620   2.967  15.520  2.7389  0.9285  1.0335
 8919SOL     OW38389   3.398   0.398  15.183  0.0451  0.9384  0.2748
 8919SOL    HW138390   3.446   0.450  15.249 -2.7439  2.9961  0.6960
 8919SOL    HW238391   3.448   0.422  15.105  3.7309  0.1562  2.3690
 8920SOL     OW38392   4.525   3.217   5.079  0.1951 -0.1248 -0.1684
 8920SOL    HW138393   4.462   3.236   5.149  0.0392  1.1106 -0.6400
 8920SOL    HW238394   4.462   3.191   5.012 -0.3838  1.0325 -0.0907
 8921SOL     OW38395   1.142   1.185   5.712 -0.1813 -0.1020 -0.2994
 8921SOL    HW138396   1.178   1.096   5.715 -0.7206 -0.3751 -2.1926
 8921SOL    HW238397   1.202   1.242   5.762 -2.6043  2.6159 -0.5005
 8922SOL     OW38398   4.473   0.885   8.322 -0.1046 -0.4721  0.1864
 8922SOL    HW138399   4.485   0.837   8.404 -0.9853 -1.8229 -0.4843
 8922SOL    HW238400   4.557   0.932   8.318 -0.6578  0.4033 -1.2490
 8923SOL     OW38401   1.117   4.181  16.492  0.1849 -0.2598  0.0004
 8923SOL    HW138402   1.129   4.194  16.586  3.6314  0.3574 -0.5175
 8923SOL    HW238403   1.026   4.155  16.489 -0.0937  0.6471  0.4501
 8924SOL     OW38404   0.748   3.319   3.344  0.0481  0.1397  0.2625
 8924SOL    HW138405   0.751   3.250   3.278  0.1869  0.7697 -0.3813
 8924SOL    HW238406   0.691   3.281   3.411  0.1919 -0.5229  0.0079
 8925SOL     OW38407   1.311   1.965  16.193 -0.1508  0.0590 -0.1541
 8925SOL    HW138408   1.397   1.923  16.189 -0.2582 -0.0091 -1.5518
 8925SOL    HW238409   1.255   1.894  16.225 -1.6761  1.0739 -0.5831
 8926SOL     OW38410   2.718   0.943   5.188 -0.0259  0.4266 -0.4551
 8926SOL    HW138411   2.795   0.950   5.130 -0.5428 -1.2441 -1.3456
 8926SOL    HW238412   2.718   0.848   5.201 -1.3493  0.4230 -0.5544
 8927SOL     OW38413   4.293   0.325   3.834  0.0459 -0.1839 -0.0045
 8927SOL    HW138414   4.231   0.252   3.831  0.8443 -0.8491 -0.3228
 8927SOL    HW238415   4.337   0.314   3.918 -0.0330 -1.4113 -0.1240
 8928SOL     OW38416   1.604   4.586   1.636  0.2694 -0.7045 -0.0310
 8928SOL    HW138417   1.599   4.585   1.541  1.4006 -1.0555 -0.0886
 8928SOL    HW238418   1.521   4.547   1.664 -0.8768  0.5420 -1.7104
 8929SOL     OW38419   1.229   2.676   9.627 -0.3381  0.5080 -0.3080
 8929SOL    HW138420   1.204   2.628   9.549 -3.0926  1.6611 -0.1430
 8929SOL    HW238421   1.143   2.702   9.659  0.6776  0.8666  2.2088
 8930SOL     OW38422   3.573   2.964   3.941  0.2548 -0.4530  0.0087
 8930SOL    HW138423   3.482   2.968   3.971  0.0791 -2.1824 -0.2804
 8930SOL    HW238424   3.614   2.945   4.026  0.0853  1.3298  0.5006
 8931SOL     OW38425   4.655   3.506   9.828  0.6261  0.4516 -0.2158
 8931SOL    HW138426   4.630   3.544   9.744 -0.2317  0.9946  0.2893
 8931SOL    HW238427   4.697   3.423   9.805 -1.4349 -1.4403  2.7344
 8932SOL     OW38428   3.345   1.277   9.105  0.6128  0.5415 -0.1143
 8932SOL    HW138429   3.358   1.214   9.033  0.0486  0.0286  0.2295
 8932SOL    HW238430   3.307   1.356   9.067 -2.1898  0.2712  2.0925
 8933SOL     OW38431   0.607   1.167  10.312 -0.3889 -0.1110 -0.4043
 8933SOL    HW138432   0.583   1.129  10.396  0.6744  0.4008  0.1250
 8933SOL    HW238433   0.564   1.252  10.303  0.4472  0.1790 -1.6699
 8934SOL     OW38434   3.003   0.214   3.947 -0.8530 -0.1144 -0.5050
 8934SOL    HW138435   3.012   0.122   3.921 -1.0433 -0.8391  2.0586
 8934SOL    HW238436   3.082   0.209   4.002 -0.9130  3.7713 -0.0899
 8935SOL     OW38437   0.047   3.536   8.213  0.2650 -0.3251  0.5514
 8935SOL    HW138438   0.098   3.598   8.160 -2.2881  0.1099 -1.3352
 8935SOL    HW238439   0.093   3.557   8.295  1.4341  0.0241 -0.1800
 8936SOL     OW38440   3.837   3.368   2.173  0.3676 -0.0283  0.4632
 8936SOL    HW138441   3.799   3.415   2.099  1.3516 -0.1491 -0.1122
 8936SOL    HW238442   3.779   3.291   2.169 -1.0232  0.9853  1.1306
 8937SOL     OW38443   1.673   0.421   4.863 -0.4014  0.2743 -0.0090
 8937SOL    HW138444   1.625   0.448   4.785  0.1479 -0.6099 -0.6455
 8937SOL    HW238445   1.667   0.326   4.861  0.6685  0.1825  0.7447
 8938SOL     OW38446   0.624   3.249  13.854  0.0357 -0.0989 -0.0585
 8938SOL    HW138447   0.569   3.190  13.906  0.5440 -2.6873 -2.4543
 8938SOL    HW238448   0.647   3.300  13.932 -1.3641 -0.8124  0.8153
 8939SOL     OW38449   2.527   3.011  14.843  0.6970  0.5438 -0.1206
 8939SOL    HW138450   2.602   2.979  14.793 -0.4543  0.5674 -1.8685
 8939SOL    HW238451   2.541   2.970  14.928 -0.4140 -0.2653 -0.3282
 8940SOL     OW38452   0.448   4.587   0.094  0.5810  0.2462  0.7448
 8940SOL    HW138453   0.488   4.562   0.178  0.6701  0.8651  0.8860
 8940SOL    HW238454   0.524   4.616   0.044  0.3785 -1.5267 -0.5773
 8941SOL     OW38455   0.748   1.482   2.214 -0.2886  0.6182  0.2058
 8941SOL    HW138456   0.728   1.514   2.302  2.2593 -0.7617  1.3210
 8941SOL    HW238457   0.719   1.390   2.219  1.2882  0.1074 -0.0083
 8942SOL     OW38458   2.297   0.134   3.694  0.3296 -0.0183  0.0581
 8942SOL    HW138459   2.235   0.098   3.757  1.2074  1.1741  1.6110
 8942SOL    HW238460   2.276   0.069   3.627  0.6023  0.6778 -0.6996
 8943SOL     OW38461   2.340   3.739  13.324 -0.2204  0.3094  0.6577
 8943SOL    HW138462   2.394   3.662  13.306 -1.1222  0.2695 -1.7741
 8943SOL    HW238463   2.285   3.742  13.246 -0.1545  1.7721  0.6729
 8944SOL     OW38464   4.058   3.980   4.270 -0.4286  0.1446 -0.0456
 8944SOL    HW138465   4.065   4.058   4.215 -1.9347  0.6920  0.5167
 8944SOL    HW238466   4.124   3.986   4.340  1.0918  0.2958 -1.5052
 8945SOL     OW38467   2.516   1.269   3.624 -0.8093  0.0363  1.1404
 8945SOL    HW138468   2.566   1.330   3.677 -0.3118 -1.4786  2.4262
 8945SOL    HW238469   2.581   1.221   3.572 -1.1457  0.7218  0.0831
 8946SOL     OW38470   0.054   3.396   5.504  0.0074  0.4255  0.6514
 8946SOL    HW138471   0.095   3.401   5.590  1.9614 -1.2446 -0.1795
 8946SOL    HW238472   0.010   3.310   5.504  1.1180 -0.1422 -0.4804
 8947SOL     OW38473   4.292   0.214   4.276 -0.1191 -0.2622 -0.7562
 8947SOL    HW138474   4.356   0.246   4.340 -0.0700 -1.6401 -0.1223
 8947SOL    HW238475   4.223   0.278   4.292  0.3243 -0.0523  0.3696
 8948SOL     OW38476   3.604   4.443   8.656 -0.4184 -0.6267  0.1273
 8948SOL    HW138477   3.694   4.415   8.676  0.9084  2.9194 -0.8404
 8948SOL    HW238478   3.548   4.388   8.710 -2.2634  1.2269  0.1127
 8949SOL     OW38479   4.543   0.693   7.121 -0.3579 -0.3531 -0.8355
 8949SOL    HW138480   4.467   0.745   7.149  0.5569  0.8506 -0.5744
 8949SOL    HW238481   4.518   0.601   7.134  2.1662 -0.6606  2.1124
 8950SOL     OW38482   2.263   1.996   5.473 -0.3619 -0.1958  0.0440
 8950SOL    HW138483   2.346   1.997   5.426  0.7134  0.3329  1.9591
 8950SOL    HW238484   2.204   2.023   5.402  1.3353  3.9614  0.1880
 8951SOL     OW38485   3.576   1.062   5.649 -0.1553 -1.0151  0.3819
 8951SOL    HW138486   3.534   1.148   5.657 -0.3446 -1.1411  0.7733
 8951SOL    HW238487   3.637   1.082   5.579 -1.0758 -0.6635 -0.3168
 8952SOL     OW38488   2.742   3.804   7.384 -0.0860 -0.0977 -0.4801
 8952SOL    HW138489   2.728   3.896   7.362 -1.7007 -1.0030 -3.3537
 8952SOL    HW238490   2.783   3.809   7.470 -0.4014  1.6437 -0.4453
 8953SOL     OW38491   0.479   0.440  10.887  0.2032 -0.4943 -0.4637
 8953SOL    HW138492   0.455   0.475  10.973  0.9623  1.8037 -1.1691
 8953SOL    HW238493   0.498   0.518  10.834 -1.0163 -0.9440 -1.5659
 8954SOL     OW38494   1.890   1.402  14.335  0.3233 -0.2241 -0.3205
 8954SOL    HW138495   1.852   1.354  14.410  1.1593 -1.2093 -0.5287
 8954SOL    HW238496   1.957   1.451  14.382  1.2450 -1.2983 -0.5009
 8955SOL     OW38497   0.249   0.660  10.678 -0.4378  0.3664  0.4758
 8955SOL    HW138498   0.224   0.689  10.766  2.4691  2.5215  0.5928
 8955SOL    HW238499   0.340   0.689  10.682 -0.1660 -0.5733  1.2285
 8956SOL     OW38500   1.924   4.112   4.304  0.3690  0.0952  0.3994
 8956SOL    HW138501   1.849   4.155   4.345 -1.5937 -0.9691 -2.0714
 8956SOL    HW238502   1.919   4.027   4.346 -2.2118  0.0568  0.0157
 8957SOL     OW38503   2.895   1.750   2.605 -0.0909  0.4399 -0.2324
 8957SOL    HW138504   2.846   1.674   2.636  1.2403 -1.0933 -1.8796
 8957SOL    HW238505   2.898   1.730   2.511  1.7507  0.5431 -0.1927
 8958SOL     OW38506   1.785   1.974   6.168  0.0552 -0.7079 -0.2058
 8958SOL    HW138507   1.794   2.048   6.228  0.7661  1.0778 -2.5009
 8958SOL    HW238508   1.824   2.005   6.086 -0.2724  2.2910  0.7625
 8959SOL     OW38509   1.149   4.429   8.224  0.1667  0.0749  0.5382
 8959SOL    HW138510   1.147   4.444   8.319 -2.4524  2.7366  0.0599
 8959SOL    HW238511   1.126   4.516   8.191  0.1904  0.2124  0.8801
 8960SOL     OW38512   3.740   0.325   8.762  0.4984 -0.1958  0.1701
 8960SOL    HW138513   3.645   0.335   8.755  0.9469  3.6647 -0.5358
 8960SOL    HW238514   3.780   0.376   8.691  0.4214 -0.0708  0.2175
 8961SOL     OW38515   0.818   4.271  13.040  0.1969  0.3689 -0.3614
 8961SOL    HW138516   0.881   4.296  13.108 -0.2330  1.3236 -0.3201
 8961SOL    HW238517   0.735   4.307  13.069  1.5688  1.5765  2.0483
 8962SOL     OW38518   0.894   0.486   7.187 -0.1012  0.2482 -0.3226
 8962SOL    HW138519   0.881   0.429   7.111  2.4346  0.7248 -1.1036
 8962SOL    HW238520   0.985   0.477   7.215 -0.3164 -0.2381  0.2130
 8963SOL     OW38521   4.625   0.788   7.883  0.0546 -0.0768 -0.2052
 8963SOL    HW138522   4.684   0.769   7.810  0.2254  0.0406 -0.0968
 8963SOL    HW238523   4.674   0.855   7.930 -0.2183 -0.3750  0.5125
 8964SOL     OW38524   1.201   4.029   2.945  0.2294 -0.2531 -0.1706
 8964SOL    HW138525   1.275   3.993   2.993  1.4843  0.1411 -1.8125
 8964SOL    HW238526   1.233   4.026   2.855 -0.8427  0.8086 -0.5859
 8965SOL     OW38527   0.557   3.635   8.135  0.3693  0.2685  0.0698
 8965SOL    HW138528   0.511   3.616   8.217 -0.2277 -2.2677 -0.8380
 8965SOL    HW238529   0.597   3.551   8.111  0.2780  0.4782 -0.7984
 8966SOL     OW38530   3.539   1.210   5.961  0.4937 -0.3611  0.1548
 8966SOL    HW138531   3.536   1.275   6.031 -0.4578  0.5411 -0.7113
 8966SOL    HW238532   3.631   1.218   5.933 -0.5289  0.7794 -2.9436
 8967SOL     OW38533   3.308   3.885   5.363  0.1154  0.2840  0.1705
 8967SOL    HW138534   3.295   3.959   5.304 -1.1371  0.6012  0.8562
 8967SOL    HW238535   3.220   3.848   5.370  0.9250 -2.0855 -2.0866
 8968SOL     OW38536   0.094   1.963   0.328 -0.6469  0.3653 -0.0100
 8968SOL    HW138537   0.056   2.004   0.251 -2.4793 -1.3750 -0.0361
 8968SOL    HW238538   0.060   2.020   0.398 -2.5650  0.3501 -0.9393
 8969SOL     OW38539   1.603   1.943   4.845  0.5722  0.0989  0.4740
 8969SOL    HW138540   1.546   1.995   4.902  0.2156 -0.1137  0.3157
 8969SOL    HW238541   1.609   1.864   4.900 -1.1717 -1.7083 -1.9426
 8970SOL     OW38542   1.364   2.215   2.358 -0.4422  0.3296 -0.0663
 8970SOL    HW138543   1.376   2.310   2.363  0.1756  0.2744 -0.4656
 8970SOL    HW238544   1.458   2.202   2.346 -0.5045  2.0086 -2.4585
 8971SOL     OW38545   0.477   4.580   5.013  0.0702  0.1037  0.5032
 8971SOL    HW138546   0.475   4.595   5.108 -1.2921 -0.0252  0.4925
 8971SOL    HW238547   0.386   4.554   4.996 -0.0080  0.0689  0.9819
 8972SOL     OW38548   2.120   3.492   8.227  0.1579 -0.1298 -0.6165
 8972SOL    HW138549   2.047   3.443   8.189 -1.0229  0.5403  0.7774
 8972SOL    HW238550   2.079   3.553   8.288  2.8195  1.4134 -0.3664
 8973SOL     OW38551   4.569   4.097  10.818 -0.1430  0.1361 -0.3813
 8973SOL    HW138552   4.577   4.020  10.762 -0.0702 -0.3963  0.3577
 8973SOL    HW238553   4.637   4.078  10.882 -2.0904 -1.3581  1.2588
 8974SOL     OW38554   1.176   4.598   4.470  0.3872  0.0684 -0.0952
 8974SOL    HW138555   1.225   4.669   4.512 -0.6640 -0.2422  1.6822
 8974SOL    HW238556   1.168   4.543   4.548 -1.4475 -1.3798 -1.2898
 8975SOL     OW38557   0.824   2.118   5.346  0.7435  0.4268  0.0487
 8975SOL    HW138558   0.853   2.206   5.322 -0.5953  0.6901 -0.6220
 8975SOL    HW238559   0.732   2.117   5.320  0.9546 -1.1110 -0.6325
 8976SOL     OW38560   3.578   4.187   4.118  0.6290  0.3581  0.1696
 8976SOL    HW138561   3.592   4.128   4.192 -1.4632  0.7061  0.8313
 8976SOL    HW238562   3.487   4.218   4.120  0.7658  0.7106  0.8748
 8977SOL     OW38563   3.019   4.341   6.134 -0.2914  0.5979 -0.6943
 8977SOL    HW138564   2.954   4.312   6.199  0.4976 -0.2876 -0.2936
 8977SOL    HW238565   3.041   4.250   6.113  3.4814  0.8345  2.2615
 8978SOL     OW38566   1.584   3.345   2.358  0.1846  0.5837  0.2428
 8978SOL    HW138567   1.563   3.439   2.358  1.1377  0.8074 -1.6465
 8978SOL    HW238568   1.498   3.307   2.339  0.5270 -0.3793  0.6383
 8979SOL     OW38569   0.846   2.407   6.897  0.2825 -0.8769  0.1082
 8979SOL    HW138570   0.782   2.455   6.845  1.3384  1.0335  0.5575
 8979SOL    HW238571   0.820   2.320   6.869 -1.9093 -0.1567 -0.0638
 8980SOL     OW38572   0.459   2.030   6.918 -0.0292  0.1843 -0.6939
 8980SOL    HW138573   0.422   2.091   6.854  1.2672  2.6116  0.8428
 8980SOL    HW238574   0.381   1.980   6.940  0.8004  0.0968  2.0653
 8981SOL     OW38575   1.854   1.999   5.170 -0.2527  0.1226  0.4413
 8981SOL    HW138576   1.896   1.970   5.251  1.0772 -1.1384 -0.6969
 8981SOL    HW238577   1.854   1.918   5.118 -0.0225  0.3704  0.0591
 8982SOL     OW38578   1.369   2.504  15.997 -0.9920 -0.2890  0.2728
 8982SOL    HW138579   1.455   2.540  15.974 -0.9433 -1.5351 -1.4877
 8982SOL    HW238580   1.308   2.548  15.938  0.2482 -0.6021 -1.2573
 8983SOL     OW38581   3.650   1.086   4.919 -0.3741  0.0440 -0.4027
 8983SOL    HW138582   3.680   1.087   5.010 -2.6158  0.7495  0.3182
 8983SOL    HW238583   3.704   1.155   4.879 -1.9994  1.1049 -0.7634
 8984SOL     OW38584   3.653   1.617   9.730  0.1695  0.5532  0.3415
 8984SOL    HW138585   3.562   1.598   9.752  0.3684 -0.4238  0.3259
 8984SOL    HW238586   3.644   1.698   9.681 -1.3858 -0.6139 -1.3243
 8985SOL     OW38587   0.993   2.387  15.632  0.3773  1.1057  0.2355
 8985SOL    HW138588   0.898   2.377  15.639  0.6848 -1.9045  0.0276
 8985SOL    HW238589   1.019   2.375  15.724  3.3480 -0.5390 -0.8001
 8986SOL     OW38590   4.668   0.711   6.189 -0.1679  0.1507 -0.0076
 8986SOL    HW138591   4.723   0.741   6.261 -0.8536 -0.9843  0.9782
 8986SOL    HW238592   4.584   0.747   6.216  1.4118  3.1195  0.9766
 8987SOL     OW38593   0.892   0.453  10.793 -0.2740  0.4879 -0.7621
 8987SOL    HW138594   0.842   0.471  10.873  3.7591  0.2511  1.7841
 8987SOL    HW238595   0.964   0.404  10.833 -2.1279 -1.3251  0.3950
 8988SOL     OW38596   1.294   3.300   3.060  0.3483 -0.0034 -0.1603
 8988SOL    HW138597   1.237   3.339   3.126  1.1045 -1.1177  1.1575
 8988SOL    HW238598   1.382   3.334   3.073  0.3458  0.5054 -1.4571
 8989SOL     OW38599   2.475   3.214   3.525  0.1164 -0.7383 -0.2821
 8989SOL    HW138600   2.528   3.206   3.446  0.4783 -1.0973 -0.0061
 8989SOL    HW238601   2.404   3.272   3.499 -1.5711 -1.7635  2.0190
 8990SOL     OW38602   1.260   3.662  16.916  0.3546 -0.6238 -0.2821
 8990SOL    HW138603   1.350   3.660  16.883  0.3004  0.1671 -0.4728
 8990SOL    HW238604   1.283   3.675  17.008 -2.6091 -0.4898  0.4113
 8991SOL     OW38605   2.747   1.376   6.219 -0.2084  0.1086  0.0536
 8991SOL    HW138606   2.829   1.336   6.248  0.1816  3.3280  3.4144
 8991SOL    HW238607   2.679   1.313   6.245 -0.5207 -0.7508 -2.8930
 8992SOL     OW38608   0.641   1.989   7.097 -0.5376  0.0337 -0.4009
 8992SOL    HW138609   0.649   2.056   7.165  0.4020 -2.3126  1.7929
 8992SOL    HW238610   0.560   2.002   7.046 -0.8390  1.1999  0.3719
 8993SOL     OW38611   3.890   4.545   5.880 -0.0098 -0.0412 -0.1245
 8993SOL    HW138612   3.798   4.520   5.884 -0.0128  0.0663  0.6566
 8993SOL    HW238613   3.925   4.490   5.950  2.0322  1.3734 -0.0425
 8994SOL     OW38614   0.400   3.548   1.704 -0.1988 -0.8805 -0.1456
 8994SOL    HW138615   0.399   3.455   1.729 -0.7026 -0.9621 -0.4665
 8994SOL    HW238616   0.494   3.564   1.705 -0.4618  0.6703 -1.2486
 8995SOL     OW38617   3.067   3.430   3.706 -0.0565 -0.4340  0.2824
 8995SOL    HW138618   3.096   3.514   3.671  0.4629 -0.2047  1.2666
 8995SOL    HW238619   3.143   3.401   3.755 -1.9330 -2.3655  2.0272
 8996SOL     OW38620   0.356   4.170   8.500  0.0280  0.9830  0.1955
 8996SOL    HW138621   0.305   4.124   8.567  1.8454 -0.0759  0.8439
 8996SOL    HW238622   0.440   4.183   8.543  0.2097 -1.3779  0.5550
 8997SOL     OW38623   1.740   1.595  13.714 -0.2052 -0.2191 -0.4971
 8997SOL    HW138624   1.702   1.580  13.800 -0.5109  3.8570  0.0528
 8997SOL    HW238625   1.666   1.597  13.653 -0.7325 -0.0036  0.1585
 8998SOL     OW38626   2.938   0.993   1.770  0.5896 -0.1718 -0.0307
 8998SOL    HW138627   2.880   0.942   1.715  0.2725 -1.2944  1.3492
 8998SOL    HW238628   2.905   0.957   1.852 -0.9758 -1.6851 -1.3474
 8999SOL     OW38629   1.636   0.961  13.640 -0.1144 -0.0784  0.0416
 8999SOL    HW138630   1.564   0.906  13.669  0.8468 -0.7074  1.2620
 8999SOL    HW238631   1.651   0.933  13.550 -0.6987 -0.7054  0.1483
 9000SOL     OW38632   0.572   1.821   8.011 -0.2390  0.2239 -0.4961
 9000SOL    HW138633   0.483   1.802   8.039 -0.6032  0.4913 -1.4495
 9000SOL    HW238634   0.585   1.905   8.054  0.0034  1.3452 -2.7614
 9001SOL     OW38635   2.527   4.711   4.210 -0.2674 -0.3955 -0.6040
 9001SOL    HW138636   2.520   4.684   4.302 -1.3221  0.1241 -0.5222
 9001SOL    HW238637   2.607   0.029   4.204 -1.2336  0.9799 -1.5659
 9002SOL     OW38638   4.511   3.538   8.799  0.4858  0.0697 -0.2670
 9002SOL    HW138639   4.593   3.530   8.752 -0.6491 -1.3879 -2.0032
 9002SOL    HW238640   4.546   3.528   8.887  0.4047 -1.2247 -0.3825
 9003SOL     OW38641   0.747   3.572   7.098  0.1507  0.4860  0.9485
 9003SOL    HW138642   0.710   3.542   7.016 -1.8085  0.2441  1.9240
 9003SOL    HW238643   0.789   3.497   7.140  1.7729 -0.5431 -2.5422
 9004SOL     OW38644   1.771   3.189  12.801  0.7555 -0.4180 -0.7235
 9004SOL    HW138645   1.700   3.177  12.737 -0.6394 -0.8345  0.9038
 9004SOL    HW238646   1.721   3.187  12.882 -0.3667  0.7642 -1.3823
 9005SOL     OW38647   0.270   2.555   6.732  0.2377 -0.0493  0.3930
 9005SOL    HW138648   0.286   2.499   6.656 -2.1036 -1.6991  1.1096
 9005SOL    HW238649   0.185   2.520   6.760 -1.0123  3.0561  0.4778
 9006SOL     OW38650   4.357   3.013   8.923 -0.7367  0.3196 -0.4306
 9006SOL    HW138651   4.264   2.990   8.919 -1.1048  1.2046  2.8887
 9006SOL    HW238652   4.394   2.973   8.844 -0.2283  2.1760 -1.1172
 9007SOL     OW38653   3.087   4.596   2.330 -0.3551 -0.0718 -0.1988
 9007SOL    HW138654   3.145   4.557   2.395  2.4239  3.3434 -0.6504
 9007SOL    HW238655   3.082   4.520   2.271 -1.0169 -2.5145  3.0126
 9008SOL     OW38656   1.158   2.767   5.429  0.1079 -0.2034  0.1780
 9008SOL    HW138657   1.088   2.757   5.494  1.9237  2.4972  2.5661
 9008SOL    HW238658   1.133   2.854   5.397  0.1879 -0.0951  0.4036
 9009SOL     OW38659   2.328   2.619   5.191 -0.5903  0.1428 -0.6764
 9009SOL    HW138660   2.297   2.707   5.171 -0.2647  0.4370  0.1101
 9009SOL    HW238661   2.422   2.631   5.182 -0.7003  1.2306 -0.3651
 9010SOL     OW38662   3.570   0.576   8.096  0.5939 -0.5199  0.5291
 9010SOL    HW138663   3.481   0.603   8.075  0.4062 -1.6325 -0.1108
 9010SOL    HW238664   3.550   0.522   8.173  0.6390 -1.2448  0.0305
 9011SOL     OW38665   2.920   2.807  11.587  0.6276  0.3501  0.4254
 9011SOL    HW138666   2.989   2.752  11.550  0.2974  0.0991  0.1815
 9011SOL    HW238667   2.875   2.840  11.509 -0.3192 -1.6956  0.1233
 9012SOL     OW38668   4.585   1.156  12.019  0.3331  0.1059 -0.1928
 9012SOL    HW138669   4.611   1.097  12.090 -1.0171 -1.1846 -0.7677
 9012SOL    HW238670   4.555   1.235  12.064 -0.4969 -0.1121 -0.3809
 9013SOL     OW38671   1.297   2.270  17.656  0.2153 -0.0475  0.1623
 9013SOL    HW138672   1.268   2.224  17.734  0.1467 -2.2479 -1.1622
 9013SOL    HW238673   1.325   2.199  17.599  1.3723 -0.7232  1.5859
 9014SOL     OW38674   0.417   2.662   6.064  0.3059  0.0004  0.0753
 9014SOL    HW138675   0.375   2.584   6.100 -3.1972  1.5042 -0.8178
 9014SOL    HW238676   0.503   2.633   6.033 -0.3246 -0.9459 -0.7775
 9015SOL     OW38677   2.489   0.021   3.851 -0.2921  0.0362 -0.1510
 9015SOL    HW138678   2.430   0.055   3.784  0.0602 -2.8228 -1.9146
 9015SOL    HW238679   2.457   0.083   3.916  0.3526  0.0048  0.1897
 9016SOL     OW38680   1.388   3.922   5.478 -0.1391 -0.1029 -0.2981
 9016SOL    HW138681   1.381   3.902   5.571 -1.6889 -1.8216 -0.7613
 9016SOL    HW238682   1.302   3.889   5.449 -0.3724  0.7393 -0.5467
 9017SOL     OW38683   0.754   3.041   6.019 -0.2945 -0.0859  0.2563
 9017SOL    HW138684   0.713   3.114   6.065 -0.2212 -0.4611  0.9161
 9017SOL    HW238685   0.788   2.978   6.082  0.0496  2.8440  3.0265
 9018SOL     OW38686   4.244   0.105   4.918 -0.1175  0.0385  0.5247
 9018SOL    HW138687   4.306   0.176   4.930  1.6978 -1.1920 -1.5118
 9018SOL    HW238688   4.176   0.131   4.980  1.3586 -0.1218  2.1698
 9019SOL     OW38689   4.626   3.275   9.298  0.3799 -0.0753 -0.0714
 9019SOL    HW138690   4.710   3.234   9.281  0.9126 -0.0403  2.4895
 9019SOL    HW238691   4.572   3.220   9.241 -1.5086  0.9065  0.7476
 9020SOL     OW38692   0.933   4.238  11.416 -0.1004  0.0622 -0.4779
 9020SOL    HW138693   0.902   4.219  11.327 -2.5474 -2.0418  0.7976
 9020SOL    HW238694   0.850   4.259  11.458 -0.6523  0.3706 -1.7179
 9021SOL     OW38695   1.902   3.003   8.722  0.0405 -0.3086  0.3979
 9021SOL    HW138696   1.843   2.939   8.683  1.6336 -1.7272  0.2828
 9021SOL    HW238697   1.954   3.021   8.644  0.1254  1.3430  0.8241
 9022SOL     OW38698   0.234   4.403  10.533  0.0670  0.1532 -0.6202
 9022SOL    HW138699   0.248   4.456  10.611 -2.1118  0.1026 -0.1913
 9022SOL    HW238700   0.310   4.344  10.532  2.8397  3.7049 -1.3628
 9023SOL     OW38701   0.990   2.101   1.231  0.3880  0.2129  0.0415
 9023SOL    HW138702   0.982   2.121   1.138 -0.5576  2.3512  0.5891
 9023SOL    HW238703   0.905   2.133   1.260  0.5603  1.2033 -0.5417
 9024SOL     OW38704   2.336   0.461   3.351 -0.0616  0.2094  0.4684
 9024SOL    HW138705   2.384   0.419   3.422 -0.7782  0.8043  1.3010
 9024SOL    HW238706   2.365   0.552   3.355  0.8443 -0.1003  0.8146
 9025SOL     OW38707   2.665   3.452   1.856 -0.7315  0.0700 -0.2820
 9025SOL    HW138708   2.574   3.426   1.840 -1.4786  0.4531  3.4835
 9025SOL    HW238709   2.693   3.367   1.890 -0.1100  0.2862 -0.2463
 9026SOL     OW38710   4.135   0.835   7.771  0.1462  0.2942 -0.2232
 9026SOL    HW138711   4.198   0.904   7.755  0.4065 -0.2927 -1.7345
 9026SOL    HW238712   4.055   0.887   7.765  1.1046  1.7435 -0.3919
 9027SOL     OW38713   1.573   4.130   9.426 -0.2334 -0.3352 -0.8982
 9027SOL    HW138714   1.654   4.085   9.401  0.5884  0.4198  0.3781
 9027SOL    HW238715   1.541   4.134   9.336  2.0757 -0.0433 -1.6864
 9028SOL     OW38716   1.091   2.496   3.321  0.1374  0.0799  0.3958
 9028SOL    HW138717   1.102   2.434   3.393  0.1152  0.8241  1.0419
 9028SOL    HW238718   1.005   2.471   3.286  1.2289 -1.1439 -1.4440
 9029SOL     OW38719   2.074   0.456   6.992  0.4407 -0.2270  0.4113
 9029SOL    HW138720   2.090   0.541   6.950  1.9213  0.1117  1.6395
 9029SOL    HW238721   1.999   0.421   6.946  2.3032 -0.4096 -2.4719
 9030SOL     OW38722   1.117   3.739   9.593 -0.2605  0.2947  0.1234
 9030SOL    HW138723   1.131   3.774   9.505  3.2979  1.1829  1.0469
 9030SOL    HW238724   1.087   3.650   9.573 -2.7627  1.4383 -1.2844
 9031SOL     OW38725   4.705   1.683   3.538 -0.1338  0.7146  0.0349
 9031SOL    HW138726   4.670   1.723   3.458  0.0191  0.3079 -0.2305
 9031SOL    HW238727   4.658   1.735   3.604 -0.4437  0.0056  0.3767
 9032SOL     OW38728   1.813   2.722   7.625 -0.7582 -0.3738  0.0130
 9032SOL    HW138729   1.752   2.794   7.611 -0.7199 -0.6281 -1.5148
 9032SOL    HW238730   1.884   2.743   7.564  0.5204 -2.3394  0.8228
 9033SOL     OW38731   1.033   4.395   1.453  0.1795  0.3279  0.2241
 9033SOL    HW138732   1.080   4.375   1.373 -0.0663 -0.7484  0.3494
 9033SOL    HW238733   0.941   4.389   1.428  0.4420  2.1710 -1.1690
 9034SOL     OW38734   1.813   1.878   6.778  0.4671 -0.3370  0.3414
 9034SOL    HW138735   1.760   1.908   6.704  0.4429 -0.2014  0.4149
 9034SOL    HW238736   1.777   1.942   6.840 -1.8479 -0.1837 -1.1490
 9035SOL     OW38737   4.363   4.692   9.521 -0.0095 -0.0943  0.0242
 9035SOL    HW138738   4.316   0.028   9.475  0.3983 -0.5100 -1.0222
 9035SOL    HW238739   4.308   4.614   9.513 -0.5063  0.3203 -0.5570
 9036SOL     OW38740   0.885   0.324   7.795  0.0403 -0.4235 -0.2541
 9036SOL    HW138741   0.810   0.344   7.739 -1.5505  1.9244  2.7046
 9036SOL    HW238742   0.963   0.364   7.756 -1.1117  2.9016  0.8417
 9037SOL     OW38743   0.505   0.950   6.546  0.2129 -0.2009  0.0823
 9037SOL    HW138744   0.532   0.885   6.610 -1.3206  0.3383  1.2585
 9037SOL    HW238745   0.543   1.033   6.577 -0.0796  0.8163 -2.2322
 9038SOL     OW38746   2.424   1.766   6.109 -0.5965 -0.4741 -0.8598
 9038SOL    HW138747   2.418   1.691   6.051  0.3921 -0.7740 -0.5716
 9038SOL    HW238748   2.504   1.747   6.160  0.3146  1.3922 -1.5721
 9039SOL     OW38749   4.610   3.793   3.680 -0.0022 -0.0529  0.3373
 9039SOL    HW138750   4.524   3.805   3.640  0.2957 -0.4856 -0.4221
 9039SOL    HW238751   4.656   3.759   3.604 -0.3134  0.2096  0.0334
 9040SOL     OW38752   3.113   1.894   0.464 -0.6022 -0.6158  0.6489
 9040SOL    HW138753   3.080   1.984   0.457  0.8393 -0.1851 -0.6900
 9040SOL    HW238754   3.100   1.876   0.557 -1.0735  0.5406  0.8054
 9041SOL     OW38755   4.342   0.395   7.937 -0.3700 -0.8087 -0.9274
 9041SOL    HW138756   4.413   0.427   7.881  0.5468 -0.6846  0.2898
 9041SOL    HW238757   4.275   0.462   7.928  1.0908  0.2641 -3.8103
 9042SOL     OW38758   2.604   1.455   2.145 -0.5345  0.6593 -0.3026
 9042SOL    HW138759   2.647   1.381   2.187  0.0743  0.4501 -1.2873
 9042SOL    HW238760   2.609   1.424   2.054 -1.9759 -2.9508  0.8707
 9043SOL     OW38761   3.881   2.611   7.807 -0.2039  0.0766 -0.5489
 9043SOL    HW138762   3.818   2.572   7.868  0.8687  1.0631  1.1481
 9043SOL    HW238763   3.936   2.534   7.795  0.8034  0.9263 -1.4246
 9044SOL     OW38764   0.076   0.403   7.639  0.4102 -0.1882 -0.2046
 9044SOL    HW138765   0.128   0.323   7.639  0.4110 -0.1918 -1.2988
 9044SOL    HW238766   0.130   0.461   7.692 -1.9744 -0.1248  2.1266
 9045SOL     OW38767   0.982   1.951  13.573 -0.4904 -0.2488  0.5860
 9045SOL    HW138768   0.966   1.952  13.668  0.9894 -0.2446  0.8225
 9045SOL    HW238769   1.077   1.942  13.567 -0.2376  3.0520  0.0131
 9046SOL     OW38770   3.689   4.589  12.867  0.4864 -0.3215 -0.7065
 9046SOL    HW138771   3.622   4.583  12.799  0.8224 -1.5638 -0.9269
 9046SOL    HW238772   3.734   4.669  12.841 -0.2310 -0.9399 -3.8070
 9047SOL     OW38773   2.380   0.544   4.879 -0.5125  0.1781  0.6105
 9047SOL    HW138774   2.395   0.450   4.873  0.1073  0.4831 -2.5557
 9047SOL    HW238775   2.467   0.570   4.908 -1.4627  3.3148  0.6657
 9048SOL     OW38776   3.577   0.168  15.007  0.3811  0.1412 -0.2978
 9048SOL    HW138777   3.593   0.165  15.101  0.9271 -0.8226 -0.4183
 9048SOL    HW238778   3.496   0.117  15.000 -0.5438  1.6725 -0.6101
 9049SOL     OW38779   3.857   2.218   0.247 -0.3669 -0.2034 -0.0669
 9049SOL    HW138780   3.829   2.129   0.222 -1.8359 -0.3620  2.0866
 9049SOL    HW238781   3.931   2.200   0.305  0.8339 -0.5280 -1.7171
 9050SOL     OW38782   2.785   3.813  13.765 -0.8927  0.1562  0.3277
 9050SOL    HW138783   2.749   3.885  13.714  2.1744  1.1473 -0.4275
 9050SOL    HW238784   2.702   3.777  13.796 -0.4060 -0.4663  0.9248
 9051SOL     OW38785   3.040   2.693   1.263 -0.6705  0.3220  0.0159
 9051SOL    HW138786   2.977   2.662   1.328  1.5682  1.4192  2.7625
 9051SOL    HW238787   3.044   2.782   1.298 -1.5673  0.3992 -0.0953
 9052SOL     OW38788   1.208   2.105   2.097 -0.2796 -0.4804 -0.4358
 9052SOL    HW138789   1.252   2.107   2.183 -0.9933 -2.6867 -0.0106
 9052SOL    HW238790   1.180   2.196   2.084  0.2815 -0.2709 -0.1905
 9053SOL     OW38791   3.236   0.447   3.049  0.1510  0.3525  0.0104
 9053SOL    HW138792   3.243   0.527   2.996 -1.1848 -1.1778 -2.5135
 9053SOL    HW238793   3.302   0.389   3.010  1.4199  3.5918 -2.6517
 9054SOL     OW38794   4.352   3.532   7.631  0.7969 -0.0694  0.0064
 9054SOL    HW138795   4.305   3.476   7.569  0.8224 -0.8120  0.6520
 9054SOL    HW238796   4.432   3.543   7.580  1.8579 -0.7340  1.5296
 9055SOL     OW38797   1.891   1.879   8.257  0.1791 -0.5310 -0.0526
 9055SOL    HW138798   1.798   1.868   8.237  0.1727 -1.2769  0.3703
 9055SOL    HW238799   1.928   1.821   8.189  2.1191  1.0183 -0.3146
 9056SOL     OW38800   3.037   3.206  17.370 -0.5377  0.3561 -0.1767
 9056SOL    HW138801   3.014   3.253  17.290  2.0322  0.5685 -0.8126
 9056SOL    HW238802   2.989   3.257  17.436 -0.3179  0.2031  0.1044
 9057SOL     OW38803   4.498   2.532  11.422 -0.1728  0.2292 -0.1014
 9057SOL    HW138804   4.449   2.475  11.482  0.4180  1.0940  1.2171
 9057SOL    HW238805   4.422   2.584  11.397  0.4117  1.5353  0.8450
 9058SOL     OW38806   3.763   4.265   0.139  0.7298 -0.1367 -0.9478
 9058SOL    HW138807   3.846   4.312   0.149 -0.8966  2.2436  1.4766
 9058SOL    HW238808   3.722   4.331   0.083 -2.9345 -1.2507  0.3653
 9059SOL     OW38809   4.070   0.701   5.756 -0.2589  0.0776  0.1797
 9059SOL    HW138810   4.158   0.672   5.778 -0.0926 -1.2891 -2.2482
 9059SOL    HW238811   4.024   0.617   5.752  0.9028 -0.4471 -1.9353
 9060SOL     OW38812   1.065   2.275   7.146 -0.3108  0.4801 -0.2222
 9060SOL    HW138813   0.981   2.305   7.181 -0.2173 -0.4375  0.8319
 9060SOL    HW238814   1.073   2.196   7.201 -0.4294  0.8456  0.3218
 9061SOL     OW38815   1.246   1.875   7.705  0.3609 -0.1334 -0.0380
 9061SOL    HW138816   1.323   1.823   7.680 -0.5294 -1.0433 -0.9230
 9061SOL    HW238817   1.227   1.931   7.629 -3.0971 -1.2635 -0.0021
 9062SOL     OW38818   1.531   4.558   9.515 -0.1923 -0.1940  0.4710
 9062SOL    HW138819   1.576   4.502   9.579  0.0572  0.5596  0.9555
 9062SOL    HW238820   1.439   4.538   9.531 -0.4131  1.0924  0.7679
 9063SOL     OW38821   0.466   3.119   2.797  1.0286 -0.5349  0.2598
 9063SOL    HW138822   0.502   3.206   2.781  0.1109 -0.5937 -2.1302
 9063SOL    HW238823   0.512   3.065   2.733  1.2782 -0.8090  0.6717
 9064SOL     OW38824   1.033   2.590   6.995  0.4304  0.1383  0.1838
 9064SOL    HW138825   1.097   2.551   7.054  1.0563 -0.3833 -0.8492
 9064SOL    HW238826   0.977   2.520   6.960  0.8313  0.3055 -0.7685
 9065SOL     OW38827   3.545   3.221   2.667 -0.1105 -0.2307  0.2537
 9065SOL    HW138828   3.523   3.262   2.583  0.5859 -1.8612 -0.7422
 9065SOL    HW238829   3.610   3.157   2.638  1.7148  0.1482  3.5743
 9066SOL     OW38830   3.483   3.681   5.380  0.2778 -0.5370 -0.2110
 9066SOL    HW138831   3.487   3.705   5.473 -0.8617 -1.2634  0.0236
 9066SOL    HW238832   3.407   3.729   5.345  0.3582 -1.4206 -1.5664
 9067SOL     OW38833   3.381   3.752   1.992 -0.1247  0.3711  0.6429
 9067SOL    HW138834   3.455   3.761   2.052 -0.4956  2.4704  0.7993
 9067SOL    HW238835   3.361   3.840   1.959  0.7781  0.3078 -0.0927
 9068SOL     OW38836   1.160   3.657  13.124  0.0234 -0.3006 -0.0386
 9068SOL    HW138837   1.121   3.643  13.210  0.6873 -0.2557  0.2686
 9068SOL    HW238838   1.083   3.671  13.069 -1.0058  0.9618  1.7320
 9069SOL     OW38839   0.671   0.804  13.593 -0.2221  0.2199 -0.1750
 9069SOL    HW138840   0.623   0.767  13.667 -0.2467 -0.6285 -0.6160
 9069SOL    HW238841   0.697   0.888  13.631 -0.5216  0.9567 -1.5973
 9070SOL     OW38842   3.106   1.810   8.640  0.1758  0.1557 -0.3226
 9070SOL    HW138843   3.093   1.905   8.631  0.3572  0.0595 -1.6321
 9070SOL    HW238844   3.190   1.814   8.685 -0.8380  0.5882  1.5243
 9071SOL     OW38845   2.728   0.969   4.471  0.1670  0.3129 -0.3085
 9071SOL    HW138846   2.798   0.919   4.429  0.7097 -0.5504  1.6475
 9071SOL    HW238847   2.673   0.895   4.495  0.0318 -0.0043 -1.5954
 9072SOL     OW38848   4.313   1.467  14.844  0.2746 -0.6999 -0.2312
 9072SOL    HW138849   4.392   1.464  14.790  0.9646 -0.6688  0.7858
 9072SOL    HW238850   4.339   1.402  14.910 -1.6301 -1.1622  0.0942
 9073SOL     OW38851   2.449   4.594  16.582  0.1108  0.0218 -0.5248
 9073SOL    HW138852   2.390   4.564  16.512 -0.2122  1.1381 -0.7311
 9073SOL    HW238853   2.400   4.667  16.621  3.0253  1.0353  1.1566
 9074SOL     OW38854   3.272   1.427   2.053  0.2195 -0.3418  0.2341
 9074SOL    HW138855   3.254   1.517   2.026 -0.2087 -0.7748 -0.9246
 9074SOL    HW238856   3.182   1.396   2.046  0.7257 -1.7648  0.1705
 9075SOL     OW38857   3.123   4.121   2.810  0.3222 -0.1705  0.3743
 9075SOL    HW138858   3.191   4.114   2.743  0.2969 -1.1608  0.4608
 9075SOL    HW238859   3.094   4.212   2.819 -1.1938 -0.4843 -1.4540
 9076SOL     OW38860   3.123   2.125   7.912  0.0717  0.5725  0.2474
 9076SOL    HW138861   3.074   2.067   7.971  0.7257 -1.0444 -0.7921
 9076SOL    HW238862   3.082   2.122   7.826 -1.5681 -2.7274  1.1152
 9077SOL     OW38863   2.753   1.900   5.133  0.1834 -0.0744 -0.8788
 9077SOL    HW138864   2.827   1.958   5.152 -0.6951  0.2010  1.6572
 9077SOL    HW238865   2.807   1.821   5.137 -1.8868 -1.5597 -2.8650
 9078SOL     OW38866   2.823   2.193   3.320  0.0589 -0.0352  0.5863
 9078SOL    HW138867   2.739   2.236   3.308 -0.5227 -2.0437 -2.3798
 9078SOL    HW238868   2.874   2.272   3.306  0.4980 -0.7208 -1.7640
 9079SOL     OW38869   3.763   1.938   3.415 -0.2531 -0.0009 -0.3224
 9079SOL    HW138870   3.819   1.998   3.367 -0.6384  1.4431  1.0191
 9079SOL    HW238871   3.826   1.909   3.481 -0.8296  0.5687  0.4780
 9080SOL     OW38872   2.883   2.930   6.784 -0.0234  0.0456 -0.3829
 9080SOL    HW138873   2.937   2.982   6.843  2.0175 -0.7968 -1.4764
 9080SOL    HW238874   2.927   2.957   6.703 -1.6990  2.2955 -0.5261
 9081SOL     OW38875   4.179   0.428  14.009 -0.2992 -0.2906  0.2477
 9081SOL    HW138876   4.214   0.432  14.098 -1.8285 -1.8877  0.9021
 9081SOL    HW238877   4.094   0.385  14.016 -0.2095 -0.3982  0.6628
 9082SOL     OW38878   0.462   4.010   4.689 -0.3970 -0.2708  0.4877
 9082SOL    HW138879   0.513   3.983   4.765  0.0955  2.5006  1.1628
 9082SOL    HW238880   0.377   4.028   4.730 -0.6729  1.9596 -1.0649
 9083SOL     OW38881   4.039   2.101  15.765  0.1143 -0.0204  0.0373
 9083SOL    HW138882   3.991   2.147  15.696  2.8489  0.8507 -1.2879
 9083SOL    HW238883   4.060   2.170  15.828 -1.1033 -0.7509  1.2471
 9084SOL     OW38884   0.589   4.000   4.940  0.0582  0.0825  0.1281
 9084SOL    HW138885   0.588   4.095   4.931 -0.7016  0.1433  0.9295
 9084SOL    HW238886   0.671   3.978   4.895 -0.2354 -1.0221  0.1469
 9085SOL     OW38887   0.367   0.147   3.120  0.4039 -0.3814  0.4369
 9085SOL    HW138888   0.378   0.242   3.113 -0.2348 -0.1509  2.3932
 9085SOL    HW238889   0.413   0.135   3.203 -0.3004 -2.0129  0.5943
 9086SOL     OW38890   2.708   4.103  14.766 -0.0653 -0.0055  1.6542
 9086SOL    HW138891   2.634   4.163  14.754  0.8085  0.5732 -0.9271
 9086SOL    HW238892   2.744   4.105  14.677 -2.2688 -0.5192  0.7223
 9087SOL     OW38893   1.549   4.385   7.507  0.1614 -0.4223 -0.3093
 9087SOL    HW138894   1.517   4.352   7.423 -1.1364 -0.2537  0.1103
 9087SOL    HW238895   1.468   4.363   7.554 -0.1824 -1.0743 -1.1960
 9088SOL     OW38896   1.910   2.494   4.649 -0.6590 -0.1759 -0.0545
 9088SOL    HW138897   1.906   2.405   4.685 -0.2005  0.6000  1.9046
 9088SOL    HW238898   1.933   2.482   4.557 -1.4808 -2.5479  0.0512
 9089SOL     OW38899   4.178   1.058  16.680 -0.1886 -0.0817  0.3226
 9089SOL    HW138900   4.151   1.044  16.771  0.6815 -2.9636  0.1329
 9089SOL    HW238901   4.117   1.125  16.652  1.1285  2.0223  2.4667
 9090SOL     OW38902   2.406   2.830   1.284  0.0561 -0.0401  0.4038
 9090SOL    HW138903   2.434   2.870   1.202 -0.5656 -0.3741  0.0242
 9090SOL    HW238904   2.438   2.893   1.349 -0.4194 -0.8110  1.3921
 9091SOL     OW38905   2.233   0.318  16.294 -0.2198  0.5304  0.0828
 9091SOL    HW138906   2.273   0.280  16.215 -1.3111 -0.7620  0.1561
 9091SOL    HW238907   2.306   0.364  16.335  0.4176 -0.3171 -0.1038
 9092SOL     OW38908   1.117   3.788   8.914  0.2273 -0.3861 -0.0705
 9092SOL    HW138909   1.076   3.824   8.992 -0.4332 -1.3790  0.0463
 9092SOL    HW238910   1.120   3.868   8.863 -1.6606 -0.1400  0.2119
 9093SOL     OW38911   2.881   2.869   5.229  0.6635 -0.0146  0.7049
 9093SOL    HW138912   2.916   2.780   5.238 -0.8448 -0.7132 -0.4466
 9093SOL    HW238913   2.837   2.890   5.311 -1.2621  0.8023 -0.5246
 9094SOL     OW38914   2.730   2.352   9.482 -0.3864 -0.5593  0.0164
 9094SOL    HW138915   2.778   2.412   9.425 -2.5920  1.4362  0.2532
 9094SOL    HW238916   2.778   2.367   9.564  1.0154  0.4256 -0.9960
 9095SOL     OW38917   4.311   3.700   8.094  0.1434  0.2995  0.0389
 9095SOL    HW138918   4.287   3.678   8.185  0.9373  0.4324  0.2785
 9095SOL    HW238919   4.249   3.770   8.074  0.6120  0.3770 -1.0847
 9096SOL     OW38920   3.354   0.520  16.514 -0.3435  0.3969  0.0186
 9096SOL    HW138921   3.376   0.495  16.603 -0.2230 -1.1108 -0.4395
 9096SOL    HW238922   3.298   0.451  16.480 -1.6479  1.9706 -1.0323
 9097SOL     OW38923   0.668   2.697  12.514  0.0128  0.0703  0.2339
 9097SOL    HW138924   0.725   2.741  12.451 -1.1468 -0.1764 -0.9751
 9097SOL    HW238925   0.650   2.622  12.458 -1.3659  2.6203 -2.7806
 9098SOL     OW38926   3.858   0.895   8.118 -0.4097 -0.1986 -0.4525
 9098SOL    HW138927   3.827   0.822   8.065  0.4334 -2.6965  2.5223
 9098SOL    HW238928   3.890   0.961   8.056 -2.0404  0.0650 -1.0178
 9099SOL     OW38929   2.610   3.192   8.000  0.1846  0.1006  0.1768
 9099SOL    HW138930   2.558   3.111   8.003 -0.4093  0.4040 -2.0778
 9099SOL    HW238931   2.698   3.155   8.005  0.1178  0.0434  0.9199
 9100SOL     OW38932   3.311   0.989   0.472  0.4437  0.2908  0.2896
 9100SOL    HW138933   3.343   1.041   0.546  2.1936  2.2805 -1.8836
 9100SOL    HW238934   3.390   0.986   0.418  1.6397  1.5365  1.9611
 9101SOL     OW38935   0.406   0.189   1.839 -0.0742  0.1215  0.1739
 9101SOL    HW138936   0.339   0.240   1.885 -2.7380 -1.2501 -2.2209
 9101SOL    HW238937   0.352   0.129   1.788 -0.8005  0.9682 -0.0538
 9102SOL     OW38938   4.099   2.266   6.019  0.5663 -0.3736 -0.2406
 9102SOL    HW138939   4.192   2.257   6.039  0.6038 -0.3362 -0.3985
 9102SOL    HW238940   4.085   2.226   5.933  3.7386 -0.6168 -0.6359
 9103SOL     OW38941   2.030   0.730   3.883  0.0407  0.1583 -0.5492
 9103SOL    HW138942   2.101   0.793   3.896 -0.3463  0.4598  0.0860
 9103SOL    HW238943   1.965   0.795   3.907  0.1323 -0.4142  1.2710
 9104SOL     OW38944   0.077   3.774   6.983 -0.0011 -0.0649 -0.2555
 9104SOL    HW138945   0.046   3.733   7.065 -0.3880  0.3384 -0.1964
 9104SOL    HW238946   0.168   3.744   6.988 -0.3248 -0.7470  1.6625
 9105SOL     OW38947   1.719   3.551   7.969 -0.6655  0.5736 -0.0035
 9105SOL    HW138948   1.757   3.499   7.898 -2.6728  0.4147 -0.9362
 9105SOL    HW238949   1.686   3.630   7.925 -2.2696 -0.4297 -0.5709
 9106SOL     OW38950   2.353   2.494   3.116  0.1760  0.2690 -0.3828
 9106SOL    HW138951   2.391   2.576   3.145  0.6652 -0.5855  1.3888
 9106SOL    HW238952   2.347   2.502   3.020 -0.1922 -0.7840 -0.4517
 9107SOL     OW38953   3.323   1.966  14.846 -0.2326 -0.1527 -0.3480
 9107SOL    HW138954   3.244   1.915  14.865 -0.0303 -0.6816 -0.9173
 9107SOL    HW238955   3.386   1.903  14.882  0.6379  1.0527  0.2203
 9108SOL     OW38956   2.022   2.735   7.446 -0.0030  0.0716  0.5172
 9108SOL    HW138957   2.106   2.724   7.490  0.1788  0.2370  0.2135
 9108SOL    HW238958   2.003   2.641   7.443  1.4015 -0.1493 -1.6492
 9109SOL     OW38959   4.204   1.496  12.664  0.0013 -0.0426  0.2682
 9109SOL    HW138960   4.127   1.509  12.719  0.2436  2.0597  0.0860
 9109SOL    HW238961   4.263   1.565  12.693  0.5639  0.0200 -1.0135
 9110SOL     OW38962   0.840   0.199   6.900 -0.0720  0.3551 -0.0462
 9110SOL    HW138963   0.838   0.280   6.849 -0.4060  0.5388  0.2531
 9110SOL    HW238964   0.906   0.221   6.967  0.4496 -1.1246 -0.0848
 9111SOL     OW38965   4.494   2.625   6.818  0.0631 -0.1643 -0.4890
 9111SOL    HW138966   4.436   2.595   6.888  0.1050 -0.3316 -0.5254
 9111SOL    HW238967   4.579   2.611   6.861 -0.1773 -0.0061  0.0345
 9112SOL     OW38968   2.770   0.820   1.622 -0.2306  1.0169 -0.1093
 9112SOL    HW138969   2.819   0.738   1.614  1.1256  1.7624  0.5877
 9112SOL    HW238970   2.749   0.842   1.531 -1.8961 -0.9177 -0.1973
 9113SOL     OW38971   3.757   1.783  10.511 -0.2017  0.1496  0.9947
 9113SOL    HW138972   3.801   1.774  10.426 -1.2969 -0.7933  0.5238
 9113SOL    HW238973   3.719   1.870  10.498 -0.0082  0.2701  1.2275
 9114SOL     OW38974   0.393   1.726   2.820 -0.3354  0.3693 -0.7702
 9114SOL    HW138975   0.432   1.814   2.823  2.0469 -0.7448  0.8986
 9114SOL    HW238976   0.471   1.675   2.844 -0.7892  0.7289  1.4487
 9115SOL     OW38977   1.523   0.800  16.872  0.2201  0.2087  0.0638
 9115SOL    HW138978   1.610   0.822  16.839  0.7915 -0.5768  1.0479
 9115SOL    HW238979   1.530   0.706  16.888 -0.4688  0.2388  0.5400
 9116SOL     OW38980   4.271   0.540   0.853 -0.3814  0.4910 -0.3541
 9116SOL    HW138981   4.334   0.612   0.842 -1.2052  1.3873  0.7313
 9116SOL    HW238982   4.281   0.493   0.770 -0.5992  0.4936 -0.3828
 9117SOL     OW38983   2.663   4.346   8.954  0.0169 -0.3885 -0.0054
 9117SOL    HW138984   2.754   4.363   8.975  0.2595 -0.6100 -0.8978
 9117SOL    HW238985   2.633   4.304   9.035 -1.1814 -1.8174 -1.1750
 9118SOL     OW38986   4.159   0.770   0.099 -0.2277  0.3615  0.4753
 9118SOL    HW138987   4.192   0.728   0.020 -0.4523  0.8683  0.1078
 9118SOL    HW238988   4.242   0.792   0.140 -0.4269 -0.4987  1.3621
 9119SOL     OW38989   2.024   1.450   6.409 -0.8350  0.0451 -0.8455
 9119SOL    HW138990   1.978   1.458   6.493  1.6792  2.1878  0.3332
 9119SOL    HW238991   2.057   1.361   6.420 -2.9304 -0.4470  1.5689
 9120SOL     OW38992   4.707   1.990   5.609 -0.2105  0.0947  0.6686
 9120SOL    HW138993   4.711   1.915   5.550 -0.3250 -0.1490  0.9704
 9120SOL    HW238994   4.615   2.013   5.604 -0.0035  1.3351  2.5501
 9121SOL     OW38995   1.259   0.187   6.155  0.2665 -0.0816 -0.1659
 9121SOL    HW138996   1.265   0.283   6.154 -1.3475  0.0024 -3.8187
 9121SOL    HW238997   1.345   0.171   6.193 -0.2572  0.7369  1.3681
 9122SOL     OW38998   1.789   2.542   2.206 -0.3440 -0.9780 -0.2331
 9122SOL    HW138999   1.756   2.631   2.215  3.2250  0.3829 -0.6909
 9122SOL    HW239000   1.861   2.547   2.144 -0.5753 -1.9711 -0.5745
 9123SOL     OW39001   2.498   1.686   9.306  0.7056  0.2027  0.3779
 9123SOL    HW139002   2.441   1.699   9.231  1.6130 -0.2675 -0.3849
 9123SOL    HW239003   2.431   1.648   9.364  0.4010  0.3189  0.1017
 9124SOL     OW39004   1.664   0.790  15.002  0.0384  0.4911  0.3939
 9124SOL    HW139005   1.736   0.761  14.946  1.1498  2.0492  1.0186
 9124SOL    HW239006   1.706   0.854  15.060  1.1725 -1.1377  1.3881
 9125SOL     OW39007   3.898   1.039   4.278  0.1588  0.0968 -0.0879
 9125SOL    HW139008   3.812   1.059   4.241 -0.9993 -1.3273  1.8139
 9125SOL    HW239009   3.928   1.126   4.306  0.8272 -0.0914 -0.2228
 9126SOL     OW39010   0.430   0.253  16.931  0.3812  0.3438 -0.0441
 9126SOL    HW139011   0.477   0.315  16.988 -0.2073  1.0659 -0.3456
 9126SOL    HW239012   0.497   0.226  16.869 -1.3902 -1.0706 -1.3370
 9127SOL     OW39013   4.390   0.265   5.851  0.4699 -0.0070  0.1181
 9127SOL    HW139014   4.393   0.214   5.932 -2.3943  2.2747  1.6410
 9127SOL    HW239015   4.326   0.211   5.804 -1.6199  1.7671  0.9411
 9128SOL     OW39016   3.132   3.567   2.700  0.7197  0.0111 -0.1552
 9128SOL    HW139017   3.157   3.491   2.649  0.9401 -1.1083  1.6131
 9128SOL    HW239018   3.080   3.621   2.640 -1.2718 -2.7239 -0.8924
 9129SOL     OW39019   0.199   3.372   8.599  0.0690 -0.1945 -0.2678
 9129SOL    HW139020   0.236   3.312   8.534 -1.7313 -1.5178 -0.0560
 9129SOL    HW239021   0.180   3.311   8.670  2.3931  0.2741  0.7516
 9130SOL     OW39022   1.188   2.695   6.521  0.1028  0.1381  0.3401
 9130SOL    HW139023   1.185   2.686   6.616 -1.4048  2.1979  0.4971
 9130SOL    HW239024   1.276   2.732   6.522  0.3108 -0.3658  0.4654
 9131SOL     OW39025   2.717   3.278   6.602  0.5161  0.6260 -0.5866
 9131SOL    HW139026   2.703   3.184   6.616 -1.5122  1.3412  2.2114
 9131SOL    HW239027   2.628   3.312   6.610  0.6430  0.9308 -0.4637
 9132SOL     OW39028   0.020   0.561   5.210 -0.3676 -0.2108  0.6900
 9132SOL    HW139029   4.703   0.614   5.271 -2.6701 -0.3039 -1.1824
 9132SOL    HW239030   0.061   0.633   5.163  1.1889 -0.7295  1.2406
 9133SOL     OW39031   2.899   2.856  14.459  0.3512 -0.1966  0.0905
 9133SOL    HW139032   2.804   2.844  14.452  0.0538  1.4334  1.4376
 9133SOL    HW239033   2.907   2.938  14.411 -2.0613 -0.2515 -0.4278
 9134SOL     OW39034   4.579   0.020   5.194  0.0915 -0.3070 -0.1861
 9134SOL    HW139035   4.562   4.663   5.168  1.2113 -0.3709 -0.6684
 9134SOL    HW239036   4.497   0.059   5.227  0.7848 -0.7391  2.0588
 9135SOL     OW39037   0.906   2.747   8.299  0.2887 -0.0483 -0.0442
 9135SOL    HW139038   0.945   2.660   8.307 -0.3343 -0.4868 -1.8377
 9135SOL    HW239039   0.862   2.763   8.383  0.4287 -2.5398  0.5134
 9136SOL     OW39040   2.655   2.452  16.558 -0.0113  0.4933 -0.2952
 9136SOL    HW139041   2.701   2.465  16.475  1.9249  1.2942  0.8882
 9136SOL    HW239042   2.569   2.426  16.525  1.4067 -0.8568 -2.9873
 9137SOL     OW39043   0.110   1.813  13.597 -0.2457 -0.2423  0.4570
 9137SOL    HW139044   0.167   1.836  13.670  0.2815  1.2302 -0.4117
 9137SOL    HW239045   0.175   1.843  13.534 -0.8467  0.4721  0.1731
 9138SOL     OW39046   1.566   2.521   9.661 -0.0192 -0.4403 -0.0135
 9138SOL    HW139047   1.605   2.435   9.643  3.5516  0.6056  2.7731
 9138SOL    HW239048   1.505   2.495   9.729 -0.7410  0.5771 -0.2776
 9139SOL     OW39049   4.051   3.280   8.795 -0.5360 -0.0549  0.1201
 9139SOL    HW139050   4.131   3.331   8.793 -1.2320  1.0706  0.7432
 9139SOL    HW239051   4.023   3.299   8.885 -0.3814  0.5998  0.0262
 9140SOL     OW39052   4.133   0.963  10.492 -0.3973 -0.2446 -0.0332
 9140SOL    HW139053   4.191   0.977  10.418  0.3465  0.9331  0.7621
 9140SOL    HW239054   4.156   1.036  10.549 -1.6472 -0.5555  0.8952
 9141SOL     OW39055   2.713   2.763   8.085  0.3575  0.0559  0.0289
 9141SOL    HW139056   2.715   2.819   8.163  2.2091  0.2093 -0.1510
 9141SOL    HW239057   2.743   2.682   8.126  0.6725  0.6420  0.9674
 9142SOL     OW39058   1.949   0.914   4.961 -0.1103 -0.0163 -0.3603
 9142SOL    HW139059   1.894   0.992   4.972  1.0746  0.5475  1.6471
 9142SOL    HW239060   1.936   0.866   5.043  0.4195  0.4901  0.0217
 9143SOL     OW39061   1.992   3.704   4.576 -0.0891  0.1411  0.6905
 9143SOL    HW139062   2.080   3.672   4.557 -0.6943 -2.0394  1.4714
 9143SOL    HW239063   1.939   3.629   4.549 -1.9602  1.5014  0.5675
 9144SOL     OW39064   1.338   3.853   5.756 -0.1291  0.6855  0.3342
 9144SOL    HW139065   1.383   3.776   5.792 -1.7200  0.6684  2.3121
 9144SOL    HW239066   1.258   3.844   5.808  0.6764  0.3206  1.5133
 9145SOL     OW39067   1.936   4.244   9.419 -0.2368 -0.5200  0.1782
 9145SOL    HW139068   1.899   4.265   9.504 -3.4011  1.1147 -1.5831
 9145SOL    HW239069   1.984   4.163   9.435  0.7711 -0.3786 -2.0432
 9146SOL     OW39070   3.410   1.887  12.772  0.6167 -0.5062 -0.4512
 9146SOL    HW139071   3.471   1.932  12.713  0.0810 -2.8419 -2.8163
 9146SOL    HW239072   3.324   1.909  12.738  0.6463  0.6634  0.2249
 9147SOL     OW39073   3.324   3.194   6.008 -0.1093 -0.1647  0.3359
 9147SOL    HW139074   3.317   3.136   5.933 -0.9138 -0.8556  0.9475
 9147SOL    HW239075   3.256   3.158   6.064  0.4938 -0.8226  0.6490
 9148SOL     OW39076   2.830   0.066   6.824  0.2374 -0.2288  0.2985
 9148SOL    HW139077   2.752   0.062   6.880  1.0655 -0.6563  1.4390
 9148SOL    HW239078   2.902   0.069   6.887  1.7107 -0.5193 -1.3737
 9149SOL     OW39079   4.363   3.641   4.311  0.2813 -0.0324  0.2466
 9149SOL    HW139080   4.307   3.648   4.389 -1.1290  1.0900 -0.8697
 9149SOL    HW239081   4.435   3.701   4.332 -0.3990  0.8993 -0.0429
 9150SOL     OW39082   2.772   3.649   5.730 -0.0406  0.1595 -0.1669
 9150SOL    HW139083   2.689   3.673   5.687 -0.2334 -1.4146 -0.6905
 9150SOL    HW239084   2.789   3.557   5.711 -0.1528  0.2425 -0.6704
 9151SOL     OW39085   0.322   0.342   2.242 -0.0133 -0.8592 -0.3087
 9151SOL    HW139086   0.246   0.392   2.273 -0.1081 -1.8551  1.0993
 9151SOL    HW239087   0.309   0.322   2.150 -1.0809 -0.0030 -0.3402
 9152SOL     OW39088   0.418   3.188   9.485  0.0326  0.7088  0.4652
 9152SOL    HW139089   0.491   3.247   9.467  0.3049 -0.4302 -2.1867
 9152SOL    HW239090   0.375   3.177   9.400  1.1970 -0.3340  0.0105
 9153SOL     OW39091   0.967   0.441   8.248 -0.4610 -0.1016 -0.3639
 9153SOL    HW139092   1.009   0.471   8.168 -0.4486  0.6935 -0.0607
 9153SOL    HW239093   0.895   0.391   8.212 -0.1400 -0.1608 -0.9191
 9154SOL     OW39094   0.696   1.348  13.196  0.1308 -0.5000  0.1356
 9154SOL    HW139095   0.741   1.345  13.280 -0.3666 -4.0141  0.2883
 9154SOL    HW239096   0.623   1.287  13.204 -1.7814  1.7362 -0.4205
 9155SOL     OW39097   4.726   0.692   2.451  0.5357  0.0297 -0.1015
 9155SOL    HW139098   4.720   0.773   2.501 -0.4128 -1.4372  2.1728
 9155SOL    HW239099   4.651   0.654   2.497  1.3124 -1.5250 -0.0913
 9156SOL     OW39100   3.989   2.661   9.584 -0.5295  0.0832  0.3741
 9156SOL    HW139101   4.061   2.640   9.524  0.1866 -0.7553  1.5210
 9156SOL    HW239102   4.040   2.688   9.660  0.3378  0.7712 -0.4414
 9157SOL     OW39103   3.492   1.290   1.943 -0.7700  0.2883 -0.5653
 9157SOL    HW139104   3.410   1.323   1.981  0.9015  1.9233  1.6297
 9157SOL    HW239105   3.538   1.374   1.946  0.4722 -0.3314 -2.3390
 9158SOL     OW39106   1.679   1.760  10.322  0.0648 -0.1850  0.3879
 9158SOL    HW139107   1.648   1.827  10.383  0.6791  0.3927  0.0627
 9158SOL    HW239108   1.616   1.779  10.252 -0.6257 -1.8079  0.5553
 9159SOL     OW39109   1.873   2.635   8.198 -0.2573 -0.6230  0.1548
 9159SOL    HW139110   1.953   2.681   8.219 -0.3437  0.1399 -1.1519
 9159SOL    HW239111   1.903   2.572   8.132 -1.0718  0.6531 -1.4610
 9160SOL     OW39112   3.416   4.110   8.258 -0.3866  0.0205  0.5614
 9160SOL    HW139113   3.346   4.156   8.213 -1.3460 -0.5843  1.4405
 9160SOL    HW239114   3.407   4.154   8.342 -1.3717  1.0253 -0.0771
 9161SOL     OW39115   2.942   3.266   3.966  0.3669  0.0060 -0.5980
 9161SOL    HW139116   2.876   3.336   3.962 -0.7056 -1.0011 -0.2802
 9161SOL    HW239117   2.980   3.298   3.884  2.1206  0.5380  0.4223
 9162SOL     OW39118   3.400   0.851   8.091  0.2229  0.1254 -0.2761
 9162SOL    HW139119   3.495   0.852   8.105  0.0850  2.1399  0.4101
 9162SOL    HW239120   3.381   0.938   8.058  0.2588  0.5745  0.9079
 9163SOL     OW39121   0.036   4.437   1.664 -0.3760 -0.0569  0.1903
 9163SOL    HW139122   4.727   4.418   1.747 -2.1507  2.1493 -0.2278
 9163SOL    HW239123   4.722   4.367   1.620  0.1716 -1.4623  1.8385
 9164SOL     OW39124   3.345   0.720   1.347  0.2022  0.1014 -0.3102
 9164SOL    HW139125   3.262   0.766   1.357 -0.2310 -1.0017  1.2269
 9164SOL    HW239126   3.403   0.755   1.415 -0.6785 -0.7588  0.8918
 9165SOL     OW39127   0.582   4.360  13.172  0.8779 -0.0415 -0.1612
 9165SOL    HW139128   0.574   4.450  13.203 -1.1097  0.1232 -1.1544
 9165SOL    HW239129   0.624   4.320  13.248 -0.7908  0.0428  0.7975
 9166SOL     OW39130   0.401   1.090   3.763  0.1865 -0.0054  0.4002
 9166SOL    HW139131   0.329   1.052   3.712  0.1564 -1.2279  1.3493
 9166SOL    HW239132   0.351   1.140   3.828 -1.0787 -0.3926 -0.2842
 9167SOL     OW39133   3.063   3.775   5.382 -0.0355 -0.0980 -0.1500
 9167SOL    HW139134   3.020   3.845   5.334 -0.4002 -0.6438 -0.6250
 9167SOL    HW239135   3.011   3.701   5.349  0.7615 -1.6787  2.1301
 9168SOL     OW39136   4.427   4.648   7.099 -0.2283  0.2764  0.3760
 9168SOL    HW139137   4.513   4.682   7.123  0.8607 -1.8240 -0.4878
 9168SOL    HW239138   4.461   4.603   7.022 -0.6414  1.0834 -0.2630
 9169SOL     OW39139   4.028   0.178   7.194  0.0454 -0.4108  0.4020
 9169SOL    HW139140   3.964   0.106   7.192 -1.2716  0.7185  2.0704
 9169SOL    HW239141   4.091   0.154   7.262 -1.4290 -2.1288  1.1464
 9170SOL     OW39142   1.486   2.391   6.423 -0.0294  0.3416  0.0279
 9170SOL    HW139143   1.395   2.370   6.404 -0.0665  2.7231 -2.3525
 9170SOL    HW239144   1.531   2.308   6.409  0.2845  0.3392  1.0081
 9171SOL     OW39145   2.850   4.649  17.290  0.1050  0.0775 -0.5975
 9171SOL    HW139146   2.767   4.619  17.253 -0.1043 -1.9377  1.4755
 9171SOL    HW239147   2.812   4.699  17.362  1.3249 -1.5907  1.1931
 9172SOL     OW39148   2.419   2.095   9.496 -0.2466  0.5213  0.2749
 9172SOL    HW139149   2.326   2.079   9.476 -1.0512  2.0172  2.8489
 9172SOL    HW239150   2.438   2.032   9.565 -3.4731  0.9390  1.5426
 9173SOL     OW39151   2.414   0.203  12.490  0.2116  0.3730 -0.4558
 9173SOL    HW139152   2.492   0.173  12.442 -0.7244 -0.5352 -1.4043
 9173SOL    HW239153   2.459   0.223  12.572  0.6778 -0.2751 -0.5524
 9174SOL     OW39154   1.047   2.640  12.542  0.7927 -0.1168  0.0083
 9174SOL    HW139155   0.985   2.590  12.595  0.3604 -1.8019 -2.0431
 9174SOL    HW239156   0.989   2.714  12.525  3.0417  1.6283  0.0137
 9175SOL     OW39157   4.444   1.415   4.524 -0.0050 -0.0498 -0.6209
 9175SOL    HW139158   4.472   1.474   4.594  0.8374 -2.7398  1.2872
 9175SOL    HW239159   4.495   1.421   4.443 -2.5130 -0.2965 -2.2241
 9176SOL     OW39160   0.956   1.923  16.344 -0.3370 -0.1006 -0.1809
 9176SOL    HW139161   1.032   1.892  16.394  1.0848  2.0124 -1.0004
 9176SOL    HW239162   0.895   1.850  16.347  1.4183 -1.6014 -1.2227
 9177SOL     OW39163   4.064   2.460   1.471 -0.7510  0.3459 -0.0339
 9177SOL    HW139164   4.092   2.473   1.381 -1.0897  0.0861 -0.1768
 9177SOL    HW239165   4.098   2.540   1.511  1.3619 -0.1496 -0.8515
 9178SOL     OW39166   0.769   2.381   0.399  0.2460 -0.7585  0.7756
 9178SOL    HW139167   0.852   2.338   0.421  0.5981 -0.4768 -0.0030
 9178SOL    HW239168   0.744   2.422   0.482 -0.6917 -2.5241  1.3733
 9179SOL     OW39169   2.612   4.262   3.080  0.0804 -0.3401  0.4465
 9179SOL    HW139170   2.698   4.262   3.122  0.5039 -0.8758 -0.4120
 9179SOL    HW239171   2.612   4.350   3.041 -1.5446  0.1968  1.6519
 9180SOL     OW39172   1.479   3.741  17.648  0.2277 -0.1106 -0.6248
 9180SOL    HW139173   1.534   3.813  17.677 -0.0897  0.6877 -2.0295
 9180SOL    HW239174   1.499   3.671  17.710 -0.1545  0.9981  0.7449
 9181SOL     OW39175   3.041   0.920   2.545 -0.0300 -0.4621 -0.2375
 9181SOL    HW139176   2.956   0.940   2.505  0.0547 -1.1865 -0.7664
 9181SOL    HW239177   3.007   0.904   2.633 -2.2523  1.0373 -0.8060
 9182SOL     OW39178   2.499   0.266   2.075 -0.2335  0.1717 -0.4956
 9182SOL    HW139179   2.479   0.347   2.122  1.2207  1.2100 -1.6557
 9182SOL    HW239180   2.544   0.290   1.994 -0.1103 -1.3211 -0.8575
 9183SOL     OW39181   2.197   3.326  15.116 -0.1550 -0.3313 -0.0335
 9183SOL    HW139182   2.236   3.297  15.033 -0.1305 -2.3981  0.6896
 9183SOL    HW239183   2.140   3.401  15.099  1.5473  1.2668  1.2754
 9184SOL     OW39184   3.913   3.517  17.279  0.3789 -0.3504  0.5063
 9184SOL    HW139185   3.919   3.576  17.354  1.2655 -2.6826  2.2496
 9184SOL    HW239186   3.922   3.583  17.210 -4.6743 -0.2215 -0.0591
 9185SOL     OW39187   2.871   2.890   2.636 -0.2717  0.1557  0.8526
 9185SOL    HW139188   2.900   2.826   2.701  0.3717 -0.2103  0.1992
 9185SOL    HW239189   2.930   2.875   2.563  0.5785  0.8953  1.3856
 9186SOL     OW39190   2.503   4.129   4.936  0.5358 -0.4103  0.1156
 9186SOL    HW139191   2.426   4.144   4.882  0.1280  0.0997  0.8457
 9186SOL    HW239192   2.548   4.058   4.888 -2.5257 -2.2017 -0.0937
 9187SOL     OW39193   2.601   3.146   3.292 -0.1333  0.4980  0.1447
 9187SOL    HW139194   2.695   3.161   3.302 -0.7765  4.1614  0.7178
 9187SOL    HW239195   2.606   3.055   3.263  0.2747  0.3879  0.5460
 9188SOL     OW39196   1.417   4.315  14.083 -0.3203 -0.1749 -0.1508
 9188SOL    HW139197   1.397   4.346  14.172  0.0293 -0.8041  0.1457
 9188SOL    HW239198   1.511   4.330  14.075 -0.5354  1.8588  1.0928
 9189SOL     OW39199   3.700   1.661   8.316  0.2279  0.1409 -0.6576
 9189SOL    HW139200   3.638   1.624   8.253 -0.6192 -1.5279  1.1840
 9189SOL    HW239201   3.647   1.704   8.383 -0.1700 -1.3900  0.0091
 9190SOL     OW39202   3.388   2.953   8.718 -1.0570  0.6550 -0.3440
 9190SOL    HW139203   3.473   2.986   8.748 -0.7067 -0.0426 -0.5681
 9190SOL    HW239204   3.335   2.943   8.797  0.3170 -0.6658  0.4137
 9191SOL     OW39205   1.433   2.006   3.406 -0.4014  0.2007 -0.2152
 9191SOL    HW139206   1.409   2.083   3.355  0.7325  0.7448  0.0638
 9191SOL    HW239207   1.380   2.005   3.485  1.6383  0.1795  1.1724
 9192SOL     OW39208   2.232   1.958  16.837  0.3040 -0.1811  0.2929
 9192SOL    HW139209   2.152   1.981  16.884 -0.6801 -1.0638 -0.9401
 9192SOL    HW239210   2.298   2.010  16.884  2.7121 -2.4648 -0.5229
 9193SOL     OW39211   0.381   3.638  11.801 -0.7546 -0.7300  0.4318
 9193SOL    HW139212   0.440   3.565  11.817  1.6146  1.2126  0.4995
 9193SOL    HW239213   0.297   3.592  11.797 -1.6521  0.8471  1.1347
 9194SOL     OW39214   1.420   0.696   7.886 -0.2383 -0.6580  0.8510
 9194SOL    HW139215   1.488   0.749   7.928 -0.4473 -0.7717  1.3290
 9194SOL    HW239216   1.379   0.655   7.961 -1.2078 -1.1433  0.0600
 9195SOL     OW39217   3.009   2.008   2.337 -0.2409  0.3963 -0.5245
 9195SOL    HW139218   3.083   2.027   2.279 -0.5071  1.9956 -0.3280
 9195SOL    HW239219   2.990   1.915   2.326 -0.2937  0.4559 -0.9298
 9196SOL     OW39220   2.902   2.714  17.291 -0.4030 -0.2394 -0.0282
 9196SOL    HW139221   2.883   2.661  17.368 -0.6607 -2.7999 -1.8137
 9196SOL    HW239222   2.995   2.695  17.283 -0.2265  1.7319 -2.7758
 9197SOL     OW39223   1.548   4.379   3.547 -0.1128 -0.0986  0.2944
 9197SOL    HW139224   1.609   4.418   3.485 -1.8975 -0.8828 -1.9267
 9197SOL    HW239225   1.529   4.295   3.506 -0.4710  0.2942 -0.3339
 9198SOL     OW39226   1.500   2.862  12.959  0.0490 -0.0505 -0.0347
 9198SOL    HW139227   1.484   2.957  12.962  0.5240  0.0419 -0.5034
 9198SOL    HW239228   1.412   2.837  12.930  0.0384  2.9794 -2.6567
 9199SOL     OW39229   0.470   0.418  16.438  0.6742  0.1206 -0.2187
 9199SOL    HW139230   0.499   0.377  16.519  1.4374  1.6482  0.2795
 9199SOL    HW239231   0.536   0.378  16.381  1.5221 -2.5540  2.6472
 9200SOL     OW39232   0.448   2.822   8.531  0.4107 -0.6365  0.1580
 9200SOL    HW139233   0.354   2.822   8.516  0.6207  0.1719 -1.2051
 9200SOL    HW239234   0.468   2.914   8.547 -0.9409 -0.7620  2.4331
 9201SOL     OW39235   0.250   2.038   7.227 -0.0965 -0.1338 -0.4027
 9201SOL    HW139236   0.308   2.010   7.156 -1.3054  2.5299 -2.4323
 9201SOL    HW239237   0.192   1.962   7.234  1.1978 -0.9767  1.2505
 9202SOL     OW39238   0.373   2.769   4.192 -0.3124 -0.7414 -0.3204
 9202SOL    HW139239   0.454   2.797   4.232 -0.8487 -1.3659  1.1925
 9202SOL    HW239240   0.388   2.675   4.205 -0.9002 -0.7856  0.0561
 9203SOL     OW39241   2.054   4.531   9.020  0.6994 -0.4844  0.1673
 9203SOL    HW139242   2.075   4.458   8.961  0.0097 -2.2339  2.0712
 9203SOL    HW239243   1.975   4.507   9.067  0.4141  0.4422  0.1650
 9204SOL     OW39244   0.821   2.387  16.271  0.3482 -0.0234  0.2887
 9204SOL    HW139245   0.801   2.294  16.263 -0.8531  0.2515  0.0594
 9204SOL    HW239246   0.774   2.426  16.196  1.7281 -2.2728 -1.7384
 9205SOL     OW39247   4.453   0.227   1.433 -0.0420 -0.4023  0.1947
 9205SOL    HW139248   4.391   0.164   1.397  1.0700 -0.5179 -1.5571
 9205SOL    HW239249   4.535   0.177   1.429  0.0466 -0.1369 -1.2764
 9206SOL     OW39250   2.924   1.799   7.263 -0.0692 -0.1511 -1.0042
 9206SOL    HW139251   2.900   1.891   7.250  1.4185  0.3596 -0.1095
 9206SOL    HW239252   3.010   1.792   7.222  0.3653  0.7550 -0.2299
 9207SOL     OW39253   3.398   2.039   6.496  0.3279 -0.7487 -0.1009
 9207SOL    HW139254   3.407   1.966   6.556  0.4555 -1.7435 -1.3248
 9207SOL    HW239255   3.426   2.116   6.546  0.6392 -0.2719 -1.0087
 9208SOL     OW39256   2.672   2.476   7.383  0.0286 -0.9060  0.3703
 9208SOL    HW139257   2.616   2.547   7.353 -0.6197 -1.2790  0.7082
 9208SOL    HW239258   2.738   2.531   7.426  1.1646 -2.0943  0.1551
 9209SOL     OW39259   0.277   4.143  15.565  0.1548 -0.2399 -0.7080
 9209SOL    HW139260   0.213   4.208  15.535  1.0904  1.4230  0.9464
 9209SOL    HW239261   0.343   4.152  15.495  0.4642  1.5174 -0.1852
 9210SOL     OW39262   0.399   3.687  11.534  0.2090 -1.2644  0.1853
 9210SOL    HW139263   0.383   3.697  11.628 -0.7131 -2.3401  0.1384
 9210SOL    HW239264   0.404   3.782  11.521  1.3988 -1.3288  0.1676
 9211SOL     OW39265   3.117   2.980  14.255  0.0845  0.0720 -0.6156
 9211SOL    HW139266   3.034   2.955  14.215 -0.4322  0.8139 -0.0143
 9211SOL    HW239267   3.080   3.064  14.283  0.2600 -0.9308  2.5522
 9212SOL     OW39268   4.549   3.739   1.315 -0.1463  0.0746 -0.1242
 9212SOL    HW139269   4.455   3.740   1.295 -0.5509  0.3477  1.7554
 9212SOL    HW239270   4.547   3.724   1.410 -3.4202 -0.5931 -0.2858
 9213SOL     OW39271   3.538   3.603   3.478 -0.0614 -0.8423 -0.6630
 9213SOL    HW139272   3.467   3.542   3.458 -0.3632 -0.3165 -1.2211
 9213SOL    HW239273   3.574   3.640   3.397  3.1224 -0.7316  0.8201
 9214SOL     OW39274   4.257   0.981   6.740 -0.2429 -0.0822 -0.5939
 9214SOL    HW139275   4.284   0.889   6.740  0.2982  0.0812  2.1848
 9214SOL    HW239276   4.200   0.972   6.663 -1.8986  0.9141  0.5201
 9215SOL     OW39277   2.794   4.415   4.661 -0.0235  0.2458  0.0263
 9215SOL    HW139278   2.707   4.419   4.700 -0.4295  1.7811 -1.0441
 9215SOL    HW239279   2.836   4.500   4.678 -0.5256  0.4075  0.4662
 9216SOL     OW39280   4.646   0.545   6.444 -0.1942 -0.0402 -0.2973
 9216SOL    HW139281   4.616   0.631   6.414 -0.1020 -0.1607 -0.7334
 9216SOL    HW239282   4.577   0.486   6.414  0.4844 -0.0761 -1.7854
 9217SOL     OW39283   1.748   2.792   8.016  0.2118  0.0893 -0.2058
 9217SOL    HW139284   1.792   2.766   8.097 -0.2476 -1.0845 -0.3319
 9217SOL    HW239285   1.773   2.883   8.000 -0.5307  0.4030  0.4814
 9218SOL     OW39286   4.533   4.420   8.861 -0.0780 -0.5243  0.2949
 9218SOL    HW139287   4.561   4.333   8.888  2.8825 -0.2681 -1.8903
 9218SOL    HW239288   4.562   4.471   8.937  2.0485 -1.9189  0.4224
 9219SOL     OW39289   1.625   2.644   3.847  0.2138 -0.6735 -0.0514
 9219SOL    HW139290   1.711   2.673   3.817  0.6795 -1.6107  0.3801
 9219SOL    HW239291   1.597   2.717   3.903  3.4141  0.9130 -0.4849
 9220SOL     OW39292   2.194   2.209   7.847  0.9385  0.6573  0.0921
 9220SOL    HW139293   2.189   2.128   7.897 -3.0628 -0.1028 -1.5779
 9220SOL    HW239294   2.274   2.180   7.802  1.7990 -0.9024  2.6338
 9221SOL     OW39295   0.721   4.122  10.323 -0.1852 -0.0657 -0.0851
 9221SOL    HW139296   0.693   4.127  10.231  3.5745 -1.2505 -1.2923
 9221SOL    HW239297   0.762   4.207  10.337 -1.8990  0.6363  0.7263
 9222SOL     OW39298   0.785   1.322   8.447 -0.1121  0.0813 -0.3572
 9222SOL    HW139299   0.717   1.368   8.497  0.3233  1.8235 -1.3840
 9222SOL    HW239300   0.836   1.394   8.411 -0.4516  1.4825  2.0017
 9223SOL     OW39301   1.199   0.924   5.171 -0.3099 -0.2298 -0.2145
 9223SOL    HW139302   1.180   0.894   5.082  3.0130 -0.1708 -0.9164
 9223SOL    HW239303   1.208   0.836   5.208  2.5308  0.0298 -0.2883
 9224SOL     OW39304   2.396   2.164   2.683 -0.1535  0.0462  0.5842
 9224SOL    HW139305   2.424   2.072   2.680  1.4674  0.5903 -0.6485
 9224SOL    HW239306   2.326   2.169   2.619  0.3016 -1.6531 -0.0587
 9225SOL     OW39307   2.029   3.864   2.766  0.1651 -0.8358  0.4372
 9225SOL    HW139308   2.124   3.867   2.768  0.0556  2.4586  1.0657
 9225SOL    HW239309   2.010   3.931   2.701  0.1901 -0.9551  0.3074
 9226SOL     OW39310   3.701   2.763   3.416 -0.0534 -0.6072 -0.5387
 9226SOL    HW139311   3.697   2.820   3.493 -0.1273  0.7487 -1.5493
 9226SOL    HW239312   3.768   2.702   3.447  0.0968 -0.7261 -1.0900
 9227SOL     OW39313   3.080   0.925   4.498 -0.1119 -0.4015  0.1888
 9227SOL    HW139314   3.077   1.021   4.500 -1.6229 -0.4101 -1.2838
 9227SOL    HW239315   3.161   0.921   4.548 -0.5203 -0.7903  0.8263
 9228SOL     OW39316   2.526   4.564   4.716  0.0693 -0.1844 -0.2002
 9228SOL    HW139317   2.457   4.604   4.769  1.5854  0.2704  1.4293
 9228SOL    HW239318   2.473   4.517   4.652 -1.9415  2.0813 -0.2084
 9229SOL     OW39319   1.178   0.334  10.643  0.4878 -0.2346  0.1271
 9229SOL    HW139320   1.142   0.288  10.718 -2.4219  1.8001 -0.0218
 9229SOL    HW239321   1.106   0.395  10.629 -0.3058 -1.6378 -1.8947
 9230SOL     OW39322   2.857   3.654  12.249 -0.1864  0.0850  0.1633
 9230SOL    HW139323   2.892   3.579  12.296  0.1643 -0.6280 -1.2425
 9230SOL    HW239324   2.923   3.724  12.242 -4.0238  3.6409 -0.6937
 9231SOL     OW39325   2.562   1.313  12.124  0.0557  0.2839 -0.1487
 9231SOL    HW139326   2.491   1.361  12.080  1.0911  0.5933 -1.4641
 9231SOL    HW239327   2.599   1.384  12.178  2.8145 -1.1127 -0.2118
 9232SOL     OW39328   2.971   4.699   0.555  0.4499  0.0735 -0.5249
 9232SOL    HW139329   2.907   4.734   0.493  1.5012  1.0270 -1.0755
 9232SOL    HW239330   2.991   4.611   0.523 -1.3837 -0.3270 -0.6077
 9233SOL     OW39331   0.475   1.320   0.020  0.2216 -0.1725  0.1266
 9233SOL    HW139332   0.491   1.267  17.677 -0.9895  0.0539 -0.2680
 9233SOL    HW239333   0.384   1.349   0.016  0.7098  1.3755  0.0952
 9234SOL     OW39334   2.227   0.397  12.884  0.1165 -0.3341 -0.4068
 9234SOL    HW139335   2.138   0.428  12.900  0.5920  0.7915  0.0932
 9234SOL    HW239336   2.215   0.360  12.797  0.4823 -0.2190 -0.5068
 9235SOL     OW39337   2.305   1.358   0.034  0.3883 -0.4513  0.4194
 9235SOL    HW139338   2.363   1.357   0.110 -2.6752  0.7751  2.7647
 9235SOL    HW239339   2.223   1.358   0.084  1.3325  1.7008  1.9688
 9236SOL     OW39340   2.963   1.722   3.138 -0.1491  0.9489 -0.4857
 9236SOL    HW139341   2.927   1.634   3.152  1.4832  0.1419 -1.3781
 9236SOL    HW239342   2.917   1.761   3.213 -0.8702 -1.5792  0.4054
 9237SOL     OW39343   0.325   2.807   7.925  0.1857  0.3750  0.0925
 9237SOL    HW139344   0.396   2.865   7.897  0.5336  0.5661  1.4050
 9237SOL    HW239345   0.303   2.775   7.837 -0.3259  0.4149  0.2059
 9238SOL     OW39346   1.756   2.427   3.168  0.0135 -0.2871 -0.8884
 9238SOL    HW139347   1.776   2.352   3.225 -3.7002 -0.6744 -0.1069
 9238SOL    HW239348   1.835   2.432   3.114  0.6254 -1.1835 -0.0877
 9239SOL     OW39349   0.057   2.632   4.750 -0.1647 -0.4862 -0.3716
 9239SOL    HW139350   0.133   2.651   4.805  0.0015 -1.6185 -0.2135
 9239SOL    HW239351   4.728   2.608   4.819 -0.2755  0.2526 -0.2199
 9240SOL     OW39352   2.581   3.968   6.132  0.0806 -0.3556 -0.1255
 9240SOL    HW139353   2.595   4.031   6.061  1.6104  0.7124  1.1450
 9240SOL    HW239354   2.648   3.904   6.111  3.5372  3.0379  0.6168
 9241SOL     OW39355   0.681   0.585   8.628  0.0796  0.4979  0.8816
 9241SOL    HW139356   0.590   0.564   8.650  0.6464 -2.8403  0.1054
 9241SOL    HW239357   0.721   0.505   8.664 -0.0113 -0.2832 -0.7861
 9242SOL     OW39358   2.116   1.094   6.707  0.4066 -0.2397  0.5166
 9242SOL    HW139359   2.198   1.047   6.722  0.3288 -0.9472 -1.2180
 9242SOL    HW239360   2.049   1.030   6.730  1.6536 -1.4421  0.7944
 9243SOL     OW39361   3.239   2.095   8.207 -0.6240  0.5997 -0.7481
 9243SOL    HW139362   3.242   2.000   8.218  0.2429  0.8040  0.8346
 9243SOL    HW239363   3.195   2.120   8.288 -0.2477  1.9989 -0.9751
 9244SOL     OW39364   0.102   3.668   9.540 -0.1497  0.1839 -0.0606
 9244SOL    HW139365   0.084   3.710   9.624  0.8495 -1.6306  1.0530
 9244SOL    HW239366   0.022   3.615   9.539 -0.6268  0.9366 -1.7181
 9245SOL     OW39367   3.358   0.066  10.422  0.0076 -0.2992  0.0822
 9245SOL    HW139368   3.351   0.080  10.327 -0.6814 -2.6318 -0.2039
 9245SOL    HW239369   3.429   0.001  10.423  1.6945  1.4836 -2.0198
 9246SOL     OW39370   0.716   4.504   1.616  0.7137 -0.4113  0.0362
 9246SOL    HW139371   0.709   4.440   1.545  2.0034 -0.7806  0.2401
 9246SOL    HW239372   0.799   4.547   1.596 -2.1502  5.1637  0.1133
 9247SOL     OW39373   3.402   4.612  15.232 -0.5629 -0.1913  0.4932
 9247SOL    HW139374   3.479   4.579  15.187 -0.1412 -1.1520  1.9249
 9247SOL    HW239375   3.383   4.688  15.177  0.1293 -0.4329 -0.0727
 9248SOL     OW39376   2.258   2.522  16.643 -0.0631  0.3656 -0.0100
 9248SOL    HW139377   2.174   2.533  16.600 -0.6223 -3.6358  0.1183
 9248SOL    HW239378   2.242   2.568  16.726  0.1618  0.7242 -0.1675
 9249SOL     OW39379   4.427   3.169   2.975 -0.1132  0.2128  0.6251
 9249SOL    HW139380   4.450   3.078   2.955 -1.8818  0.3988 -2.2723
 9249SOL    HW239381   4.514   3.208   2.983 -0.5986  1.2050  0.9849
 9250SOL     OW39382   3.858   2.514   8.535  0.5051  0.5642  0.0488
 9250SOL    HW139383   3.775   2.559   8.548  1.1395  1.0473  2.4286
 9250SOL    HW239384   3.865   2.452   8.608  0.6897  0.1251 -0.3403
 9251SOL     OW39385   3.730   4.472   9.557 -0.7572  0.3905 -0.2250
 9251SOL    HW139386   3.751   4.561   9.583  0.5273 -0.8068  2.7809
 9251SOL    HW239387   3.816   4.430   9.565 -1.5121 -1.4946 -1.9232
 9252SOL     OW39388   2.065   0.832  13.951  0.1716 -0.5051  0.1453
 9252SOL    HW139389   1.990   0.870  13.904  0.4827 -1.3310 -1.0285
 9252SOL    HW239390   2.108   0.786  13.878 -2.8046  0.8646 -2.4901
 9253SOL     OW39391   0.093   2.146   0.692 -0.3711  0.0315 -0.3421
 9253SOL    HW139392   0.115   2.053   0.692 -0.9600 -0.1033  2.3476
 9253SOL    HW239393   0.109   2.158   0.785 -2.2017  1.6580 -0.2406
 9254SOL     OW39394   3.580   2.657   2.455  0.0546  0.1146 -0.1390
 9254SOL    HW139395   3.528   2.668   2.535  1.1870  0.6223  0.5197
 9254SOL    HW239396   3.665   2.633   2.492 -0.6246  1.4258  2.2455
 9255SOL     OW39397   2.823   1.621   5.940  0.0699  0.4123 -0.0357
 9255SOL    HW139398   2.748   1.669   5.905 -0.5242 -1.6038 -1.5379
 9255SOL    HW239399   2.788   1.532   5.944  1.9040 -0.1838  3.4286
 9256SOL     OW39400   2.231   4.236  10.490  0.0635  0.1466  0.4973
 9256SOL    HW139401   2.296   4.246  10.420  0.3980  1.4521  0.9927
 9256SOL    HW239402   2.185   4.159  10.458 -0.5705  0.4024  0.7902
 9257SOL     OW39403   0.353   1.844  12.959  0.2250 -0.4927  0.1875
 9257SOL    HW139404   0.273   1.801  12.987  0.8648 -0.7620  1.6167
 9257SOL    HW239405   0.351   1.825  12.865 -0.2539 -0.7513  0.2536
 9258SOL     OW39406   3.875   1.828  12.886  0.4888 -0.3006 -0.3638
 9258SOL    HW139407   3.896   1.921  12.889  0.2942 -0.3063  1.3446
 9258SOL    HW239408   3.902   1.812  12.976  1.0276 -1.5996 -0.7623
 9259SOL     OW39409   4.204   2.494  16.215 -0.0291  0.2299  0.8520
 9259SOL    HW139410   4.242   2.482  16.128  0.6437 -0.4534  1.2478
 9259SOL    HW239411   4.153   2.575  16.220 -0.2444  0.2074 -0.9861
 9260SOL     OW39412   0.487   2.740   4.500 -0.5506 -0.0150 -0.2451
 9260SOL    HW139413   0.558   2.746   4.437  1.2473 -3.2066  1.4633
 9260SOL    HW239414   0.529   2.748   4.586 -0.2680 -1.1622 -0.2812
 9261SOL     OW39415   0.439   0.768   4.625  0.2615  0.2374  0.3483
 9261SOL    HW139416   0.353   0.772   4.667 -0.1837 -1.8398 -0.3581
 9261SOL    HW239417   0.471   0.690   4.668  0.8914  0.2092 -0.1683
 9262SOL     OW39418   3.318   1.407   8.357  0.4854 -0.2716 -0.0123
 9262SOL    HW139419   3.345   1.472   8.422  1.1726 -0.3361 -0.2322
 9262SOL    HW239420   3.226   1.393   8.382  0.3773 -0.7725 -0.6890
 9263SOL     OW39421   2.684   3.682   6.536 -0.3297 -0.4815 -0.1036
 9263SOL    HW139422   2.771   3.714   6.559 -0.5736 -2.2299  3.2263
 9263SOL    HW239423   2.685   3.686   6.440 -0.8825  2.7312  0.0075
 9264SOL     OW39424   0.692   0.033  12.487 -0.3927  0.1194 -0.0052
 9264SOL    HW139425   0.645   0.075  12.415  0.3318 -0.8615 -1.0514
 9264SOL    HW239426   0.731   4.685  12.456 -2.3050 -1.1491  0.9240
 9265SOL     OW39427   2.763   1.956   0.203  0.5541  0.6631 -0.7287
 9265SOL    HW139428   2.698   1.891   0.173  0.6683  2.0027 -3.8342
 9265SOL    HW239429   2.794   1.985   0.117  1.4144  3.0979  0.4409
 9266SOL     OW39430   3.546   1.357   6.982 -0.1113 -0.1319  0.3877
 9266SOL    HW139431   3.549   1.279   6.926 -1.9583 -0.8911  1.3605
 9266SOL    HW239432   3.458   1.339   7.015  0.0693  0.0461  0.9662
 9267SOL     OW39433   2.048   1.943   4.924  0.4284 -0.2015 -0.4292
 9267SOL    HW139434   2.003   2.024   4.946 -0.2970 -1.0944  1.3574
 9267SOL    HW239435   2.044   1.938   4.828 -3.2010 -0.4769 -0.2482
 9268SOL     OW39436   2.341   3.312   9.045 -0.3936  0.1705 -0.1309
 9268SOL    HW139437   2.267   3.372   9.055  1.2361  2.0463  0.5147
 9268SOL    HW239438   2.307   3.224   9.064 -0.1466 -0.0889 -0.8802
 9269SOL     OW39439   3.411   1.701   4.808 -0.6557 -0.1687  0.0738
 9269SOL    HW139440   3.322   1.685   4.840 -0.0523 -1.4988  1.0833
 9269SOL    HW239441   3.456   1.624   4.843 -0.2044 -0.0281 -0.1934
 9270SOL     OW39442   0.267   1.871   8.095  0.4356  0.5945  0.2106
 9270SOL    HW139443   0.217   1.946   8.128 -1.0543 -0.1044 -0.4562
 9270SOL    HW239444   0.327   1.864   8.169  3.1628  0.7007 -2.0018
 9271SOL     OW39445   1.742   1.648  14.196 -0.7331  0.2587  0.0596
 9271SOL    HW139446   1.801   1.723  14.206 -0.1125  0.0761 -2.2975
 9271SOL    HW239447   1.789   1.575  14.235 -0.2811  0.3665 -0.2922
 9272SOL     OW39448   4.713   2.197   4.200 -0.0997 -0.0757  0.6120
 9272SOL    HW139449   4.657   2.149   4.139  0.5457  0.0506 -0.0809
 9272SOL    HW239450   4.652   2.194   4.273  0.2436  0.0310  0.9026
 9273SOL     OW39451   3.508   0.911   2.851  0.5229 -0.1105  0.1555
 9273SOL    HW139452   3.602   0.915   2.830  0.3880 -0.8938 -0.5919
 9273SOL    HW239453   3.503   0.881   2.942 -2.1768 -0.1408  0.0014
 9274SOL     OW39454   4.038   3.683  10.075 -0.5977 -0.3515  0.1790
 9274SOL    HW139455   4.042   3.671   9.980 -0.7378 -0.6964  0.2154
 9274SOL    HW239456   4.123   3.650  10.102  0.0162  1.9566  0.9919
 9275SOL     OW39457   3.743   1.113   2.963  0.2182 -0.5384  0.0415
 9275SOL    HW139458   3.705   1.122   3.051 -0.5900  1.2771 -0.4987
 9275SOL    HW239459   3.727   1.202   2.933  0.3804 -0.4027  0.3562
 9276SOL     OW39460   0.474   2.089   3.101 -0.3932 -0.3236  0.4464
 9276SOL    HW139461   0.544   2.065   3.162 -0.1242 -0.1775  0.1966
 9276SOL    HW239462   0.470   2.181   3.125  0.8226  0.2018 -1.3882
 9277SOL     OW39463   3.412   0.983   6.576 -0.3622  0.2146  0.0096
 9277SOL    HW139464   3.387   1.042   6.505 -0.0225  1.3447  0.8256
 9277SOL    HW239465   3.386   0.896   6.547  0.8127 -0.7675  1.9329
 9278SOL     OW39466   2.584   1.354   5.009 -0.0442 -0.0385  0.1877
 9278SOL    HW139467   2.584   1.329   4.917 -3.0449  0.5186  0.0603
 9278SOL    HW239468   2.567   1.268   5.047  0.8804 -1.0016 -1.6125
 9279SOL     OW39469   2.189   0.770  14.850  0.3561 -0.3680  0.0970
 9279SOL    HW139470   2.259   0.768  14.785 -0.0047 -0.5152 -0.2829
 9279SOL    HW239471   2.200   0.686  14.894 -0.2212  0.2378  1.3869
 9280SOL     OW39472   0.557   4.245  16.120  0.6519  0.2060  0.3694
 9280SOL    HW139473   0.562   4.149  16.121  1.6791  0.2577  0.3675
 9280SOL    HW239474   0.464   4.266  16.114  0.1785 -1.0211  3.6210
 9281SOL     OW39475   3.502   0.446   4.131  0.0648  0.1162  0.3246
 9281SOL    HW139476   3.596   0.460   4.127 -0.0732  1.0428  0.2808
 9281SOL    HW239477   3.496   0.360   4.089  0.2297  0.5341 -0.5479
 9282SOL     OW39478   2.723   0.807   3.485  0.0463 -0.5093 -0.5960
 9282SOL    HW139479   2.809   0.822   3.523  0.0665  2.2114 -1.7407
 9282SOL    HW239480   2.660   0.780   3.552 -0.0522  2.3183  0.4271
 9283SOL     OW39481   4.733   1.553   4.801 -0.5353 -0.2642  0.2894
 9283SOL    HW139482   0.031   1.613   4.868 -0.5791 -1.5997  1.5186
 9283SOL    HW239483   0.080   1.527   4.757 -0.4819  3.1313 -1.5788
 9284SOL     OW39484   1.362   3.132   3.327  0.3669 -0.0688  0.3123
 9284SOL    HW139485   1.394   3.051   3.367  0.5260  0.5920  1.5471
 9284SOL    HW239486   1.270   3.135   3.355  0.2616 -1.4017  0.1176
 9285SOL     OW39487   0.192   2.525  10.479  0.4569  0.2948 -0.0916
 9285SOL    HW139488   0.129   2.453  10.479 -1.9557  2.3995 -1.6304
 9285SOL    HW239489   0.276   2.479  10.470  0.4620 -0.0906  1.7803
 9286SOL     OW39490   2.014   3.159  16.644 -0.0221 -0.1990 -0.1578
 9286SOL    HW139491   2.066   3.098  16.695 -1.6035 -0.7149  0.8316
 9286SOL    HW239492   1.946   3.189  16.704  1.2989  3.2555 -0.3915
 9287SOL     OW39493   1.546   0.982   4.035 -0.1459 -1.2177  0.3335
 9287SOL    HW139494   1.517   1.014   3.949 -0.7007 -1.3922  0.4572
 9287SOL    HW239495   1.637   0.954   4.034  0.4638  0.8239 -3.2510
 9288SOL     OW39496   4.136   2.800  16.209 -0.2883  0.7033 -0.0908
 9288SOL    HW139497   4.188   2.873  16.174 -0.4124 -0.7602 -3.2807
 9288SOL    HW239498   4.068   2.845  16.258 -0.4896 -0.4425  0.6779
 9289SOL     OW39499   3.432   1.153   4.076  0.0665 -0.1781  0.5720
 9289SOL    HW139500   3.515   1.177   4.117  0.1543  1.3486 -0.4986
 9289SOL    HW239501   3.442   1.180   3.985 -1.8145  3.1036  1.3378
 9290SOL     OW39502   1.048   1.702   5.836  0.6520 -0.2131 -0.2059
 9290SOL    HW139503   1.099   1.726   5.913 -0.3316  0.1648  0.3191
 9290SOL    HW239504   1.101   1.635   5.793 -1.8994 -2.1771 -0.3005
 9291SOL     OW39505   2.221   0.661   1.190 -0.2318  0.1341  0.1910
 9291SOL    HW139506   2.163   0.609   1.247 -2.2621  1.3926 -0.7361
 9291SOL    HW239507   2.194   0.751   1.207  0.7560  0.6641 -1.0900
 9292SOL     OW39508   2.191   0.272   6.058  0.0639 -0.0589 -0.4060
 9292SOL    HW139509   2.274   0.237   6.024 -0.5028 -2.3270  0.5294
 9292SOL    HW239510   2.200   0.275   6.153 -0.8556 -0.2950 -0.3068
 9293SOL     OW39511   3.799   0.569   0.015  1.1986  0.5220  0.3049
 9293SOL    HW139512   3.868   0.532   0.070  0.2116 -0.4443  0.8777
 9293SOL    HW239513   3.784   0.503  17.682 -1.3236 -0.0784  1.4593
 9294SOL     OW39514   1.882   4.352   2.522  0.8946  0.4636 -0.2339
 9294SOL    HW139515   1.867   4.381   2.612  1.0266  1.5287 -0.5588
 9294SOL    HW239516   1.977   4.355   2.512  0.8609  0.8964 -0.4392
 9295SOL     OW39517   4.081   0.058   7.880  0.1799 -0.1048  0.5936
 9295SOL    HW139518   4.014   0.100   7.934  0.2702 -1.4489  1.7421
 9295SOL    HW239519   4.162   0.081   7.923  1.7154 -1.3467 -1.6111
 9296SOL     OW39520   3.917   3.213   8.565  0.3538  0.2136  0.3735
 9296SOL    HW139521   3.983   3.144   8.562  0.6041  0.5150 -1.1150
 9296SOL    HW239522   3.937   3.250   8.651  3.2946  0.7363 -0.5310
 9297SOL     OW39523   1.561   3.797  10.429  0.0857  0.1631  0.0353
 9297SOL    HW139524   1.640   3.825  10.383  0.8432 -0.2888  1.0380
 9297SOL    HW239525   1.598   3.802  10.517  0.1411  2.3339 -0.1236
 9298SOL     OW39526   3.934   4.008   1.887  0.1134  0.2570 -0.1859
 9298SOL    HW139527   3.846   3.996   1.851  0.5332  0.8946 -1.4215
 9298SOL    HW239528   3.995   3.977   1.820 -1.5504  2.5337 -2.7805
 9299SOL     OW39529   0.956   1.406  15.359  0.1098  0.1251  0.2312
 9299SOL    HW139530   0.983   1.447  15.277 -0.0704  0.8241  0.5242
 9299SOL    HW239531   1.028   1.435  15.416  0.3547 -1.7187  0.8625
 9300SOL     OW39532   1.180   0.503   0.972  0.2881  0.8013 -0.1331
 9300SOL    HW139533   1.267   0.466   0.957 -0.6284 -1.0183 -1.0440
 9300SOL    HW239534   1.171   0.581   0.919  0.5920  2.4140  2.1851
 9301SOL     OW39535   3.424   0.028  12.735  0.5231 -0.2103 -0.2938
 9301SOL    HW139536   3.431   4.675  12.696 -1.4584 -1.2003  1.6518
 9301SOL    HW239537   3.494   0.077  12.691  2.0535 -0.4349  1.8783
 9302SOL     OW39538   2.134   1.939   2.524  0.5567  0.3655  0.2268
 9302SOL    HW139539   2.146   1.937   2.429  1.3482  0.0365  0.3346
 9302SOL    HW239540   2.061   2.000   2.534  2.0939  2.0863  0.8706
 9303SOL     OW39541   4.079   3.421   4.449  0.5930 -0.2799 -0.2382
 9303SOL    HW139542   4.081   3.515   4.462  1.0829 -0.1000 -1.6487
 9303SOL    HW239543   3.994   3.405   4.409  0.0994  3.5716 -0.6494
 9304SOL     OW39544   3.619   0.579   9.627 -0.4526  0.1143 -0.2242
 9304SOL    HW139545   3.710   0.551   9.620 -0.3762  0.2838  0.1193
 9304SOL    HW239546   3.606   0.616   9.540  1.5848 -2.5026 -1.6503
 9305SOL     OW39547   3.753   2.822   8.253  0.1065  0.3412 -0.2519
 9305SOL    HW139548   3.777   2.731   8.233 -1.7785 -0.4027  0.8132
 9305SOL    HW239549   3.834   2.867   8.273  0.0695  0.7371 -0.9683
 9306SOL     OW39550   0.384   0.265   9.622  0.1705 -0.3489  0.1884
 9306SOL    HW139551   0.294   0.294   9.633 -0.4587 -2.0931 -0.3616
 9306SOL    HW239552   0.434   0.346   9.610  0.3447 -0.6763 -1.2591
 9307SOL     OW39553   3.790   1.363  11.667 -0.0796  0.2628  0.2667
 9307SOL    HW139554   3.808   1.277  11.629  0.3463  1.2917 -1.9100
 9307SOL    HW239555   3.721   1.349  11.731 -2.6953 -0.1867 -2.6681
 9308SOL     OW39556   2.813   4.289   5.974  0.1934  0.4554  0.0478
 9308SOL    HW139557   2.894   4.274   5.926  0.2890  1.8906 -0.2359
 9308SOL    HW239558   2.836   4.359   6.036 -1.6469  0.8380  0.2987
 9309SOL     OW39559   1.419   3.809   6.798  0.0601  0.5854  0.0079
 9309SOL    HW139560   1.451   3.878   6.740  2.0302  0.3743  0.8467
 9309SOL    HW239561   1.491   3.812   6.861  0.7838 -2.0864 -0.7003
 9310SOL     OW39562   2.907   0.534   7.182 -0.2823  0.0867  0.3268
 9310SOL    HW139563   2.842   0.465   7.192 -0.5253 -0.2137 -3.1983
 9310SOL    HW239564   2.885   0.569   7.095  1.6037  1.0075  0.2017
 9311SOL     OW39565   0.971   0.197   2.050 -1.2858  0.2170  0.4001
 9311SOL    HW139566   0.922   0.187   1.968  0.2554  0.9709 -0.6253
 9311SOL    HW239567   0.957   0.117   2.101  0.0294  0.7816  1.6581
 9312SOL     OW39568   2.816   4.579   5.403  0.2495  0.1571 -0.4079
 9312SOL    HW139569   2.784   4.503   5.353 -2.5809  1.3785 -0.4637
 9312SOL    HW239570   2.844   4.630   5.328  2.3680 -0.2201  0.1191
 9313SOL     OW39571   2.586   2.776   7.615 -0.0675  0.9871 -0.5551
 9313SOL    HW139572   2.648   2.846   7.636  0.9618  0.3315 -1.4298
 9313SOL    HW239573   2.599   2.755   7.523  0.8840 -0.3412 -0.1272
 9314SOL     OW39574   3.355   4.567  17.462 -0.7014 -0.4514 -0.3611
 9314SOL    HW139575   3.399   4.612  17.390  1.2467 -1.1618  0.3976
 9314SOL    HW239576   3.268   4.540  17.432 -0.1321 -0.8280 -1.6894
 9315SOL     OW39577   2.401   1.685   5.707  0.1702 -0.1908  0.4081
 9315SOL    HW139578   2.391   1.652   5.618 -0.0345 -0.0004  0.3621
 9315SOL    HW239579   2.496   1.680   5.717  0.1701 -0.9724  0.0141
 9316SOL     OW39580   1.629   3.322  13.464  0.2011 -0.1499  0.5433
 9316SOL    HW139581   1.574   3.320  13.543  0.8324 -2.8261  0.8949
 9316SOL    HW239582   1.561   3.359  13.409  0.2764 -1.5205 -0.4573
 9317SOL     OW39583   3.719   3.422   7.363 -0.1148 -0.0587  0.1607
 9317SOL    HW139584   3.710   3.487   7.294  2.5035 -0.1812 -0.2762
 9317SOL    HW239585   3.745   3.350   7.306 -1.4783 -0.5501  0.1506
 9318SOL     OW39586   1.616   1.541   4.364 -0.5992  0.0331  0.3871
 9318SOL    HW139587   1.529   1.504   4.378 -0.1563 -0.4590  1.8248
 9318SOL    HW239588   1.624   1.525   4.270 -2.4948  0.1075  0.2226
 9319SOL     OW39589   2.594   1.569   8.207  0.2107 -0.5323  0.3727
 9319SOL    HW139590   2.523   1.509   8.185  1.4086 -1.4319 -1.0068
 9319SOL    HW239591   2.648   1.565   8.128  0.3151  1.2302  0.3405
 9320SOL     OW39592   0.261   3.094   2.966  0.2547 -0.1632  0.0473
 9320SOL    HW139593   0.223   3.181   2.976 -0.3978 -0.4377 -0.0671
 9320SOL    HW239594   0.322   3.113   2.894 -1.8506  0.1163 -1.6416
 9321SOL     OW39595   2.180   2.641  16.075  0.5783 -0.2623  0.0790
 9321SOL    HW139596   2.256   2.692  16.102  0.2887  0.1160  0.1855
 9321SOL    HW239597   2.110   2.707  16.086  0.0148 -1.1622  1.9389
 9322SOL     OW39598   4.645   1.736   3.266 -0.1380 -0.2827 -0.0165
 9322SOL    HW139599   4.651   1.804   3.199  1.7174  1.6516  2.1151
 9322SOL    HW239600   4.577   1.676   3.234 -0.2100  0.0382 -0.4538
 9323SOL     OW39601   2.407   3.306   1.831  0.4437  0.6114  0.4124
 9323SOL    HW139602   2.405   3.219   1.871 -0.3463 -0.6763 -2.3573
 9323SOL    HW239603   2.330   3.345   1.871  0.3751  1.7975 -0.8651
 9324SOL     OW39604   3.682   0.054   2.997  0.0281  0.7797 -0.1747
 9324SOL    HW139605   3.726   0.117   2.940  2.4890 -0.2560  0.5959
 9324SOL    HW239606   3.747   4.718   2.988 -0.3600  0.5540 -1.2307
 9325SOL     OW39607   0.922   0.509   5.575  0.7408  0.1885  0.1870
 9325SOL    HW139608   1.004   0.469   5.604  0.9414  0.4085 -0.0742
 9325SOL    HW239609   0.954   0.590   5.535  1.5089 -1.2328 -2.1220
 9326SOL     OW39610   3.811   3.645  12.598 -0.1466  0.5138 -0.6279
 9326SOL    HW139611   3.833   3.736  12.578 -1.1102  0.3236 -2.5259
 9326SOL    HW239612   3.731   3.657  12.648  0.6812  0.8508  0.5961
 9327SOL     OW39613   4.248   2.113   6.609  0.5599 -0.2938 -0.2350
 9327SOL    HW139614   4.249   2.182   6.676 -1.0873  1.2615 -1.8079
 9327SOL    HW239615   4.165   2.065   6.620  1.5687 -2.3088 -1.4525
 9328SOL     OW39616   4.228   3.550   3.015 -0.5644 -0.1968  0.2964
 9328SOL    HW139617   4.284   3.588   2.948 -0.6708 -0.9385 -0.2242
 9328SOL    HW239618   4.267   3.582   3.096 -0.7349  0.8676 -0.0463
 9329SOL     OW39619   0.140   1.208   7.404 -0.6076 -0.1384 -0.0517
 9329SOL    HW139620   0.231   1.178   7.414 -0.1114  1.6661  0.9234
 9329SOL    HW239621   0.093   1.146   7.459 -0.8018  0.1464  0.1011
 9330SOL     OW39622   1.371   2.230   0.976 -0.0344 -0.2283 -0.3036
 9330SOL    HW139623   1.388   2.196   1.064  0.1071  4.2175  1.4099
 9330SOL    HW239624   1.286   2.188   0.965 -0.4113 -0.3373  2.8657
 9331SOL     OW39625   1.740   2.303   9.020  0.2085  0.2723 -0.1183
 9331SOL    HW139626   1.788   2.354   9.085 -2.6369 -0.2588  2.4080
 9331SOL    HW239627   1.775   2.336   8.938  1.6125 -1.6544 -0.3040
 9332SOL     OW39628   1.198   2.717   1.814  0.0268 -0.0397  0.0426
 9332SOL    HW139629   1.249   2.640   1.835  0.9560 -0.1887 -2.7055
 9332SOL    HW239630   1.191   2.710   1.718 -1.2559 -1.2767  0.2329
 9333SOL     OW39631   3.790   1.701   7.696  0.1429  0.0867 -0.3309
 9333SOL    HW139632   3.727   1.633   7.720  0.5612  0.2322  1.1782
 9333SOL    HW239633   3.830   1.666   7.617 -0.6417 -2.3744  0.3842
 9334SOL     OW39634   1.835   4.013   4.037 -0.3139  0.5313  0.8841
 9334SOL    HW139635   1.889   4.048   4.108  0.6884  0.2513  0.2518
 9334SOL    HW239636   1.760   4.073   4.035 -0.3418  0.4401 -0.8350
 9335SOL     OW39637   2.237   0.648   8.474 -0.1364  0.1898  0.9539
 9335SOL    HW139638   2.229   0.608   8.387  1.1256  2.2562 -0.1343
 9335SOL    HW239639   2.196   0.581   8.528 -1.3617  1.9850  2.2307
 9336SOL     OW39640   3.489   3.904   7.839  0.5832  0.0909  0.6266
 9336SOL    HW139641   3.432   3.978   7.817 -0.0998 -0.4680  0.5184
 9336SOL    HW239642   3.529   3.930   7.921 -0.8975 -0.8764  1.6537
 9337SOL     OW39643   4.188   3.180  12.026  0.3677 -0.3036 -0.2574
 9337SOL    HW139644   4.119   3.114  12.012 -1.6778  1.6793  0.4613
 9337SOL    HW239645   4.172   3.194  12.119 -0.9108  2.2562 -0.8616
 9338SOL     OW39646   3.721   1.883  17.656 -0.0059 -0.1801  0.2613
 9338SOL    HW139647   3.684   1.970  17.641 -0.3221 -0.0574  1.7556
 9338SOL    HW239648   3.713   1.875   0.016 -0.5681 -1.4237  0.1055
 9339SOL     OW39649   0.073   0.296   4.980  0.3113  0.2465  0.7133
 9339SOL    HW139650   0.136   0.295   4.908  1.0322 -1.0426  1.3663
 9339SOL    HW239651   0.111   0.244   5.051 -0.1847 -1.3411 -0.1655
 9340SOL     OW39652   0.132   1.672   5.003  0.2211  0.5128 -0.4767
 9340SOL    HW139653   0.200   1.712   5.057  0.2019 -0.8067  0.5106
 9340SOL    HW239654   0.069   1.709   5.065 -0.6791 -1.3197 -0.3117
 9341SOL     OW39655   3.880   2.882   4.691 -0.4495  0.0072  0.5025
 9341SOL    HW139656   3.788   2.857   4.700 -0.2389 -1.3618 -1.1182
 9341SOL    HW239657   3.879   2.972   4.722 -0.6806  0.7889 -1.8300
 9342SOL     OW39658   4.724   1.910  16.362  0.2778 -0.5723 -0.1813
 9342SOL    HW139659   4.680   1.838  16.407  0.5030 -1.2309 -1.0134
 9342SOL    HW239660   0.052   1.927  16.432 -0.7625  1.0719  0.3396
 9343SOL     OW39661   2.268   3.251   5.588  0.1619 -0.1988  0.7018
 9343SOL    HW139662   2.284   3.245   5.494 -0.2274  0.4706  0.6009
 9343SOL    HW239663   2.208   3.324   5.599  2.1076  1.5569 -0.2536
 9344SOL     OW39664   1.387   4.659   4.861 -0.3536  0.5018 -0.1536
 9344SOL    HW139665   1.327   4.600   4.907  1.8262 -0.2742  1.6563
 9344SOL    HW239666   1.391   0.003   4.917  0.0209  0.2248  0.2043
 9345SOL     OW39667   3.647   4.271   6.550 -0.1570 -0.1043 -0.4051
 9345SOL    HW139668   3.638   4.239   6.639  0.9578 -1.6499 -0.8411
 9345SOL    HW239669   3.554   4.272   6.529 -0.5952 -2.6032  1.5611
 9346SOL     OW39670   1.495   0.689   2.517  0.3397 -0.2977 -0.2374
 9346SOL    HW139671   1.506   0.635   2.439 -0.5392 -0.1159 -0.4856
 9346SOL    HW239672   1.568   0.752   2.516  0.2135 -0.1416  1.7411
 9347SOL     OW39673   2.102   0.484   8.633 -0.3524  0.5663 -0.5281
 9347SOL    HW139674   2.023   0.440   8.602 -1.6620  1.3011  1.7971
 9347SOL    HW239675   2.132   0.417   8.694  0.8305 -0.1006 -1.8553
 9348SOL     OW39676   3.014   4.215  13.171  0.2770 -0.5926 -0.0009
 9348SOL    HW139677   3.060   4.238  13.252  2.3912  1.7929 -1.8756
 9348SOL    HW239678   3.074   4.240  13.100 -0.5131  0.4612 -0.2968
 9349SOL     OW39679   0.766   0.207   5.215  0.3163 -0.2281  0.1024
 9349SOL    HW139680   0.674   0.188   5.232 -0.1107  0.8337 -1.0010
 9349SOL    HW239681   0.790   0.204   5.308  0.1632 -2.4571  0.0521
 9350SOL     OW39682   2.667   0.173  17.078 -0.1617 -0.0356 -0.1004
 9350SOL    HW139683   2.581   0.161  17.118  0.8081 -0.9013  1.7676
 9350SOL    HW239684   2.699   0.221  17.154  0.9816 -0.7988 -0.0873
 9351SOL     OW39685   0.703   0.455   2.354  0.4110 -0.0963  0.3114
 9351SOL    HW139686   0.663   0.372   2.327 -0.8960  0.6282  0.0008
 9351SOL    HW239687   0.779   0.457   2.297  0.5055  0.5340  0.4581
 9352SOL     OW39688   1.172   3.444   1.395  0.3487 -0.8329 -0.1999
 9352SOL    HW139689   1.224   3.472   1.319  1.0011 -0.9578  0.1956
 9352SOL    HW239690   1.204   3.354   1.406 -2.4531 -1.6652  1.0431
 9353SOL     OW39691   2.807   2.386   4.231  0.1068 -0.2481  0.2995
 9353SOL    HW139692   2.804   2.357   4.139  0.0370 -2.6207  1.0490
 9353SOL    HW239693   2.717   2.358   4.250 -0.4864  0.5264 -1.2705
 9354SOL     OW39694   2.924   1.317   3.916  0.3593  0.0424 -0.0432
 9354SOL    HW139695   2.882   1.265   3.848  0.8507 -1.5640  0.9024
 9354SOL    HW239696   2.946   1.243   3.972  2.9684  1.1195  0.3859
 9355SOL     OW39697   1.485   3.070  13.582  0.1387  0.9212  0.5029
 9355SOL    HW139698   1.560   3.095  13.637  0.8136 -1.5676  0.6965
 9355SOL    HW239699   1.517   2.993  13.535 -2.1273 -0.2175  0.8415
 9356SOL     OW39700   1.293   3.596   5.445 -0.3343  0.3075 -0.6567
 9356SOL    HW139701   1.286   3.510   5.402  0.3003  0.8984 -1.9496
 9356SOL    HW239702   1.343   3.567   5.521 -0.1990 -2.4416 -1.7803
 9357SOL     OW39703   4.057   0.035   6.257 -0.3698  0.1261 -0.2075
 9357SOL    HW139704   4.074   4.714   6.333  0.0032 -1.1932 -1.2599
 9357SOL    HW239705   3.962   0.045   6.266 -0.3537  1.5222 -1.5081
 9358SOL     OW39706   4.423   0.754   6.732 -0.5338 -0.4919  0.1273
 9358SOL    HW139707   4.508   0.780   6.767 -0.6845 -0.8615  0.7793
 9358SOL    HW239708   4.422   0.659   6.745  2.1168 -0.5686 -0.1611
 9359SOL     OW39709   2.587   2.645  16.743  0.2137  0.8460  0.1931
 9359SOL    HW139710   2.564   2.560  16.705 -0.6887  0.9731  0.4739
 9359SOL    HW239711   2.639   2.688  16.674 -1.4593  1.6018 -0.5983
 9360SOL     OW39712   2.890   3.794   6.658 -0.1690  0.2345  0.0224
 9360SOL    HW139713   2.864   3.803   6.749  0.8299  0.0615  0.3195
 9360SOL    HW239714   2.945   3.873   6.656  1.5318 -0.9329  0.9733
 9361SOL     OW39715   0.338   2.447   8.461  0.3820  0.0838  0.1467
 9361SOL    HW139716   0.265   2.490   8.417 -1.4451 -1.3475  1.7803
 9361SOL    HW239717   0.361   2.512   8.527  0.7961  0.5974 -0.4952
 9362SOL     OW39718   1.075   3.867   3.120  0.0238  0.0274 -0.0491
 9362SOL    HW139719   1.114   3.925   3.054  0.7698 -0.4552 -0.0305
 9362SOL    HW239720   1.054   3.933   3.187  1.3000 -0.9849  1.3443
 9363SOL     OW39721   2.913   2.483   6.541  0.2761 -0.5906 -0.0496
 9363SOL    HW139722   2.935   2.421   6.611  1.5748  0.9745  0.9121
 9363SOL    HW239723   2.999   2.497   6.501 -0.3952 -0.3979 -1.4168
 9364SOL     OW39724   0.008   0.549  14.797  0.1467 -0.6718  0.0996
 9364SOL    HW139725   0.065   0.588  14.731  0.0238  1.2397  1.1387
 9364SOL    HW239726   0.012   0.605  14.874  0.5572 -0.0126 -0.4055
 9365SOL     OW39727   3.648   4.566   8.102  0.2922  0.2388  0.2186
 9365SOL    HW139728   3.653   4.641   8.042 -1.2537  0.4373  0.3516
 9365SOL    HW239729   3.675   4.609   8.183  3.2285  1.8183 -1.5646
 9366SOL     OW39730   1.713   0.035  15.276 -0.0724 -0.3593  0.4197
 9366SOL    HW139731   1.677   0.016  15.362  0.6244 -0.5344  0.6769
 9366SOL    HW239732   1.730   0.127  15.295 -1.4601 -0.0597  0.1461
 9367SOL     OW39733   2.825   4.300   8.719  0.2965 -0.0203 -0.4677
 9367SOL    HW139734   2.736   4.288   8.753  1.2291  1.2123  2.4339
 9367SOL    HW239735   2.806   4.389   8.691 -0.0312  0.0107 -0.1583
 9368SOL     OW39736   0.901   2.376   2.449 -0.1532 -0.1406 -0.2805
 9368SOL    HW139737   0.825   2.339   2.404 -1.7079  1.7719  0.7921
 9368SOL    HW239738   0.876   2.339   2.533 -0.0247 -0.5151 -0.4072
 9369SOL     OW39739   4.675   0.012   9.565 -0.0119  0.0726  0.2468
 9369SOL    HW139740   4.654   0.058   9.646 -0.2551  0.5908 -0.1138
 9369SOL    HW239741   4.587   4.727   9.532  0.2396 -1.5094  0.4685
 9370SOL     OW39742   1.002   4.705   9.052 -0.0608 -0.1444 -0.2585
 9370SOL    HW139743   1.036   4.711   8.963 -0.6994  0.8528 -0.4188
 9370SOL    HW239744   1.086   4.692   9.098 -0.0900  0.3783 -0.0611
 9371SOL     OW39745   4.410   0.801   0.221 -0.1150 -0.0863  0.3377
 9371SOL    HW139746   4.393   0.816   0.314 -0.2249  2.4362 -0.1022
 9371SOL    HW239747   4.504   0.821   0.215 -0.1813  0.0921 -0.0537
 9372SOL     OW39748   0.576   0.406   6.079  0.6066 -0.4648 -0.0238
 9372SOL    HW139749   0.592   0.312   6.080  0.2799 -0.5404 -1.5787
 9372SOL    HW239750   0.481   0.405   6.090  0.4849  1.7658 -0.8966
 9373SOL     OW39751   0.297   4.549   0.891 -0.3745  0.0682 -0.4452
 9373SOL    HW139752   0.390   4.562   0.874 -0.7802  0.2546 -2.5453
 9373SOL    HW239753   0.305   4.574   0.983 -0.7693  0.4844 -0.5204
 9374SOL     OW39754   4.627   3.706   6.063  0.4369  0.3672  0.3272
 9374SOL    HW139755   4.718   3.677   6.062 -0.3512 -2.0216  0.2554
 9374SOL    HW239756   4.607   3.709   6.157  0.7515  0.4963  0.3914
 9375SOL     OW39757   0.046   0.276   1.615 -0.4353  0.0811 -0.3404
 9375SOL    HW139758   4.699   0.228   1.633 -0.7987  0.4299 -1.0201
 9375SOL    HW239759   0.034   0.339   1.685 -0.0813 -0.9900  0.6859
 9376SOL     OW39760   4.311   1.804   4.705 -0.4033  0.1057 -0.6458
 9376SOL    HW139761   4.217   1.822   4.706 -0.1259  1.6032 -0.6497
 9376SOL    HW239762   4.328   1.752   4.783 -0.2892  1.2727  0.1190
 9377SOL     OW39763   3.716   3.579   6.837 -0.5006  0.3170  0.2455
 9377SOL    HW139764   3.717   3.630   6.918  0.7304  0.8135 -0.0693
 9377SOL    HW239765   3.636   3.527   6.839  0.3395 -0.9187  1.4851
 9378SOL     OW39766   1.595   3.047   8.197  0.0320 -0.2961  0.1482
 9378SOL    HW139767   1.626   3.134   8.172 -3.6577  0.9568 -0.0507
 9378SOL    HW239768   1.605   3.005   8.111 -0.7470 -0.9698  0.3917
 9379SOL     OW39769   2.732   1.503   2.612 -0.3814  0.4426 -0.5536
 9379SOL    HW139770   2.660   1.566   2.613 -0.1500  0.7107 -1.2694
 9379SOL    HW239771   2.685   1.424   2.640 -0.1548  0.6127  0.3020
 9380SOL     OW39772   2.461   2.597   9.336  0.4784 -0.1285 -0.1331
 9380SOL    HW139773   2.426   2.642   9.413  1.2537  1.3517 -0.6321
 9380SOL    HW239774   2.509   2.525   9.377 -0.2719 -0.0049  0.9631
 9381SOL     OW39775   1.405   4.338   5.932  0.2304 -0.3206  1.4227
 9381SOL    HW139776   1.378   4.296   5.851 -0.6257  1.6108  0.7170
 9381SOL    HW239777   1.320   4.368   5.962  0.0409 -0.1351  0.7002
 9382SOL     OW39778   2.097   4.129   8.329 -0.1554 -0.8836 -0.3072
 9382SOL    HW139779   2.015   4.132   8.378  0.2932 -0.3651  0.4054
 9382SOL    HW239780   2.088   4.054   8.270 -0.1171 -0.0220 -1.3989
 9383SOL     OW39781   1.056   0.700   3.488  0.1331 -0.3031  0.1346
 9383SOL    HW139782   1.024   0.784   3.522 -1.3919 -0.4451 -0.9515
 9383SOL    HW239783   1.061   0.651   3.570  0.1141 -2.1734 -0.9745
 9384SOL     OW39784   1.809   1.255   7.849 -0.1158 -0.1116  0.2326
 9384SOL    HW139785   1.816   1.228   7.940  0.1370  1.1845  0.6052
 9384SOL    HW239786   1.734   1.315   7.850  0.3739  0.4801  1.2920
 9385SOL     OW39787   2.274   0.643  16.438 -0.5939  0.2707  0.0439
 9385SOL    HW139788   2.357   0.599  16.421 -0.7106 -1.1811  3.1443
 9385SOL    HW239789   2.317   0.728  16.446 -2.0769  0.8664  1.8612
 9386SOL     OW39790   2.450   1.159  10.618  0.0742 -0.4917 -0.8649
 9386SOL    HW139791   2.398   1.217  10.674 -0.7965 -1.2747 -0.8611
 9386SOL    HW239792   2.438   1.077  10.665  1.7113  0.4198  1.1032
 9387SOL     OW39793   2.058   0.217  11.080 -0.5398  0.1199 -0.3945
 9387SOL    HW139794   2.149   0.242  11.095 -0.8025  0.4372  0.7000
 9387SOL    HW239795   2.055   0.183  10.991 -1.0909 -0.9202  0.0182
 9388SOL     OW39796   0.689   0.356  12.627  0.2026 -0.0685  0.1331
 9388SOL    HW139797   0.608   0.342  12.577 -0.3686  1.2885  0.6939
 9388SOL    HW239798   0.707   0.274  12.673 -0.2093 -1.2240 -1.7353
 9389SOL     OW39799   3.521   2.568   7.527 -0.4549  0.0541  0.3481
 9389SOL    HW139800   3.603   2.520   7.536 -0.4941 -0.4002 -1.7763
 9389SOL    HW239801   3.458   2.523   7.583 -1.2825  2.4357  1.3462
 9390SOL     OW39802   3.666   1.818   6.076 -0.2746 -0.0322 -0.2930
 9390SOL    HW139803   3.588   1.873   6.070 -0.1542  0.0745 -0.8545
 9390SOL    HW239804   3.638   1.743   6.023 -1.9022  0.4776 -0.1516
 9391SOL     OW39805   1.778   0.039  12.219 -0.4147 -0.2718  0.1744
 9391SOL    HW139806   1.795   4.680  12.210  0.7005 -0.3224  2.8402
 9391SOL    HW239807   1.773   0.046  12.314  1.3301  1.1348  0.1815
 9392SOL     OW39808   0.989   0.898   5.535  0.6750  0.0064  0.8204
 9392SOL    HW139809   1.084   0.891   5.521 -0.1109 -0.2434 -4.2758
 9392SOL    HW239810   0.949   0.843   5.468  1.0723 -1.6546  1.9484
 9393SOL     OW39811   0.841   1.615   6.421 -0.1841  0.1145  0.7531
 9393SOL    HW139812   0.757   1.622   6.376 -0.0876  0.8287  0.6935
 9393SOL    HW239813   0.897   1.570   6.357 -0.4094 -0.6199  1.0805
 9394SOL     OW39814   2.198   0.311  11.761  0.2625 -0.1864  0.1772
 9394SOL    HW139815   2.159   0.364  11.831  1.9949  2.2254 -0.7109
 9394SOL    HW239816   2.290   0.310  11.786  0.6167  0.7493 -1.0920
 9395SOL     OW39817   0.776   0.448  11.036  0.2667 -0.8188  0.2201
 9395SOL    HW139818   0.742   0.370  11.080 -0.4399 -0.8356 -0.3531
 9395SOL    HW239819   0.764   0.514  11.104 -0.6605 -0.1131 -0.6300
 9396SOL     OW39820   3.342   0.690  16.276  0.3914  0.0352  0.6051
 9396SOL    HW139821   3.381   0.729  16.354 -0.1348  0.1509  0.8121
 9396SOL    HW239822   3.319   0.605  16.312 -1.1956  0.0736 -0.3242
 9397SOL     OW39823   0.317   1.777   3.188  0.9295  0.3398 -0.5542
 9397SOL    HW139824   0.254   1.806   3.121 -0.2186  2.1008  1.2963
 9397SOL    HW239825   0.399   1.778   3.139  2.1401  0.5453  1.5013
 9398SOL     OW39826   0.152   0.385   4.293 -0.2753  0.2429 -0.3179
 9398SOL    HW139827   0.227   0.425   4.336  2.3881 -3.7788 -1.1859
 9398SOL    HW239828   0.144   0.300   4.337 -0.7007  0.5389  0.1692
 9399SOL     OW39829   2.815   4.368  12.413 -0.2272  0.0045  0.3007
 9399SOL    HW139830   2.845   4.288  12.371  1.0313  0.9002 -0.5339
 9399SOL    HW239831   2.739   4.381  12.356  0.6094  2.9985 -0.1727
 9400SOL     OW39832   0.339   3.592   6.977 -1.1235  0.1235  0.0519
 9400SOL    HW139833   0.273   3.591   7.046  0.8931 -1.7562  1.9714
 9400SOL    HW239834   0.297   3.556   6.899 -2.7640  0.0405  0.9648
 9401SOL     OW39835   3.540   4.143   6.782  0.3454 -0.0481  0.7593
 9401SOL    HW139836   3.540   4.136   6.878 -1.3254  1.9418  0.8976
 9401SOL    HW239837   3.455   4.185   6.769  0.7216  0.5171  0.1256
 9402SOL     OW39838   4.306   0.426  10.934  0.5065  0.4249  0.4311
 9402SOL    HW139839   4.401   0.416  10.932  0.3279 -1.2579  0.3583
 9402SOL    HW239840   4.296   0.516  10.901 -0.2642  0.0288 -0.4387
 9403SOL     OW39841   2.164   0.392   1.839  0.3327 -0.1270 -0.7101
 9403SOL    HW139842   2.159   0.471   1.892  1.0082 -0.9331  0.5323
 9403SOL    HW239843   2.113   0.409   1.759 -0.6525  2.6365  0.5136
 9404SOL     OW39844   0.998   3.804  15.191  0.1691  0.1050  0.1321
 9404SOL    HW139845   0.983   3.712  15.169  2.1889 -0.1106 -0.3233
 9404SOL    HW239846   0.925   3.850  15.148 -0.2764 -1.8173 -1.1845
 9405SOL     OW39847   2.077   0.039   7.183 -0.5359 -0.1241 -0.1756
 9405SOL    HW139848   2.058   4.690   7.139 -1.5520  0.0213 -0.0156
 9405SOL    HW239849   2.173   0.043   7.186 -0.5889 -0.5018  1.8820
 9406SOL     OW39850   4.580   4.008   4.689 -0.1238 -0.6242  0.1727
 9406SOL    HW139851   4.573   3.914   4.675  1.4398 -0.4237 -1.9884
 9406SOL    HW239852   4.584   4.000   4.784  0.0260  2.4883  0.4185
 9407SOL     OW39853   1.884   4.554   7.980 -0.0756  0.0302 -0.5279
 9407SOL    HW139854   1.818   4.491   7.952 -1.1918  0.6554  0.7029
 9407SOL    HW239855   1.868   4.573   8.073 -0.3162  0.5541 -0.6750
 9408SOL     OW39856   0.749   2.187   6.803 -0.1194 -0.5261  0.0564
 9408SOL    HW139857   0.734   2.131   6.727 -2.8532  1.1965 -0.6668
 9408SOL    HW239858   0.700   2.137   6.868  1.6280 -0.4616  1.3990
 9409SOL     OW39859   2.762   2.319   5.853 -0.3554 -0.1719 -0.3889
 9409SOL    HW139860   2.787   2.372   5.929 -0.6999 -0.5644 -0.0005
 9409SOL    HW239861   2.731   2.393   5.800  1.5466  0.8785 -0.0467
 9410SOL     OW39862   2.069   4.030  16.401  0.2810  0.3584 -0.4957
 9410SOL    HW139863   2.107   3.949  16.367 -0.4776 -0.2019  0.0115
 9410SOL    HW239864   2.060   4.009  16.494  0.7807 -1.4462 -0.8706
 9411SOL     OW39865   0.613   0.566   5.262  0.5115  0.6546  0.0354
 9411SOL    HW139866   0.522   0.547   5.238  0.3786  0.8188  0.4037
 9411SOL    HW239867   0.594   0.642   5.317  0.6146  0.8495 -0.1984
 9412SOL     OW39868   0.632   1.634   2.932 -0.3504 -0.2828  0.3107
 9412SOL    HW139869   0.668   1.718   2.962  1.7505 -0.8558 -0.6236
 9412SOL    HW239870   0.580   1.601   3.005  0.4399 -0.4081  0.8217
 9413SOL     OW39871   0.690   1.329  17.228 -0.0227  0.0688  0.8510
 9413SOL    HW139872   0.611   1.340  17.281 -1.2776 -2.1467 -0.5577
 9413SOL    HW239873   0.747   1.274  17.282 -0.8675  0.3329  2.0073
 9414SOL     OW39874   0.125   4.647   5.425 -0.1006  0.5253  0.5323
 9414SOL    HW139875   0.031   4.657   5.441 -0.4831 -2.5661  0.3105
 9414SOL    HW239876   0.154   4.696   5.502 -0.6814  1.7616 -0.0450
 9415SOL     OW39877   1.234   1.294   5.307  0.1419 -0.2949  0.3055
 9415SOL    HW139878   1.258   1.339   5.226 -0.2898 -0.6292 -0.0106
 9415SOL    HW239879   1.321   1.282   5.344  0.8015  0.5368 -0.9635
 9416SOL     OW39880   2.945   0.452   3.534 -0.5504  0.4028  0.2513
 9416SOL    HW139881   2.923   0.417   3.448  0.6018  0.2191  0.0283
 9416SOL    HW239882   3.001   0.528   3.517  0.3928 -0.7646 -1.7676
 9417SOL     OW39883   0.331   3.216   8.409  0.6295  0.1301 -0.1432
 9417SOL    HW139884   0.255   3.182   8.361  0.3177  1.8910 -0.9068
 9417SOL    HW239885   0.401   3.218   8.344 -1.1484 -2.6605 -2.1376
 9418SOL     OW39886   0.768   1.348   4.993 -0.0143 -0.5262  0.3251
 9418SOL    HW139887   0.842   1.291   5.013 -0.1736 -0.4076  1.2529
 9418SOL    HW239888   0.782   1.369   4.900  0.2632  1.4862  0.8182
 9419SOL     OW39889   4.692   1.879   7.050  0.4508  0.0620 -0.2231
 9419SOL    HW139890   4.656   1.874   7.138 -0.0596  1.2044 -0.3731
 9419SOL    HW239891   4.635   1.810   7.015  1.6486 -1.2396  0.3694
 9420SOL     OW39892   3.776   3.863   9.030 -0.2189 -0.2662 -0.1263
 9420SOL    HW139893   3.769   3.932   9.096  0.2789 -0.6506  0.3250
 9420SOL    HW239894   3.722   3.899   8.960 -0.4045  1.0720  0.7048
 9421SOL     OW39895   1.753   0.479   5.197 -0.5294 -0.1097  0.1545
 9421SOL    HW139896   1.710   0.398   5.170  0.2978  0.6164 -3.3538
 9421SOL    HW239897   1.722   0.474   5.287  3.8365 -0.0303  1.6560
 9422SOL     OW39898   2.171   1.019   5.371  0.2519  0.3719  0.3970
 9422SOL    HW139899   2.139   0.930   5.356 -0.4483  0.6901 -0.0183
 9422SOL    HW239900   2.150   1.054   5.285 -3.1744 -0.4060  0.9158
 9423SOL     OW39901   4.618   2.118   3.171  0.2811  0.1079 -0.3184
 9423SOL    HW139902   4.562   2.133   3.094  1.6050  2.0004 -0.8954
 9423SOL    HW239903   4.656   2.039   3.131  2.4012 -0.4388  2.7806
 9424SOL     OW39904   3.587   1.975   9.237  0.0295 -0.0796 -0.2370
 9424SOL    HW139905   3.505   1.998   9.282  0.2724 -2.0199  1.1828
 9424SOL    HW239906   3.633   2.059   9.238 -1.1787  0.6129 -1.4922
 9425SOL     OW39907   0.926   3.482   3.922 -0.1422 -0.3566 -0.6739
 9425SOL    HW139908   0.865   3.422   3.964 -1.0479  2.2566  1.7246
 9425SOL    HW239909   0.889   3.487   3.834  2.6649 -0.8349 -1.9003
 9426SOL     OW39910   4.230   1.748  15.395 -0.3200 -0.3664 -0.3901
 9426SOL    HW139911   4.218   1.842  15.408  0.1224 -0.3292 -0.2344
 9426SOL    HW239912   4.171   1.716  15.463  1.0636 -0.6847  0.6753
 9427SOL     OW39913   4.222   1.187   0.346 -0.0671 -0.2982 -0.3135
 9427SOL    HW139914   4.133   1.218   0.359  0.7168  0.9499  1.9650
 9427SOL    HW239915   4.263   1.255   0.292  0.9660 -1.7854 -1.4075
 9428SOL     OW39916   3.093   0.771   3.131  0.1285 -0.1732  0.4102
 9428SOL    HW139917   3.143   0.792   3.210 -0.3111  0.7783  0.4380
 9428SOL    HW239918   3.019   0.729   3.175  0.3146  0.9176  1.7474
 9429SOL     OW39919   0.967   0.347   2.695 -0.1908  0.1376 -0.3412
 9429SOL    HW139920   0.935   0.426   2.653 -2.3060 -0.5937 -0.1331
 9429SOL    HW239921   1.022   0.312   2.625  1.0801 -0.5010  0.9816
 9430SOL     OW39922   1.432   3.420   9.620  0.3722  0.1544 -0.6605
 9430SOL    HW139923   1.339   3.401   9.618  0.2311  0.8468 -0.6669
 9430SOL    HW239924   1.441   3.513   9.639 -1.8686 -0.0275  1.2775
 9431SOL     OW39925   2.131   1.221   3.085  0.3399 -0.5666  0.1705
 9431SOL    HW139926   2.164   1.256   3.002  0.1598 -3.0406 -0.9339
 9431SOL    HW239927   2.121   1.127   3.073  1.3716 -0.6116 -0.3144
 9432SOL     OW39928   2.427   4.360   2.490  0.4361  0.2614  0.4320
 9432SOL    HW139929   2.466   4.373   2.576  1.0715  0.0372  0.1745
 9432SOL    HW239930   2.448   4.444   2.448  3.2329  0.4146  2.1695
 9433SOL     OW39931   2.001   2.095   6.037 -0.0150  0.0948  0.2394
 9433SOL    HW139932   2.075   2.040   6.061  0.0781 -0.2647 -0.8700
 9433SOL    HW239933   2.039   2.182   6.026  0.9311 -0.0640  2.1804
 9434SOL     OW39934   4.421   3.891   7.057  0.3191  0.3439  0.8038
 9434SOL    HW139935   4.495   3.891   6.997  1.9081  1.6288  2.7865
 9434SOL    HW239936   4.466   3.909   7.139 -2.0644  2.5354  1.6400
 9435SOL     OW39937   3.687   1.739   4.588 -0.1166  0.0135  0.6472
 9435SOL    HW139938   3.691   1.726   4.683  2.2638 -2.2835  0.2414
 9435SOL    HW239939   3.645   1.825   4.584  1.7879  0.8181 -1.8965
 9436SOL     OW39940   1.251   4.104   2.656  0.2587  0.3720 -0.1834
 9436SOL    HW139941   1.252   4.011   2.636  0.2559  0.2827  0.2280
 9436SOL    HW239942   1.331   4.106   2.709  0.0720 -0.3722  0.1297
 9437SOL     OW39943   1.438   3.460  13.300 -0.5976 -0.0095 -0.2918
 9437SOL    HW139944   1.456   3.554  13.293  0.8618 -0.4479 -2.5610
 9437SOL    HW239945   1.350   3.460  13.336 -0.3693 -0.1742  0.2684
 9438SOL     OW39946   1.722   1.014  11.079  0.1633 -0.1403  0.1085
 9438SOL    HW139947   1.790   0.966  11.127  0.4570  1.2977  1.1488
 9438SOL    HW239948   1.774   1.062  11.014  1.7783 -1.0574  0.7267
 9439SOL     OW39949   0.485   0.441   1.675  0.4372 -0.2185  0.2593
 9439SOL    HW139950   0.493   0.348   1.696 -0.0189 -0.3118  0.0331
 9439SOL    HW239951   0.460   0.476   1.761 -2.9416 -2.6504  0.3140
 9440SOL     OW39952   1.907   0.902   9.066  0.0105 -0.6623 -0.4316
 9440SOL    HW139953   1.904   0.952   8.984  1.7750 -0.0430 -0.1233
 9440SOL    HW239954   1.867   0.819   9.041  0.7860 -0.4165 -2.5169
 9441SOL     OW39955   3.060   1.461  13.322 -0.2339  0.4823  0.6707
 9441SOL    HW139956   2.971   1.431  13.343 -0.6094  0.4325 -1.0312
 9441SOL    HW239957   3.053   1.553  13.350 -0.3417  0.5878  0.2925
 9442SOL     OW39958   0.909   4.394   2.727 -0.1996 -0.5254 -0.2712
 9442SOL    HW139959   0.844   4.355   2.668  0.6597 -0.8734 -0.9777
 9442SOL    HW239960   0.916   4.322   2.791 -0.9826  0.4238  0.8910
 9443SOL     OW39961   1.627   3.928  10.714 -0.3463 -0.5391 -0.0772
 9443SOL    HW139962   1.625   3.855  10.776  0.4562 -0.2844  0.2507
 9443SOL    HW239963   1.616   3.999  10.777 -0.4638  2.1724 -3.1360
 9444SOL     OW39964   4.410   3.334   3.218 -0.0790 -0.3317 -0.2510
 9444SOL    HW139965   4.488   3.329   3.272  1.0240  0.1408 -1.7946
 9444SOL    HW239966   4.430   3.277   3.143 -0.7218 -2.2356  1.0314
 9445SOL     OW39967   0.737   0.173   6.586 -0.0469 -0.0083  0.2767
 9445SOL    HW139968   0.777   0.252   6.550 -0.2788 -0.9889 -2.1801
 9445SOL    HW239969   0.648   0.195   6.559  0.8556  0.5118 -2.3372
 9446SOL     OW39970   1.348   1.328   5.877 -0.4929 -0.3235  0.0225
 9446SOL    HW139971   1.411   1.269   5.918  2.4613  2.5109 -0.4121
 9446SOL    HW239972   1.356   1.405   5.932  2.0283 -0.1257 -0.5901
 9447SOL     OW39973   3.011   1.392  15.773  0.4361  0.4721 -0.3015
 9447SOL    HW139974   2.939   1.330  15.763 -1.0688  2.3503 -1.0524
 9447SOL    HW239975   2.962   1.473  15.788  0.6386  0.3603  1.0195
 9448SOL     OW39976   1.292   1.115  10.697 -0.2496 -0.1085 -0.6808
 9448SOL    HW139977   1.211   1.099  10.745 -0.8552  0.9241 -1.3490
 9448SOL    HW239978   1.270   1.197  10.651 -0.8033  0.0562 -0.1255
 9449SOL     OW39979   2.793   2.308  13.162 -0.4017  0.8536 -0.8406
 9449SOL    HW139980   2.809   2.339  13.072  2.9662  0.7959 -0.2693
 9449SOL    HW239981   2.743   2.386  13.185  2.1658  1.7230  1.8502
 9450SOL     OW39982   3.384   1.003   6.109 -0.0242  0.3665 -0.2804
 9450SOL    HW139983   3.438   0.926   6.091  1.0883  1.0447  0.1424
 9450SOL    HW239984   3.434   1.061   6.051 -0.1399  0.1430 -0.6053
 9451SOL     OW39985   3.972   2.631   4.113  0.3111  0.2876 -0.1179
 9451SOL    HW139986   4.039   2.629   4.044 -0.0871  2.5328 -0.5640
 9451SOL    HW239987   3.999   2.698   4.174 -0.3429  1.6433 -1.3063
 9452SOL     OW39988   2.677   0.489   3.347 -0.2999  0.2287 -0.1190
 9452SOL    HW139989   2.604   0.440   3.384 -0.4267 -1.2783 -2.3669
 9452SOL    HW239990   2.667   0.575   3.388 -1.0000 -1.6713  3.6396
 9453SOL     OW39991   3.269   2.799   7.235  0.4528  0.0499 -0.5797
 9453SOL    HW139992   3.220   2.779   7.316  0.2445 -2.4438 -1.3236
 9453SOL    HW239993   3.347   2.748   7.256  0.5510  0.7133  0.6743
 9454SOL     OW39994   1.739   1.118   1.719  0.4983  0.1703  0.4086
 9454SOL    HW139995   1.700   1.170   1.649 -0.0076 -1.6643 -0.6730
 9454SOL    HW239996   1.732   1.184   1.788 -1.6251  1.1355 -0.7437
 9455SOL     OW39997   2.122   2.965  14.856  0.3571  0.1502 -0.8440
 9455SOL    HW139998   2.191   2.914  14.813 -0.1255 -0.3642 -1.0005
 9455SOL    HW239999   2.048   2.919  14.818 -0.1653 -0.4702  0.9068
 9456SOL     OW40000   1.566   2.204  16.462  0.4178  0.3035 -0.2228
 9456SOL    HW140001   1.625   2.277  16.446  1.4382 -0.3074  0.7161
 9456SOL    HW240002   1.489   2.236  16.415 -0.2863  2.1991  2.1932
 9457SOL     OW40003   2.188   2.425   7.615 -0.0003 -0.3736  0.6077
 9457SOL    HW140004   2.192   2.458   7.705 -1.4080  0.7780  0.2334
 9457SOL    HW240005   2.274   2.450   7.580 -0.1676 -1.3791 -0.5168
 9458SOL     OW40006   2.492   1.782   3.103 -0.2652 -0.8309  0.3199
 9458SOL    HW140007   2.587   1.795   3.095 -0.4363  1.1923  1.6312
 9458SOL    HW240008   2.466   1.873   3.087 -0.0031 -0.5547  1.5156
 9459SOL     OW40009   0.457   3.035   0.312 -0.0618 -0.5238  0.2421
 9459SOL    HW140010   0.544   2.995   0.307  0.1234 -0.1143  0.1591
 9459SOL    HW240011   0.432   3.047   0.221 -0.7576  1.8874  0.7445
 9460SOL     OW40012   3.666   1.503   6.776 -0.3374 -0.3247 -0.3515
 9460SOL    HW140013   3.591   1.560   6.760  0.5822  0.4468 -1.9032
 9460SOL    HW240014   3.643   1.466   6.861  0.3700  0.7831  0.3276
 9461SOL     OW40015   0.181   1.617   7.963  0.4013  0.5148 -0.1256
 9461SOL    HW140016   0.184   1.695   8.018 -3.5032  0.6192 -0.0557
 9461SOL    HW240017   0.089   1.608   7.935  1.0850 -1.8140 -1.6503
 9462SOL     OW40018   1.378   1.916  16.927 -0.0710 -0.8659 -0.0020
 9462SOL    HW140019   1.346   1.838  16.883  0.7534 -2.2683  1.8561
 9462SOL    HW240020   1.469   1.914  16.897  1.0779 -1.8664  3.4942
 9463SOL     OW40021   4.269   0.265   1.149 -0.3825  0.0552 -0.5305
 9463SOL    HW140022   4.257   0.194   1.213 -0.7480  0.5517 -0.0434
 9463SOL    HW240023   4.320   0.208   1.092  1.6620  2.2656 -0.9211
 9464SOL     OW40024   3.579   3.014  15.334  0.1415 -0.1740  0.0092
 9464SOL    HW140025   3.604   3.088  15.279  1.1851 -0.4084  0.1703
 9464SOL    HW240026   3.573   2.953  15.261 -0.7983  0.7894 -0.7125
 9465SOL     OW40027   2.594   0.038   6.967  0.3491 -0.0432 -0.5090
 9465SOL    HW140028   2.593   4.687   7.011 -0.3937  0.8894  1.2928
 9465SOL    HW240029   2.504   0.047   6.936 -0.0309  0.0017  0.6123
 9466SOL     OW40030   2.456   3.879   2.985 -0.3046  0.0543  0.1736
 9466SOL    HW140031   2.501   3.867   2.901  1.2778 -0.6731  1.1300
 9466SOL    HW240032   2.472   3.795   3.029 -0.2369  0.3680  0.7412
 9467SOL     OW40033   0.946   3.396  11.552  0.6007 -0.1023 -0.0849
 9467SOL    HW140034   0.900   3.368  11.473 -0.7161  0.4299  0.5022
 9467SOL    HW240035   0.906   3.481  11.569  0.0248 -0.0765 -1.6052
 9468SOL     OW40036   3.274   0.942  14.369  0.5645  0.7114  0.4959
 9468SOL    HW140037   3.233   0.987  14.443  1.8456  0.2022  1.5124
 9468SOL    HW240038   3.332   1.013  14.339  0.2356 -0.4735 -2.9778
 9469SOL     OW40039   3.400   2.095   7.937  0.2818  0.1055  0.4117
 9469SOL    HW140040   3.360   2.060   7.858  0.3188  1.7819 -0.3414
 9469SOL    HW240041   3.329   2.073   7.998  1.3098 -0.1237  1.5320
 9470SOL     OW40042   3.912   1.314   1.596 -0.0040  0.3251  0.4702
 9470SOL    HW140043   3.869   1.392   1.633  1.9612  2.5397 -1.9078
 9470SOL    HW240044   3.982   1.301   1.661 -0.9992 -1.2377  1.2295
 9471SOL     OW40045   3.163   3.585  12.272 -0.0528  0.7217  0.1653
 9471SOL    HW140046   3.106   3.579  12.196  0.2782  0.4724 -0.0636
 9471SOL    HW240047   3.152   3.496  12.307 -0.7089 -0.1634 -2.3273
 9472SOL     OW40048   4.336   1.331   3.816  0.1928  0.1650 -0.2812
 9472SOL    HW140049   4.382   1.283   3.747  1.9074 -0.4176  1.2540
 9472SOL    HW240050   4.381   1.415   3.809  1.4547 -0.4139  0.8887
 9473SOL     OW40051   3.855   3.274   2.568 -0.2534 -0.1603  0.4857
 9473SOL    HW140052   3.787   3.310   2.511  0.3378  2.1146  1.2072
 9473SOL    HW240053   3.827   3.293   2.657 -0.9202  1.7743 -0.1401
 9474SOL     OW40054   4.370   0.818  12.107  0.5270 -0.0986 -0.0190
 9474SOL    HW140055   4.431   0.840  12.037  0.7878 -1.2395 -0.1480
 9474SOL    HW240056   4.305   0.755  12.074 -1.6384  2.2963 -0.3070
 9475SOL     OW40057   0.910   2.903   4.779  0.2240 -0.3085  0.5680
 9475SOL    HW140058   0.951   2.968   4.836 -0.3420  0.4972  0.0608
 9475SOL    HW240059   0.985   2.844   4.770  1.0458  0.4149  2.5454
 9476SOL     OW40060   1.446   0.873   2.001  0.7098 -0.0748  0.3074
 9476SOL    HW140061   1.402   0.956   2.018  0.1946 -0.4292  0.6872
 9476SOL    HW240062   1.376   0.809   1.993  1.1809 -0.2276 -2.6097
 9477SOL     OW40063   3.799   1.336   4.922 -0.6780 -0.3679 -0.4456
 9477SOL    HW140064   3.801   1.368   5.012 -0.2090 -1.0022 -0.2337
 9477SOL    HW240065   3.867   1.387   4.877  0.1398 -0.3231  0.8433
 9478SOL     OW40066   0.064   2.663   2.624  0.1393 -0.2328 -0.5568
 9478SOL    HW140067   0.066   2.745   2.575  0.9249  0.9987  1.5427
 9478SOL    HW240068   0.087   2.599   2.556 -0.3081 -1.0069  0.0257
 9479SOL     OW40069   0.845   2.379   3.270 -0.0887  0.3929  0.2661
 9479SOL    HW140070   0.868   2.286   3.264  1.5297  0.8209 -0.2172
 9479SOL    HW240071   0.784   2.378   3.196 -0.6111 -0.1529  0.7034
 9480SOL     OW40072   1.588   0.189   2.737  0.6592 -0.1712 -0.2290
 9480SOL    HW140073   1.511   0.139   2.763  1.1378  0.2250  1.9475
 9480SOL    HW240074   1.600   0.257   2.803 -0.5073 -0.6585  0.4736
 9481SOL     OW40075   2.437   2.421   2.875  0.5307  0.5190  0.3497
 9481SOL    HW140076   2.435   2.461   2.788 -0.6298  0.7055  0.4601
 9481SOL    HW240077   2.373   2.351   2.863 -1.6269  2.5242  0.3075
 9482SOL     OW40078   0.964   0.608  17.637 -0.2935  0.6383 -0.3478
 9482SOL    HW140079   0.870   0.599  17.622 -0.2357  0.8195 -0.7988
 9482SOL    HW240080   0.991   0.567  17.555  3.3506  0.4476  0.9380
 9483SOL     OW40081   2.421   1.519   3.256 -0.3649  0.1373  0.1691
 9483SOL    HW140082   2.440   1.598   3.206  2.2060 -0.0745  0.8042
 9483SOL    HW240083   2.476   1.526   3.334  0.3991  0.9915 -0.4570
 9484SOL     OW40084   3.585   1.703   5.130  0.0747 -0.3521 -0.2973
 9484SOL    HW140085   3.533   1.636   5.086 -0.2306  0.1100 -0.6383
 9484SOL    HW240086   3.617   1.654   5.206  1.3479  2.1068  0.7398
 9485SOL     OW40087   2.648   3.733   9.377 -0.4513 -0.4995 -0.5083
 9485SOL    HW140088   2.575   3.788   9.349 -1.0599  0.8297  3.6156
 9485SOL    HW240089   2.659   3.763   9.467 -2.9727 -0.0513 -0.3661
 9486SOL     OW40090   2.928   4.042   3.533 -0.1082 -0.0967 -0.3042
 9486SOL    HW140091   2.878   4.119   3.504  0.2815  0.3030  0.0861
 9486SOL    HW240092   2.857   3.979   3.543 -0.4957  0.4555  0.4810
 9487SOL     OW40093   3.363   1.142   4.945  0.6477 -0.0288  0.1508
 9487SOL    HW140094   3.309   1.076   4.902 -1.9433  1.3781  1.2572
 9487SOL    HW240095   3.448   1.105   4.922  1.7246  0.9016  2.5982
 9488SOL     OW40096   1.430   2.882   6.910 -1.0207  0.1635  0.2501
 9488SOL    HW140097   1.486   2.825   6.856 -2.1335  0.2874 -1.0411
 9488SOL    HW240098   1.346   2.842   6.886 -0.7098 -0.1057 -0.4015
 9489SOL     OW40099   0.599   2.172   5.587 -0.1192 -0.1869 -0.5926
 9489SOL    HW140100   0.600   2.176   5.491 -1.9100  0.2407 -0.5969
 9489SOL    HW240101   0.572   2.263   5.600  2.9916 -0.0949  4.8876
 9490SOL     OW40102   3.170   3.046   4.393  0.3140  0.2745  0.1494
 9490SOL    HW140103   3.131   3.098   4.323  3.8738  0.8623 -1.4205
 9490SOL    HW240104   3.250   3.097   4.406 -0.3716  0.7938  2.2431
 9491SOL     OW40105   4.181   1.001   9.009 -0.0374 -0.0711  0.1293
 9491SOL    HW140106   4.158   1.093   9.016 -0.0466 -0.2410  2.3224
 9491SOL    HW240107   4.099   0.954   9.024  0.6944 -1.3296  0.2305
 9492SOL     OW40108   3.437   4.038   9.466  0.3223  0.6653  0.4417
 9492SOL    HW140109   3.439   3.949   9.431 -1.5905  0.3791  1.0232
 9492SOL    HW240110   3.345   4.061   9.454  0.5934  1.2322 -0.5278
 9493SOL     OW40111   1.374   0.709  13.359  0.0416 -0.1167 -0.2134
 9493SOL    HW140112   1.463   0.736  13.381 -0.5859  0.8208  1.1306
 9493SOL    HW240113   1.318   0.759  13.418  1.6315 -1.4148  2.3929
 9494SOL     OW40114   2.199   2.657   7.816  0.0572  0.0723 -0.8637
 9494SOL    HW140115   2.215   2.680   7.725 -0.7932 -1.2970 -1.3690
 9494SOL    HW240116   2.283   2.686   7.852  1.1169 -2.1109 -1.5642
 9495SOL     OW40117   2.173   2.189   8.566 -0.1030  0.1361 -0.1424
 9495SOL    HW140118   2.200   2.259   8.506  1.3287  0.7129  1.1592
 9495SOL    HW240119   2.172   2.107   8.516 -1.4541  0.0447  0.0559
 9496SOL     OW40120   2.455   0.101   3.319  0.3836  0.2561  0.2644
 9496SOL    HW140121   2.394   0.147   3.262 -0.1928  0.5889  1.1523
 9496SOL    HW240122   2.540   0.108   3.276 -0.3861  1.8902 -0.9915
 9497SOL     OW40123   2.759   2.970   4.994 -0.8967  0.1287  0.1914
 9497SOL    HW140124   2.745   2.919   5.074 -1.8867  1.0533  0.6007
 9497SOL    HW240125   2.779   3.053   5.037  0.5020  1.4705 -3.0272
 9498SOL     OW40126   0.558   1.518   7.102 -0.0695 -0.3154 -0.2259
 9498SOL    HW140127   0.600   1.588   7.150 -1.8053  0.4869  0.1310
 9498SOL    HW240128   0.523   1.467   7.175 -3.3646 -0.9030 -2.1802
 9499SOL     OW40129   2.690   2.824  12.724 -0.2988 -0.9230  0.0525
 9499SOL    HW140130   2.776   2.781  12.726  1.5780  2.8207 -0.0952
 9499SOL    HW240131   2.635   2.746  12.726 -1.9890  0.2374 -2.3836
 9500SOL     OW40132   4.423   0.593   4.193  0.1457 -0.0967 -0.3397
 9500SOL    HW140133   4.449   0.512   4.150 -1.2565 -0.0115 -1.3244
 9500SOL    HW240134   4.503   0.633   4.227  0.1230 -0.0159 -0.3822
 9501SOL     OW40135   0.988   2.039  13.812  0.8055 -0.4190 -0.5035
 9501SOL    HW140136   0.947   2.117  13.848  0.5757 -1.0031  0.5087
 9501SOL    HW240137   1.076   2.075  13.803  1.0245 -0.7378  0.3654
 9502SOL     OW40138   4.108   2.001   1.986  0.0940  0.2736 -0.0905
 9502SOL    HW140139   4.023   2.008   2.030  1.0688  1.8679  1.5390
 9502SOL    HW240140   4.093   1.933   1.920  0.3298  0.2401 -0.1084
 9503SOL     OW40141   3.080   3.564   8.209  0.1859  0.6405 -0.0379
 9503SOL    HW140142   3.014   3.499   8.185 -0.2730  0.6393  1.1909
 9503SOL    HW240143   3.068   3.575   8.304 -0.6446 -0.7881  0.0292
 9504SOL     OW40144   2.157   3.327   3.157 -0.0235 -0.3584 -0.4186
 9504SOL    HW140145   2.152   3.416   3.122 -0.6244 -1.4072 -3.0291
 9504SOL    HW240146   2.251   3.313   3.143  0.0462 -1.9050  1.7014
 9505SOL     OW40147   3.548   1.981   2.368  0.0413 -0.2105  0.3278
 9505SOL    HW140148   3.543   2.066   2.323 -1.3291 -0.1389  0.6161
 9505SOL    HW240149   3.520   2.017   2.452  0.8530  1.2891 -0.0260
 9506SOL     OW40150   3.482   0.841   5.089  0.0983  0.0304  0.1133
 9506SOL    HW140151   3.410   0.779   5.076  0.0895  0.1168 -0.2673
 9506SOL    HW240152   3.530   0.830   5.007 -0.5911  1.1597 -0.4339
 9507SOL     OW40153   0.224   3.391   3.397  0.7561  0.3855 -0.2164
 9507SOL    HW140154   0.212   3.307   3.441  1.1169  0.7852  0.6601
 9507SOL    HW240155   0.319   3.405   3.398  1.2172 -2.8121  0.5190
 9508SOL     OW40156   2.334   3.203   5.836  0.3234  0.5495  0.1145
 9508SOL    HW140157   2.310   3.254   5.759 -1.1908  1.4552  1.1696
 9508SOL    HW240158   2.308   3.117   5.802  0.2108  0.4742  0.3912
 9509SOL     OW40159   0.031   3.248   3.260  0.7072  0.3994 -0.1996
 9509SOL    HW140160   0.030   3.178   3.326 -0.3233 -1.4676 -2.2183
 9509SOL    HW240161   0.100   3.306   3.294 -0.4874  2.9393 -2.1611
 9510SOL     OW40162   1.880   4.009  13.364  0.6308  0.4655 -0.1115
 9510SOL    HW140163   1.968   4.032  13.333  1.3109 -0.2475  1.2913
 9510SOL    HW240164   1.889   3.917  13.389  0.1739  1.0366  2.1743
 9511SOL     OW40165   4.316   3.154  14.923 -0.0886 -0.1265 -0.1027
 9511SOL    HW140166   4.382   3.104  14.970 -1.1095 -0.4562  0.9763
 9511SOL    HW240167   4.232   3.129  14.962 -0.1533  1.0544  0.5375
 9512SOL     OW40168   2.995   4.509   3.344  0.1403  0.1705  0.0412
 9512SOL    HW140169   2.993   4.453   3.422 -2.8852  0.0006 -0.1891
 9512SOL    HW240170   2.977   4.599   3.369  1.3977  0.2931  0.4994
 9513SOL     OW40171   2.962   1.444  15.337 -0.3848 -0.2954  0.1911
 9513SOL    HW140172   2.903   1.395  15.395  0.4124 -1.8658 -0.3410
 9513SOL    HW240173   2.983   1.373  15.276 -0.6780  0.5192 -0.8612
 9514SOL     OW40174   1.037   2.568   2.750 -0.2888 -0.1285  0.2919
 9514SOL    HW140175   1.102   2.637   2.766 -1.1203  1.2240 -2.0665
 9514SOL    HW240176   1.077   2.485   2.772 -1.8274 -0.8965  0.2394
 9515SOL     OW40177   2.469   0.692   3.067  0.2250  0.4449 -0.2134
 9515SOL    HW140178   2.491   0.603   3.094 -2.7439  0.3415  1.8361
 9515SOL    HW240179   2.553   0.725   3.100 -0.2630  1.4755 -0.0089
 9516SOL     OW40180   0.048   2.935   2.583  0.2732 -0.4587 -0.6802
 9516SOL    HW140181   0.047   2.973   2.671  0.7507  0.2388 -0.9757
 9516SOL    HW240182   4.715   2.995   2.547  0.6935  1.1121  1.1682
 9517SOL     OW40183   0.142   4.575   6.307  0.0350 -0.2456  0.5723
 9517SOL    HW140184   0.055   4.541   6.284  0.4370 -0.1147 -1.1420
 9517SOL    HW240185   0.126   4.668   6.324  0.7264  0.4988 -2.9175
 9518SOL     OW40186   4.543   2.690  13.417 -0.1769  0.5722 -0.1372
 9518SOL    HW140187   4.592   2.633  13.359 -0.9669 -0.1745 -0.0660
 9518SOL    HW240188   4.474   2.628  13.441  0.7082 -1.0072 -1.7514
 9519SOL     OW40189   2.446   0.922  12.757 -0.1376  0.1903 -0.2727
 9519SOL    HW140190   2.518   0.891  12.703  0.0846 -0.1901  0.2331
 9519SOL    HW240191   2.428   0.851  12.819  4.1800 -1.3953 -0.8756
 9520SOL     OW40192   2.756   1.665   6.461 -0.1886 -0.4970  0.6756
 9520SOL    HW140193   2.727   1.596   6.520 -0.0880 -1.1627 -0.0667
 9520SOL    HW240194   2.849   1.642   6.459  0.9744  3.9615  2.0191
 9521SOL     OW40195   0.529   1.238   1.064 -0.2177 -0.4654  0.2357
 9521SOL    HW140196   0.564   1.219   0.977 -0.3745  0.0845  0.0575
 9521SOL    HW240197   0.435   1.247   1.050 -0.6040 -1.6607  1.9064
 9522SOL     OW40198   4.706   3.500  16.995 -0.0891 -0.0404  0.0404
 9522SOL    HW140199   4.635   3.490  17.059 -0.0342 -0.5977  0.0167
 9522SOL    HW240200   4.661   3.478  16.914 -0.0223  0.0596 -0.0236
 9523SOL     OW40201   4.444   1.768   6.782 -0.3105  0.2559  0.3889
 9523SOL    HW140202   4.500   1.721   6.844 -0.1446  0.9866  0.7983
 9523SOL    HW240203   4.355   1.748   6.814 -0.4189  1.5674  0.9326
 9524SOL     OW40204   4.099   1.475   7.572  0.2865 -0.1540  0.1649
 9524SOL    HW140205   4.137   1.494   7.658  0.2752  0.1126  0.1092
 9524SOL    HW240206   4.096   1.565   7.540  0.7992 -1.0002 -2.2254
 9525SOL     OW40207   3.144   2.410   9.516  0.4612  0.0160  0.3523
 9525SOL    HW140208   3.228   2.407   9.470 -0.7050  1.1803 -1.8436
 9525SOL    HW240209   3.074   2.428   9.454  1.7302 -0.5031 -1.2371
 9526SOL     OW40210   3.280   3.852   0.515 -0.1820 -0.2843  0.4321
 9526SOL    HW140211   3.316   3.925   0.464  2.0662 -1.0132  0.9593
 9526SOL    HW240212   3.294   3.878   0.606  0.7636 -1.4006  0.5978
 9527SOL     OW40213   2.305   3.700   8.449  0.4678  0.5575  0.3541
 9527SOL    HW140214   2.334   3.619   8.490  2.3422  1.3528  0.5935
 9527SOL    HW240215   2.213   3.689   8.424  1.1222 -0.4542 -1.5544
 9528SOL     OW40216   3.741   3.077  16.972  0.3686  0.9484  0.5416
 9528SOL    HW140217   3.676   3.137  16.934 -1.9714 -2.0704 -0.2482
 9528SOL    HW240218   3.687   3.008  17.011 -0.0889  1.1163  0.2119
 9529SOL     OW40219   2.934   2.669   5.620  0.0999 -0.1148  0.0730
 9529SOL    HW140220   2.931   2.585   5.573 -0.3415 -0.5180  0.8160
 9529SOL    HW240221   2.889   2.729   5.561  0.1423 -2.8492 -2.7362
 9530SOL     OW40222   1.476   2.783   9.309 -0.8601 -0.0483 -0.3110
 9530SOL    HW140223   1.451   2.736   9.229 -2.2791  0.7451 -0.3463
 9530SOL    HW240224   1.398   2.833   9.334  0.2570  1.1553  0.7818
 9531SOL     OW40225   1.916   3.220   9.151 -0.0048  0.7521 -0.4815
 9531SOL    HW140226   1.854   3.192   9.083 -0.3902 -0.2934  0.3049
 9531SOL    HW240227   1.984   3.255   9.093 -0.9617  1.1740 -1.3465
 9532SOL     OW40228   0.878   2.832  14.704 -0.5026  0.2726  0.6600
 9532SOL    HW140229   0.825   2.887  14.645 -1.3646  1.0189  2.1146
 9532SOL    HW240230   0.819   2.836  14.779  0.3348 -2.5686  1.4598
 9533SOL     OW40231   0.967   4.055   1.012 -0.4966 -0.4749  0.7755
 9533SOL    HW140232   0.944   4.104   0.933 -0.6000 -1.0645  0.4381
 9533SOL    HW240233   1.036   4.003   0.971  0.2957  2.1529 -1.2721
 9534SOL     OW40234   2.366   4.403   9.088  0.1354  0.3293 -0.1052
 9534SOL    HW140235   2.366   4.336   9.019  0.8824 -0.2744  0.4883
 9534SOL    HW240236   2.375   4.352   9.168  2.6345 -0.3783 -0.8391
 9535SOL     OW40237   1.101   0.831  14.998  0.3535 -0.5281  0.0145
 9535SOL    HW140238   1.102   0.751  15.050 -0.2027 -1.4799 -1.4434
 9535SOL    HW240239   1.123   0.897  15.064 -1.7197  0.9579 -0.7953
 9536SOL     OW40240   3.982   4.504   7.317 -0.4596 -0.0952 -0.1848
 9536SOL    HW140241   4.065   4.496   7.270 -0.6742  0.0169 -0.5891
 9536SOL    HW240242   3.948   4.582   7.270 -1.7555 -1.5996 -1.7710
 9537SOL     OW40243   1.743   0.147   4.861  0.5561 -0.2072 -0.3570
 9537SOL    HW140244   1.816   0.085   4.852  0.6379  0.1922 -2.2787
 9537SOL    HW240245   1.734   0.147   4.956  0.2295 -1.7051 -0.3773
 9538SOL     OW40246   3.120   0.141   5.115 -0.1906  0.2532 -0.1223
 9538SOL    HW140247   3.200   0.176   5.076  1.8112 -2.3518  1.7283
 9538SOL    HW240248   3.114   0.062   5.062 -2.1956  0.2304  0.1151
 9539SOL     OW40249   2.453   1.277   7.431 -0.1122 -0.2789 -0.7015
 9539SOL    HW140250   2.461   1.209   7.498 -2.3616 -0.9396 -1.0785
 9539SOL    HW240251   2.487   1.223   7.359 -1.4291 -2.2245  0.1131
 9540SOL     OW40252   1.642   0.228   3.757 -0.0240 -0.4744 -0.0412
 9540SOL    HW140253   1.644   0.319   3.730  1.8251 -0.8366 -1.0484
 9540SOL    HW240254   1.586   0.190   3.689  0.4385  0.4326 -0.9127
 9541SOL     OW40255   2.759   1.035  13.162 -0.1580  0.1531 -0.4507
 9541SOL    HW140256   2.854   1.048  13.164 -0.1050 -0.1723 -0.7980
 9541SOL    HW240257   2.753   0.993  13.076  0.2742  1.8865 -1.3310
 9542SOL     OW40258   2.288   1.570  15.944 -1.1519 -0.6927 -0.0731
 9542SOL    HW140259   2.249   1.583  15.858 -1.8042  1.3111  0.5335
 9542SOL    HW240260   2.245   1.496  15.988 -1.5578 -1.2596 -1.4109
 9543SOL     OW40261   0.640   0.546   6.518  0.4416  0.0923  0.3704
 9543SOL    HW140262   0.711   0.516   6.461  0.4741 -0.6748  0.8201
 9543SOL    HW240263   0.686   0.569   6.599 -1.3998  0.8833  1.1944
 9544SOL     OW40264   2.085   0.169   0.641 -0.1255 -0.2879  0.0505
 9544SOL    HW140265   2.064   0.235   0.707  2.4061  0.6943 -0.1296
 9544SOL    HW240266   2.092   0.226   0.565  0.8322  0.3947  0.6491
 9545SOL     OW40267   3.926   3.274   7.717  0.1882  0.1778 -0.6030
 9545SOL    HW140268   3.905   3.185   7.688 -0.3837  0.2772 -0.4965
 9545SOL    HW240269   3.915   3.260   7.811 -1.6464  0.9837 -0.6983
 9546SOL     OW40270   4.638   1.290   2.658  0.9690  0.2786  0.1526
 9546SOL    HW140271   4.675   1.267   2.573 -0.2772 -2.7885  0.4651
 9546SOL    HW240272   4.646   1.211   2.710 -1.0228 -0.2135 -0.2935
 9547SOL     OW40273   3.356   2.090  16.523  0.4086  0.7058  0.0290
 9547SOL    HW140274   3.293   2.023  16.497 -0.1300  0.5253  1.8046
 9547SOL    HW240275   3.339   2.098  16.617  2.5285 -1.9195  0.6397
 9548SOL     OW40276   0.233   3.947   3.891  0.4414  0.3086  0.3625
 9548SOL    HW140277   0.310   3.990   3.929  0.0936 -0.2768  1.7089
 9548SOL    HW240278   0.235   3.950   3.795 -3.3655  0.0692  0.2903
 9549SOL     OW40279   1.637   1.283   9.411  0.4685  0.4438 -0.0234
 9549SOL    HW140280   1.671   1.204   9.369  0.3278 -1.1582  2.8995
 9549SOL    HW240281   1.639   1.341   9.335 -0.4459  1.6419  0.8790
 9550SOL     OW40282   1.734   1.789   5.651 -0.1522 -0.6252  0.2165
 9550SOL    HW140283   1.826   1.773   5.629  0.1504 -0.1545  1.1367
 9550SOL    HW240284   1.731   1.813   5.743  0.2618  1.3897 -0.2728
 9551SOL     OW40285   2.078   1.571  14.466 -0.1368  0.3792  0.0325
 9551SOL    HW140286   2.040   1.637  14.525  0.2457  1.7886 -1.2996
 9551SOL    HW240287   2.124   1.627  14.404  1.0791  0.4288  0.9749
 9552SOL     OW40288   4.317   0.404  11.930 -0.3631  0.1327 -0.6431
 9552SOL    HW140289   4.332   0.466  11.859  1.0029 -0.4834 -0.8900
 9552SOL    HW240290   4.254   0.458  11.979  1.2383  1.8613 -0.5060
 9553SOL     OW40291   1.418   2.471   8.651 -0.3711  0.5918 -0.4522
 9553SOL    HW140292   1.382   2.498   8.567  0.0651  1.2847 -0.4082
 9553SOL    HW240293   1.367   2.527   8.710 -1.5252  2.3355 -3.1441
 9554SOL     OW40294   0.358   4.128   6.826 -0.1920 -0.2196 -0.5888
 9554SOL    HW140295   0.387   4.194   6.764  0.0139  0.9415  0.7367
 9554SOL    HW240296   0.294   4.185   6.869  1.0051 -0.0007  0.9446
 9555SOL     OW40297   3.345   1.632   4.132  1.1864  0.5968  0.4532
 9555SOL    HW140298   3.412   1.662   4.192  2.9329 -0.9996 -0.6909
 9555SOL    HW240299   3.271   1.639   4.193 -0.1059  1.7634 -1.2407
 9556SOL     OW40300   2.549   0.508   4.374 -0.2068 -0.2107  0.6909
 9556SOL    HW140301   2.551   0.491   4.280  0.0608  1.1986  0.4332
 9556SOL    HW240302   2.521   0.599   4.367 -2.1027 -0.8658 -0.3155
 9557SOL     OW40303   2.438   3.220   1.103 -0.1213 -0.1597 -0.2822
 9557SOL    HW140304   2.373   3.207   1.172  1.3184 -0.4767  1.0290
 9557SOL    HW240305   2.514   3.190   1.152 -0.7167  0.8739  1.2636
 9558SOL     OW40306   0.602   1.645   3.771  0.0762  0.5285 -0.2221
 9558SOL    HW140307   0.617   1.551   3.782  1.1253  0.5239 -1.7454
 9558SOL    HW240308   0.514   1.639   3.736 -0.7746 -0.5235  2.0898
 9559SOL     OW40309   2.697   1.263   2.731 -0.3794  0.1621 -0.3475
 9559SOL    HW140310   2.636   1.260   2.805  0.2171 -1.7283  0.0655
 9559SOL    HW240311   2.775   1.249   2.785  0.0707 -0.0518 -1.0493
 9560SOL     OW40312   1.005   1.195   1.771 -0.3847  0.2543 -0.3885
 9560SOL    HW140313   1.057   1.126   1.813  0.7808 -0.5860 -3.2065
 9560SOL    HW240314   1.066   1.266   1.750  2.4590 -1.3709  2.3363
 9561SOL     OW40315   2.198   3.300   9.452  0.2179  0.7351 -0.1655
 9561SOL    HW140316   2.248   3.221   9.473 -1.2383 -0.2238 -0.2823
 9561SOL    HW240317   2.123   3.264   9.404 -0.7679  0.2882  1.7197
 9562SOL     OW40318   2.206   3.210   3.383 -0.1502 -0.0556 -0.5393
 9562SOL    HW140319   2.174   3.260   3.309 -1.5819 -0.0476  0.0856
 9562SOL    HW240320   2.223   3.123   3.347  0.8808  0.1022 -0.4342
 9563SOL     OW40321   0.016   3.893  16.814  0.1846 -0.0628 -0.2419
 9563SOL    HW140322   4.664   3.935  16.811  0.5318  0.7376  1.1497
 9563SOL    HW240323   0.016   3.846  16.897 -0.0114 -3.0925 -1.9608
 9564SOL     OW40324   4.031   2.118   5.800  0.6645 -0.3351 -0.1261
 9564SOL    HW140325   4.056   2.161   5.718 -1.1364  1.7647  0.4413
 9564SOL    HW240326   3.937   2.118   5.782  0.4160  0.4983  1.2156
 9565SOL     OW40327   2.316   4.055   9.577 -0.4145 -0.4009 -0.2755
 9565SOL    HW140328   2.261   4.118   9.623  2.5748  0.8115  1.6510
 9565SOL    HW240329   2.310   3.980   9.637 -0.1199  0.8044  1.2462
 9566SOL     OW40330   4.127   0.197   3.438  0.0361 -0.1812 -0.5913
 9566SOL    HW140331   4.187   0.271   3.429  0.0278 -0.4722 -3.2044
 9566SOL    HW240332   4.172   0.139   3.499 -0.9008 -0.0001  0.2621
 9567SOL     OW40333   1.311   0.740   4.588  0.2123 -0.0352  0.6063
 9567SOL    HW140334   1.247   0.715   4.655 -1.9985  2.2806 -0.6852
 9567SOL    HW240335   1.268   0.813   4.545 -0.3382 -1.7891 -1.7791
 9568SOL     OW40336   3.369   2.000   5.491  0.6083  0.0375 -0.7341
 9568SOL    HW140337   3.347   2.005   5.584  1.5680  0.2848 -0.5277
 9568SOL    HW240338   3.287   1.973   5.448  0.4254  0.0363 -0.3846
 9569SOL     OW40339   4.595   1.880   3.023 -0.1639 -0.2642  0.0503
 9569SOL    HW140340   4.512   1.832   3.018 -0.7109  0.7642 -0.7854
 9569SOL    HW240341   4.605   1.908   2.932 -0.7389 -1.1823 -0.3007
 9570SOL     OW40342   0.579   3.466   7.771 -0.3933  0.2299  0.2476
 9570SOL    HW140343   0.521   3.541   7.786 -0.5015 -0.0019  0.9803
 9570SOL    HW240344   0.657   3.493   7.818 -0.7740 -1.4336  1.8510
 9571SOL     OW40345   3.167   0.726   4.802 -0.0030  0.1320 -0.2301
 9571SOL    HW140346   3.181   0.817   4.828 -3.3979  0.3774  0.7124
 9571SOL    HW240347   3.232   0.683   4.858 -1.7577 -1.7439  0.3909
   4.73409   4.73409  17.73547
